<?xml version="1.0"?>
<VTKFile type="UnstructuredGrid" version="0.1" byte_order="LittleEndian">
<UnstructuredGrid>
<Piece NumberOfPoints="31898" NumberOfCells="11152">
<Points>
<DataArray type="Float64" NumberOfComponents="3" format="ascii">
-0.5 -0.5 0 -0.47620991077874902 -0.44978878706170539 0 -0.49999999999999473 -0.42132396840504388 0 -0.5 -0.5 0 -0.47160970827802529 -0.4793630013852106 0 -0.47620991077874902 -0.44978878706170539 0 -0.5 -0.5 0 -0.47160970827802529 -0.4793630013852106 0 -0.44860394795025399 -0.5 0 -0.47160970827802529 -0.4793630013852106 0 -0.44860394795025399 -0.5 0 -0.4490820238307246 -0.45820516232899983 0 -0.44860394795025399 -0.5 0 -0.4490820238307246 -0.45820516232899983 0 -0.42881687682924802 -0.47781464288736519 0 -0.4490820238307246 -0.45820516232899983 0 -0.45555437223955858 -0.42914059360647611 0 -0.4490820238307246 -0.45820516232899983 0 -0.45555437223955858 -0.42914059360647611 0 -0.43867285131603428 -0.4271457417558665 0 -0.4490820238307246 -0.45820516232899983 0 -0.43867285131603428 -0.4271457417558665 0 -0.4263356171060747 -0.44269880333887462 0 -0.47160970827802529 -0.4793630013852106 0 -0.4490820238307246 -0.45820516232899983 0 -0.47620991077874902 -0.44978878706170539 0 -0.4490820238307246 -0.45820516232899983 0 -0.47620991077874902 -0.44978878706170539 0 -0.45555437223955858 -0.42914059360647611 0 -0.47620991077874902 -0.44978878706170539 0 -0.48101336032419229 -0.41069999664450008 0 -0.45555437223955858 -0.42914059360647611 0 -0.47620991077874902 -0.44978878706170539 0 -0.49999999999999473 -0.42132396840504388 0 -0.48101336032419229 -0.41069999664450008 0 -0.49999999999999473 -0.42132396840504388 0 -0.48101336032419229 -0.41069999664450008 0 -0.5 -0.393886241813306 0 -0.49999999999999473 -0.42132396840504388 0 -0.48101336032419229 -0.41069999664450008 0 -0.5 -0.393886241813306 0 -0.47854472220918332 -0.38978458738689759 0 -0.48422759779560409 -0.37130120630367158 0 -0.5 -0.393886241813306 0 -0.5 -0.36644851522156802 0 -0.48422759779560409 -0.37130120630367158 0 -0.48101336032419229 -0.41069999664450008 0 -0.5 -0.393886241813306 0 -0.47854472220918332 -0.38978458738689759 0 -0.48101336032419229 -0.41069999664450008 0 -0.47854472220918332 -0.38978458738689759 0 -0.46202672064839212 -0.40007602488395211 0 -0.48101336032419229 -0.41069999664450008 0 -0.46202672064839212 -0.40007602488395211 0 -0.47854472220918332 -0.38978458738689759 0 -0.46725442735267431 -0.37660061361585562 0 -0.46202672064839212 -0.40007602488395211 0 -0.47854472220918332 -0.38978458738689759 0 -0.46725442735267431 -0.37660061361585562 0 -0.48422759779560409 -0.37130120630367158 0 -0.46725442735267431 -0.37660061361585562 0 -0.46202672064839212 -0.40007602488395211 0 -0.46725442735267431 -0.37660061361585562 0 -0.45645674801697989 -0.38644133236760531 0 -0.46202672064839212 -0.40007602488395211 0 -0.46725442735267431 -0.37660061361585562 0 -0.45645674801697989 -0.38644133236760531 0 -0.4540003998136638 -0.37455519391687309 0 -0.45645674801697989 -0.38644133236760531 0 -0.46202672064839212 -0.40007602488395211 0 -0.44257020456291563 -0.38918913383950271 0 -0.46202672064839212 -0.40007602488395211 0 -0.44257020456291563 -0.38918913383950271 0 -0.44727608925983742 -0.41095911152778891 0 -0.46202672064839212 -0.40007602488395211 0 -0.44257020456291563 -0.38918913383950271 0 -0.44257020456291563 -0.38918913383950271 0 -0.44727608925983742 -0.41095911152778891 0 -0.43479358559901082 -0.4041454901736512 0 -0.44257020456291563 -0.38918913383950271 0 -0.4540003998136638 -0.37455519391687309 0 -0.44172858264042247 -0.37082207246888088 0 -0.45645674801697989 -0.38644133236760531 0 -0.44257020456291563 -0.38918913383950271 0 -0.4540003998136638 -0.37455519391687309 0 -0.46202672064839212 -0.40007602488395211 0 -0.45555437223955858 -0.42914059360647611 0 -0.44727608925983742 -0.41095911152778891 0 -0.46202672064839212 -0.40007602488395211 0 -0.45555437223955858 -0.42914059360647611 0 -0.48101336032419229 -0.41069999664450008 0 -0.46202672064839212 -0.40007602488395211 0 -0.45555437223955858 -0.42914059360647611 0 -0.44727608925983742 -0.41095911152778891 0 -0.43867285131603428 -0.4271457417558665 0 -0.43676601469929588 -0.41441201227470881 0 -0.44727608925983742 -0.41095911152778891 0 -0.43676601469929588 -0.41441201227470881 0 -0.43479358559901082 -0.4041454901736512 0 -0.45555437223955858 -0.42914059360647611 0 -0.44727608925983742 -0.41095911152778891 0 -0.43867285131603428 -0.4271457417558665 0 -0.43867285131603428 -0.4271457417558665 0 -0.42681803064840879 -0.42717069814352421 0 -0.4263356171060747 -0.44269880333887462 0 -0.42681803064840879 -0.42717069814352421 0 -0.41531815884496182 -0.42985383783075998 0 -0.4263356171060747 -0.44269880333887462 0 -0.42681803064840879 -0.42717069814352421 0 -0.42624289495594048 -0.42089725947505818 0 -0.42083332353326591 -0.42146747131641099 0 -0.42681803064840879 -0.42717069814352421 0 -0.43096994786351572 -0.41951492446283251 0 -0.42624289495594048 -0.42089725947505818 0 -0.43867285131603428 -0.4271457417558665 0 -0.42681803064840879 -0.42717069814352421 0 -0.43096994786351572 -0.41951492446283251 0 -0.43867285131603428 -0.4271457417558665 0 -0.43676601469929588 -0.41441201227470881 0 -0.43096994786351572 -0.41951492446283251 0 -0.43676601469929588 -0.41441201227470881 0 -0.43096994786351572 -0.41951492446283251 0 -0.42907264086257813 -0.41311715872526122 0 -0.43676601469929588 -0.41441201227470881 0 -0.42907264086257813 -0.41311715872526122 0 -0.43479358559901082 -0.4041454901736512 0 -0.42907264086257813 -0.41311715872526122 0 -0.43479358559901082 -0.4041454901736512 0 -0.42460885511582858 -0.40417321677700252 0 -0.42907264086257813 -0.41311715872526122 0 -0.41997834854398469 -0.41180534796019508 0 -0.42907264086257813 -0.41311715872526122 0 -0.42635027777857132 -0.41543594397746519 0 -0.41997834854398469 -0.41180534796019508 0 -0.42907264086257813 -0.41311715872526122 0 -0.41997834854398469 -0.41180534796019508 0 -0.42460885511582858 -0.40417321677700252 0 -0.42635027777857132 -0.41543594397746519 0 -0.41997834854398469 -0.41180534796019508 0 -0.42635027777857132 -0.41543594397746519 0 -0.42083332353326591 -0.42146747131641099 0 -0.41997834854398469 -0.41180534796019508 0 -0.43096994786351572 -0.41951492446283251 0 -0.42624289495594048 -0.42089725947505818 0 -0.42635027777857132 -0.41543594397746519 0 -0.43096994786351572 -0.41951492446283251 0 -0.42907264086257813 -0.41311715872526122 0 -0.42635027777857132 -0.41543594397746519 0 -0.42624289495594048 -0.42089725947505818 0 -0.42635027777857132 -0.41543594397746519 0 -0.42083332353326591 -0.42146747131641099 0 -0.42083332353326591 -0.42146747131641099 0 -0.41997834854398469 -0.41180534796019508 0 -0.40992282953163789 -0.42011435591993562 0 -0.41997834854398469 -0.41180534796019508 0 -0.39756877647335259 -0.40857286797681719 0 -0.41997834854398469 -0.41180534796019508 0 -0.40992282953163789 -0.42011435591993562 0 -0.39756877647335259 -0.40857286797681719 0 -0.40992282953163789 -0.42011435591993562 0 -0.41531815884496182 -0.42985383783075998 0 -0.39591554026262499 -0.42887225451549271 0 -0.41531815884496182 -0.42985383783075998 0 -0.39591554026262499 -0.42887225451549271 0 -0.41160927495564159 -0.44339431233754628 0 -0.42083332353326591 -0.42146747131641099 0 -0.40992282953163789 -0.42011435591993562 0 -0.41531815884496182 -0.42985383783075998 0 -0.42681803064840879 -0.42717069814352421 0 -0.42083332353326591 -0.42146747131641099 0 -0.41531815884496182 -0.42985383783075998 0 -0.44257020456291563 -0.38918913383950271 0 -0.42311368847744002 -0.37830224279505142 0 -0.42594061475171041 -0.39368797999533162 0 -0.44257020456291563 -0.38918913383950271 0 -0.42311368847744002 -0.37830224279505142 0 -0.44172858264042247 -0.37082207246888088 0 -0.44257020456291563 -0.38918913383950271 0 -0.42311368847744002 -0.37830224279505142 0 -0.42311368847744002 -0.37830224279505142 0 -0.42594061475171041 -0.39368797999533162 0 -0.416587075656149 -0.38785930376960043 0 -0.44257020456291563 -0.38918913383950271 0 -0.42594061475171041 -0.39368797999533162 0 -0.43479358559901082 -0.4041454901736512 0 -0.42594061475171041 -0.39368797999533162 0 -0.43479358559901082 -0.4041454901736512 0 -0.42460885511582858 -0.40417321677700252 0 -0.41997834854398469 -0.41180534796019508 0 -0.41325908582185972 -0.39811010703057192 0 -0.39770572831670092 -0.39911486077581648 0 -0.41997834854398469 -0.41180534796019508 0 -0.39770572831670092 -0.39911486077581648 0 -0.42594061475171041 -0.39368797999533162 0 -0.42460885511582858 -0.40417321677700252 0 -0.41325908582185972 -0.39811010703057192 0 -0.41997834854398469 -0.41180534796019508 0 -0.42460885511582858 -0.40417321677700252 0 -0.41325908582185972 -0.39811010703057192 0 -0.42594061475171041 -0.39368797999533162 0 -0.41325908582185972 -0.39811010703057192 0 -0.416587075656149 -0.38785930376960043 0 -0.41325908582185972 -0.39811010703057192 0 -0.416587075656149 -0.38785930376960043 0 -0.40403491357358612 -0.38133688525744702 0 -0.42311368847744002 -0.37830224279505142 0 -0.40403491357358612 -0.38133688525744702 0 -0.40365717239196519 -0.36741535175059892 0 -0.42311368847744002 -0.37830224279505142 0 -0.416587075656149 -0.38785930376960043 0 -0.40403491357358612 -0.38133688525744702 0 -0.40403491357358612 -0.38133688525744702 0 -0.39190790742475001 -0.38540387676521748 0 -0.39770572831670092 -0.39911486077581648 0 -0.40403491357358612 -0.38133688525744702 0 -0.39190790742475001 -0.38540387676521748 0 -0.3904578797192948 -0.37473938743617019 0 -0.41325908582185972 -0.39811010703057192 0 -0.40403491357358612 -0.38133688525744702 0 -0.39770572831670092 -0.39911486077581648 0 -0.39770572831670092 -0.39911486077581648 0 -0.37543310808941849 -0.38642437359143528 0 -0.39770572831670092 -0.39911486077581648 0 -0.37515920440272033 -0.40534038799344108 0 -0.37543310808941849 -0.38642437359143528 0 -0.39770572831670092 -0.39911486077581648 0 -0.37515920440272033 -0.40534038799344108 0 -0.39756877647335259 -0.40857286797681719
[...]
<PointData Scalars="" Vectors="displacement," Tensors="">
<DataArray type="Float64" Name="displacement" NumberOfComponents="3" format="ascii">
-0.034997130060826526 -2.718910821088433e-07 0 -0.034119508316485199 -0.00018174901655991363 0 -0.034997665558808913 -7.4697751834817774e-07 0 -0.034997130060826526 -2.718910821088433e-07 0 -0.03347418195432518 -0.00012251451530503277 0 -0.034119508316485199 -0.00018174901655991363 0 -0.034997130060826526 -2.718910821088433e-07 0 -0.03347418195432518 -0.00012251451530503277 0 -0.031404216199268128 -2.7655472896681296e-07 0 -0.03347418195432518 -0.00012251451530503277 0 -0.031404216199268128 -2.7655472896681296e-07 0 -0.032861729221640754 6.5450310871409837e-05 0 -0.031404216199268128 -2.7655472896681296e-07 0 -0.032861729221640754 6.5450310871409837e-05 0 -0.031218204984612519 -6.7515547720150965e-05 0 -0.033388305982678501 0.00029928962979740585 0 -0.033444057421912345 0.00030889182812029331 0 -0.032861729221640754 6.5450310871409837e-05 0 -0.032323624955206173 0.0002978308392770475 0 -0.032273258142361587 9.432919532367867e-05 0 -0.032861729221640754 6.5450310871409837e-05 0 -0.032273258142361587 9.432919532367867e-05 0 -0.032296073574742214 1.4509613102945728e-05 0 -0.03347418195432518 -0.00012251451530503277 0 -0.032861729221640754 6.5450310871409837e-05 0 -0.034119508316485199 -0.00018174901655991363 0 -0.032861729221640754 6.5450310871409837e-05 0 -0.034119508316485199 -0.00018174901655991363 0 -0.034445179961199134 0.00026098574080945375 0 -0.034119508316485199 -0.00018174901655991363 0 -0.034883333088487463 -3.2613906838364838e-05 0 -0.034445179961199134 0.00026098574080945375 0 -0.034119508316485199 -0.00018174901655991363 0 -0.034997665558808913 -7.4697751834817774e-07 0 -0.034883333088487463 -3.2613906838364838e-05 0 -0.034999999102182648 1.233304502787474e-10 0 -0.034999152539792487 -3.9745172648041005e-07 0 -0.034999999293077323 -4.9075967175139535e-10 0 -0.034997006607250483 1.1735755399689877e-06 0 -0.03429015675743579 0.00017876742976281865 0 -0.034999999293077323 -4.9075967175139535e-10 0 -0.034998976450758938 -7.4270774501592807e-07 0 -0.034999616651226091 -1.1709317043146887e-06 0 -0.034999999293077323 -4.9075967175139535e-10 0 -0.034999997603512717 -1.7166789505052628e-09 0 -0.034999616651226091 -1.1709317043146887e-06 0 -0.034999152539792487 -3.9745172648041005e-07 0 -0.034999999293077323 -4.9075967175139535e-10 0 -0.034998976450758938 -7.4270774501592807e-07 0 -0.034999152539792487 -3.9745172648041005e-07 0 -0.034998976450758938 -7.4270774501592807e-07 0 -0.034997887535128114 -6.8978218193279207e-07 0 -0.03429015675743579 0.00017876742976281865 0 -0.033497925115773083 0.00033546453601576075 0 -0.034998976450758938 -7.4270774501592807e-07 0 -0.034998688445233496 -9.6083194594734465e-07 0 -0.034997887535128114 -6.8978218193279207e-07 0 -0.034998976450758938 -7.4270774501592807e-07 0 -0.034998688445233496 -9.6083194594734465e-07 0 -0.034999616651226091 -1.1709317043146887e-06 0 -0.033950891665130337 0.00021133937126623017 0 -0.033497925115773083 0.00033546453601576075 0 -0.033363693754126816 0.00015079618338244437 0 -0.033122053946743342 0.00042571748563386119 0 -0.032783184569119841 0.00028796547235656413 0 -0.033363693754126816 0.00015079618338244437 0 -0.033122053946743342 0.00042571748563386119 0 -0.033420823884104195 0.00049010493714018728 0 -0.033122053946743342 0.00042571748563386119 0 -0.032783184569119841 0.00028796547235656413 0 -0.033056793274313712 0.0007711164810578901 0 -0.03206650578137351 0.00034387317299815337 0 -0.031967102531863856 0.00018162808444378061 0 -0.032163432411710796 0.00021009517940953759 0 -0.033497925115773083 0.00033546453601576075 0 -0.032530211349754631 0.00072062852042806811 0 -0.031967102531863856 0.00018162808444378061 0 -0.032163432411710796 0.00021009517940953759 0 -0.032111016573643493 0.00010981563441530265 0 -0.033056793274313712 0.0007711164810578901 0 -0.033420823884104195 0.00049010493714018728 0 -0.033512346907597863 0.00079234180910846188 0 -0.033122053946743342 0.00042571748563386119 0 -0.033056793274313712 0.0007711164810578901 0 -0.033420823884104195 0.00049010493714018728 0 -0.03206650578137351 0.00034387317299815337 0 -0.032323624955206173 0.0002978308392770475 0 -0.032163432411710796 0.00021009517940953759 0 -0.033497925115773083 0.00033546453601576075 0 -0.033444057421912345 0.00030889182812029331 0 -0.034883333088487463 -3.2613906838364838e-05 0 -0.035005451976469773 0.00023442868808767106 0 -0.034445179961199134 0.00026098574080945375 0 -0.032163432411710796 0.00021009517940953759 0 -0.032273258142361587 9.432919532367867e-05 0 -0.032206302583404185 0.00011835909947766582 0 -0.032163432411710796 0.00021009517940953759 0 -0.032206302583404185 0.00011835909947766582 0 -0.032111016573643493 0.00010981563441530265 0 -0.032323624955206173 0.0002978308392770475 0 -0.032163432411710796 0.00021009517940953759 0 -0.032273258142361587 9.432919532367867e-05 0 -0.032273258142361587 9.432919532367867e-05 0 -0.032274661664060934 6.9930412390781669e-05 0 -0.032296073574742214 1.4509613102945728e-05 0 -0.032274661664060934 6.9930412390781669e-05 0 -0.032277912855177018 0.00013422989252053304 0 -0.032296073574742214 1.4509613102945728e-05 0 -0.032274661664060934 6.9930412390781669e-05 0 -0.032262278632203198 7.5469108804886899e-05 0 -0.032271658355353304 9.7281790178531757e-05 0 -0.032274661664060934 6.9930412390781669e-05 0 -0.032250614415817322 8.0890750322367355e-05 0 -0.032262278632203198 7.5469108804886899e-05 0 -0.032273258142361587 9.432919532367867e-05 0 -0.032274661664060934 6.9930412390781669e-05 0 -0.032250614415817322 8.0890750322367355e-05 0 -0.032273258142361587 9.432919532367867e-05 0 -0.032206302583404185 0.00011835909947766582 0 -0.032250614415817322 8.0890750322367355e-05 0 -0.032206302583404185 0.00011835909947766582 0 -0.032250614415817322 8.0890750322367355e-05 0 -0.032217107271482061 6.9864556924553858e-05 0 -0.032206302583404185 0.00011835909947766582 0 -0.032217107271482061 6.9864556924553858e-05 0 -0.032111016573643493 0.00010981563441530265 0 -0.032217107271482061 6.9864556924553858e-05 0 -0.032111016573643493 0.00010981563441530265 0 -0.032112237246795343 1.0964101718644697e-05 0 -0.026835277045403887 0.0013913504921015663 0 -0.026791650291458545 0.0014161124670253556 0 -0.032217107271482061 6.9864556924553858e-05 0 -0.032250160532763555 6.2898996115774562e-05 0 -0.032228478032885768 2.3836877463312296e-05 0 -0.032217107271482061 6.9864556924553858e-05 0 -0.032197090613714105 -3.8727999743278963e-05 0 -0.032112237246795343 1.0964101718644697e-05 0 -0.026833313549435505 0.001430601174056984 0 -0.026791650291458545 0.0014161124670253556 0 -0.032250160532763555 6.2898996115774562e-05 0 -0.032271658355353304 9.7281790178531757e-05 0 -0.032298793834121611 0.00010325670290840316 0 -0.032250614415817322 8.0890750322367355e-05 0 -0.032262278632203198 7.5469108804886899e-05 0 -0.032250160532763555 6.2898996115774562e-05 0 -0.032250614415817322 8.0890750322367355e-05 0 -0.032217107271482061 6.9864556924553858e-05 0 -0.032250160532763555 6.2898996115774562e-05 0 -0.032262278632203198 7.5469108804886899e-05 0 -0.032250160532763555 6.2898996115774562e-05 0 -0.032271658355353304 9.7281790178531757e-05 0 -0.032271658355353304 9.7281790178531757e-05 0 -0.032298793834121611 0.00010325670290840316 0 -0.032283849411458745 0.00014884750883052686 0 -0.026791650291458545 0.0014161124670253556 0 -0.02646177775011696 0.0012099014113600124 0 -0.032298793834121611 0.00010325670290840316 0 -0.032283849411458745 0.00014884750883052686 0 -0.032320493881994358 0.00020142284391874059 0 -0.032283849411458745 0.00014884750883052686 0 -0.032277912855177018 0.00013422989252053304 0 -0.032257745362797192 0.00021300747286147405 0 -0.032277912855177018 0.00013422989252053304 0 -0.032257745362797192 0.00021300747286147405 0 -0.032231414706481575 0.00020815309222127802 0 -0.032271658355353304 9.7281790178531757e-05 0 -0.032283849411458745 0.00014884750883052686 0 -0.032277912855177018 0.00013422989252053304 0 -0.032274661664060934 6.9930412390781669e-05 0 -0.032271658355353304 9.7281790178531757e-05 0 -0.032277912855177018 0.00013422989252053304 0 -0.031967102531863856 0.00018162808444378061 0 -0.031834960606623608 -5.8053728775383251e-06 0 -0.03200197639147561 2.2499945143674848e-05 0 -0.033056793274313712 0.0007711164810578901 0 -0.033327474930438868 0.0012437856741925456 0 -0.033512346907597863 0.00079234180910846188 0 -0.032530211349754631 0.00072062852042806811 0 -0.031602814037954244 0.0011990001854656311 0 -0.031834960606623608 -5.8053728775383251e-06 0 -0.03200197639147561 2.2499945143674848e-05 0 -0.031934535163227966 -7.5432789883991784e-05 0 -0.031967102531863856 0.00018162808444378061 0 -0.03200197639147561 2.2499945143674848e-05 0 -0.032111016573643493 0.00010981563441530265 0 -0.03200197639147561 2.2499945143674848e-05 0 -0.032111016573643493 0.00010981563441530265 0 -0.032112237246795343 1.0964101718644697e-05 0 -0.032197090613714105 -3.8727999743278963e-05 0 -0.032046026694316374 -0.00011145790168484932 0 -0.032056456481934233 -0.00028377365003733708 0 -0.026791650291458545 0.0014161124670253556 0 -0.026599391545394317 0.0015493061789525297 0 -0.03200197639147561 2.2499945143674848e-05 0 -0.032112237246795343 1.0964101718644697e-05 0 -0.032046026694316374 -0.00011145790168484932 0 -0.032197090613714105 -3.8727999743278963e-05 0 -0.032112237246795343 1.0964101718644697e-05 0 -0.032046026694316374 -0.00011145790168484932 0 -0.03200197639147561 2.2499945143674848e-05 0 -0.032046026694316374 -0.00011145790168484932 0 -0.031934535163227966 -7.5432789883991784e-05 0 -0.032046026694316374 -0.00011145790168484932 0 -0.031934535163227966 -7.5432789883991784e-05 0 -0.031855265461753296 -0.0002087242925670675 0 -0.031834960606623608 -5.8053728775383251e-06 0 -0.031855265461753296 -0.0002087242925670675 0 -0.031708800803635487 -0.0002112977390496542 0 -0.031834960606623608 -5.8053728775383251e-06 0 -0.031934535163227966 -7.5432789883991784e-05 0 -0.031855265461753296 -0.0002087242925670675 0 -0.031855265461753296 -0.0002087242925670675 0 -0.031896192687517692 -0.00035456547615385288 0 -0.032056456481934233 -0.00028377365003733708 0 -0.031855265461753296 -0.0002087242925670675 0 -0.031896192687517692 -0.00035456547615385288 0 -0.031765584727015996 -0.0003729244070744087 0 -0.032046026694316374 -0.00011145790168484932 0 -0.031855265461753296 -0.0002087242925670675 0 -0.032056456481934233 -0.00028377365003733708 0 -0.026599391545394317 0.0015493061789525297 0 -0.025983335328671444 0.001669062997588161 0 -0.026201317364376822 0.0013916104056419692 0 -0.026233817936717661 0.001272132132085439 0 -0.026133941447524595 0.0012737346671639579 0 -0.026201317364376822 0.0013916104056419692 0 -0.026233817936717661 0.001272132132085439 0 -0.026251384785369418 0.001390852346869175 0 -0.025837947915708835 0.0010501795760738649 0 -0.025983335328671444 0.001669062997588161 0 -0.031905516432523984 -0.00055519935491049176 0 -0.031765584727015996 -0.0003729244070744087 0 -0.031692721806011452 -0.00055612473343354032 0 -0.031896192687517692 -0.00035456547615385288 0 -0.031905516432523984 -0.00055519935491049176 0 -0.031765584727015996 -0.0003729244070744087 0 -0.025983335328671444 0.001669062997588161 0 -0.027442393344752184 0.0016948565692097629 0 -0.031896192687517692 -0.00035456547615385288 0 -0.032056456481934233 -0.00028377365003733708 0 -0.031905516432523984 -0.00055519935491049176 0 -0.026269030332389115 0.0015097643406357928 0 -0.026201317364376822 0.0013916104056419692 0 -0.026251384785369418 0.001390852346869175 0 -0.032283849411458745 0.00014884750883052686 0 -0.032257745362797192 0.00021300747286147405 0 -0.032320493881994358 0.00020142284391874059 0 -0.032320863692277123 0.00027231100734714949 0 -0.032257745362797192 0.00021300747286147405 0 -0.032320493881994358 0.00020142284391874059 0 -0.025837947915708835 0.0010501795760738649 0 -0.02646177775011696 0.0012099014113600124 0 -0.032320863692277123 0.00027231100734714949 0 -0.032257745362797192 0.00021300747286147405 0 -0.032237673340747723 0.00027234384302651544 0 -0.032257745362797192 0.00021300747286147405 0 -0.032217493875310123 0.00022919335279884197 0 -0.032237673340747723 0.00027234384302651544 0 -0.032217493875310123 0.00022919335279884197 0 -0.032167622793049272 0.00027469954608834804 0 -0.032237673340747723 0.00027234384302651544 0 -0.032257745362797192 0.00021300747286147405 0 -0.032217493875310123 0.00022919335279884197 0 -0.032231414706481575 0.00020815309222127802 0 -0.032217493875310123 0.00022919335279884197 0 -0.032197126181954042 0.00021279336684084017 0 -0.032231414706481575 0.00020815309222127802 0 -0.031715069483156874 0.00064406316201123857 0 -0.029712840220946481 0.00074604014859199624 0 -0.031083987590562384 0.00022482486100282607 0 -0.023675231591657648 0.0017423221092140347 0 -0.023904575613579188 0.00088764466989082569 0 -0.024902141691878418 0.0010869113409329579 0 -0.027625306893780267 -0.0004893965008834234 0 -0.027233638485416649 -0.00022917864253529721 0 -0.027625306893780267 -0.0004893965008834234 0 -0.027628317122547385 -0.00048924456046318943 0 -0.027625306893780267 -0.0004893965008834234 0 -0.027273991599800932 0.00017590026320305849 0 -0.032217493875310123 0.00022919335279884197 0 -0.032197126181954042 0.00021279336684084017 0 -0.032181466184722597 0.00023959575524010551 0 -0.032217493875310123 0.00022919335279884197 0 -0.032181466184722597 0.00023959575524010551 0 -0.032167622793049272 0.00027469954608834804 0 -0.027273991599800932 0.00017590026320305849 0 -0.026892808136484869 0.00079773822766232225 0 -0.023904575613579188 0.00088764466989082569 0 -0.024485349881660255 0.00057718609326442606 0 -0.024135174547485334 2.2778776375386869e-05 0 -0.024485349881660255 0.00057718609326442606 0 -0.024902141691878418 0.0010869113409329579 0 -0.024818648825772661 8.3434139993345544e-06 0 -0.024902141691878418 0.0010869113409329579 0 -0.025525271103544165 -0.00012755905447303019 0 -0.024818648825772661 8.3434139993345544e-06 0 -0.024485349881660255 0.00057718609326442606 0 -0.024818648825772661 8.3434139993345544e-06 0 -0.024135174547485334 2.2778776375386869e-05 0 -0.023904575613579188 0.00088764466989082569 0 -0.024485349881660255 0.00057718609326442606 0 -0.024902141691878418 0.0010869113409329579 0 -0.026667945652989716 -4.7522989091931421e-07 0 -0.027233638485416649 -0.00022917864253529721 0 -0.026663356081606367 1.8321091175710465e-06 0 -0.024902141691878418 0.0010869113409329579 0 -0.025525271103544165 -0.00012755905447303019 0 -0.02666974211946371 2.843331464459264e-06 0 -0.029712840220946481 0.00074604014859199624 0 -0.028698741916549763 -4.9120573897903436e-07 0 -0.029712840220946481 0.00074604014859199624 0 -0.031083987590562384 0.00022482486100282607 0 -0.028698741916549763 -4.9120573897903436e-07 0 -0.031083987590562384 0.00022482486100282607 0 -0.028698741916549763 -4.9120573897903436e-07 0 -0.031218204984612519 -6.7515547720150965e-05 0 -0.031404216199268128 -2.7655472896681296e-07 0 -0.028698741916549763 -4.9120573897903436e-07 0 -0.031218204984612519 -6.7515547720150965e-05 0 -0.031083987590562384 0.00022482486100282607 0 -0.031218204984612519 -6.7515547720150965e-05 0 -0.031961098147540737 2.8074260137148665e-05 0 -0.032861729221640754 6.5450310871409837e-05 0 -0.031218204984612519 -6.7515547720150965e-05 0 -0.031961098147540737 2.8074260137148665e-05 0 -0.032861729221640754 6.5450310871409837e-05 0 -0.031961098147540737 2.8074260137148665e-05 0 -0.032296073574742214 1.4509613102945728e-05 0 -0.031961098147540737 2.8074260137148665e-05 0 -0.032296073574742214 1.4509613102945728e-05 0 -0.031979276909833564 0.0001561675896305329 0 -0.032296073574742214 1.4509613102945728e-05 0 -0.032231414706481575 0.00020815309222127802 0 -0.031979276909833564 0.0001561675896305329 0 -0.032277912855177018 0.00013422989252053304 0 -0.032296073574742214 1.4509613102945728e-05 0 -0.032231414706481575 0.00020815309222127802 0 -0.031755545817149483 0.00061806115924296966 0 -0.032231414706481575 0.00020815309222127802 0 -0.03177684791913632 0.0005119190212039725 0 -0.032231414706481575 0.00020815309222127802 0 -0.03177684791913632 0.0005119190212039725 0 -0.031979276909833564 0.0001561675896305329 0 -0.027625306893780267 -0.0004893965008834234 0 -0.027956186862080512 -0.00058710240563743135 0 -0.031083987590562384 0.00022482486100282607 0 -0.03177684791913632 0.0005119190212039725 0 -0.031979276909833564 0.0001561675896305329 0 -0.031715069483156874 0.00064406316201123857 0 -0.031083987590562384 0.00022482486100282607 0 -0.03177684791913632 0.0005119190212039725 0 -0.031083987590562384 0.00022482486100282607 0 -0.031961098147540737 2.8074260137148665e-05 0 -0.031979276909833564 0.0001561675896305329 0 -0.03091740808508664 0.0013463524047334983 0 -0.030367103376545936 0.0020664507168649889 0 -0.034803217003138411 -0.00032820036029984758 0 -0.034846412635790892 -0.0013650627215355674 0 -0.034291656371049098 -0.00052905643926845632 0 -0.034947006505577215 0.00010379949027937049 0 -0.034972662852044263 7.9396213317519705e-05 0 -0.034980353983430683 0.00013704749471922682 0 -0.034947006505577215 0.00010379949027937049 0 -0.034943293827622485 0.00015229577801454395 0 -0.034980353983430683 0.00013704749471922682 0 -0.034947006505577215 0.00010379949027937049 0 -0.034915151090451194 0.00014740258480145244 0 -0.034943293827622485 0.00015229577801454395 0 -0.034947006505577215 0.00010379949027937049 0 -0.034950585746716056 5.4390089062058888e-05 0 -0.034952198562591283 5.1359242828871866e-05 0 -0.034947006505577215 0.00010379949027937049 0 -0.034950585746716056 5.4390089062058888e-05 0 -0.034972662852044263 7.9396213317519705e-05 0 -0.03091740808508664 0.0013463524047334983 0 -0.031098669149564755 0.0011641697086336761 0 -0.034950585746716056 5.4390089062058888e-05 0 -0.034972662852044263 7.9396213317519705e-05 0 -0.034907847870144261 4.7179650739614839e-05 0 -0.034803217003138411 -0.00032820036029984758 0 -0.034907847870144261 4.7179650739614839e-05 0 -0.034350935724799116 3.0786606091795106e-05 0 -0.034907847870144261 4.7179650739614839e-05 0 -0.034999916256294776 1.0179182676733228e-07 0 -0.034965406404760105 3.102635060059494e-05 0 -0.034907847870144261 4.7179650739614839e-05 0 -0.034999916256294776 1.0179182676733228e-07 0 -0.034748603386606555 5.8675328711857995e-05 0 -0.034999916256294776 1.0179182676733228e-07 0 -0.034965406404760105 3.102635060059494e-05 0 -0.034999940207972084 -4.9883329500139711e-09 0 -0.034950585746716056 5.4390089062058888e-05 0 -0.034907847870144261 4.7179650739614839e-05 0 -0.034965406404760105 3.102635060059494e-05 0 -0.034950585746716056 5.4390089062058888e-05 0 -0.034965406404760105 3.102635060059494e-05 0 -0.034952198562591283 5.1359242828871866e-05 0 -0.034952198562591283 5.1359242828871866e-05 0 -0.034967716477793176 8.9316924663467752e-06 0 -0.034936989758373393 3.9532172869994063e-05 0 -0.034965406404760105 3.102635060059494e-05 0 -0.034952198562591283 5.1359242828871866e-05 0 -0.034967716477793176 8.9316924663467752e-06 0 -0.034999940207972084 -4.9883329500139711e-09 0 -0.034967716477793176 8.9316924663467752e-06 0 -0.034999932292361563 8.5063026923400105e-09 0 -0.034965406404760105 3.102635060059494e-05 0 -0.034999940207972084 -4.9883329500139711e-09 0 -0.034967716477793176 8.9316924663467752e-06 0 -0.034967716477793176 8.9316924663467752e-06 0 -0.034999932292361563 8.5063026923400105e-09 0 -0.034951567679559398 -9.0928355746655384e-06 0 -0.034951567679559398 -9.0928355746655384e-06 0 -0.034936989758373393 3.9532172869994063e-05 0 -0.034854188440905806 3.4287417924506809e-05 0 -0.034967716477793176 8.9316924663467752e-06 0 -0.034951567679559398 -9.0928355746655384e-06 0 -0.034936989758373393 3.9532172869994063e-05 0 -0.034936989758373393 3.9532172869994063e-05 0 -0.034879158406638022 9.2639388639353696e-05 0 -0.034854188440905806 3.4287417924506809e-05 0 -0.034879158406638022 9.2639388639353696e-05 0 -0.034875599687732593 0.00014