<?xml version="1.0"?>
<VTKFile type="UnstructuredGrid" version="0.1" byte_order="LittleEndian">
<UnstructuredGrid>
<Piece NumberOfPoints="31898" NumberOfCells="11152">
<Points>
<DataArray type="Float64" NumberOfComponents="3" format="ascii">
-0.5 -0.5 0 -0.47620991077874902 -0.44978878706170539 0 -0.49999999999999473 -0.42132396840504388 0 -0.5 -0.5 0 -0.47160970827802529 -0.4793630013852106 0 -0.47620991077874902 -0.44978878706170539 0 -0.5 -0.5 0 -0.47160970827802529 -0.4793630013852106 0 -0.44860394795025399 -0.5 0 -0.47160970827802529 -0.4793630013852106 0 -0.44860394795025399 -0.5 0 -0.4490820238307246 -0.45820516232899983 0 -0.44860394795025399 -0.5 0 -0.4490820238307246 -0.45820516232899983 0 -0.42881687682924802 -0.47781464288736519 0 -0.4490820238307246 -0.45820516232899983 0 -0.45555437223955858 -0.42914059360647611 0 -0.4490820238307246 -0.45820516232899983 0 -0.45555437223955858 -0.42914059360647611 0 -0.43867285131603428 -0.4271457417558665 0 -0.4490820238307246 -0.45820516232899983 0 -0.43867285131603428 -0.4271457417558665 0 -0.4263356171060747 -0.44269880333887462 0 -0.47160970827802529 -0.4793630013852106 0 -0.4490820238307246 -0.45820516232899983 0 -0.47620991077874902 -0.44978878706170539 0 -0.4490820238307246 -0.45820516232899983 0 -0.47620991077874902 -0.44978878706170539 0 -0.45555437223955858 -0.42914059360647611 0 -0.47620991077874902 -0.44978878706170539 0 -0.48101336032419229 -0.41069999664450008 0 -0.45555437223955858 -0.42914059360647611 0 -0.47620991077874902 -0.44978878706170539 0 -0.49999999999999473 -0.42132396840504388 0 -0.48101336032419229 -0.41069999664450008 0 -0.49999999999999473 -0.42132396840504388 0 -0.48101336032419229 -0.41069999664450008 0 -0.5 -0.393886241813306 0 -0.49999999999999473 -0.42132396840504388 0 -0.48101336032419229 -0.41069999664450008 0 -0.5 -0.393886241813306 0 -0.47854472220918332 -0.38978458738689759 0 -0.48422759779560409 -0.37130120630367158 0 -0.5 -0.393886241813306 0 -0.5 -0.36644851522156802 0 -0.48422759779560409 -0.37130120630367158 0 -0.48101336032419229 -0.41069999664450008 0 -0.5 -0.393886241813306 0 -0.47854472220918332 -0.38978458738689759 0 -0.48101336032419229 -0.41069999664450008 0 -0.47854472220918332 -0.38978458738689759 0 -0.46202672064839212 -0.40007602488395211 0 -0.48101336032419229 -0.41069999664450008 0 -0.46202672064839212 -0.40007602488395211 0 -0.47854472220918332 -0.38978458738689759 0 -0.46725442735267431 -0.37660061361585562 0 -0.46202672064839212 -0.40007602488395211 0 -0.47854472220918332 -0.38978458738689759 0 -0.46725442735267431 -0.37660061361585562 0 -0.48422759779560409 -0.37130120630367158 0 -0.46725442735267431 -0.37660061361585562 0 -0.46202672064839212 -0.40007602488395211 0 -0.46725442735267431 -0.37660061361585562 0 -0.45645674801697989 -0.38644133236760531 0 -0.46202672064839212 -0.40007602488395211 0 -0.46725442735267431 -0.37660061361585562 0 -0.45645674801697989 -0.38644133236760531 0 -0.4540003998136638 -0.37455519391687309 0 -0.45645674801697989 -0.38644133236760531 0 -0.46202672064839212 -0.40007602488395211 0 -0.44257020456291563 -0.38918913383950271 0 -0.46202672064839212 -0.40007602488395211 0 -0.44257020456291563 -0.38918913383950271 0 -0.44727608925983742 -0.41095911152778891 0 -0.46202672064839212 -0.40007602488395211 0 -0.44257020456291563 -0.38918913383950271 0 -0.44257020456291563 -0.38918913383950271 0 -0.44727608925983742 -0.41095911152778891 0 -0.43479358559901082 -0.4041454901736512 0 -0.44257020456291563 -0.38918913383950271 0 -0.4540003998136638 -0.37455519391687309 0 -0.44172858264042247 -0.37082207246888088 0 -0.45645674801697989 -0.38644133236760531 0 -0.44257020456291563 -0.38918913383950271 0 -0.4540003998136638 -0.37455519391687309 0 -0.46202672064839212 -0.40007602488395211 0 -0.45555437223955858 -0.42914059360647611 0 -0.44727608925983742 -0.41095911152778891 0 -0.46202672064839212 -0.40007602488395211 0 -0.45555437223955858 -0.42914059360647611 0 -0.48101336032419229 -0.41069999664450008 0 -0.46202672064839212 -0.40007602488395211 0 -0.45555437223955858 -0.42914059360647611 0 -0.44727608925983742 -0.41095911152778891 0 -0.43867285131603428 -0.4271457417558665 0 -0.43676601469929588 -0.41441201227470881 0 -0.44727608925983742 -0.41095911152778891 0 -0.43676601469929588 -0.41441201227470881 0 -0.43479358559901082 -0.4041454901736512 0 -0.45555437223955858 -0.42914059360647611 0 -0.44727608925983742 -0.41095911152778891 0 -0.43867285131603428 -0.4271457417558665 0 -0.43867285131603428 -0.4271457417558665 0 -0.42681803064840879 -0.42717069814352421 0 -0.4263356171060747 -0.44269880333887462 0 -0.42681803064840879 -0.42717069814352421 0 -0.41531815884496182 -0.42985383783075998 0 -0.4263356171060747 -0.44269880333887462 0 -0.42681803064840879 -0.42717069814352421 0 -0.42624289495594048 -0.42089725947505818 0 -0.42083332353326591 -0.42146747131641099 0 -0.42681803064840879 -0.42717069814352421 0 -0.43096994786351572 -0.41951492446283251 0 -0.42624289495594048 -0.42089725947505818 0 -0.43867285131603428 -0.4271457417558665 0 -0.42681803064840879 -0.42717069814352421 0 -0.43096994786351572 -0.41951492446283251 0 -0.43867285131603428 -0.4271457417558665 0 -0.43676601469929588 -0.41441201227470881 0 -0.43096994786351572 -0.41951492446283251 0 -0.43676601469929588 -0.41441201227470881 0 -0.43096994786351572 -0.41951492446283251 0 -0.42907264086257813 -0.41311715872526122 0 -0.43676601469929588 -0.41441201227470881 0 -0.42907264086257813 -0.41311715872526122 0 -0.43479358559901082 -0.4041454901736512 0 -0.42907264086257813 -0.41311715872526122 0 -0.43479358559901082 -0.4041454901736512 0 -0.42460885511582858 -0.40417321677700252 0 -0.42907264086257813 -0.41311715872526122 0 -0.41997834854398469 -0.41180534796019508 0 -0.42907264086257813 -0.41311715872526122 0 -0.42635027777857132 -0.41543594397746519 0 -0.41997834854398469 -0.41180534796019508 0 -0.42907264086257813 -0.41311715872526122 0 -0.41997834854398469 -0.41180534796019508 0 -0.42460885511582858 -0.40417321677700252 0 -0.42635027777857132 -0.41543594397746519 0 -0.41997834854398469 -0.41180534796019508 0 -0.42635027777857132 -0.41543594397746519 0 -0.42083332353326591 -0.42146747131641099 0 -0.41997834854398469 -0.41180534796019508 0 -0.43096994786351572 -0.41951492446283251 0 -0.42624289495594048 -0.42089725947505818 0 -0.42635027777857132 -0.41543594397746519 0 -0.43096994786351572 -0.41951492446283251 0 -0.42907264086257813 -0.41311715872526122 0 -0.42635027777857132 -0.41543594397746519 0 -0.42624289495594048 -0.42089725947505818 0 -0.42635027777857132 -0.41543594397746519 0 -0.42083332353326591 -0.42146747131641099 0 -0.42083332353326591 -0.42146747131641099 0 -0.41997834854398469 -0.41180534796019508 0 -0.40992282953163789 -0.42011435591993562 0 -0.41997834854398469 -0.41180534796019508 0 -0.39756877647335259 -0.40857286797681719 0 -0.41997834854398469 -0.41180534796019508 0 -0.40992282953163789 -0.42011435591993562 0 -0.39756877647335259 -0.40857286797681719 0 -0.40992282953163789 -0.42011435591993562 0 -0.41531815884496182 -0.42985383783075998 0 -0.39591554026262499 -0.42887225451549271 0 -0.41531815884496182 -0.42985383783075998 0 -0.39591554026262499 -0.42887225451549271 0 -0.41160927495564159 -0.44339431233754628 0 -0.42083332353326591 -0.42146747131641099 0 -0.40992282953163789 -0.42011435591993562 0 -0.41531815884496182 -0.42985383783075998 0 -0.42681803064840879 -0.42717069814352421 0 -0.42083332353326591 -0.42146747131641099 0 -0.41531815884496182 -0.42985383783075998 0 -0.44257020456291563 -0.38918913383950271 0 -0.42311368847744002 -0.37830224279505142 0 -0.42594061475171041 -0.39368797999533162 0 -0.44257020456291563 -0.38918913383950271 0 -0.42311368847744002 -0.37830224279505142 0 -0.44172858264042247 -0.37082207246888088 0 -0.44257020456291563 -0.38918913383950271 0 -0.42311368847744002 -0.37830224279505142 0 -0.42311368847744002 -0.37830224279505142 0 -0.42594061475171041 -0.39368797999533162 0 -0.416587075656149 -0.38785930376960043 0 -0.44257020456291563 -0.38918913383950271 0 -0.42594061475171041 -0.39368797999533162 0 -0.43479358559901082 -0.4041454901736512 0 -0.42594061475171041 -0.39368797999533162 0 -0.43479358559901082 -0.4041454901736512 0 -0.42460885511582858 -0.40417321677700252 0 -0.41997834854398469 -0.41180534796019508 0 -0.41325908582185972 -0.39811010703057192 0 -0.39770572831670092 -0.39911486077581648 0 -0.41997834854398469 -0.41180534796019508 0 -0.39770572831670092 -0.39911486077581648 0 -0.42594061475171041 -0.39368797999533162 0 -0.42460885511582858 -0.40417321677700252 0 -0.41325908582185972 -0.39811010703057192 0 -0.41997834854398469 -0.41180534796019508 0 -0.42460885511582858 -0.40417321677700252 0 -0.41325908582185972 -0.39811010703057192 0 -0.42594061475171041 -0.39368797999533162 0 -0.41325908582185972 -0.39811010703057192 0 -0.416587075656149 -0.38785930376960043 0 -0.41325908582185972 -0.39811010703057192 0 -0.416587075656149 -0.38785930376960043 0 -0.40403491357358612 -0.38133688525744702 0 -0.42311368847744002 -0.37830224279505142 0 -0.40403491357358612 -0.38133688525744702 0 -0.40365717239196519 -0.36741535175059892 0 -0.42311368847744002 -0.37830224279505142 0 -0.416587075656149 -0.38785930376960043 0 -0.40403491357358612 -0.38133688525744702 0 -0.40403491357358612 -0.38133688525744702 0 -0.39190790742475001 -0.38540387676521748 0 -0.39770572831670092 -0.39911486077581648 0 -0.40403491357358612 -0.38133688525744702 0 -0.39190790742475001 -0.38540387676521748 0 -0.3904578797192948 -0.37473938743617019 0 -0.41325908582185972 -0.39811010703057192 0 -0.40403491357358612 -0.38133688525744702 0 -0.39770572831670092 -0.39911486077581648 0 -0.39770572831670092 -0.39911486077581648 0 -0.37543310808941849 -0.38642437359143528 0 -0.39770572831670092 -0.39911486077581648 0 -0.37515920440272033 -0.40534038799344108 0 -0.37543310808941849 -0.38642437359143528 0 -0.39770572831670092 -0.39911486077581648 0 -0.37515920440272033 -0.40534038799344108 0 -0.39756877647335259 -0.40857286797681719
[...]
<PointData Scalars="" Vectors="displacement," Tensors="">
<DataArray type="Float64" Name="displacement" NumberOfComponents="3" format="ascii">
-0.034997505172161887 -0.03499803773978602 0 -0.03263465232724011 -0.034386297907755416 0 -0.029503240000778891 -0.034995346110646898 0 -0.034997505172161887 -0.03499803773978602 0 -0.034450665299137054 -0.033734474498146018 0 -0.03263465232724011 -0.034386297907755416 0 -0.034997505172161887 -0.03499803773978602 0 -0.034450665299137054 -0.033734474498146018 0 -0.034998036574151042 -0.031405335323060099 0 -0.034450665299137054 -0.033734474498146018 0 -0.034998036574151042 -0.031405335323060099 0 -0.034676171238728397 -0.033281152012259646 0 -0.034998036574151042 -0.031405335323060099 0 -0.034676171238728397 -0.033281152012259646 0 -0.03512067044598377 -0.030753950352605763 0 -0.032536429974984793 -0.033977182847649424 0 -0.032128087089430012 -0.033961496261356278 0 -0.034676171238728397 -0.033281152012259646 0 -0.037881458342764115 -0.033729089578110716 0 -0.038127339401015703 -0.03208649609103998 0 -0.034676171238728397 -0.033281152012259646 0 -0.038127339401015703 -0.03208649609103998 0 -0.03675586693876997 -0.030861061952808647 0 -0.034450665299137054 -0.033734474498146018 0 -0.034676171238728397 -0.033281152012259646 0 -0.03263465232724011 -0.034386297907755416 0 -0.034676171238728397 -0.033281152012259646 0 -0.03263465232724011 -0.034386297907755416 0 -0.031834389056873129 -0.035007783261187989 0 -0.03263465232724011 -0.034386297907755416 0 -0.03035232411693084 -0.03463626058650969 0 -0.031834389056873129 -0.035007783261187989 0 -0.03263465232724011 -0.034386297907755416 0 -0.029503240000778891 -0.034995346110646898 0 -0.03035232411693084 -0.03463626058650969 0 -0.029492671719889497 -0.034999997545027611 0 -0.028747830768524853 -0.036323047559740862 0 -0.027572039287709248 -0.034999996154519333 0 -0.029493108334057983 -0.034998753065750211 0 -0.029718104555308072 -0.034481514865439336 0 -0.027572039287709248 -0.034999996154519333 0 -0.027286300451705804 -0.036494647401828922 0 -0.025992793962456139 -0.036098960478895957 0 -0.027572039287709248 -0.034999996154519333 0 -0.02565139769137123 -0.034999995577034614 0 -0.025992793962456139 -0.036098960478895957 0 -0.028747830768524853 -0.036323047559740862 0 -0.027572039287709248 -0.034999996154519333 0 -0.027286300451705804 -0.036494647401828922 0 -0.028747830768524853 -0.036323047559740862 0 -0.027286300451705804 -0.036494647401828922 0 -0.028006506316500611 -0.037643308090366236 0 -0.029718104555308072 -0.034481514865439336 0 -0.030087454041788007 -0.03364647059624621 0 -0.027286300451705804 -0.036494647401828922 0 -0.02636526829856347 -0.037281231879309991 0 -0.028006506316500611 -0.037643308090366236 0 -0.027286300451705804 -0.036494647401828922 0 -0.02636526829856347 -0.037281231879309991 0 -0.025992793962456139 -0.036098960478895957 0 -0.027394712639914401 -0.034169815990706003 0 -0.030087454041788007 -0.03364647059624621 0 -0.023624848224401696 -0.03696805000810436 0 -0.023495060158085224 -0.036869036673540967 0 -0.023351386808026543 -0.03692942930668134 0 -0.023624848224401696 -0.03696805000810436 0 -0.023495060158085224 -0.036869036673540967 0 -0.023595111657112807 -0.036858863593241163 0 -0.023495060158085224 -0.036869036673540967 0 -0.023351386808026543 -0.03692942930668134 0 -0.023448167493797079 -0.036720837998414163 0 -0.040319747561284668 -0.034033450390474305 0 -0.041085350168192813 -0.03240957286125612 0 -0.039448173652027775 -0.032849439913918921 0 -0.030087454041788007 -0.03364647059624621 0 -0.029723525234360025 -0.032668365744321241 0 -0.041085350168192813 -0.03240957286125612 0 -0.039448173652027775 -0.032849439913918921 0 -0.039965735116853432 -0.031808901551201071 0 -0.023448167493797079 -0.036720837998414163 0 -0.023595111657112807 -0.036858863593241163 0 -0.023622399157701261 -0.036712835885902288 0 -0.023495060158085224 -0.036869036673540967 0 -0.023448167493797079 -0.036720837998414163 0 -0.023595111657112807 -0.036858863593241163 0 -0.040319747561284668 -0.034033450390474305 0 -0.037881458342764115 -0.033729089578110716 0 -0.039448173652027775 -0.032849439913918921 0 -0.030087454041788007 -0.03364647059624621 0 -0.032128087089430012 -0.033961496261356278 0 -0.03035232411693084 -0.03463626058650969 0 -0.030189010444132303 -0.03517214965830847 0 -0.031834389056873129 -0.035007783261187989 0 -0.039448173652027775 -0.032849439913918921 0 -0.038127339401015703 -0.03208649609103998 0 -0.039177177375061378 -0.031951882793876098 0 -0.039448173652027775 -0.032849439913918921 0 -0.039177177375061378 -0.031951882793876098 0 -0.039965735116853432 -0.031808901551201071 0 -0.037881458342764115 -0.033729089578110716 0 -0.039448173652027775 -0.032849439913918921 0 -0.038127339401015703 -0.03208649609103998 0 -0.038127339401015703 -0.03208649609103998 0 -0.038099074159287767 -0.031018139795458022 0 -0.03675586693876997 -0.030861061952808647 0 -0.038099074159287767 -0.031018139795458022 0 -0.03786206943268744 -0.030033548625217212 0 -0.03675586693876997 -0.030861061952808647 0 -0.038099074159287767 -0.031018139795458022 0 -0.038631531445704748 -0.031001997066251157 0 -0.038575672056110344 -0.030522066187219248 0 -0.038099074159287767 -0.031018139795458022 0 -0.038756007841713853 -0.031436135577731561 0 -0.038631531445704748 -0.031001997066251157 0 -0.038127339401015703 -0.03208649609103998 0 -0.038099074159287767 -0.031018139795458022 0 -0.038756007841713853 -0.031436135577731561 0 -0.038127339401015703 -0.03208649609103998 0 -0.039177177375061378 -0.031951882793876098 0 -0.038756007841713853 -0.031436135577731561 0 -0.039177177375061378 -0.031951882793876098 0 -0.038756007841713853 -0.031436135577731561 0 -0.039310052882732628 -0.031321705385331529 0 -0.039177177375061378 -0.031951882793876098 0 -0.039310052882732628 -0.031321705385331529 0 -0.039965735116853432 -0.031808901551201071 0 -0.039310052882732628 -0.031321705385331529 0 -0.039965735116853432 -0.031808901551201071 0 -0.039955652234630198 -0.03105671868141912 0 -0.035196715615934647 -0.027237335829179202 0 -0.035173349354028514 -0.027122648454509388 0 -0.039310052882732628 -0.031321705385331529 0 -0.039096477016876074 -0.031035356968370762 0 -0.039468334228471257 -0.030386029323742805 0 -0.039310052882732628 -0.031321705385331529 0 -0.039439184750177464 -0.030734773416356092 0 -0.039955652234630198 -0.03105671868141912 0 -0.035184958427129681 -0.027160103717661633 0 -0.035173349354028514 -0.027122648454509388 0 -0.039096477016876074 -0.031035356968370762 0 -0.038575672056110344 -0.030522066187219248 0 -0.039404353126436989 -0.030449813432151425 0 -0.038756007841713853 -0.031436135577731561 0 -0.038631531445704748 -0.031001997066251157 0 -0.039096477016876074 -0.031035356968370762 0 -0.038756007841713853 -0.031436135577731561 0 -0.039310052882732628 -0.031321705385331529 0 -0.039096477016876074 -0.031035356968370762 0 -0.038631531445704748 -0.031001997066251157 0 -0.039096477016876074 -0.031035356968370762 0 -0.038575672056110344 -0.030522066187219248 0 -0.038575672056110344 -0.030522066187219248 0 -0.039404353126436989 -0.030449813432151425 0 -0.038687196425246047 -0.029590388449364031 0 -0.035173349354028514 -0.027122648454509388 0 -0.035452588928655174 -0.026631870583111797 0 -0.039404353126436989 -0.030449813432151425 0 -0.038687196425246047 -0.029590388449364031 0 -0.039647117721399699 -0.028555573455753786 0 -0.038687196425246047 -0.029590388449364031 0 -0.03786206943268744 -0.030033548625217212 0 -0.037958068035527474 -0.028423221730913623 0 -0.03786206943268744 -0.030033548625217212 0 -0.037958068035527474 -0.028423221730913623 0 -0.036762901506563979 -0.029731736665238772 0 -0.038575672056110344 -0.030522066187219248 0 -0.038687196425246047 -0.029590388449364031 0 -0.03786206943268744 -0.030033548625217212 0 -0.038099074159287767 -0.031018139795458022 0 -0.038575672056110344 -0.030522066187219248 0 -0.03786206943268744 -0.030033548625217212 0 -0.041085350168192813 -0.03240957286125612 0 -0.041704818356117869 -0.030967884508007259 0 -0.04069048529589183 -0.03116804376337072 0 -0.023448167493797079 -0.036720837998414163 0 -0.023536586687061545 -0.03648182607298163 0 -0.023622399157701261 -0.036712835885902288 0 -0.029723525234360025 -0.032668365744321241 0 -0.029185603388002995 -0.031351033166611121 0 -0.041704818356117869 -0.030967884508007259 0 -0.04069048529589183 -0.03116804376337072 0 -0.041052652159201897 -0.030529215740092958 0 -0.041085350168192813 -0.03240957286125612 0 -0.04069048529589183 -0.03116804376337072 0 -0.039965735116853432 -0.031808901551201071 0 -0.04069048529589183 -0.03116804376337072 0 -0.039965735116853432 -0.031808901551201071 0 -0.039955652234630198 -0.03105671868141912 0 -0.039439184750177464 -0.030734773416356092 0 -0.040372973580049064 -0.030301363176209829 0 -0.040323495160897893 -0.029300540617651229 0 -0.035173349354028514 -0.027122648454509388 0 -0.034717790103179512 -0.026480332658411279 0 -0.04069048529589183 -0.03116804376337072 0 -0.039955652234630198 -0.03105671868141912 0 -0.040372973580049064 -0.030301363176209829 0 -0.039439184750177464 -0.030734773416356092 0 -0.039955652234630198 -0.03105671868141912 0 -0.040372973580049064 -0.030301363176209829 0 -0.04069048529589183 -0.03116804376337072 0 -0.040372973580049064 -0.030301363176209829 0 -0.041052652159201897 -0.030529215740092958 0 -0.040372973580049064 -0.030301363176209829 0 -0.041052652159201897 -0.030529215740092958 0 -0.041438430103152291 -0.029691367299634699 0 -0.041704818356117869 -0.030967884508007259 0 -0.041438430103152291 -0.029691367299634699 0 -0.042360301165585548 -0.02966765193673699 0 -0.041704818356117869 -0.030967884508007259 0 -0.041052652159201897 -0.030529215740092958 0 -0.041438430103152291 -0.029691367299634699 0 -0.041438430103152291 -0.029691367299634699 0 -0.041163658821036606 -0.028966936461592065 0 -0.040323495160897893 -0.029300540617651229 0 -0.041438430103152291 -0.029691367299634699 0 -0.041163658821036606 -0.028966936461592065 0 -0.041781749010956222 -0.028887407922761992 0 -0.040372973580049064 -0.030301363176209829 0 -0.041438430103152291 -0.029691367299634699 0 -0.040323495160897893 -0.029300540617651229 0 -0.034717790103179512 -0.026480332658411279 0 -0.033772104974525534 -0.025818479771799099 0 -0.035173525401424308 -0.026124652130696049 0 -0.034948952066104558 -0.025311164792018372 0 -0.035628874331573426 -0.02532063217653778 0 -0.035173525401424308 -0.026124652130696049 0 -0.034948952066104558 -0.025311164792018372 0 -0.034833384900081719 -0.026119928183716886 0 -0.035567144143320011 -0.02591491325934301 0 -0.033772104974525534 -0.025818479771799099 0 -0.041101412767774029 -0.028005148138471565 0 -0.041781749010956222 -0.028887407922761992 0 -0.042087436169601346 -0.028039561367635919 0 -0.041163658821036606 -0.028966936461592065 0 -0.041101412767774029 -0.028005148138471565 0 -0.041781749010956222 -0.028887407922761992 0 -0.033772104974525534 -0.025818479771799099 0 -0.031338396606983246 -0.026541409215665508 0 -0.041163658821036606 -0.028966936461592065 0 -0.040323495160897893 -0.029300540617651229 0 -0.041101412767774029 -0.028005148138471565 0 -0.034718285062337415 -0.026927490159240453 0 -0.035173525401424308 -0.026124652130696049 0 -0.034833384900081719 -0.026119928183716886 0 -0.038687196425246047 -0.029590388449364031 0 -0.037958068035527474 -0.028423221730913623 0 -0.039647117721399699 -0.028555573455753786 0 -0.039909673965237098 -0.026695787167302528 0 -0.037958068035527474 -0.028423221730913623 0 -0.039647117721399699 -0.028555573455753786 0 -0.035567144143320011 -0.02591491325934301 0 -0.035452588928655174 -0.026631870583111797 0 -0.039909673965237098 -0.026695787167302528 0 -0.037958068035527474 -0.028423221730913623 0 -0.03741257469317439 -0.026665154116023337 0 -0.037958068035527474 -0.028423221730913623 0 -0.036496084578604891 -0.028182591167247788 0 -0.03741257469317439 -0.026665154116023337 0 -0.036496084578604891 -0.028182591167247788 0 -0.034920477519651875 -0.026629809370302803 0 -0.03741257469317439 -0.026665154116023337 0 -0.037958068035527474 -0.028423221730913623 0 -0.036496084578604891 -0.028182591167247788 0 -0.036762901506563979 -0.029731736665238772 0 -0.036496084578604891 -0.028182591167247788 0 -0.035585933520156925 -0.029091922621596978 0 -0.036762901506563979 -0.029731736665238772 0 -0.036081577745189997 -0.029263281259246897 0 -0.035611262798214249 -0.028148800224081925 0 -0.035601546044628493 -0.029591184176621019 0 -0.037916047746555624 -0.028222286832087249 0 -0.037643349115464055 -0.027214317381348364 0 -0.036470022947361326 -0.027445072998591419 0 -0.036363547958330522 -0.027078763874364899 0 -0.035713080934524966 -0.02692898044535888 0 -0.036363547958330522 -0.027078763874364899 0 -0.036364366033639857 -0.02708409227909267 0 -0.036363547958330522 -0.027078763874364899 0 -0.036400919571151907 -0.026756949994944042 0 -0.036496084578604891 -0.028182591167247788 0 -0.035585933520156925 -0.029091922621596978 0 -0.035253514397520808 -0.027859480605637327 0 -0.036496084578604891 -0.028182591167247788 0 -0.035253514397520808 -0.027859480605637327 0 -0.034920477519651875 -0.026629809370302803 0 -0.036400919571151907 -0.026756949994944042 0 -0.036406463484783262 -0.026289084172776148 0 -0.037643349115464055 -0.027214317381348364 0 -0.03695965521428142 -0.026849757390591793 0 -0.037370546549524854 -0.026200127397207833 0 -0.03695965521428142 -0.026849757390591793 0 -0.036470022947361326 -0.027445072998591419 0 -0.03656862494380185 -0.026185460097380597 0 -0.036470022947361326 -0.027445072998591419 0 -0.035710768946899479 -0.026066918265724989 0 -0.03656862494380185 -0.026185460097380597 0 -0.03695965521428142 -0.026849757390591793 0 -0.03656862494380185 -0.026185460097380597 0 -0.037370546549524854 -0.026200127397207833 0 -0.037643349115464055 -0.027214317381348364 0 -0.03695965521428142 -0.026849757390591793 0 -0.036470022947361326 -0.027445072998591419 0 -0.035001429031263423 -0.026666617752401204 0 -0.035713080934524966 -0.02692898044535888 0 -0.035000002138600876 -0.026666264120950151 0 -0.036470022947361326 -0.027445072998591419 0 -0.035710768946899479 -0.026066918265724989 0 -0.034999889663667801 -0.02666747990329707 0 -0.035611262798214249 -0.028148800224081925 0 -0.034999135198087623 -0.028699034468164703 0 -0.035611262798214249 -0.028148800224081925 0 -0.035601546044628493 -0.029591184176621019 0 -0.034999135198087623 -0.028699034468164703 0 -0.035601546044628493 -0.029591184176621019 0 -0.034999135198087623 -0.028699034468164703 0 -0.03512067044598377 -0.030753950352605763 0 -0.034998036574151042 -0.031405335323060099 0 -0.034999135198087623 -0.028699034468164703 0 -0.03512067044598377 -0.030753950352605763 0 -0.035601546044628493 -0.029591184176621019 0 -0.03512067044598377 -0.030753950352605763 0 -0.035553068373588202 -0.030819214059350508 0 -0.034676171238728397 -0.033281152012259646 0 -0.03512067044598377 -0.030753950352605763 0 -0.035553068373588202 -0.030819214059350508 0 -0.034676171238728397 -0.033281152012259646 0 -0.035553068373588202 -0.030819214059350508 0 -0.03675586693876997 -0.030861061952808647 0 -0.035553068373588202 -0.030819214059350508 0 -0.03675586693876997 -0.030861061952808647 0 -0.036103773623371062 -0.030050159113275521 0 -0.03675586693876997 -0.030861061952808647 0 -0.036762901506563979 -0.029731736665238772 0 -0.036103773623371062 -0.030050159113275521 0 -0.03786206943268744 -0.030033548625217212 0 -0.03675586693876997 -0.030861061952808647 0 -0.036762901506563979 -0.029731736665238772 0 -0.036042597839018871 -0.029264332455176567 0 -0.036762901506563979 -0.029731736665238772 0 -0.0360765504636988 -0.029404533471897126 0 -0.036762901506563979 -0.029731736665238772 0 -0.0360765504636988 -0.029404533471897126 0 -0.036103773623371062 -0.030050159113275521 0 -0.036363547958330522 -0.027078763874364899 0 -0.036439444697387025 -0.027181315726692176 0 -0.035601546044628493 -0.029591184176621019 0 -0.0360765504636988 -0.029404533471897126 0 -0.036103773623371062 -0.030050159113275521 0 -0.036081577745189997 -0.029263281259246897 0 -0.035601546044628493 -0.029591184176621019 0 -0.0360765504636988 -0.029404533471897126 0 -0.035601546044628493 -0.029591184176621019 0 -0.035553068373588202 -0.030819214059350508 0 -0.036103773623371062 -0.030050159113275521 0 -0.015269684792403735 -0.034103679422936427 0 -0.014998287470054682 -0.032179973105358001 0 -0.017685118283999726 -0.037876945439029641 0 -0.017589745675318489 -0.040011607534484073 0 -0.016458413873889344 -0.038394237359586948 0 -0.01925545136172006 -0.038248918052883184 0 -0.017961737886531416 -0.037820460362932587 0 -0.017856118842368367 -0.039280133389213392 0 -0.01925545136172006 -0.038248918052883184 0 -0.019187348980610471 -0.039518063984967711 0 -0.017856118842368367 -0.039280133389213392 0 -0.01925545136172006 -0.038248918052883184 0 -0.020437037412427868 -0.038792691185875514 0 -0.019187348980610471 -0.039518063984967711 0 -0.01925545136172006 -0.038248918052883184 0 -0.018757086701928244 -0.03712776462514783 0 -0.019786171917626948 -0.036998146384243355 0 -0.01925545136172006 -0.038248918052883184 0 -0.018757086701928244 -0.03712776462514783 0 -0.017961737886531416 -0.037820460362932587 0 -0.015269684792403735 -0.034103679422936427 0 -0.015373758456017714 -0.03452227727340576 0 -0.018757086701928244 -0.03712776462514783 0 -0.017961737886531416 -0.037820460362932587 0 -0.017981595286592583 -0.036302871524983182 0 -0.017685118283999726 -0.037876945439029641 0 -0.017981595286592583 -0.036302871524983182 0 -0.016196039094526684 -0.036712720634753594 0 -0.017981595286592583 -0.036302871524983182 0 -0.017968732086929777 -0.034999709539089915 0 -0.019163533942448779 -0.036034887840769518 0 -0.017981595286592583 -0.036302871524983182 0 -0.017968732086929777 -0.034999709539089915 0 -0.016814008011325952 -0.035693935516791578 0 -0.017968732086929777 -0.034999709539089915 0 -0.019163533942448779 -0.036034887840769518 0 -0.019889420448332511 -0.034999970623063342 0 -0.018757086701928244 -0.03712776462514783 0 -0.017981595286592583 -0.036302871524983182 0 -0.019163533942448779 -0.036034887840769518 0 -0.018757086701928244 -0.03712776462514783 0 -0.019163533942448779 -0.036034887840769518 0 -0.019786171917626948 -0.036998146384243355 0 -0.019786171917626948 -0.036998146384243355 0 -0.020405715925583403 -0.035926828968554307 0 -0.02084445417415123 -0.036838765613302703 0 -0.019163533942448779 -0.036034887840769518 0 -0.019786171917626948 -0.036998146384243355 0 -0.020405715925583403 -0.035926828968554307 0 -0.019889420448332511 -0.034999970623063342 0 -0.020405715925583403 -0.035926828968554307 0 -0.021810029970893353 -0.034999949858524095 0 -0.019163533942448779 -0.036034887840769518 0 -0.019889420448332511 -0.034999970623063342 0 -0.020405715925583403 -0.035926828968554307 0 -0.020405715925583403 -0.035926828968554307 0 -0.021810029970893353 -0.034999949858524095 0 -0.021384733796549676 -0.036139927164495177 0 -0.021384733796549676 -0.036139927164495177 0 -0.02084445417415123 -0.036838765613302703 0 -0.02191827950454019 -0.036803078485031747 0 -0.020405715925583403 -0.035926828968554307 0 -0.021384733796549676 -0.036139927164495177 0 -0.02084445417415123 -0.036838765613302703 0 -0.02084445417415123 -0.036838765613302703 0 -0.021369848196250599 -0.037497420813277532 0 -0.02191827950454019 -0.036803078485031747 0 -0.021369848196250599 -0.037497420813277532 0 -0.021155821775743201 -0.038379428034953388 0 -0.021838694848187738 -0.03803440320347206 0 -0.021369848196250599 -0.037497420813277532 0 -0.02045532874542489 -0.037786856730823798 0 -0.021155821775743201 -0.038379428034953388 0 -0.02084445417415123 -0.036838765613302703 0 -0.021369848196250599 -0.037497420813277532 0 -0.02045532874542489 -0.037786856730823798 0 -0.01925545136172006 -0.038248918052883184 0 -0.019786171917626948 -0.036998146384243355 0 -0.02045532874542489 -0.037786856730823798 0 -0.019786171917626948 -0.036998146384243355 0 -0.0208444541741