<?xml version="1.0"?>
<VTKFile type="UnstructuredGrid" version="0.1" byte_order="LittleEndian">
<UnstructuredGrid>
<Piece NumberOfPoints="31898" NumberOfCells="11152">
<Points>
<DataArray type="Float64" NumberOfComponents="3" format="ascii">
-0.5 -0.5 0 -0.47620991077874902 -0.44978878706170539 0 -0.49999999999999473 -0.42132396840504388 0 -0.5 -0.5 0 -0.47160970827802529 -0.4793630013852106 0 -0.47620991077874902 -0.44978878706170539 0 -0.5 -0.5 0 -0.47160970827802529 -0.4793630013852106 0 -0.44860394795025399 -0.5 0 -0.47160970827802529 -0.4793630013852106 0 -0.44860394795025399 -0.5 0 -0.4490820238307246 -0.45820516232899983 0 -0.44860394795025399 -0.5 0 -0.4490820238307246 -0.45820516232899983 0 -0.42881687682924802 -0.47781464288736519 0 -0.4490820238307246 -0.45820516232899983 0 -0.45555437223955858 -0.42914059360647611 0 -0.4490820238307246 -0.45820516232899983 0 -0.45555437223955858 -0.42914059360647611 0 -0.43867285131603428 -0.4271457417558665 0 -0.4490820238307246 -0.45820516232899983 0 -0.43867285131603428 -0.4271457417558665 0 -0.4263356171060747 -0.44269880333887462 0 -0.47160970827802529 -0.4793630013852106 0 -0.4490820238307246 -0.45820516232899983 0 -0.47620991077874902 -0.44978878706170539 0 -0.4490820238307246 -0.45820516232899983 0 -0.47620991077874902 -0.44978878706170539 0 -0.45555437223955858 -0.42914059360647611 0 -0.47620991077874902 -0.44978878706170539 0 -0.48101336032419229 -0.41069999664450008 0 -0.45555437223955858 -0.42914059360647611 0 -0.47620991077874902 -0.44978878706170539 0 -0.49999999999999473 -0.42132396840504388 0 -0.48101336032419229 -0.41069999664450008 0 -0.49999999999999473 -0.42132396840504388 0 -0.48101336032419229 -0.41069999664450008 0 -0.5 -0.393886241813306 0 -0.49999999999999473 -0.42132396840504388 0 -0.48101336032419229 -0.41069999664450008 0 -0.5 -0.393886241813306 0 -0.47854472220918332 -0.38978458738689759 0 -0.48422759779560409 -0.37130120630367158 0 -0.5 -0.393886241813306 0 -0.5 -0.36644851522156802 0 -0.48422759779560409 -0.37130120630367158 0 -0.48101336032419229 -0.41069999664450008 0 -0.5 -0.393886241813306 0 -0.47854472220918332 -0.38978458738689759 0 -0.48101336032419229 -0.41069999664450008 0 -0.47854472220918332 -0.38978458738689759 0 -0.46202672064839212 -0.40007602488395211 0 -0.48101336032419229 -0.41069999664450008 0 -0.46202672064839212 -0.40007602488395211 0 -0.47854472220918332 -0.38978458738689759 0 -0.46725442735267431 -0.37660061361585562 0 -0.46202672064839212 -0.40007602488395211 0 -0.47854472220918332 -0.38978458738689759 0 -0.46725442735267431 -0.37660061361585562 0 -0.48422759779560409 -0.37130120630367158 0 -0.46725442735267431 -0.37660061361585562 0 -0.46202672064839212 -0.40007602488395211 0 -0.46725442735267431 -0.37660061361585562 0 -0.45645674801697989 -0.38644133236760531 0 -0.46202672064839212 -0.40007602488395211 0 -0.46725442735267431 -0.37660061361585562 0 -0.45645674801697989 -0.38644133236760531 0 -0.4540003998136638 -0.37455519391687309 0 -0.45645674801697989 -0.38644133236760531 0 -0.46202672064839212 -0.40007602488395211 0 -0.44257020456291563 -0.38918913383950271 0 -0.46202672064839212 -0.40007602488395211 0 -0.44257020456291563 -0.38918913383950271 0 -0.44727608925983742 -0.41095911152778891 0 -0.46202672064839212 -0.40007602488395211 0 -0.44257020456291563 -0.38918913383950271 0 -0.44257020456291563 -0.38918913383950271 0 -0.44727608925983742 -0.41095911152778891 0 -0.43479358559901082 -0.4041454901736512 0 -0.44257020456291563 -0.38918913383950271 0 -0.4540003998136638 -0.37455519391687309 0 -0.44172858264042247 -0.37082207246888088 0 -0.45645674801697989 -0.38644133236760531 0 -0.44257020456291563 -0.38918913383950271 0 -0.4540003998136638 -0.37455519391687309 0 -0.46202672064839212 -0.40007602488395211 0 -0.45555437223955858 -0.42914059360647611 0 -0.44727608925983742 -0.41095911152778891 0 -0.46202672064839212 -0.40007602488395211 0 -0.45555437223955858 -0.42914059360647611 0 -0.48101336032419229 -0.41069999664450008 0 -0.46202672064839212 -0.40007602488395211 0 -0.45555437223955858 -0.42914059360647611 0 -0.44727608925983742 -0.41095911152778891 0 -0.43867285131603428 -0.4271457417558665 0 -0.43676601469929588 -0.41441201227470881 0 -0.44727608925983742 -0.41095911152778891 0 -0.43676601469929588 -0.41441201227470881 0 -0.43479358559901082 -0.4041454901736512 0 -0.45555437223955858 -0.42914059360647611 0 -0.44727608925983742 -0.41095911152778891 0 -0.43867285131603428 -0.4271457417558665 0 -0.43867285131603428 -0.4271457417558665 0 -0.42681803064840879 -0.42717069814352421 0 -0.4263356171060747 -0.44269880333887462 0 -0.42681803064840879 -0.42717069814352421 0 -0.41531815884496182 -0.42985383783075998 0 -0.4263356171060747 -0.44269880333887462 0 -0.42681803064840879 -0.42717069814352421 0 -0.42624289495594048 -0.42089725947505818 0 -0.42083332353326591 -0.42146747131641099 0 -0.42681803064840879 -0.42717069814352421 0 -0.43096994786351572 -0.41951492446283251 0 -0.42624289495594048 -0.42089725947505818 0 -0.43867285131603428 -0.4271457417558665 0 -0.42681803064840879 -0.42717069814352421 0 -0.43096994786351572 -0.41951492446283251 0 -0.43867285131603428 -0.4271457417558665 0 -0.43676601469929588 -0.41441201227470881 0 -0.43096994786351572 -0.41951492446283251 0 -0.43676601469929588 -0.41441201227470881 0 -0.43096994786351572 -0.41951492446283251 0 -0.42907264086257813 -0.41311715872526122 0 -0.43676601469929588 -0.41441201227470881 0 -0.42907264086257813 -0.41311715872526122 0 -0.43479358559901082 -0.4041454901736512 0 -0.42907264086257813 -0.41311715872526122 0 -0.43479358559901082 -0.4041454901736512 0 -0.42460885511582858 -0.40417321677700252 0 -0.42907264086257813 -0.41311715872526122 0 -0.41997834854398469 -0.41180534796019508 0 -0.42907264086257813 -0.41311715872526122 0 -0.42635027777857132 -0.41543594397746519 0 -0.41997834854398469 -0.41180534796019508 0 -0.42907264086257813 -0.41311715872526122 0 -0.41997834854398469 -0.41180534796019508 0 -0.42460885511582858 -0.40417321677700252 0 -0.42635027777857132 -0.41543594397746519 0 -0.41997834854398469 -0.41180534796019508 0 -0.42635027777857132 -0.41543594397746519 0 -0.42083332353326591 -0.42146747131641099 0 -0.41997834854398469 -0.41180534796019508 0 -0.43096994786351572 -0.41951492446283251 0 -0.42624289495594048 -0.42089725947505818 0 -0.42635027777857132 -0.41543594397746519 0 -0.43096994786351572 -0.41951492446283251 0 -0.42907264086257813 -0.41311715872526122 0 -0.42635027777857132 -0.41543594397746519 0 -0.42624289495594048 -0.42089725947505818 0 -0.42635027777857132 -0.41543594397746519 0 -0.42083332353326591 -0.42146747131641099 0 -0.42083332353326591 -0.42146747131641099 0 -0.41997834854398469 -0.41180534796019508 0 -0.40992282953163789 -0.42011435591993562 0 -0.41997834854398469 -0.41180534796019508 0 -0.39756877647335259 -0.40857286797681719 0 -0.41997834854398469 -0.41180534796019508 0 -0.40992282953163789 -0.42011435591993562 0 -0.39756877647335259 -0.40857286797681719 0 -0.40992282953163789 -0.42011435591993562 0 -0.41531815884496182 -0.42985383783075998 0 -0.39591554026262499 -0.42887225451549271 0 -0.41531815884496182 -0.42985383783075998 0 -0.39591554026262499 -0.42887225451549271 0 -0.41160927495564159 -0.44339431233754628 0 -0.42083332353326591 -0.42146747131641099 0 -0.40992282953163789 -0.42011435591993562 0 -0.41531815884496182 -0.42985383783075998 0 -0.42681803064840879 -0.42717069814352421 0 -0.42083332353326591 -0.42146747131641099 0 -0.41531815884496182 -0.42985383783075998 0 -0.44257020456291563 -0.38918913383950271 0 -0.42311368847744002 -0.37830224279505142 0 -0.42594061475171041 -0.39368797999533162 0 -0.44257020456291563 -0.38918913383950271 0 -0.42311368847744002 -0.37830224279505142 0 -0.44172858264042247 -0.37082207246888088 0 -0.44257020456291563 -0.38918913383950271 0 -0.42311368847744002 -0.37830224279505142 0 -0.42311368847744002 -0.37830224279505142 0 -0.42594061475171041 -0.39368797999533162 0 -0.416587075656149 -0.38785930376960043 0 -0.44257020456291563 -0.38918913383950271 0 -0.42594061475171041 -0.39368797999533162 0 -0.43479358559901082 -0.4041454901736512 0 -0.42594061475171041 -0.39368797999533162 0 -0.43479358559901082 -0.4041454901736512 0 -0.42460885511582858 -0.40417321677700252 0 -0.41997834854398469 -0.41180534796019508 0 -0.41325908582185972 -0.39811010703057192 0 -0.39770572831670092 -0.39911486077581648 0 -0.41997834854398469 -0.41180534796019508 0 -0.39770572831670092 -0.39911486077581648 0 -0.42594061475171041 -0.39368797999533162 0 -0.42460885511582858 -0.40417321677700252 0 -0.41325908582185972 -0.39811010703057192 0 -0.41997834854398469 -0.41180534796019508 0 -0.42460885511582858 -0.40417321677700252 0 -0.41325908582185972 -0.39811010703057192 0 -0.42594061475171041 -0.39368797999533162 0 -0.41325908582185972 -0.39811010703057192 0 -0.416587075656149 -0.38785930376960043 0 -0.41325908582185972 -0.39811010703057192 0 -0.416587075656149 -0.38785930376960043 0 -0.40403491357358612 -0.38133688525744702 0 -0.42311368847744002 -0.37830224279505142 0 -0.40403491357358612 -0.38133688525744702 0 -0.40365717239196519 -0.36741535175059892 0 -0.42311368847744002 -0.37830224279505142 0 -0.416587075656149 -0.38785930376960043 0 -0.40403491357358612 -0.38133688525744702 0 -0.40403491357358612 -0.38133688525744702 0 -0.39190790742475001 -0.38540387676521748 0 -0.39770572831670092 -0.39911486077581648 0 -0.40403491357358612 -0.38133688525744702 0 -0.39190790742475001 -0.38540387676521748 0 -0.3904578797192948 -0.37473938743617019 0 -0.41325908582185972 -0.39811010703057192 0 -0.40403491357358612 -0.38133688525744702 0 -0.39770572831670092 -0.39911486077581648 0 -0.39770572831670092 -0.39911486077581648 0 -0.37543310808941849 -0.38642437359143528 0 -0.39770572831670092 -0.39911486077581648 0 -0.37515920440272033 -0.40534038799344108 0 -0.37543310808941849 -0.38642437359143528 0 -0.39770572831670092 -0.39911486077581648 0 -0.37515920440272033 -0.40534038799344108 0 -0.39756877647335259 -0.40857286797681719
[...]
<PointData Scalars="" Vectors="displacement," Tensors="">
<DataArray type="Float64" Name="displacement" NumberOfComponents="3" format="ascii">
-1.7061186530113488e-06 -0.034996799167126919 0 -0.00017065366906182877 -0.032725017328943659 0 3.6164820280664722e-06 -0.029500843989483057 0 -1.7061186530113488e-06 -0.034996799167126919 0 -0.00015748363227067753 -0.034202573963468277 0 -0.00017065366906182877 -0.032725017328943659 0 -1.7061186530113488e-06 -0.034996799167126919 0 -0.00015748363227067753 -0.034202573963468277 0 5.236932931910169e-09 -0.034999153293924244 0 -0.00015748363227067753 -0.034202573963468277 0 5.236932931910169e-09 -0.034999153293924244 0 -8.7197621208835239e-05 -0.034207622803360309 0 5.236932931910169e-09 -0.034999153293924244 0 -8.7197621208835239e-05 -0.034207622803360309 0 -6.8404260542800379e-05 -0.034771021277245642 0 -0.00029126278035795309 -0.029360820966245562 0 -1.9851733977454617e-05 -0.028862363565891756 0 -8.7197621208835239e-05 -0.034207622803360309 0 0.00040251589100437579 -0.034171130165533449 0 0.00043535011518664764 -0.034387073169584503 0 -8.7197621208835239e-05 -0.034207622803360309 0 0.00043535011518664764 -0.034387073169584503 0 0.00021457958324400963 -0.034605431613159265 0 -0.00015748363227067753 -0.034202573963468277 0 -8.7197621208835239e-05 -0.034207622803360309 0 -0.00017065366906182877 -0.032725017328943659 0 -8.7197621208835239e-05 -0.034207622803360309 0 -0.00017065366906182877 -0.032725017328943659 0 0.00062668706102654852 -0.033387725993429214 0 -0.00017065366906182877 -0.032725017328943659 0 0.0013307367812242913 -0.031630263647183868 0 0.00062668706102654852 -0.033387725993429214 0 -0.00017065366906182877 -0.032725017328943659 0 3.6164820280664722e-06 -0.029500843989483057 0 0.0013307367812242913 -0.031630263647183868 0 1.9807097220860262e-06 -0.029489652213079434 0 0.00030057027069816761 -0.027192655305224463 0 -8.3791887943392115e-07 -0.02757204689404049 0 2.3354990487348454e-06 -0.029489413274546496 0 0.00036611310104848669 -0.0285196217999804 0 -8.3791887943392115e-07 -0.02757204689404049 0 -8.0532976489531129e-05 -0.026488265067695707 0 -0.00016848362714659001 -0.025781576975157289 0 -8.3791887943392115e-07 -0.02757204689404049 0 -2.5647830248701558e-07 -0.025651173730732814 0 -0.00016848362714659001 -0.025781576975157289 0 0.00030057027069816761 -0.027192655305224463 0 -8.3791887943392115e-07 -0.02757204689404049 0 -8.0532976489531129e-05 -0.026488265067695707 0 0.00030057027069816761 -0.027192655305224463 0 -8.0532976489531129e-05 -0.026488265067695707 0 0.0001305705417410926 -0.026228405436040624 0 0.00036611310104848669 -0.0285196217999804 0 0.00063427131786625659 -0.027352022703575455 0 -8.0532976489531129e-05 -0.026488265067695707 0 -0.00020784864065317919 -0.026003747813137669 0 0.0001305705417410926 -0.026228405436040624 0 -8.0532976489531129e-05 -0.026488265067695707 0 -0.00020784864065317919 -0.026003747813137669 0 -0.00016848362714659001 -0.025781576975157289 0 0.00053556651385570084 -0.026169015165671598 0 0.00063427131786625659 -0.027352022703575455 0 0.0013076928643472566 -0.020307274463297418 0 0.0012208031863799478 -0.020386161304712901 0 0.0011142163336628614 -0.020347358095349675 0 0.0013076928643472566 -0.020307274463297418 0 0.0012208031863799478 -0.020386161304712901 0 0.0013019886814559765 -0.020395853692238581 0 0.0012208031863799478 -0.020386161304712901 0 0.0011142163336628614 -0.020347358095349675 0 0.0011940421891157569 -0.020490596558374274 0 0.00063631457579784573 -0.03421143854797163 0 0.00062597908366462463 -0.034348776941970152 0 0.00057441719073161304 -0.034299424927618831 0 0.00063427131786625659 -0.027352022703575455 0 0.0008414448057926596 -0.026758400858909955 0 0.00062597908366462463 -0.034348776941970152 0 0.00057441719073161304 -0.034299424927618831 0 0.00060677770318772774 -0.034372722169897583 0 0.0011940421891157569 -0.020490596558374274 0 0.0013019886814559765 -0.020395853692238581 0 0.001324066612220978 -0.020491666226754534 0 0.0012208031863799478 -0.020386161304712901 0 0.0011940421891157569 -0.020490596558374274 0 0.0013019886814559765 -0.020395853692238581 0 0.00063631457579784573 -0.03421143854797163 0 0.00040251589100437579 -0.034171130165533449 0 0.00057441719073161304 -0.034299424927618831 0 0.00063427131786625659 -0.027352022703575455 0 -1.9851733977454617e-05 -0.028862363565891756 0 0.0013307367812242913 -0.031630263647183868 0 0.0020556611422574509 -0.032810510637325853 0 0.00062668706102654852 -0.033387725993429214 0 0.00057441719073161304 -0.034299424927618831 0 0.00043535011518664764 -0.034387073169584503 0 0.00056411595521268587 -0.034383005094435842 0 0.00057441719073161304 -0.034299424927618831 0 0.00056411595521268587 -0.034383005094435842 0 0.00060677770318772774 -0.034372722169897583 0 0.00040251589100437579 -0.034171130165533449 0 0.00057441719073161304 -0.034299424927618831 0 0.00043535011518664764 -0.034387073169584503 0 0.00043535011518664764 -0.034387073169584503 0 0.0004194504862385339 -0.034545615103133975 0 0.00021457958324400963 -0.034605431613159265 0 0.0004194504862385339 -0.034545615103133975 0 0.00037862469763331124 -0.034712842519207546 0 0.00021457958324400963 -0.034605431613159265 0 0.0004194504862385339 -0.034545615103133975 0 0.00049873364513494428 -0.034530590081848701 0 0.00048795702912630821 -0.034618490548512515 0 0.0004194504862385339 -0.034545615103133975 0 0.00051827813305696589 -0.03445378843221706 0 0.00049873364513494428 -0.034530590081848701 0 0.00043535011518664764 -0.034387073169584503 0 0.0004194504862385339 -0.034545615103133975 0 0.00051827813305696589 -0.03445378843221706 0 0.00043535011518664764 -0.034387073169584503 0 0.00056411595521268587 -0.034383005094435842 0 0.00051827813305696589 -0.03445378843221706 0 0.00056411595521268587 -0.034383005094435842 0 0.00051827813305696589 -0.03445378843221706 0 0.00061065534211805989 -0.034428168124468569 0 0.00056411595521268587 -0.034383005094435842 0 0.00061065534211805989 -0.034428168124468569 0 0.00060677770318772774 -0.034372722169897583 0 0.00061065534211805989 -0.034428168124468569 0 0.00060677770318772774 -0.034372722169897583 0 0.00061238427393842608 -0.034358570914340407 0 0.0017021874739850001 -0.031523147045376322 0 0.001701465679589374 -0.031430285038884051 0 0.00061065534211805989 -0.034428168124468569 0 0.00057067166069080927 -0.034506044900624193 0 0.0006665873387881636 -0.034662059197695952 0 0.00061065534211805989 -0.034428168124468569 0 0.00065728239649736459 -0.034334712813680439 0 0.00061238427393842608 -0.034358570914340407 0 0.0017122114306243122 -0.031476273612487553 0 0.001701465679589374 -0.031430285038884051 0 0.00057067166069080927 -0.034506044900624193 0 0.00048795702912630821 -0.034618490548512515 0 0.00062641099579720629 -0.034627672919154875 0 0.00051827813305696589 -0.03445378843221706 0 0.00049873364513494428 -0.034530590081848701 0 0.00057067166069080927 -0.034506044900624193 0 0.00051827813305696589 -0.03445378843221706 0 0.00061065534211805989 -0.034428168124468569 0 0.00057067166069080927 -0.034506044900624193 0 0.00049873364513494428 -0.034530590081848701 0 0.00057067166069080927 -0.034506044900624193 0 0.00048795702912630821 -0.034618490548512515 0 0.00048795702912630821 -0.034618490548512515 0 0.00062641099579720629 -0.034627672919154875 0 0.00050508785092969908 -0.034772259769314813 0 0.001701465679589374 -0.031430285038884051 0 0.0013507614423672936 -0.031190885002859266 0 0.00062641099579720629 -0.034627672919154875 0 0.00050508785092969908 -0.034772259769314813 0 0.00064979735064407782 -0.034929342557303185 0 0.00050508785092969908 -0.034772259769314813 0 0.00037862469763331124 -0.034712842519207546 0 0.00039234073165320994 -0.034952712793961879 0 0.00037862469763331124 -0.034712842519207546 0 0.00039234073165320994 -0.034952712793961879 0 0.00021035458143017118 -0.03478137895094352 0 0.00048795702912630821 -0.034618490548512515 0 0.00050508785092969908 -0.034772259769314813 0 0.00037862469763331124 -0.034712842519207546 0 0.0004194504862385339 -0.034545615103133975 0 0.00048795702912630821 -0.034618490548512515 0 0.00037862469763331124 -0.034712842519207546 0 0.00062597908366462463 -0.034348776941970152 0 0.00050198702905979815 -0.034320664819495174 0 0.00058723140155216144 -0.034342178545083181 0 0.0011940421891157569 -0.020490596558374274 0 0.0012650387000950807 -0.020640417130290412 0 0.001324066612220978 -0.020491666226754534 0 0.0008414448057926596 -0.026758400858909955 0 0.00095777867876243412 -0.025947466527398138 0 0.00050198702905979815 -0.034320664819495174 0 0.00058723140155216144 -0.034342178545083181 0 0.00054689853323888651 -0.034282357054833505 0 0.00062597908366462463 -0.034348776941970152 0 0.00058723140155216144 -0.034342178545083181 0 0.00060677770318772774 -0.034372722169897583 0 0.00058723140155216144 -0.034342178545083181 0 0.00060677770318772774 -0.034372722169897583 0 0.00061238427393842608 -0.034358570914340407 0 0.00065728239649736459 -0.034334712813680439 0 0.00060313596540027478 -0.034270174528596535 0 0.00063239409675864774 -0.034138032206914054 0 0.001701465679589374 -0.031430285038884051 0 0.0016849164345684982 -0.030276640910200964 0 0.00058723140155216144 -0.034342178545083181 0 0.00061238427393842608 -0.034358570914340407 0 0.00060313596540027478 -0.034270174528596535 0 0.00065728239649736459 -0.034334712813680439 0 0.00061238427393842608 -0.034358570914340407 0 0.00060313596540027478 -0.034270174528596535 0 0.00058723140155216144 -0.034342178545083181 0 0.00060313596540027478 -0.034270174528596535 0 0.00054689853323888651 -0.034282357054833505 0 0.00060313596540027478 -0.034270174528596535 0 0.00054689853323888651 -0.034282357054833505 0 0.00049176355462154844 -0.034188826261820515 0 0.00050198702905979815 -0.034320664819495174 0 0.00049176355462154844 -0.034188826261820515 0 0.00040043053138407966 -0.034179161582897861 0 0.00050198702905979815 -0.034320664819495174 0 0.00054689853323888651 -0.034282357054833505 0 0.00049176355462154844 -0.034188826261820515 0 0.00049176355462154844 -0.034188826261820515 0 0.00051855778599431261 -0.034067774463857253 0 0.00063239409675864774 -0.034138032206914054 0 0.00049176355462154844 -0.034188826261820515 0 0.00051855778599431261 -0.034067774463857253 0 0.00041195519649085308 -0.034045114827136888 0 0.00060313596540027478 -0.034270174528596535 0 0.00049176355462154844 -0.034188826261820515 0 0.00063239409675864774 -0.034138032206914054 0 0.0016849164345684982 -0.030276640910200964 0 0.0014430964397783947 -0.02837674496098749 0 0.0018353068520755699 -0.030041432897114632 0 0.0020488340870613267 -0.029264647136095136 0 0.001398859444515136 -0.029272727573209503 0 0.0018353068520755699 -0.030041432897114632 0 0.0020488340870613267 -0.029264647136095136 0 0.0021609458713583926 -0.030037251716471956 0 0.00093304421575570308 -0.030392552705198549 0 0.0014430964397783947 -0.02837674496098749 0 0.0005334246326886582 -0.03389153682424955 0 0.00041195519649085308 -0.034045114827136888 0 0.00035216786490320273 -0.033881981540729959 0 0.00051855778599431261 -0.034067774463857253 0 0.0005334246326886582 -0.03389153682424955 0 0.00041195519649085308 -0.034045114827136888 0 0.0014430964397783947 -0.02837674496098749 0 0.0011655706064922114 -0.026583176659962043 0 0.00051855778599431261 -0.034067774463857253 0 0.00063239409675864774 -0.034138032206914054 0 0.0005334246326886582 -0.03389153682424955 0 0.0022726801941921914 -0.030811623587345998 0 0.0018353068520755699 -0.030041432897114632 0 0.0021609458713583926 -0.030037251716471956 0 0.00050508785092969908 -0.034772259769314813 0 0.00039234073165320994 -0.034952712793961879 0 0.00064979735064407782 -0.034929342557303185 0 0.00068537740328495982 -0.03520022989428228 0 0.00039234073165320994 -0.034952712793961879 0 0.00064979735064407782 -0.034929342557303185 0 0.00093304421575570308 -0.030392552705198549 0 0.0013507614423672936 -0.031190885002859266 0 0.00068537740328495982 -0.03520022989428228 0 0.00039234073165320994 -0.034952712793961879 0 0.0003133815032923685 -0.035204999736118077 0 0.00039234073165320994 -0.034952712793961879 0 0.00018078684817443807 -0.034988933062027494 0 0.0003133815032923685 -0.035204999736118077 0 0.00018078684817443807 -0.034988933062027494 0 -4.075983611240729e-05 -0.035205891610913233 0 0.0003133815032923685 -0.035204999736118077 0 0.00039234073165320994 -0.034952712793961879 0 0.00018078684817443807 -0.034988933062027494 0 0.00021035458143017118 -0.03478137895094352 0 0.00018078684817443807 -0.034988933062027494 0 5.4649791214624781e-05 -0.034865127466937401 0 0.00021035458143017118 -0.03478137895094352 0 4.9204774268332417e-05 -0.034881530048263533 0 -2.1003279994640407e-05 -0.034955751167671724 0 -2.1390061668101273e-05 -0.034847673978767695 0 1.4840279168005573e-05 -0.03498486989329698 0 1.2159642540438631e-05 -0.034993011716831314 0 3.2964000714818993e-06 -0.034992868684882071 0 9.9389481965160429e-05 -0.034533868967322003 0 2.5192129451792722e-05 -0.034789807493897568 0 9.9389481965160429e-05 -0.034533868967322003 0 9.9189243278671719e-05 -0.034534725225038337 0 9.9389481965160429e-05 -0.034533868967322003 0 0.00015872615827751391 -0.034153782249805434 0 0.00018078684817443807 -0.034988933062027494 0 5.4649791214624781e-05 -0.034865127466937401 0 6.8342112497543076e-06 -0.035033798802971687 0 0.00018078684817443807 -0.034988933062027494 0 6.8342112497543076e-06 -0.035033798802971687 0 -4.075983611240729e-05 -0.035205891610913233 0 0.00015872615827751391 -0.034153782249805434 0 0.00025880003505378708 -0.033608867582124141 0 1.2159642540438631e-05 -0.034993011716831314 0 6.5305184522784536e-06 -0.03499549779196396 0 9.5921308151188596e-06 -0.034999303449867548 0 6.5305184522784536e-06 -0.03499549779196396 0 3.2964000714818993e-06 -0.034992868684882071 0 2.9641472838620087e-06 -0.03499887373282777 0 3.2964000714818993e-06 -0.034992868684882071 0 1.1939258521934063e-06 -0.034999401922690909 0 2.9641472838620087e-06 -0.03499887373282777 0 6.5305184522784536e-06 -0.03499549779196396 0 2.9641472838620087e-06 -0.03499887373282777 0 9.5921308151188596e-06 -0.034999303449867548 0 1.2159642540438631e-05 -0.034993011716831314 0 6.5305184522784536e-06 -0.03499549779196396 0 3.2964000714818993e-06 -0.034992868684882071 0 -1.3804152494670756e-07 -0.034999278019031639 0 2.5192129451792722e-05 -0.034789807493897568 0 -2.4951437678896478e-09 -0.034999992558663331 0 3.2964000714818993e-06 -0.034992868684882071 0 1.1939258521934063e-06 -0.034999401922690909 0 5.6603749047360389e-08 -0.034999983442480426 0 -2.1003279994640407e-05 -0.034955751167671724 0 -1.3978566398341383e-07 -0.034999891736689409 0 -2.1003279994640407e-05 -0.034955751167671724 0 -2.1390061668101273e-05 -0.034847673978767695 0 -1.3978566398341383e-07 -0.034999891736689409 0 -2.1390061668101273e-05 -0.034847673978767695 0 -1.3978566398341383e-07 -0.034999891736689409 0 -6.8404260542800379e-05 -0.034771021277245642 0 5.236932931910169e-09 -0.034999153293924244 0 -1.3978566398341383e-07 -0.034999891736689409 0 -6.8404260542800379e-05 -0.034771021277245642 0 -2.1390061668101273e-05 -0.034847673978767695 0 -6.8404260542800379e-05 -0.034771021277245642 0 3.1281131975735168e-06 -0.034666202656288427 0 -8.7197621208835239e-05 -0.034207622803360309 0 -6.8404260542800379e-05 -0.034771021277245642 0 3.1281131975735168e-06 -0.034666202656288427 0 -8.7197621208835239e-05 -0.034207622803360309 0 3.1281131975735168e-06 -0.034666202656288427 0 0.00021457958324400963 -0.034605431613159265 0 3.1281131975735168e-06 -0.034666202656288427 0 0.00021457958324400963 -0.034605431613159265 0 8.2837048567681892e-05 -0.034755803624948831 0 0.00021457958324400963 -0.034605431613159265 0 0.00021035458143017118 -0.03478137895094352 0 8.2837048567681892e-05 -0.034755803624948831 0 0.00037862469763331124 -0.034712842519207546 0 0.00021457958324400963 -0.034605431613159265 0 0.00021035458143017118 -0.03478137895094352 0 4.9531315039990234e-05 -0.034895459824275041 0 0.00021035458143017118 -0.03478137895094352 0 5.6960791111078153e-05 -0.034862908695432585 0 0.00021035458143017118 -0.03478137895094352 0 5.6960791111078153e-05 -0.034862908695432585 0 8.2837048567681892e-05 -0.034755803624948831 0 9.9389481965160429e-05 -0.034533868967322003 0 9.4107905068801872e-05 -0.034544640310427747 0 -2.1390061668101273e-05 -0.034847673978767695 0 5.6960791111078153e-05 -0.034862908695432585 0 8.2837048567681892e-05 -0.034755803624948831 0 4.9204774268332417e-05 -0.034881530048263533 0 -2.1390061668101273e-05 -0.034847673978767695 0 5.6960791111078153e-05 -0.034862908695432585 0 -2.1390061668101273e-05 -0.034847673978767695 0 3.1281131975735168e-06 -0.034666202656288427 0 8.2837048567681892e-05 -0.034755803624948831 0 0.0015000158364631099 -0.017897539048263241 0 0.0016776148235650374 -0.017699624120695867 0 0.00047890237694999814 -0.017611820334789856 0 0.00057730689765809345 -0.017063879291423261 0 0.00031630153272481083 -0.017437600289130693 0 -0.00013136841728992183 -0.019580956100094152 0 0.00012778331421501706 -0.019542307582123532 0 5.8081753520885467e-05 -0.019663559190997222 0 -0.00013136841728992183 -0.019580956100094152 0 -8.2685272588371389e-05 -0.019607343675777364 0 5.8081753520885467e-05 -0.019663559190997222 0 -0.00013136841728992183 -0.019580956100094152 0 -7.6391953940755308e-05 -0.019511914980855846 0 -8.2685272588371389e-05 -0.019607343675777364 0 -0.00013136841728992183 -0.019580956100094152 0 -0.00012299486785117547 -0.019315882292424199 0 -0.00018765361479732359 -0.019655194935773192 0 -0.00013136841728992183 -0.019580956100094152 0 -0.00012299486785117547 -0.019315882292424199 0 0.00012778331421501706 -0.019542307582123532 0 0.0015000158364631099 -0.017897539048263241 0 0.0014385545846419675 -0.017946009876547819 0 -0.00012299486785117547 -0.019315882292424199 0 0.00012778331421501706 -0.019542307582123532 0 0.00012730724362091856 -0.018516901582037299 0 0.00047890237694999814 -0.017611820334789856 0 0.00012730724362091856 -0.018516901582037299 0 4.2824168914639961e-05 -0.017853402662281373 0 0.00012730724362091856 -0.018516901582037299 0 -4.3931691714989257e-07 -0.017968603047459956 0 -0.00012965432163433547 -0.019269510700885534 0 0.00012730724362091856 -0.018516901582037299 0 -4.3931691714989257e-07 -0.017968603047459956 0 -2.7683874414227175e-05 -0.017574399600660394 0 -4.3931691714989257e-07 -0.017968603047459956 0 -0.00012965432163433547 -0.019269510700885534 0 -3.696643321825854e-07 -0.019889470158032756 0 -0.00012299486785117547 -0.019315882292424199 0 0.00012730724362091856 -0.018516901582037299 0 -0.00012965432163433547 -0.019269510700885534 0 -0.00012299486785117547 -0.019315882292424199 0 -0.00012965432163433547 -0.019269510700885534 0 -0.00018765361479732359 -0.019655194935773192 0 -0.00018765361479732359 -0.019655194935773192 0 -7.9398300624779588e-05 -0.02026885421745311 0 -2.7051005839043881e-05 -0.020139881315313642 0 -0.00012965432163433547 -0.019269510700885534 0 -0.00018765361479732359 -0.019655194935773192 0 -7.9398300624779588e-05 -0.02026885421745311 0 -3.696643321825854e-07 -0.019889470158032756 0 -7.9398300624779588e-05 -0.02026885421745311 0 4.562678663156331e-07 -0.021809979660733048 0 -0.00012965432163433547 -0.019269510700885534 0 -3.696643321825854e-07 -0.019889470158032756 0 -7.9398300624779588e-05 -0.02026885421745311 0 -7.9398300624779588e-05 -0.02026885421745311 0 4.562678663156331e-07 -0.021809979660733048 0 0.00014507304490545976 -0.021042006715024538 0 0.00014507304490545976 -0.021042006715024538 0 -2.7051005839043881e-05 -0.020139881315313642 0 0.00054628313999222544 -0.020369615374430418 0 -7.9398300624779588e-05 -0.02026885421745311 0 0.00014507304490545976 -0.021042006715024538 0 -2.7051005839043881e-05 -0.020139881315313642 0 -2.7051005839043881e-05 -0.020139881315313642 0 0.00025482654067341689 -0.019901457626587953 0 0.00054628313999222544 -0.020369615374430418 0 0.00025482654067341689 -0.019901457626587953 0 0.00018027134199377452 -0.019577340549583544 0 0.0