<?xml version="1.0"?>
<VTKFile type="UnstructuredGrid" version="0.1" byte_order="LittleEndian">
<UnstructuredGrid>
<Piece NumberOfPoints="31898" NumberOfCells="11152">
<Points>
<DataArray type="Float64" NumberOfComponents="3" format="ascii">
-0.5 -0.5 0 -0.47620991077874902 -0.44978878706170539 0 -0.49999999999999473 -0.42132396840504388 0 -0.5 -0.5 0 -0.47160970827802529 -0.4793630013852106 0 -0.47620991077874902 -0.44978878706170539 0 -0.5 -0.5 0 -0.47160970827802529 -0.4793630013852106 0 -0.44860394795025399 -0.5 0 -0.47160970827802529 -0.4793630013852106 0 -0.44860394795025399 -0.5 0 -0.4490820238307246 -0.45820516232899983 0 -0.44860394795025399 -0.5 0 -0.4490820238307246 -0.45820516232899983 0 -0.42881687682924802 -0.47781464288736519 0 -0.4490820238307246 -0.45820516232899983 0 -0.45555437223955858 -0.42914059360647611 0 -0.4490820238307246 -0.45820516232899983 0 -0.45555437223955858 -0.42914059360647611 0 -0.43867285131603428 -0.4271457417558665 0 -0.4490820238307246 -0.45820516232899983 0 -0.43867285131603428 -0.4271457417558665 0 -0.4263356171060747 -0.44269880333887462 0 -0.47160970827802529 -0.4793630013852106 0 -0.4490820238307246 -0.45820516232899983 0 -0.47620991077874902 -0.44978878706170539 0 -0.4490820238307246 -0.45820516232899983 0 -0.47620991077874902 -0.44978878706170539 0 -0.45555437223955858 -0.42914059360647611 0 -0.47620991077874902 -0.44978878706170539 0 -0.48101336032419229 -0.41069999664450008 0 -0.45555437223955858 -0.42914059360647611 0 -0.47620991077874902 -0.44978878706170539 0 -0.49999999999999473 -0.42132396840504388 0 -0.48101336032419229 -0.41069999664450008 0 -0.49999999999999473 -0.42132396840504388 0 -0.48101336032419229 -0.41069999664450008 0 -0.5 -0.393886241813306 0 -0.49999999999999473 -0.42132396840504388 0 -0.48101336032419229 -0.41069999664450008 0 -0.5 -0.393886241813306 0 -0.47854472220918332 -0.38978458738689759 0 -0.48422759779560409 -0.37130120630367158 0 -0.5 -0.393886241813306 0 -0.5 -0.36644851522156802 0 -0.48422759779560409 -0.37130120630367158 0 -0.48101336032419229 -0.41069999664450008 0 -0.5 -0.393886241813306 0 -0.47854472220918332 -0.38978458738689759 0 -0.48101336032419229 -0.41069999664450008 0 -0.47854472220918332 -0.38978458738689759 0 -0.46202672064839212 -0.40007602488395211 0 -0.48101336032419229 -0.41069999664450008 0 -0.46202672064839212 -0.40007602488395211 0 -0.47854472220918332 -0.38978458738689759 0 -0.46725442735267431 -0.37660061361585562 0 -0.46202672064839212 -0.40007602488395211 0 -0.47854472220918332 -0.38978458738689759 0 -0.46725442735267431 -0.37660061361585562 0 -0.48422759779560409 -0.37130120630367158 0 -0.46725442735267431 -0.37660061361585562 0 -0.46202672064839212 -0.40007602488395211 0 -0.46725442735267431 -0.37660061361585562 0 -0.45645674801697989 -0.38644133236760531 0 -0.46202672064839212 -0.40007602488395211 0 -0.46725442735267431 -0.37660061361585562 0 -0.45645674801697989 -0.38644133236760531 0 -0.4540003998136638 -0.37455519391687309 0 -0.45645674801697989 -0.38644133236760531 0 -0.46202672064839212 -0.40007602488395211 0 -0.44257020456291563 -0.38918913383950271 0 -0.46202672064839212 -0.40007602488395211 0 -0.44257020456291563 -0.38918913383950271 0 -0.44727608925983742 -0.41095911152778891 0 -0.46202672064839212 -0.40007602488395211 0 -0.44257020456291563 -0.38918913383950271 0 -0.44257020456291563 -0.38918913383950271 0 -0.44727608925983742 -0.41095911152778891 0 -0.43479358559901082 -0.4041454901736512 0 -0.44257020456291563 -0.38918913383950271 0 -0.4540003998136638 -0.37455519391687309 0 -0.44172858264042247 -0.37082207246888088 0 -0.45645674801697989 -0.38644133236760531 0 -0.44257020456291563 -0.38918913383950271 0 -0.4540003998136638 -0.37455519391687309 0 -0.46202672064839212 -0.40007602488395211 0 -0.45555437223955858 -0.42914059360647611 0 -0.44727608925983742 -0.41095911152778891 0 -0.46202672064839212 -0.40007602488395211 0 -0.45555437223955858 -0.42914059360647611 0 -0.48101336032419229 -0.41069999664450008 0 -0.46202672064839212 -0.40007602488395211 0 -0.45555437223955858 -0.42914059360647611 0 -0.44727608925983742 -0.41095911152778891 0 -0.43867285131603428 -0.4271457417558665 0 -0.43676601469929588 -0.41441201227470881 0 -0.44727608925983742 -0.41095911152778891 0 -0.43676601469929588 -0.41441201227470881 0 -0.43479358559901082 -0.4041454901736512 0 -0.45555437223955858 -0.42914059360647611 0 -0.44727608925983742 -0.41095911152778891 0 -0.43867285131603428 -0.4271457417558665 0 -0.43867285131603428 -0.4271457417558665 0 -0.42681803064840879 -0.42717069814352421 0 -0.4263356171060747 -0.44269880333887462 0 -0.42681803064840879 -0.42717069814352421 0 -0.41531815884496182 -0.42985383783075998 0 -0.4263356171060747 -0.44269880333887462 0 -0.42681803064840879 -0.42717069814352421 0 -0.42624289495594048 -0.42089725947505818 0 -0.42083332353326591 -0.42146747131641099 0 -0.42681803064840879 -0.42717069814352421 0 -0.43096994786351572 -0.41951492446283251 0 -0.42624289495594048 -0.42089725947505818 0 -0.43867285131603428 -0.4271457417558665 0 -0.42681803064840879 -0.42717069814352421 0 -0.43096994786351572 -0.41951492446283251 0 -0.43867285131603428 -0.4271457417558665 0 -0.43676601469929588 -0.41441201227470881 0 -0.43096994786351572 -0.41951492446283251 0 -0.43676601469929588 -0.41441201227470881 0 -0.43096994786351572 -0.41951492446283251 0 -0.42907264086257813 -0.41311715872526122 0 -0.43676601469929588 -0.41441201227470881 0 -0.42907264086257813 -0.41311715872526122 0 -0.43479358559901082 -0.4041454901736512 0 -0.42907264086257813 -0.41311715872526122 0 -0.43479358559901082 -0.4041454901736512 0 -0.42460885511582858 -0.40417321677700252 0 -0.42907264086257813 -0.41311715872526122 0 -0.41997834854398469 -0.41180534796019508 0 -0.42907264086257813 -0.41311715872526122 0 -0.42635027777857132 -0.41543594397746519 0 -0.41997834854398469 -0.41180534796019508 0 -0.42907264086257813 -0.41311715872526122 0 -0.41997834854398469 -0.41180534796019508 0 -0.42460885511582858 -0.40417321677700252 0 -0.42635027777857132 -0.41543594397746519 0 -0.41997834854398469 -0.41180534796019508 0 -0.42635027777857132 -0.41543594397746519 0 -0.42083332353326591 -0.42146747131641099 0 -0.41997834854398469 -0.41180534796019508 0 -0.43096994786351572 -0.41951492446283251 0 -0.42624289495594048 -0.42089725947505818 0 -0.42635027777857132 -0.41543594397746519 0 -0.43096994786351572 -0.41951492446283251 0 -0.42907264086257813 -0.41311715872526122 0 -0.42635027777857132 -0.41543594397746519 0 -0.42624289495594048 -0.42089725947505818 0 -0.42635027777857132 -0.41543594397746519 0 -0.42083332353326591 -0.42146747131641099 0 -0.42083332353326591 -0.42146747131641099 0 -0.41997834854398469 -0.41180534796019508 0 -0.40992282953163789 -0.42011435591993562 0 -0.41997834854398469 -0.41180534796019508 0 -0.39756877647335259 -0.40857286797681719 0 -0.41997834854398469 -0.41180534796019508 0 -0.40992282953163789 -0.42011435591993562 0 -0.39756877647335259 -0.40857286797681719 0 -0.40992282953163789 -0.42011435591993562 0 -0.41531815884496182 -0.42985383783075998 0 -0.39591554026262499 -0.42887225451549271 0 -0.41531815884496182 -0.42985383783075998 0 -0.39591554026262499 -0.42887225451549271 0 -0.41160927495564159 -0.44339431233754628 0 -0.42083332353326591 -0.42146747131641099 0 -0.40992282953163789 -0.42011435591993562 0 -0.41531815884496182 -0.42985383783075998 0 -0.42681803064840879 -0.42717069814352421 0 -0.42083332353326591 -0.42146747131641099 0 -0.41531815884496182 -0.42985383783075998 0 -0.44257020456291563 -0.38918913383950271 0 -0.42311368847744002 -0.37830224279505142 0 -0.42594061475171041 -0.39368797999533162 0 -0.44257020456291563 -0.38918913383950271 0 -0.42311368847744002 -0.37830224279505142 0 -0.44172858264042247 -0.37082207246888088 0 -0.44257020456291563 -0.38918913383950271 0 -0.42311368847744002 -0.37830224279505142 0 -0.42311368847744002 -0.37830224279505142 0 -0.42594061475171041 -0.39368797999533162 0 -0.416587075656149 -0.38785930376960043 0 -0.44257020456291563 -0.38918913383950271 0 -0.42594061475171041 -0.39368797999533162 0 -0.43479358559901082 -0.4041454901736512 0 -0.42594061475171041 -0.39368797999533162 0 -0.43479358559901082 -0.4041454901736512 0 -0.42460885511582858 -0.40417321677700252 0 -0.41997834854398469 -0.41180534796019508 0 -0.41325908582185972 -0.39811010703057192 0 -0.39770572831670092 -0.39911486077581648 0 -0.41997834854398469 -0.41180534796019508 0 -0.39770572831670092 -0.39911486077581648 0 -0.42594061475171041 -0.39368797999533162 0 -0.42460885511582858 -0.40417321677700252 0 -0.41325908582185972 -0.39811010703057192 0 -0.41997834854398469 -0.41180534796019508 0 -0.42460885511582858 -0.40417321677700252 0 -0.41325908582185972 -0.39811010703057192 0 -0.42594061475171041 -0.39368797999533162 0 -0.41325908582185972 -0.39811010703057192 0 -0.416587075656149 -0.38785930376960043 0 -0.41325908582185972 -0.39811010703057192 0 -0.416587075656149 -0.38785930376960043 0 -0.40403491357358612 -0.38133688525744702 0 -0.42311368847744002 -0.37830224279505142 0 -0.40403491357358612 -0.38133688525744702 0 -0.40365717239196519 -0.36741535175059892 0 -0.42311368847744002 -0.37830224279505142 0 -0.416587075656149 -0.38785930376960043 0 -0.40403491357358612 -0.38133688525744702 0 -0.40403491357358612 -0.38133688525744702 0 -0.39190790742475001 -0.38540387676521748 0 -0.39770572831670092 -0.39911486077581648 0 -0.40403491357358612 -0.38133688525744702 0 -0.39190790742475001 -0.38540387676521748 0 -0.3904578797192948 -0.37473938743617019 0 -0.41325908582185972 -0.39811010703057192 0 -0.40403491357358612 -0.38133688525744702 0 -0.39770572831670092 -0.39911486077581648 0 -0.39770572831670092 -0.39911486077581648 0 -0.37543310808941849 -0.38642437359143528 0 -0.39770572831670092 -0.39911486077581648 0 -0.37515920440272033 -0.40534038799344108 0 -0.37543310808941849 -0.38642437359143528 0 -0.39770572831670092 -0.39911486077581648 0 -0.37515920440272033 -0.40534038799344108 0 -0.39756877647335259 -0.40857286797681719
[...]
<PointData Scalars="" Vectors="displacement," Tensors="">
<DataArray type="Float64" Name="displacement" NumberOfComponents="3" format="ascii">
-0.034997483020688114 -0.034998031538911532 0 -0.03263108633898882 -0.034378635831265263 0 -0.029503265787910654 -0.034995338324795747 0 -0.034997483020688114 -0.034998031538911532 0 -0.034444111726088064 -0.033726535126814838 0 -0.03263108633898882 -0.034378635831265263 0 -0.034997483020688114 -0.034998031538911532 0 -0.034444111726088064 -0.033726535126814838 0 -0.034998038612006011 -0.031405308644340255 0 -0.034444111726088064 -0.033726535126814838 0 -0.034998038612006011 -0.031405308644340255 0 -0.03465998220074025 -0.033248213592670113 0 -0.034998038612006011 -0.031405308644340255 0 -0.03465998220074025 -0.033248213592670113 0 -0.035113987220195743 -0.030758377656839156 0 -0.033723712855041825 -0.034247480617155386 0 -0.033466113858226912 -0.034423524406663485 0 -0.03465998220074025 -0.033248213592670113 0 -0.037714008520109372 -0.033589360949064791 0 -0.037951397694802783 -0.032055524050841437 0 -0.03465998220074025 -0.033248213592670113 0 -0.037951397694802783 -0.032055524050841437 0 -0.036664078076992727 -0.030885474561682846 0 -0.034444111726088064 -0.033726535126814838 0 -0.03465998220074025 -0.033248213592670113 0 -0.03263108633898882 -0.034378635831265263 0 -0.03465998220074025 -0.033248213592670113 0 -0.03263108633898882 -0.034378635831265263 0 -0.031841790100423054 -0.034986780084675755 0 -0.03263108633898882 -0.034378635831265263 0 -0.030363110450411734 -0.034628644236072217 0 -0.031841790100423054 -0.034986780084675755 0 -0.03263108633898882 -0.034378635831265263 0 -0.029503265787910654 -0.034995338324795747 0 -0.030363110450411734 -0.034628644236072217 0 -0.029492669257169625 -0.034999996317229179 0 -0.028747897921619636 -0.036320950529585484 0 -0.027572040984782959 -0.034999994869822706 0 -0.029493784167169305 -0.035000267879066134 0 -0.029952209078317298 -0.035005178769592596 0 -0.027572040984782959 -0.034999994869822706 0 -0.02728720208218844 -0.036492355911687369 0 -0.02599322245638808 -0.036097396892813848 0 -0.027572040984782959 -0.034999994869822706 0 -0.025651398569079498 -0.034999993973773978 0 -0.02599322245638808 -0.036097396892813848 0 -0.028747897921619636 -0.036320950529585484 0 -0.027572040984782959 -0.034999994869822706 0 -0.02728720208218844 -0.036492355911687369 0 -0.028747897921619636 -0.036320950529585484 0 -0.02728720208218844 -0.036492355911687369 0 -0.028008360553119518 -0.037638583208582863 0 -0.029952209078317298 -0.035005178769592596 0 -0.030814340040278845 -0.034375412594255687 0 -0.02728720208218844 -0.036492355911687369 0 -0.026366225501368201 -0.03727844162511719 0 -0.028008360553119518 -0.037638583208582863 0 -0.02728720208218844 -0.036492355911687369 0 -0.026366225501368201 -0.03727844162511719 0 -0.02599322245638808 -0.036097396892813848 0 -0.026806609295429766 -0.035160415477922514 0 -0.030814340040278845 -0.034375412594255687 0 -0.02412676203080398 -0.036982781539661821 0 -0.024040717158357691 -0.036937055076411755 0 -0.023964678032215563 -0.036970856558515008 0 -0.02412676203080398 -0.036982781539661821 0 -0.024040717158357691 -0.036937055076411755 0 -0.02407895432701283 -0.036942501413319846 0 -0.024040717158357691 -0.036937055076411755 0 -0.023964678032215563 -0.036970856558515008 0 -0.024002524735348345 -0.036852032013399968 0 -0.039903895194666389 -0.033793034317455256 0 -0.040543906101330462 -0.032334951507177211 0 -0.039136253256065817 -0.032745996186691113 0 -0.030814340040278845 -0.034375412594255687 0 -0.030936585219208567 -0.033686846764901787 0 -0.040543906101330462 -0.032334951507177211 0 -0.039136253256065817 -0.032745996186691113 0 -0.039587335608175733 -0.031811899402753099 0 -0.024002524735348345 -0.036852032013399968 0 -0.02407895432701283 -0.036942501413319846 0 -0.024088619244772635 -0.036847559171823287 0 -0.024040717158357691 -0.036937055076411755 0 -0.024002524735348345 -0.036852032013399968 0 -0.02407895432701283 -0.036942501413319846 0 -0.039903895194666389 -0.033793034317455256 0 -0.037714008520109372 -0.033589360949064791 0 -0.039136253256065817 -0.032745996186691113 0 -0.030814340040278845 -0.034375412594255687 0 -0.033466113858226912 -0.034423524406663485 0 -0.030363110450411734 -0.034628644236072217 0 -0.030207642167199917 -0.035155204205487768 0 -0.031841790100423054 -0.034986780084675755 0 -0.039136253256065817 -0.032745996186691113 0 -0.037951397694802783 -0.032055524050841437 0 -0.038903641528786385 -0.031933871392709062 0 -0.039136253256065817 -0.032745996186691113 0 -0.038903641528786385 -0.031933871392709062 0 -0.039587335608175733 -0.031811899402753099 0 -0.037714008520109372 -0.033589360949064791 0 -0.039136253256065817 -0.032745996186691113 0 -0.037951397694802783 -0.032055524050841437 0 -0.037951397694802783 -0.032055524050841437 0 -0.037919726739251661 -0.031050293168774928 0 -0.036664078076992727 -0.030885474561682846 0 -0.037919726739251661 -0.031050293168774928 0 -0.037699336495553216 -0.030112033306050955 0 -0.036664078076992727 -0.030885474561682846 0 -0.037919726739251661 -0.031050293168774928 0 -0.03841319467532172 -0.031043723575256105 0 -0.038362258277315799 -0.030584057656830865 0 -0.037919726739251661 -0.031050293168774928 0 -0.038527408424832772 -0.031456541088106492 0 -0.03841319467532172 -0.031043723575256105 0 -0.037951397694802783 -0.032055524050841437 0 -0.037919726739251661 -0.031050293168774928 0 -0.038527408424832772 -0.031456541088106492 0 -0.037951397694802783 -0.032055524050841437 0 -0.038903641528786385 -0.031933871392709062 0 -0.038527408424832772 -0.031456541088106492 0 -0.038903641528786385 -0.031933871392709062 0 -0.038527408424832772 -0.031456541088106492 0 -0.03903934220793033 -0.031368224504227958 0 -0.038903641528786385 -0.031933871392709062 0 -0.03903934220793033 -0.031368224504227958 0 -0.039587335608175733 -0.031811899402753099 0 -0.03903934220793033 -0.031368224504227958 0 -0.039587335608175733 -0.031811899402753099 0 -0.039577617266998141 -0.031173749066464664 0 -0.037233188875936241 -0.028800157727920016 0 -0.037210994976215363 -0.028594807284269361 0 -0.03903934220793033 -0.031368224504227958 0 -0.038844367425517917 -0.031085903234725647 0 -0.03920803550287049 -0.030457842291986829 0 -0.03903934220793033 -0.031368224504227958 0 -0.039161352590505141 -0.030909880773706405 0 -0.039577617266998141 -0.031173749066464664 0 -0.037212213361793832 -0.02867184280483082 0 -0.037210994976215363 -0.028594807284269361 0 -0.038844367425517917 -0.031085903234725647 0 -0.038362258277315799 -0.030584057656830865 0 -0.0391450557824784 -0.030515550300621478 0 -0.038527408424832772 -0.031456541088106492 0 -0.03841319467532172 -0.031043723575256105 0 -0.038844367425517917 -0.031085903234725647 0 -0.038527408424832772 -0.031456541088106492 0 -0.03903934220793033 -0.031368224504227958 0 -0.038844367425517917 -0.031085903234725647 0 -0.03841319467532172 -0.031043723575256105 0 -0.038844367425517917 -0.031085903234725647 0 -0.038362258277315799 -0.030584057656830865 0 -0.038362258277315799 -0.030584057656830865 0 -0.0391450557824784 -0.030515550300621478 0 -0.038469710372671502 -0.029701404841918761 0 -0.037210994976215363 -0.028594807284269361 0 -0.037455769635989261 -0.027536230239671378 0 -0.0391450557824784 -0.030515550300621478 0 -0.038469710372671502 -0.029701404841918761 0 -0.039368202477031343 -0.028729915773324673 0 -0.038469710372671502 -0.029701404841918761 0 -0.037699336495553216 -0.030112033306050955 0 -0.037790288732224432 -0.028605968734660182 0 -0.037699336495553216 -0.030112033306050955 0 -0.037790288732224432 -0.028605968734660182 0 -0.036678201901322351 -0.029812486240816845 0 -0.038362258277315799 -0.030584057656830865 0 -0.038469710372671502 -0.029701404841918761 0 -0.037699336495553216 -0.030112033306050955 0 -0.037919726739251661 -0.031050293168774928 0 -0.038362258277315799 -0.030584057656830865 0 -0.037699336495553216 -0.030112033306050955 0 -0.040543906101330462 -0.032334951507177211 0 -0.040995069476642547 -0.031109062233081023 0 -0.040184253380122423 -0.031274313770370481 0 -0.024002524735348345 -0.036852032013399968 0 -0.024036124144877553 -0.036687580243056003 0 -0.024088619244772635 -0.036847559171823287 0 -0.030936585219208567 -0.033686846764901787 0 -0.030791093954104204 -0.032526638810566694 0 -0.040995069476642547 -0.031109062233081023 0 -0.040184253380122423 -0.031274313770370481 0 -0.040464334144611376 -0.030754264383007421 0 -0.040543906101330462 -0.032334951507177211 0 -0.040184253380122423 -0.031274313770370481 0 -0.039587335608175733 -0.031811899402753099 0 -0.040184253380122423 -0.031274313770370481 0 -0.039587335608175733 -0.031811899402753099 0 -0.039577617266998141 -0.031173749066464664 0 -0.039161352590505141 -0.030909880773706405 0 -0.039920135030691029 -0.030568095738376003 0 -0.039889526178664481 -0.029779754084537619 0 -0.037210994976215363 -0.028594807284269361 0 -0.036905468398870954 -0.027499576984619745 0 -0.040184253380122423 -0.031274313770370481 0 -0.039577617266998141 -0.031173749066464664 0 -0.039920135030691029 -0.030568095738376003 0 -0.039161352590505141 -0.030909880773706405 0 -0.039577617266998141 -0.031173749066464664 0 -0.039920135030691029 -0.030568095738376003 0 -0.040184253380122423 -0.031274313770370481 0 -0.039920135030691029 -0.030568095738376003 0 -0.040464334144611376 -0.030754264383007421 0 -0.039920135030691029 -0.030568095738376003 0 -0.040464334144611376 -0.030754264383007421 0 -0.040753178129725447 -0.030080437071325381 0 -0.040995069476642547 -0.031109062233081023 0 -0.040753178129725447 -0.030080437071325381 0 -0.041489806801503659 -0.030062596874897391 0 -0.040995069476642547 -0.031109062233081023 0 -0.040464334144611376 -0.030754264383007421 0 -0.040753178129725447 -0.030080437071325381 0 -0.040753178129725447 -0.030080437071325381 0 -0.04053173335220589 -0.029535020413299567 0 -0.039889526178664481 -0.029779754084537619 0 -0.040753178129725447 -0.030080437071325381 0 -0.04053173335220589 -0.029535020413299567 0 -0.040986686370040736 -0.029478484942713823 0 -0.039920135030691029 -0.030568095738376003 0 -0.040753178129725447 -0.030080437071325381 0 -0.039889526178664481 -0.029779754084537619 0 -0.036905468398870954 -0.027499576984619745 0 -0.035992778779321666 -0.025981649848403555 0 -0.037221531105918686 -0.027094662042044363 0 -0.036965830206018901 -0.026168545746839703 0 -0.037738189664040481 -0.026179095561126679 0 -0.037221531105918686 -0.027094662042044363 0 -0.036965830206018901 -0.026168545746839703 0 -0.036834087450148073 -0.027089566689755984 0 -0.037552861250483821 -0.026047088650339546 0 -0.035992778779321666 -0.025981649848403555 0 -0.040485692824722003 -0.028822662098374502 0 -0.040986686370040736 -0.029478484942713823 0 -0.041202996777786681 -0.028858506794120106 0 -0.04053173335220589 -0.029535020413299567 0 -0.040485692824722003 -0.028822662098374502 0 -0.040986686370040736 -0.029478484942713823 0 -0.035992778779321666 -0.025981649848403555 0 -0.033805849585654975 -0.026675731519782135 0 -0.04053173335220589 -0.029535020413299567 0 -0.039889526178664481 -0.029779754084537619 0 -0.040485692824722003 -0.028822662098374502 0 -0.036703516475831047 -0.028013374992570443 0 -0.037221531105918686 -0.027094662042044363 0 -0.036834087450148073 -0.027089566689755984 0 -0.038469710372671502 -0.029701404841918761 0 -0.037790288732224432 -0.028605968734660182 0 -0.039368202477031343 -0.028729915773324673 0 -0.039611060070904654 -0.02699703262436692 0 -0.037790288732224432 -0.028605968734660182 0 -0.039368202477031343 -0.028729915773324673 0 -0.037552861250483821 -0.026047088650339546 0 -0.037455769635989261 -0.027536230239671378 0 -0.039611060070904654 -0.02699703262436692 0 -0.037790288732224432 -0.028605968734660182 0 -0.037285276780210048 -0.026972565804505612 0 -0.037790288732224432 -0.028605968734660182 0 -0.036435145586657808 -0.028380433244120838 0 -0.037285276780210048 -0.026972565804505612 0 -0.036435145586657808 -0.028380433244120838 0 -0.034979048038897759 -0.026942292533212949 0 -0.037285276780210048 -0.026972565804505612 0 -0.037790288732224432 -0.028605968734660182 0 -0.036435145586657808 -0.028380433244120838 0 -0.036678201901322351 -0.029812486240816845 0 -0.036435145586657808 -0.028380433244120838 0 -0.035593843744518766 -0.029220434134737294 0 -0.036678201901322351 -0.029812486240816845 0 -0.036047818618185623 -0.02931129572315571 0 -0.03560232879662889 -0.02816748576326342 0 -0.035584041766494608 -0.029619016089016972 0 -0.037906550041150788 -0.028214586642084448 0 -0.037635630732515017 -0.02721155742488883 0 -0.036467875560114861 -0.027441690179007702 0 -0.036657963425407412 -0.027624428260561235 0 -0.035868786918089368 -0.02724403737319412 0 -0.036657963425407412 -0.027624428260561235 0 -0.036658891989507364 -0.027635651156190055 0 -0.036657963425407412 -0.027624428260561235 0 -0.036681173376067591 -0.027127007643930331 0 -0.036435145586657808 -0.028380433244120838 0 -0.035593843744518766 -0.029220434134737294 0 -0.035286757985219061 -0.028080670146643283 0 -0.036435145586657808 -0.028380433244120838 0 -0.035286757985219061 -0.028080670146643283 0 -0.034979048038897759 -0.026942292533212949 0 -0.036681173376067591 -0.027127007643930331 0 -0.03668274251820778 -0.026371449217021913 0 -0.037635630732515017 -0.02721155742488883 0 -0.036955480311122543 -0.026848241366135325 0 -0.037364556433656111 -0.026201282233777878 0 -0.036955480311122543 -0.026848241366135325 0 -0.036467875560114861 -0.027441690179007702 0 -0.036566496468833462 -0.026185708544309155 0 -0.036467875560114861 -0.027441690179007702 0 -0.035710220951641745 -0.026067142574286082 0 -0.036566496468833462 -0.026185708544309155 0 -0.036955480311122543 -0.026848241366135325 0 -0.036566496468833462 -0.026185708544309155 0 -0.037364556433656111 -0.026201282233777878 0 -0.037635630732515017 -0.02721155742488883 0 -0.036955480311122543 -0.026848241366135325 0 -0.036467875560114861 -0.027441690179007702 0 -0.035000861691498013 -0.026667092781653499 0 -0.035868786918089368 -0.02724403737319412 0 -0.035000003317286608 -0.026666260465041794 0 -0.036467875560114861 -0.027441690179007702 0 -0.035710220951641745 -0.026067142574286082 0 -0.034999885233734339 -0.026667492284540819 0 -0.03560232879662889 -0.02816748576326342 0 -0.034999132809689817 -0.028699069953474141 0 -0.03560232879662889 -0.02816748576326342 0 -0.035584041766494608 -0.029619016089016972 0 -0.034999132809689817 -0.028699069953474141 0 -0.035584041766494608 -0.029619016089016972 0 -0.034999132809689817 -0.028699069953474141 0 -0.035113987220195743 -0.030758377656839156 0 -0.034998038612006011 -0.031405308644340255 0 -0.034999132809689817 -0.028699069953474141 0 -0.035113987220195743 -0.030758377656839156 0 -0.035584041766494608 -0.029619016089016972 0 -0.035113987220195743 -0.030758377656839156 0 -0.035523356171993391 -0.030835302761511512 0 -0.03465998220074025 -0.033248213592670113 0 -0.035113987220195743 -0.030758377656839156 0 -0.035523356171993391 -0.030835302761511512 0 -0.03465998220074025 -0.033248213592670113 0 -0.035523356171993391 -0.030835302761511512 0 -0.036664078076992727 -0.030885474561682846 0 -0.035523356171993391 -0.030835302761511512 0 -0.036664078076992727 -0.030885474561682846 0 -0.036057425454107214 -0.030093833459900819 0 -0.036664078076992727 -0.030885474561682846 0 -0.036678201901322351 -0.029812486240816845 0 -0.036057425454107214 -0.030093833459900819 0 -0.037699336495553216 -0.030112033306050955 0 -0.036664078076992727 -0.030885474561682846 0 -0.036678201901322351 -0.029812486240816845 0 -0.036009989240960126 -0.029316623875314335 0 -0.036678201901322351 -0.029812486240816845 0 -0.036040482565899382 -0.02945531076836061 0 -0.036678201901322351 -0.029812486240816845 0 -0.036040482565899382 -0.02945531076836061 0 -0.036057425454107214 -0.030093833459900819 0 -0.036657963425407412 -0.027624428260561235 0 -0.036736684749270922 -0.02781433934192365 0 -0.035584041766494608 -0.029619016089016972 0 -0.036040482565899382 -0.02945531076836061 0 -0.036057425454107214 -0.030093833459900819 0 -0.036047818618185623 -0.02931129572315571 0 -0.035584041766494608 -0.029619016089016972 0 -0.036040482565899382 -0.02945531076836061 0 -0.035584041766494608 -0.029619016089016972 0 -0.035523356171993391 -0.030835302761511512 0 -0.036057425454107214 -0.030093833459900819 0 -0.014799849558099348 -0.036241219226388136 0 -0.013664914163674959 -0.034256655942244807 0 -0.017634648276155497 -0.037809686816731934 0 -0.017538874902488722 -0.039927893701231405 0 -0.016415301370831092 -0.038314502777379966 0 -0.019239921446666225 -0.038268120339516147 0 -0.017926997475724335 -0.037833294159763796 0 -0.017816490002536888 -0.039313387984591525 0 -0.019239921446666225 -0.038268120339516147 0 -0.019168892856278354 -0.039555272243486143 0 -0.017816490002536888 -0.039313387984591525 0 -0.019239921446666225 -0.038268120339516147 0 -0.020436823278770666 -0.038822635141699077 0 -0.019168892856278354 -0.039555272243486143 0 -0.019239921446666225 -0.038268120339516147 0 -0.018738683930825339 -0.037128352891163764 0 -0.01977990607114135 -0.036998333874454531 0 -0.019239921446666225 -0.038268120339516147 0 -0.018738683930825339 -0.037128352891163764 0 -0.017926997475724335 -0.037833294159763796 0 -0.014799849558099348 -0.036241219226388136 0 -0.015185963050477754 -0.036356201387851471 0 -0.018738683930825339 -0.037128352891163764 0 -0.017926997475724335 -0.037833294159763796 0 -0.0179554215515727 -0.036286651494308084 0 -0.017634648276155497 -0.037809686816731934 0 -0.0179554215515727 -0.036286651494308084 0 -0.016170807814451616 -0.036667927144289486 0 -0.0179554215515727 -0.036286651494308084 0 -0.017968686564713902 -0.034999694525785038 0 -0.019154159483202947 -0.036025590147342496 0 -0.0179554215515727 -0.036286651494308084 0 -0.017968686564713902 -0.034999694525785038 0 -0.016802075780784305 -0.035681778878881881 0 -0.017968686564713902 -0.034999694525785038 0 -0.019154159483202947 -0.036025590147342496 0 -0.019889420523484774 -0.03499996112200246 0 -0.018738683930825339 -0.037128352891163764 0 -0.0179554215515727 -0.036286651494308084 0 -0.019154159483202947 -0.036025590147342496 0 -0.018738683930825339 -0.037128352891163764 0 -0.019154159483202947 -0.036025590147342496 0 -0.01977990607114135 -0.036998333874454531 0 -0.01977990607114135 -0.036998333874454531 0 -0.020406172616125609 -0.035919386419665598 0 -0.020848442940603014 -0.036836296575418842 0 -0.019154159483202947 -0.036025590147342496 0 -0.01977990607114135 -0.036998333874454531 0 -0.020406172616125609 -0.035919386419665598 0 -0.019889420523484774 -0.03499996112200246 0 -0.020406172616125609 -0.035919386419665598 0 -0.021810034095548155 -0.034999944368582309 0 -0.019154159483202947 -0.036025590147342496 0 -0.019889420523484774 -0.03499996112200246 0 -0.020406172616125609 -0.035919386419665598 0 -0.020406172616125609 -0.035919386419665598 0 -0.021810034095548155 -0.034999944368582309 0 -0.021389050783001535 -0.03612900579323234 0 -0.021389050783001535 -0.03612900579323234 0 -0.020848442940603014 -0.036836296575418842 0 -0.021944907437158174 -0.036796048031910361 0 -0.020406172616125609 -0.035919386419665598 0 -0.021389050783001535 -0.03612900579323234 0 -0.020848442940603014 -0.036836296575418842 0 -0.020848442940603014 -0.036836296575418842 0 -0.021386838656407031 -0.03750806872597192 0 -0.021944907437158174 -0.036796048031910361 0 -0.021386838656407031 -0.03750806872597192 0 -0.021170098464024605 -0.038405384902186847 0 -0.021868671853998444 -0.038057277147851391 0 -0.021386838656407031 -0.03750806872597192 0 -0.020456382663671956 -0.037800242639409412 0 -0.021170098464024605 -0.038405384902186847 0 -0.020848442940603014 -0.036836296575418842 0 -0.021386838656407031 -0.03750806872597192 0 -0.020456382663671956 -0.037800242639409412 0 -0.019239921446666225 -0.038268120339516147 0 -0.01977990607114135 -0.036998333874454531 0 -0.020456382663671956 -0.037800242639409412 0 -0.01977990607114135 -0.036998333874