<?xml version="1.0"?>
<VTKFile type="UnstructuredGrid" version="0.1" byte_order="LittleEndian">
<UnstructuredGrid>
<Piece NumberOfPoints="31898" NumberOfCells="11152">
<Points>
<DataArray type="Float64" NumberOfComponents="3" format="ascii">
-0.5 -0.5 0 -0.47620991077874902 -0.44978878706170539 0 -0.49999999999999473 -0.42132396840504388 0 -0.5 -0.5 0 -0.47160970827802529 -0.4793630013852106 0 -0.47620991077874902 -0.44978878706170539 0 -0.5 -0.5 0 -0.47160970827802529 -0.4793630013852106 0 -0.44860394795025399 -0.5 0 -0.47160970827802529 -0.4793630013852106 0 -0.44860394795025399 -0.5 0 -0.4490820238307246 -0.45820516232899983 0 -0.44860394795025399 -0.5 0 -0.4490820238307246 -0.45820516232899983 0 -0.42881687682924802 -0.47781464288736519 0 -0.4490820238307246 -0.45820516232899983 0 -0.45555437223955858 -0.42914059360647611 0 -0.4490820238307246 -0.45820516232899983 0 -0.45555437223955858 -0.42914059360647611 0 -0.43867285131603428 -0.4271457417558665 0 -0.4490820238307246 -0.45820516232899983 0 -0.43867285131603428 -0.4271457417558665 0 -0.4263356171060747 -0.44269880333887462 0 -0.47160970827802529 -0.4793630013852106 0 -0.4490820238307246 -0.45820516232899983 0 -0.47620991077874902 -0.44978878706170539 0 -0.4490820238307246 -0.45820516232899983 0 -0.47620991077874902 -0.44978878706170539 0 -0.45555437223955858 -0.42914059360647611 0 -0.47620991077874902 -0.44978878706170539 0 -0.48101336032419229 -0.41069999664450008 0 -0.45555437223955858 -0.42914059360647611 0 -0.47620991077874902 -0.44978878706170539 0 -0.49999999999999473 -0.42132396840504388 0 -0.48101336032419229 -0.41069999664450008 0 -0.49999999999999473 -0.42132396840504388 0 -0.48101336032419229 -0.41069999664450008 0 -0.5 -0.393886241813306 0 -0.49999999999999473 -0.42132396840504388 0 -0.48101336032419229 -0.41069999664450008 0 -0.5 -0.393886241813306 0 -0.47854472220918332 -0.38978458738689759 0 -0.48422759779560409 -0.37130120630367158 0 -0.5 -0.393886241813306 0 -0.5 -0.36644851522156802 0 -0.48422759779560409 -0.37130120630367158 0 -0.48101336032419229 -0.41069999664450008 0 -0.5 -0.393886241813306 0 -0.47854472220918332 -0.38978458738689759 0 -0.48101336032419229 -0.41069999664450008 0 -0.47854472220918332 -0.38978458738689759 0 -0.46202672064839212 -0.40007602488395211 0 -0.48101336032419229 -0.41069999664450008 0 -0.46202672064839212 -0.40007602488395211 0 -0.47854472220918332 -0.38978458738689759 0 -0.46725442735267431 -0.37660061361585562 0 -0.46202672064839212 -0.40007602488395211 0 -0.47854472220918332 -0.38978458738689759 0 -0.46725442735267431 -0.37660061361585562 0 -0.48422759779560409 -0.37130120630367158 0 -0.46725442735267431 -0.37660061361585562 0 -0.46202672064839212 -0.40007602488395211 0 -0.46725442735267431 -0.37660061361585562 0 -0.45645674801697989 -0.38644133236760531 0 -0.46202672064839212 -0.40007602488395211 0 -0.46725442735267431 -0.37660061361585562 0 -0.45645674801697989 -0.38644133236760531 0 -0.4540003998136638 -0.37455519391687309 0 -0.45645674801697989 -0.38644133236760531 0 -0.46202672064839212 -0.40007602488395211 0 -0.44257020456291563 -0.38918913383950271 0 -0.46202672064839212 -0.40007602488395211 0 -0.44257020456291563 -0.38918913383950271 0 -0.44727608925983742 -0.41095911152778891 0 -0.46202672064839212 -0.40007602488395211 0 -0.44257020456291563 -0.38918913383950271 0 -0.44257020456291563 -0.38918913383950271 0 -0.44727608925983742 -0.41095911152778891 0 -0.43479358559901082 -0.4041454901736512 0 -0.44257020456291563 -0.38918913383950271 0 -0.4540003998136638 -0.37455519391687309 0 -0.44172858264042247 -0.37082207246888088 0 -0.45645674801697989 -0.38644133236760531 0 -0.44257020456291563 -0.38918913383950271 0 -0.4540003998136638 -0.37455519391687309 0 -0.46202672064839212 -0.40007602488395211 0 -0.45555437223955858 -0.42914059360647611 0 -0.44727608925983742 -0.41095911152778891 0 -0.46202672064839212 -0.40007602488395211 0 -0.45555437223955858 -0.42914059360647611 0 -0.48101336032419229 -0.41069999664450008 0 -0.46202672064839212 -0.40007602488395211 0 -0.45555437223955858 -0.42914059360647611 0 -0.44727608925983742 -0.41095911152778891 0 -0.43867285131603428 -0.4271457417558665 0 -0.43676601469929588 -0.41441201227470881 0 -0.44727608925983742 -0.41095911152778891 0 -0.43676601469929588 -0.41441201227470881 0 -0.43479358559901082 -0.4041454901736512 0 -0.45555437223955858 -0.42914059360647611 0 -0.44727608925983742 -0.41095911152778891 0 -0.43867285131603428 -0.4271457417558665 0 -0.43867285131603428 -0.4271457417558665 0 -0.42681803064840879 -0.42717069814352421 0 -0.4263356171060747 -0.44269880333887462 0 -0.42681803064840879 -0.42717069814352421 0 -0.41531815884496182 -0.42985383783075998 0 -0.4263356171060747 -0.44269880333887462 0 -0.42681803064840879 -0.42717069814352421 0 -0.42624289495594048 -0.42089725947505818 0 -0.42083332353326591 -0.42146747131641099 0 -0.42681803064840879 -0.42717069814352421 0 -0.43096994786351572 -0.41951492446283251 0 -0.42624289495594048 -0.42089725947505818 0 -0.43867285131603428 -0.4271457417558665 0 -0.42681803064840879 -0.42717069814352421 0 -0.43096994786351572 -0.41951492446283251 0 -0.43867285131603428 -0.4271457417558665 0 -0.43676601469929588 -0.41441201227470881 0 -0.43096994786351572 -0.41951492446283251 0 -0.43676601469929588 -0.41441201227470881 0 -0.43096994786351572 -0.41951492446283251 0 -0.42907264086257813 -0.41311715872526122 0 -0.43676601469929588 -0.41441201227470881 0 -0.42907264086257813 -0.41311715872526122 0 -0.43479358559901082 -0.4041454901736512 0 -0.42907264086257813 -0.41311715872526122 0 -0.43479358559901082 -0.4041454901736512 0 -0.42460885511582858 -0.40417321677700252 0 -0.42907264086257813 -0.41311715872526122 0 -0.41997834854398469 -0.41180534796019508 0 -0.42907264086257813 -0.41311715872526122 0 -0.42635027777857132 -0.41543594397746519 0 -0.41997834854398469 -0.41180534796019508 0 -0.42907264086257813 -0.41311715872526122 0 -0.41997834854398469 -0.41180534796019508 0 -0.42460885511582858 -0.40417321677700252 0 -0.42635027777857132 -0.41543594397746519 0 -0.41997834854398469 -0.41180534796019508 0 -0.42635027777857132 -0.41543594397746519 0 -0.42083332353326591 -0.42146747131641099 0 -0.41997834854398469 -0.41180534796019508 0 -0.43096994786351572 -0.41951492446283251 0 -0.42624289495594048 -0.42089725947505818 0 -0.42635027777857132 -0.41543594397746519 0 -0.43096994786351572 -0.41951492446283251 0 -0.42907264086257813 -0.41311715872526122 0 -0.42635027777857132 -0.41543594397746519 0 -0.42624289495594048 -0.42089725947505818 0 -0.42635027777857132 -0.41543594397746519 0 -0.42083332353326591 -0.42146747131641099 0 -0.42083332353326591 -0.42146747131641099 0 -0.41997834854398469 -0.41180534796019508 0 -0.40992282953163789 -0.42011435591993562 0 -0.41997834854398469 -0.41180534796019508 0 -0.39756877647335259 -0.40857286797681719 0 -0.41997834854398469 -0.41180534796019508 0 -0.40992282953163789 -0.42011435591993562 0 -0.39756877647335259 -0.40857286797681719 0 -0.40992282953163789 -0.42011435591993562 0 -0.41531815884496182 -0.42985383783075998 0 -0.39591554026262499 -0.42887225451549271 0 -0.41531815884496182 -0.42985383783075998 0 -0.39591554026262499 -0.42887225451549271 0 -0.41160927495564159 -0.44339431233754628 0 -0.42083332353326591 -0.42146747131641099 0 -0.40992282953163789 -0.42011435591993562 0 -0.41531815884496182 -0.42985383783075998 0 -0.42681803064840879 -0.42717069814352421 0 -0.42083332353326591 -0.42146747131641099 0 -0.41531815884496182 -0.42985383783075998 0 -0.44257020456291563 -0.38918913383950271 0 -0.42311368847744002 -0.37830224279505142 0 -0.42594061475171041 -0.39368797999533162 0 -0.44257020456291563 -0.38918913383950271 0 -0.42311368847744002 -0.37830224279505142 0 -0.44172858264042247 -0.37082207246888088 0 -0.44257020456291563 -0.38918913383950271 0 -0.42311368847744002 -0.37830224279505142 0 -0.42311368847744002 -0.37830224279505142 0 -0.42594061475171041 -0.39368797999533162 0 -0.416587075656149 -0.38785930376960043 0 -0.44257020456291563 -0.38918913383950271 0 -0.42594061475171041 -0.39368797999533162 0 -0.43479358559901082 -0.4041454901736512 0 -0.42594061475171041 -0.39368797999533162 0 -0.43479358559901082 -0.4041454901736512 0 -0.42460885511582858 -0.40417321677700252 0 -0.41997834854398469 -0.41180534796019508 0 -0.41325908582185972 -0.39811010703057192 0 -0.39770572831670092 -0.39911486077581648 0 -0.41997834854398469 -0.41180534796019508 0 -0.39770572831670092 -0.39911486077581648 0 -0.42594061475171041 -0.39368797999533162 0 -0.42460885511582858 -0.40417321677700252 0 -0.41325908582185972 -0.39811010703057192 0 -0.41997834854398469 -0.41180534796019508 0 -0.42460885511582858 -0.40417321677700252 0 -0.41325908582185972 -0.39811010703057192 0 -0.42594061475171041 -0.39368797999533162 0 -0.41325908582185972 -0.39811010703057192 0 -0.416587075656149 -0.38785930376960043 0 -0.41325908582185972 -0.39811010703057192 0 -0.416587075656149 -0.38785930376960043 0 -0.40403491357358612 -0.38133688525744702 0 -0.42311368847744002 -0.37830224279505142 0 -0.40403491357358612 -0.38133688525744702 0 -0.40365717239196519 -0.36741535175059892 0 -0.42311368847744002 -0.37830224279505142 0 -0.416587075656149 -0.38785930376960043 0 -0.40403491357358612 -0.38133688525744702 0 -0.40403491357358612 -0.38133688525744702 0 -0.39190790742475001 -0.38540387676521748 0 -0.39770572831670092 -0.39911486077581648 0 -0.40403491357358612 -0.38133688525744702 0 -0.39190790742475001 -0.38540387676521748 0 -0.3904578797192948 -0.37473938743617019 0 -0.41325908582185972 -0.39811010703057192 0 -0.40403491357358612 -0.38133688525744702 0 -0.39770572831670092 -0.39911486077581648 0 -0.39770572831670092 -0.39911486077581648 0 -0.37543310808941849 -0.38642437359143528 0 -0.39770572831670092 -0.39911486077581648 0 -0.37515920440272033 -0.40534038799344108 0 -0.37543310808941849 -0.38642437359143528 0 -0.39770572831670092 -0.39911486077581648 0 -0.37515920440272033 -0.40534038799344108 0 -0.39756877647335259 -0.40857286797681719
[...]
<PointData Scalars="" Vectors="displacement," Tensors="">
<DataArray type="Float64" Name="displacement" NumberOfComponents="3" format="ascii">
-1.701236689749453e-06 -0.034996799396761813 0 -0.00017031870302294339 -0.032722852511159028 0 3.603635460769889e-06 -0.02950083871910384 0 -1.701236689749453e-06 -0.034996799396761813 0 -0.00015694452771435847 -0.034201217947335084 0 -0.00017031870302294339 -0.032722852511159028 0 -1.701236689749453e-06 -0.034996799396761813 0 -0.00015694452771435847 -0.034201217947335084 0 5.9599703238252118e-09 -0.034999147054099525 0 -0.00015694452771435847 -0.034201217947335084 0 5.9599703238252118e-09 -0.034999147054099525 0 -8.6312870720989975e-05 -0.03420272845085523 0 5.9599703238252118e-09 -0.034999147054099525 0 -8.6312870720989975e-05 -0.03420272845085523 0 -6.8047716374522576e-05 -0.034766705864118161 0 -0.00033641941952010086 -0.031352497526051078 0 -2.0704017889355603e-05 -0.030528753564497975 0 -8.6312870720989975e-05 -0.03420272845085523 0 0.00039725973985764782 -0.034171284133466748 0 0.00042865929528140481 -0.034371138701993174 0 -8.6312870720989975e-05 -0.03420272845085523 0 0.00042865929528140481 -0.034371138701993174 0 0.0002107692101511692 -0.034590750331121078 0 -0.00015694452771435847 -0.034201217947335084 0 -8.6312870720989975e-05 -0.03420272845085523 0 -0.00017031870302294339 -0.032722852511159028 0 -8.6312870720989975e-05 -0.03420272845085523 0 -0.00017031870302294339 -0.032722852511159028 0 0.00062423943491745173 -0.033380784265144708 0 -0.00017031870302294339 -0.032722852511159028 0 0.0013261900546661348 -0.031626218824131608 0 0.00062423943491745173 -0.033380784265144708 0 -0.00017031870302294339 -0.032722852511159028 0 3.603635460769889e-06 -0.02950083871910384 0 0.0013261900546661348 -0.031626218824131608 0 1.98057292905556e-06 -0.029489653042770958 0 0.00030109022933031099 -0.027193631647860404 0 -8.3643711052323077e-07 -0.027572047169826166 0 1.4758932423171619e-06 -0.0294911541716988 0 0.00048467048498615348 -0.028846692073598707 0 -8.3643711052323077e-07 -0.027572047169826166 0 -7.9757312916170991e-05 -0.026488689746245807 0 -0.00016789920708964871 -0.025781567986707086 0 -8.3643711052323077e-07 -0.027572047169826166 0 -2.5534892518895027e-07 -0.025651173707052957 0 -0.00016789920708964871 -0.025781567986707086 0 0.00030109022933031099 -0.027193631647860404 0 -8.3643711052323077e-07 -0.027572047169826166 0 -7.9757312916170991e-05 -0.026488689746245807 0 0.00030109022933031099 -0.027193631647860404 0 -7.9757312916170991e-05 -0.026488689746245807 0 0.00013168639506434463 -0.026229863642530264 0 0.00048467048498615348 -0.028846692073598707 0 0.00075557066293253385 -0.027777047218450951 0 -7.9757312916170991e-05 -0.026488689746245807 0 -0.00020676258545262861 -0.026003559103824094 0 0.00013168639506434463 -0.026229863642530264 0 -7.9757312916170991e-05 -0.026488689746245807 0 -0.00020676258545262861 -0.026003559103824094 0 -0.00016789920708964871 -0.025781567986707086 0 0.00059433419640466214 -0.025600907198943212 0 0.00075557066293253385 -0.027777047218450951 0 0.00096302709128899501 -0.020362211587875136 0 0.00075178177930110095 -0.020573150291444953 0 0.00047900893963542058 -0.020469494502871916 0 0.00096302709128899501 -0.020362211587875136 0 0.00075178177930110095 -0.020573150291444953 0 0.00097372914367721412 -0.020607605604779613 0 0.00075178177930110095 -0.020573150291444953 0 0.00047900893963542058 -0.020469494502871916 0 0.00068863232165404368 -0.020847689294244982 0 0.00058112448015140261 -0.034237205495267604 0 0.00052951351368767173 -0.03433654250954022 0 0.00054399062473940078 -0.034294403414235175 0 0.00075557066293253385 -0.027777047218450951 0 0.00077734648638180543 -0.027436883186329402 0 0.00052951351368767173 -0.03433654250954022 0 0.00054399062473940078 -0.034294403414235175 0 0.00056062954695934987 -0.034338715582695238 0 0.00068863232165404368 -0.020847689294244982 0 0.00097372914367721412 -0.020607605604779613 0 0.0010399487879541734 -0.020856331785827829 0 0.00075178177930110095 -0.020573150291444953 0 0.00068863232165404368 -0.020847689294244982 0 0.00097372914367721412 -0.020607605604779613 0 0.00058112448015140261 -0.034237205495267604 0 0.00039725973985764782 -0.034171284133466748 0 0.00054399062473940078 -0.034294403414235175 0 0.00075557066293253385 -0.027777047218450951 0 -2.0704017889355603e-05 -0.030528753564497975 0 0.0013261900546661348 -0.031626218824131608 0 0.002047365966283814 -0.032800912191247818 0 0.00062423943491745173 -0.033380784265144708 0 0.00054399062473940078 -0.034294403414235175 0 0.00042865929528140481 -0.034371138701993174 0 0.00054466568748723441 -0.034359142035085062 0 0.00054399062473940078 -0.034294403414235175 0 0.00054466568748723441 -0.034359142035085062 0 0.00056062954695934987 -0.034338715582695238 0 0.00039725973985764782 -0.034171284133466748 0 0.00054399062473940078 -0.034294403414235175 0 0.00042865929528140481 -0.034371138701993174 0 0.00042865929528140481 -0.034371138701993174 0 0.00041085491747211076 -0.034523510547596392 0 0.0002107692101511692 -0.034590750331121078 0 0.00041085491747211076 -0.034523510547596392 0 0.00037065428269125023 -0.034692867944315288 0 0.0002107692101511692 -0.034590750331121078 0 0.00041085491747211076 -0.034523510547596392 0 0.00048791347891040464 -0.034504108699367667 0 0.0004776018555882608 -0.034594822653510368 0 0.00041085491747211076 -0.034523510547596392 0 0.00050641488614187457 -0.034425664962534908 0 0.00048791347891040464 -0.034504108699367667 0 0.00042865929528140481 -0.034371138701993174 0 0.00041085491747211076 -0.034523510547596392 0 0.00050641488614187457 -0.034425664962534908 0 0.00042865929528140481 -0.034371138701993174 0 0.00054466568748723441 -0.034359142035085062 0 0.00050641488614187457 -0.034425664962534908 0 0.00054466568748723441 -0.034359142035085062 0 0.00050641488614187457 -0.034425664962534908 0 0.00059937325830786939 -0.034387066730267014 0 0.00054466568748723441 -0.034359142035085062 0 0.00059937325830786939 -0.034387066730267014 0 0.00056062954695934987 -0.034338715582695238 0 0.00059937325830786939 -0.034387066730267014 0 0.00056062954695934987 -0.034338715582695238 0 0.00056859348835135127 -0.034283388773496445 0 0.0014201737773413289 -0.03324010984527296 0 0.0014287497852876138 -0.033140809054766532 0 0.00059937325830786939 -0.034387066730267014 0 0.00055851622591119058 -0.034474645295274747 0 0.00066650587294275537 -0.034648950791305561 0 0.00059937325830786939 -0.034387066730267014 0 0.00065291743276154907 -0.034236982442207242 0 0.00056859348835135127 -0.034283388773496445 0 0.0014323350429837629 -0.033189445655576653 0 0.0014287497852876138 -0.033140809054766532 0 0.00055851622591119058 -0.034474645295274747 0 0.0004776018555882608 -0.034594822653510368 0 0.00061873669167206657 -0.034604152276465003 0 0.00050641488614187457 -0.034425664962534908 0 0.00048791347891040464 -0.034504108699367667 0 0.00055851622591119058 -0.034474645295274747 0 0.00050641488614187457 -0.034425664962534908 0 0.00059937325830786939 -0.034387066730267014 0 0.00055851622591119058 -0.034474645295274747 0 0.00048791347891040464 -0.034504108699367667 0 0.00055851622591119058 -0.034474645295274747 0 0.0004776018555882608 -0.034594822653510368 0 0.0004776018555882608 -0.034594822653510368 0 0.00061873669167206657 -0.034604152276465003 0 0.00049642407510944967 -0.034751320968059995 0 0.0014287497852876138 -0.033140809054766532 0 0.0011578952130571511 -0.032898182627885915 0 0.00061873669167206657 -0.034604152276465003 0 0.00049642407510944967 -0.034751320968059995 0 0.00064170172563933156 -0.034909325909295894 0 0.00049642407510944967 -0.034751320968059995 0 0.00037065428269125023 -0.034692867944315288 0 0.00038498755098492288 -0.034932541976472387 0 0.00037065428269125023 -0.034692867944315288 0 0.00038498755098492288 -0.034932541976472387 0 0.00020593133329655525 -0.034764896210373854 0 0.0004776018555882608 -0.034594822653510368 0 0.00049642407510944967 -0.034751320968059995 0 0.00037065428269125023 -0.034692867944315288 0 0.00041085491747211076 -0.034523510547596392 0 0.0004776018555882608 -0.034594822653510368 0 0.00037065428269125023 -0.034692867944315288 0 0.00052951351368767173 -0.03433654250954022 0 0.00033652334553786815 -0.034229474603377545 0 0.00049883061075031297 -0.034267340092898037 0 0.00068863232165404368 -0.020847689294244982 0 0.00088824552991391143 -0.021240511709117425 0 0.0010399487879541734 -0.020856331785827829 0 0.00077734648638180543 -0.027436883186329402 0 0.00085539742118853005 -0.027063399010525215 0 0.00033652334553786815 -0.034229474603377545 0 0.00049883061075031297 -0.034267340092898037 0 0.00042811875694798108 -0.034157816583066734 0 0.00052951351368767173 -0.03433654250954022 0 0.00049883061075031297 -0.034267340092898037 0 0.00056062954695934987 -0.034338715582695238 0 0.00049883061075031297 -0.034267340092898037 0 0.00056062954695934987 -0.034338715582695238 0 0.00056859348835135127 -0.034283388773496445 0 0.00065291743276154907 -0.034236982442207242 0 0.00053550577175564011 -0.03413102437632913 0 0.00057590334837028044 -0.03390982638094011 0 0.0014287497852876138 -0.033140809054766532 0 0.0014752301158915987 -0.031997492265285671 0 0.00049883061075031297 -0.034267340092898037 0 0.00056859348835135127 -0.034283388773496445 0 0.00053550577175564011 -0.03413102437632913 0 0.00065291743276154907 -0.034236982442207242 0 0.00056859348835135127 -0.034283388773496445 0 0.00053550577175564011 -0.03413102437632913 0 0.00049883061075031297 -0.034267340092898037 0 0.00053550577175564011 -0.03413102437632913 0 0.00042811875694798108 -0.034157816583066734 0 0.00053550577175564011 -0.03413102437632913 0 0.00042811875694798108 -0.034157816583066734 0 0.00033702980943652158 -0.033994006813954772 0 0.00033652334553786815 -0.034229474603377545 0 0.00033702980943652158 -0.033994006813954772 0 0.00017021294872445099 -0.033979729310975086 0 0.00033652334553786815 -0.034229474603377545 0 0.00042811875694798108 -0.034157816583066734 0 0.00033702980943652158 -0.033994006813954772 0 0.00033702980943652158 -0.033994006813954772 0 0.00038593867543761974 -0.033801601367603559 0 0.00057590334837028044 -0.03390982638094011 0 0.00033702980943652158 -0.033994006813954772 0 0.00038593867543761974 -0.033801601367603559 0 0.00021701260741664204 -0.033767912370362169 0 0.00053550577175564011 -0.03413102437632913 0 0.00033702980943652158 -0.033994006813954772 0 0.00057590334837028044 -0.03390982638094011 0 0.0014752301158915987 -0.031997492265285671 0 0.0013121673198881838 -0.0298118691099525 0 0.0014340963128868652 -0.031888272181472312 0 0.0016775662599173864 -0.031003079989154154 0 0.00093722319352277067 -0.031011818070226141 0 0.0014340963128868652 -0.031888272181472312 0 0.0016775662599173864 -0.031003079989154154 0 0.0018050381703663375 -0.031883613985227731 0 0.00078899465166923691 -0.031965384199305495 0 0.0013121673198881838 -0.0298118691099525 0 0.00040840712315155087 -0.033525646163893599 0 0.00021701260741664204 -0.033767912370362169 0 0.0001244684818870704 -0.03351435569895285 0 0.00038593867543761974 -0.033801601367603559 0 0.00040840712315155087 -0.033525646163893599 0 0.00021701260741664204 -0.033767912370362169 0 0.0013121673198881838 -0.0298118691099525 0 0.00096585179409105658 -0.027888758134130075 0 0.00038593867543761974 -0.033801601367603559 0 0.00057590334837028044 -0.03390982638094011 0 0.00040840712315155087 -0.033525646163893599 0 0.0019317643246751233 -0.032765985367058902 0 0.0014340963128868652 -0.031888272181472312 0 0.0018050381703663375 -0.031883613985227731 0 0.00049642407510944967 -0.034751320968059995 0 0.00038498755098492288 -0.034932541976472387 0 0.00064170172563933156 -0.034909325909295894 0 0.00067672237174467144 -0.035178210898569262 0 0.00038498755098492288 -0.034932541976472387 0 0.00064170172563933156 -0.034909325909295894 0 0.00078899465166923691 -0.031965384199305495 0 0.0011578952130571511 -0.032898182627885915 0 0.00067672237174467144 -0.035178210898569262 0 0.00038498755098492288 -0.034932541976472387 0 0.00030716877945721305 -0.035182662761053113 0 0.00038498755098492288 -0.034932541976472387 0 0.00017666154885268617 -0.03496923804837309 0 0.00030716877945721305 -0.035182662761053113 0 0.00017666154885268617 -0.03496923804837309 0 -4.1454975180411919e-05 -0.035183856070164721 0 0.00030716877945721305 -0.035182662761053113 0 0.00038498755098492288 -0.034932541976472387 0 0.00017666154885268617 -0.03496923804837309 0 0.00020593133329655525 -0.034764896210373854 0 0.00017666154885268617 -0.03496923804837309 0 5.2634605382286535e-05 -0.034847647134187275 0 0.00020593133329655525 -0.034764896210373854 0 4.8429993259817792e-05 -0.03487291436443081 0 -2.1293444248135245e-05 -0.034953112958415543 0 -2.1771067072571274e-05 -0.034840968324729008 0 6.8054370288874671e-06 -0.034992661906670601 0 5.5345730484167241e-06 -0.034996586326608903 0 1.3254859198791026e-06 -0.034996592485028344 0 6.9006227284945445e-05 -0.034856607816435674 0 9.5844338048154034e-06 -0.034945251578109848 0 6.9006227284945445e-05 -0.034856607816435674 0 6.8986183850960138e-05 -0.034856583637103568 0 6.9006227284945445e-05 -0.034856607816435674 0 8.7866488365185669e-05 -0.034748697129700912 0 0.00017666154885268617 -0.03496923804837309 0 5.2634605382286535e-05 -0.034847647134187275 0 5.4857464055823745e-06 -0.035013926691784998 0 0.00017666154885268617 -0.03496923804837309 0 5.4857464055823745e-06 -0.035013926691784998 0 -4.1454975180411919e-05 -0.035183856070164721 0 8.7866488365185669e-05 -0.034748697129700912 0 0.00014901219294229557 -0.034491273003237302 0 5.5345730484167241e-06 -0.034996586326608903 0 2.8588118115002037e-06 -0.034997798934535751 0 4.3714755517507748e-06 -0.034999570511964867 0 2.8588118115002037e-06 -0.034997798934535751 0 1.3254859198791026e-06 -0.034996592485028344 0 1.0903374043174526e-06 -0.034999453009618819 0 1.3254859198791026e-06 -0.034996592485028344 0 5.0415110617411214e-07 -0.034999656830343555 0 1.0903374043174526e-06 -0.034999453009618819 0 2.8588118115002037e-06 -0.034997798934535751 0 1.0903374043174526e-06 -0.034999453009618819 0 4.3714755517507748e-06 -0.034999570511964867 0 5.5345730484167241e-06 -0.034996586326608903 0 2.8588118115002037e-06 -0.034997798934535751 0 1.3254859198791026e-06 -0.034996592485028344 0 -3.0841729057636452e-08 -0.034999896512212185 0 9.5844338048154034e-06 -0.034945251578109848 0 -1.7278368861661497e-09 -0.034999996747416044 0 1.3254859198791026e-06 -0.034996592485028344 0 5.0415110617411214e-07 -0.034999656830343555 0 5.6828655861158477e-08 -0.03499998394532948 0 -2.1293444248135245e-05 -0.034953112958415543 0 -1.4050523753708619e-07 -0.034999884085995719 0 -2.1293444248135245e-05 -0.034953112958415543 0 -2.1771067072571274e-05 -0.034840968324729008 0 -1.4050523753708619e-07 -0.034999884085995719 0 -2.1771067072571274e-05 -0.034840968324729008 0 -1.4050523753708619e-07 -0.034999884085995719 0 -6.8047716374522576e-05 -0.034766705864118161 0 5.9599703238252118e-09 -0.034999147054099525 0 -1.4050523753708619e-07 -0.034999884085995719 0 -6.8047716374522576e-05 -0.034766705864118161 0 -2.1771067072571274e-05 -0.034840968324729008 0 -6.8047716374522576e-05 -0.034766705864118161 0 2.6059701623077115e-06 -0.034657264000301766 0 -8.6312870720989975e-05 -0.03420272845085523 0 -6.8047716374522576e-05 -0.034766705864118161 0 2.6059701623077115e-06 -0.034657264000301766 0 -8.6312870720989975e-05 -0.03420272845085523 0 2.6059701623077115e-06 -0.034657264000301766 0 0.0002107692101511692 -0.034590750331121078 0 2.6059701623077115e-06 -0.034657264000301766 0 0.0002107692101511692 -0.034590750331121078 0 8.1260981448171842e-05 -0.034744254556137361 0 0.0002107692101511692 -0.034590750331121078 0 0.00020593133329655525 -0.034764896210373854 0 8.1260981448171842e-05 -0.034744254556137361 0 0.00037065428269125023 -0.034692867944315288 0 0.0002107692101511692 -0.034590750331121078 0 0.00020593133329655525 -0.034764896210373854 0 4.8988816561853195e-05 -0.034886492201758677 0 0.00020593133329655525 -0.034764896210373854 0 5.608972240336127e-05 -0.034853289246117761 0 0.00020593133329655525 -0.034764896210373854 0 5.608972240336127e-05 -0.034853289246117761 0 8.1260981448171842e-05 -0.034744254556137361 0 6.9006227284945445e-05 -0.034856607816435674 0 8.7134330812407439e-05 -0.034846002434547108 0 -2.1771067072571274e-05 -0.034840968324729008 0 5.608972240336127e-05 -0.034853289246117761 0 8.1260981448171842e-05 -0.034744254556137361 0 4.8429993259817792e-05 -0.03487291436443081 0 -2.1771067072571274e-05 -0.034840968324729008 0 5.608972240336127e-05 -0.034853289246117761 0 -2.1771067072571274e-05 -0.034840968324729008 0 2.6059701623077115e-06 -0.034657264000301766 0 8.1260981448171842e-05 -0.034744254556137361 0 0.0012542625335256908 -0.017919213741995094 0 0.0016277709643953684 -0.017215075239934437 0 0.00049714322996900382 -0.017577397509317878 0 0.00059299525559211314 -0.017023345610105843 0 0.00033044970772531522 -0.017397460691252399 0 -0.00012378957021501365 -0.019587568179181128 0 0.00014068071327937948 -0.019546269208406734 0 7.1675318025896085e-05 -0.019671214349662257 0 -0.00012378957021501365 -0.019587568179181128 0 -7.4103646710504801e-05 -0.019616616937872033 0 7.1675318025896085e-05 -0.019671214349662257 0 -0.00012378957021501365 -0.019587568179181128 0 -7.0978968892703437e-05 -0.019521322046055965 0 -7.4103646710504801e-05 -0.019616616937872033 0 -0.00012378957021501365 -0.019587568179181128 0 -0.00011510319335879318 -0.019316638946976016 0 -0.00018263631928653159 -0.019658382166628307 0 -0.00012378957021501365 -0.019587568179181128 0 -0.00011510319335879318 -0.019316638946976016 0 0.00014068071327937948 -0.019546269208406734 0 0.0012542625335256908 -0.017919213741995094 0 0.0011273706191990043 -0.018069769255305769 0 -0.00011510319335879318 -0.019316638946976016 0 0.00014068071327937948 -0.019546269208406734 0 0.00013816430858290703 -0.018509264952095261 0 0.00049714322996900382 -0.017577397509317878 0 0.00013816430858290703 -0.018509264952095261 0 5.0892336522077769e-05 -0.017830039840066415 0 0.00013816430858290703 -0.018509264952095261 0 -4.1865027673741418e-07 -0.017968596098565832 0 -0.00012467905165760093 -0.019267210058588016 0 0.00013816430858290703 -0.018509264952095261 0 -4.1865027673741418e-07 -0.017968596098565832 0 -2.3437747537711476e-05 -0.017568261283864673 0 -4.1865027673741418e-07 -0.017968596098565832 0 -0.00012467905165760093 -0.019267210058588016 0 -3.6443350054823432e-07 -0.01988947075604016 0 -0.00011510319335879318 -0.019316638946976016 0 0.00013816430858290703 -0.018509264952095261 0 -0.00012467905165760093 -0.019267210058588016 0 -0.00011510319335879318 -0.019316638946976016 0 -0.00012467905165760093 -0.019267210058588016 0 -0.00018263631928653159 -0.019658382166628307 0 -0.00018263631928653159 -0.019658382166628307 0 -7.6826749590411388e-05 -0.020270002289101564 0 -2.3567343821064995e-05 -0.020145891805697848 0 -0.00012467905165760093 -0.019267210058588016 0 -0.00018263631928653159 -0.019658382166628307 0 -7.6826749590411388e-05 -0.020270002289101564 0 -3.6443350054823432e-07 -0.01988947075604016 0 -7.6826749590411388e-05 -0.020270002289101564 0 4.5874114875294503e-07 -0.021809980659436522 0 -0.00012467905165760093 -0.019267210058588016 0 -3.6443350054823432e-07 -0.01988947075604016 0 -7.6826749590411388e-05 -0.020270002289101564 0 -7.6826749590411388e-05 -0.020270002289101564 0 4.5874114875294503e-07 -0.021809980659436522 0 0.00014756047667624714 -0.021045410021359331 0 0.00014756047667624714 -0.021045410021359331 0 -2.3567343821064995e-05 -0.020145891805697848 0 0.0005495779016801317 -0.020380647276669949 0 -7.6826749590411388e-05 -0.020270002289101564 0 0.00014756047667624714 -0.021045410021359331 0 -2.3567343821064995e-05 -0.020145891805697848 0 -2.3567343821064995e-05 -0.020145891805697848 0 0.00025783507549455206 -0.019912660866367542 0 0.0005495779016801317 -0.020380647276669949 0 0.00025783507549455206 -0.019912660866367542 0 0.00018365121755491363 -0.