<?xml version="1.0"?>
<VTKFile type="UnstructuredGrid" version="0.1" byte_order="LittleEndian">
<UnstructuredGrid>
<Piece NumberOfPoints="31898" NumberOfCells="11152">
<Points>
<DataArray type="Float64" NumberOfComponents="3" format="ascii">
-0.5 -0.5 0 -0.47620991077874902 -0.44978878706170539 0 -0.49999999999999473 -0.42132396840504388 0 -0.5 -0.5 0 -0.47160970827802529 -0.4793630013852106 0 -0.47620991077874902 -0.44978878706170539 0 -0.5 -0.5 0 -0.47160970827802529 -0.4793630013852106 0 -0.44860394795025399 -0.5 0 -0.47160970827802529 -0.4793630013852106 0 -0.44860394795025399 -0.5 0 -0.4490820238307246 -0.45820516232899983 0 -0.44860394795025399 -0.5 0 -0.4490820238307246 -0.45820516232899983 0 -0.42881687682924802 -0.47781464288736519 0 -0.4490820238307246 -0.45820516232899983 0 -0.45555437223955858 -0.42914059360647611 0 -0.4490820238307246 -0.45820516232899983 0 -0.45555437223955858 -0.42914059360647611 0 -0.43867285131603428 -0.4271457417558665 0 -0.4490820238307246 -0.45820516232899983 0 -0.43867285131603428 -0.4271457417558665 0 -0.4263356171060747 -0.44269880333887462 0 -0.47160970827802529 -0.4793630013852106 0 -0.4490820238307246 -0.45820516232899983 0 -0.47620991077874902 -0.44978878706170539 0 -0.4490820238307246 -0.45820516232899983 0 -0.47620991077874902 -0.44978878706170539 0 -0.45555437223955858 -0.42914059360647611 0 -0.47620991077874902 -0.44978878706170539 0 -0.48101336032419229 -0.41069999664450008 0 -0.45555437223955858 -0.42914059360647611 0 -0.47620991077874902 -0.44978878706170539 0 -0.49999999999999473 -0.42132396840504388 0 -0.48101336032419229 -0.41069999664450008 0 -0.49999999999999473 -0.42132396840504388 0 -0.48101336032419229 -0.41069999664450008 0 -0.5 -0.393886241813306 0 -0.49999999999999473 -0.42132396840504388 0 -0.48101336032419229 -0.41069999664450008 0 -0.5 -0.393886241813306 0 -0.47854472220918332 -0.38978458738689759 0 -0.48422759779560409 -0.37130120630367158 0 -0.5 -0.393886241813306 0 -0.5 -0.36644851522156802 0 -0.48422759779560409 -0.37130120630367158 0 -0.48101336032419229 -0.41069999664450008 0 -0.5 -0.393886241813306 0 -0.47854472220918332 -0.38978458738689759 0 -0.48101336032419229 -0.41069999664450008 0 -0.47854472220918332 -0.38978458738689759 0 -0.46202672064839212 -0.40007602488395211 0 -0.48101336032419229 -0.41069999664450008 0 -0.46202672064839212 -0.40007602488395211 0 -0.47854472220918332 -0.38978458738689759 0 -0.46725442735267431 -0.37660061361585562 0 -0.46202672064839212 -0.40007602488395211 0 -0.47854472220918332 -0.38978458738689759 0 -0.46725442735267431 -0.37660061361585562 0 -0.48422759779560409 -0.37130120630367158 0 -0.46725442735267431 -0.37660061361585562 0 -0.46202672064839212 -0.40007602488395211 0 -0.46725442735267431 -0.37660061361585562 0 -0.45645674801697989 -0.38644133236760531 0 -0.46202672064839212 -0.40007602488395211 0 -0.46725442735267431 -0.37660061361585562 0 -0.45645674801697989 -0.38644133236760531 0 -0.4540003998136638 -0.37455519391687309 0 -0.45645674801697989 -0.38644133236760531 0 -0.46202672064839212 -0.40007602488395211 0 -0.44257020456291563 -0.38918913383950271 0 -0.46202672064839212 -0.40007602488395211 0 -0.44257020456291563 -0.38918913383950271 0 -0.44727608925983742 -0.41095911152778891 0 -0.46202672064839212 -0.40007602488395211 0 -0.44257020456291563 -0.38918913383950271 0 -0.44257020456291563 -0.38918913383950271 0 -0.44727608925983742 -0.41095911152778891 0 -0.43479358559901082 -0.4041454901736512 0 -0.44257020456291563 -0.38918913383950271 0 -0.4540003998136638 -0.37455519391687309 0 -0.44172858264042247 -0.37082207246888088 0 -0.45645674801697989 -0.38644133236760531 0 -0.44257020456291563 -0.38918913383950271 0 -0.4540003998136638 -0.37455519391687309 0 -0.46202672064839212 -0.40007602488395211 0 -0.45555437223955858 -0.42914059360647611 0 -0.44727608925983742 -0.41095911152778891 0 -0.46202672064839212 -0.40007602488395211 0 -0.45555437223955858 -0.42914059360647611 0 -0.48101336032419229 -0.41069999664450008 0 -0.46202672064839212 -0.40007602488395211 0 -0.45555437223955858 -0.42914059360647611 0 -0.44727608925983742 -0.41095911152778891 0 -0.43867285131603428 -0.4271457417558665 0 -0.43676601469929588 -0.41441201227470881 0 -0.44727608925983742 -0.41095911152778891 0 -0.43676601469929588 -0.41441201227470881 0 -0.43479358559901082 -0.4041454901736512 0 -0.45555437223955858 -0.42914059360647611 0 -0.44727608925983742 -0.41095911152778891 0 -0.43867285131603428 -0.4271457417558665 0 -0.43867285131603428 -0.4271457417558665 0 -0.42681803064840879 -0.42717069814352421 0 -0.4263356171060747 -0.44269880333887462 0 -0.42681803064840879 -0.42717069814352421 0 -0.41531815884496182 -0.42985383783075998 0 -0.4263356171060747 -0.44269880333887462 0 -0.42681803064840879 -0.42717069814352421 0 -0.42624289495594048 -0.42089725947505818 0 -0.42083332353326591 -0.42146747131641099 0 -0.42681803064840879 -0.42717069814352421 0 -0.43096994786351572 -0.41951492446283251 0 -0.42624289495594048 -0.42089725947505818 0 -0.43867285131603428 -0.4271457417558665 0 -0.42681803064840879 -0.42717069814352421 0 -0.43096994786351572 -0.41951492446283251 0 -0.43867285131603428 -0.4271457417558665 0 -0.43676601469929588 -0.41441201227470881 0 -0.43096994786351572 -0.41951492446283251 0 -0.43676601469929588 -0.41441201227470881 0 -0.43096994786351572 -0.41951492446283251 0 -0.42907264086257813 -0.41311715872526122 0 -0.43676601469929588 -0.41441201227470881 0 -0.42907264086257813 -0.41311715872526122 0 -0.43479358559901082 -0.4041454901736512 0 -0.42907264086257813 -0.41311715872526122 0 -0.43479358559901082 -0.4041454901736512 0 -0.42460885511582858 -0.40417321677700252 0 -0.42907264086257813 -0.41311715872526122 0 -0.41997834854398469 -0.41180534796019508 0 -0.42907264086257813 -0.41311715872526122 0 -0.42635027777857132 -0.41543594397746519 0 -0.41997834854398469 -0.41180534796019508 0 -0.42907264086257813 -0.41311715872526122 0 -0.41997834854398469 -0.41180534796019508 0 -0.42460885511582858 -0.40417321677700252 0 -0.42635027777857132 -0.41543594397746519 0 -0.41997834854398469 -0.41180534796019508 0 -0.42635027777857132 -0.41543594397746519 0 -0.42083332353326591 -0.42146747131641099 0 -0.41997834854398469 -0.41180534796019508 0 -0.43096994786351572 -0.41951492446283251 0 -0.42624289495594048 -0.42089725947505818 0 -0.42635027777857132 -0.41543594397746519 0 -0.43096994786351572 -0.41951492446283251 0 -0.42907264086257813 -0.41311715872526122 0 -0.42635027777857132 -0.41543594397746519 0 -0.42624289495594048 -0.42089725947505818 0 -0.42635027777857132 -0.41543594397746519 0 -0.42083332353326591 -0.42146747131641099 0 -0.42083332353326591 -0.42146747131641099 0 -0.41997834854398469 -0.41180534796019508 0 -0.40992282953163789 -0.42011435591993562 0 -0.41997834854398469 -0.41180534796019508 0 -0.39756877647335259 -0.40857286797681719 0 -0.41997834854398469 -0.41180534796019508 0 -0.40992282953163789 -0.42011435591993562 0 -0.39756877647335259 -0.40857286797681719 0 -0.40992282953163789 -0.42011435591993562 0 -0.41531815884496182 -0.42985383783075998 0 -0.39591554026262499 -0.42887225451549271 0 -0.41531815884496182 -0.42985383783075998 0 -0.39591554026262499 -0.42887225451549271 0 -0.41160927495564159 -0.44339431233754628 0 -0.42083332353326591 -0.42146747131641099 0 -0.40992282953163789 -0.42011435591993562 0 -0.41531815884496182 -0.42985383783075998 0 -0.42681803064840879 -0.42717069814352421 0 -0.42083332353326591 -0.42146747131641099 0 -0.41531815884496182 -0.42985383783075998 0 -0.44257020456291563 -0.38918913383950271 0 -0.42311368847744002 -0.37830224279505142 0 -0.42594061475171041 -0.39368797999533162 0 -0.44257020456291563 -0.38918913383950271 0 -0.42311368847744002 -0.37830224279505142 0 -0.44172858264042247 -0.37082207246888088 0 -0.44257020456291563 -0.38918913383950271 0 -0.42311368847744002 -0.37830224279505142 0 -0.42311368847744002 -0.37830224279505142 0 -0.42594061475171041 -0.39368797999533162 0 -0.416587075656149 -0.38785930376960043 0 -0.44257020456291563 -0.38918913383950271 0 -0.42594061475171041 -0.39368797999533162 0 -0.43479358559901082 -0.4041454901736512 0 -0.42594061475171041 -0.39368797999533162 0 -0.43479358559901082 -0.4041454901736512 0 -0.42460885511582858 -0.40417321677700252 0 -0.41997834854398469 -0.41180534796019508 0 -0.41325908582185972 -0.39811010703057192 0 -0.39770572831670092 -0.39911486077581648 0 -0.41997834854398469 -0.41180534796019508 0 -0.39770572831670092 -0.39911486077581648 0 -0.42594061475171041 -0.39368797999533162 0 -0.42460885511582858 -0.40417321677700252 0 -0.41325908582185972 -0.39811010703057192 0 -0.41997834854398469 -0.41180534796019508 0 -0.42460885511582858 -0.40417321677700252 0 -0.41325908582185972 -0.39811010703057192 0 -0.42594061475171041 -0.39368797999533162 0 -0.41325908582185972 -0.39811010703057192 0 -0.416587075656149 -0.38785930376960043 0 -0.41325908582185972 -0.39811010703057192 0 -0.416587075656149 -0.38785930376960043 0 -0.40403491357358612 -0.38133688525744702 0 -0.42311368847744002 -0.37830224279505142 0 -0.40403491357358612 -0.38133688525744702 0 -0.40365717239196519 -0.36741535175059892 0 -0.42311368847744002 -0.37830224279505142 0 -0.416587075656149 -0.38785930376960043 0 -0.40403491357358612 -0.38133688525744702 0 -0.40403491357358612 -0.38133688525744702 0 -0.39190790742475001 -0.38540387676521748 0 -0.39770572831670092 -0.39911486077581648 0 -0.40403491357358612 -0.38133688525744702 0 -0.39190790742475001 -0.38540387676521748 0 -0.3904578797192948 -0.37473938743617019 0 -0.41325908582185972 -0.39811010703057192 0 -0.40403491357358612 -0.38133688525744702 0 -0.39770572831670092 -0.39911486077581648 0 -0.39770572831670092 -0.39911486077581648 0 -0.37543310808941849 -0.38642437359143528 0 -0.39770572831670092 -0.39911486077581648 0 -0.37515920440272033 -0.40534038799344108 0 -0.37543310808941849 -0.38642437359143528 0 -0.39770572831670092 -0.39911486077581648 0 -0.37515920440272033 -0.40534038799344108 0 -0.39756877647335259 -0.40857286797681719
[...]
<PointData Scalars="" Vectors="displacement," Tensors="">
<DataArray type="Float64" Name="displacement" NumberOfComponents="3" format="ascii">
-0.034997122978404814 -2.6889214576616324e-07 0 -0.034115999427061172 -0.00017885738155118595 0 -0.034997659682034797 -7.4306610082045463e-07 0 -0.034997122978404814 -2.6889214576616324e-07 0 -0.033469943093144598 -0.00011912055396537341 0 -0.034115999427061172 -0.00017885738155118595 0 -0.034997122978404814 -2.6889214576616324e-07 0 -0.033469943093144598 -0.00011912055396537341 0 -0.031404212300958717 -2.6438646479812509e-07 0 -0.033469943093144598 -0.00011912055396537341 0 -0.031404212300958717 -2.6438646479812509e-07 0 -0.03284943790045948 7.7612677542349186e-05 0 -0.031404212300958717 -2.6438646479812509e-07 0 -0.03284943790045948 7.7612677542349186e-05 0 -0.031211583587391841 -6.7472105489007009e-05 0 -0.033237539957312767 0.00022252141047551907 0 -0.033382571281603157 0.00022223578772490301 0 -0.03284943790045948 7.7612677542349186e-05 0 -0.032262301363620738 0.00033478597228056562 0 -0.032208482512485599 0.00010736013805759525 0 -0.03284943790045948 7.7612677542349186e-05 0 -0.032208482512485599 0.00010736013805759525 0 -0.032254538222593582 1.1805321616150944e-05 0 -0.033469943093144598 -0.00011912055396537341 0 -0.03284943790045948 7.7612677542349186e-05 0 -0.034115999427061172 -0.00017885738155118595 0 -0.03284943790045948 7.7612677542349186e-05 0 -0.034115999427061172 -0.00017885738155118595 0 -0.034444073258255214 0.00026826631225396419 0 -0.034115999427061172 -0.00017885738155118595 0 -0.034884474950361316 -2.9734417075255904e-05 0 -0.034444073258255214 0.00026826631225396419 0 -0.034115999427061172 -0.00017885738155118595 0 -0.034997659682034797 -7.4306610082045463e-07 0 -0.034884474950361316 -2.9734417075255904e-05 0 -0.03499999889739188 1.0010966323060198e-10 0 -0.034998727343324355 -4.3682882397047105e-07 0 -0.03499999856431147 -5.4366479826293896e-10 0 -0.03499856990276147 5.4664485827379522e-07 0 -0.034417602322987496 0.00013500570004314533 0 -0.03499999856431147 -5.4366479826293896e-10 0 -0.034998496508021643 -7.8427588688652071e-07 0 -0.034999383251110419 -1.2465757062157815e-06 0 -0.03499999856431147 -5.4366479826293896e-10 0 -0.034999997202895546 -1.8627575640205566e-09 0 -0.034999383251110419 -1.2465757062157815e-06 0 -0.034998727343324355 -4.3682882397047105e-07 0 -0.03499999856431147 -5.4366479826293896e-10 0 -0.034998496508021643 -7.8427588688652071e-07 0 -0.034998727343324355 -4.3682882397047105e-07 0 -0.034998496508021643 -7.8427588688652071e-07 0 -0.034996863753279345 -6.7135804728841324e-07 0 -0.034417602322987496 0.00013500570004314533 0 -0.033622293205662644 0.00018803191398689148 0 -0.034998496508021643 -7.8427588688652071e-07 0 -0.03499812547431027 -9.0865387285457296e-07 0 -0.034996863753279345 -6.7135804728841324e-07 0 -0.034998496508021643 -7.8427588688652071e-07 0 -0.03499812547431027 -9.0865387285457296e-07 0 -0.034999383251110419 -1.2465757062157815e-06 0 -0.034128826592401101 8.6512353563946107e-05 0 -0.033622293205662644 0.00018803191398689148 0 -0.033453825952153377 0.00014868986525944607 0 -0.033255611397112993 0.00037994893247747898 0 -0.032974826575297649 0.00026588385376750685 0 -0.033453825952153377 0.00014868986525944607 0 -0.033255611397112993 0.00037994893247747898 0 -0.033505731464977186 0.0004352880498507387 0 -0.033255611397112993 0.00037994893247747898 0 -0.032974826575297649 0.00026588385376750685 0 -0.033203079101346407 0.00066688722811251533 0 -0.031963460398783727 0.00039072609594472519 0 -0.031849238373105361 0.00020222564236536324 0 -0.032074617776558859 0.00023652947896088807 0 -0.033622293205662644 0.00018803191398689148 0 -0.032748762957227284 0.00044942000649133776 0 -0.031849238373105361 0.00020222564236536324 0 -0.032074617776558859 0.00023652947896088807 0 -0.032011497327019481 0.0001206978612003477 0 -0.033203079101346407 0.00066688722811251533 0 -0.033505731464977186 0.0004352880498507387 0 -0.033581869776834791 0.00068500433882647275 0 -0.033255611397112993 0.00037994893247747898 0 -0.033203079101346407 0.00066688722811251533 0 -0.033505731464977186 0.0004352880498507387 0 -0.031963460398783727 0.00039072609594472519 0 -0.032262301363620738 0.00033478597228056562 0 -0.032074617776558859 0.00023652947896088807 0 -0.033622293205662644 0.00018803191398689148 0 -0.033382571281603157 0.00022223578772490301 0 -0.034884474950361316 -2.9734417075255904e-05 0 -0.035007048370437971 0.00023966778585885677 0 -0.034444073258255214 0.00026826631225396419 0 -0.032074617776558859 0.00023652947896088807 0 -0.032208482512485599 0.00010736013805759525 0 -0.032121425465064996 0.00013072218757588316 0 -0.032074617776558859 0.00023652947896088807 0 -0.032121425465064996 0.00013072218757588316 0 -0.032011497327019481 0.0001206978612003477 0 -0.032262301363620738 0.00033478597228056562 0 -0.032074617776558859 0.00023652947896088807 0 -0.032208482512485599 0.00010736013805759525 0 -0.032208482512485599 0.00010736013805759525 0 -0.032208423956237797 6.8247660997281296e-05 0 -0.032254538222593582 1.1805321616150944e-05 0 -0.032208423956237797 6.8247660997281296e-05 0 -0.032213794355250139 0.00011772625852608088 0 -0.032254538222593582 1.1805321616150944e-05 0 -0.032208423956237797 6.8247660997281296e-05 0 -0.032186276269983112 7.3327972905375171e-05 0 -0.032195870220573929 8.7936578235499351e-05 0 -0.032208423956237797 6.8247660997281296e-05 0 -0.03217306040683459 8.5246066606402404e-05 0 -0.032186276269983112 7.3327972905375171e-05 0 -0.032208482512485599 0.00010736013805759525 0 -0.032208423956237797 6.8247660997281296e-05 0 -0.03217306040683459 8.5246066606402404e-05 0 -0.032208482512485599 0.00010736013805759525 0 -0.032121425465064996 0.00013072218757588316 0 -0.03217306040683459 8.5246066606402404e-05 0 -0.032121425465064996 0.00013072218757588316 0 -0.03217306040683459 8.5246066606402404e-05 0 -0.032128504426712251 7.2977263691335209e-05 0 -0.032121425465064996 0.00013072218757588316 0 -0.032128504426712251 7.2977263691335209e-05 0 -0.032011497327019481 0.0001206978612003477 0 -0.032128504426712251 7.2977263691335209e-05 0 -0.032011497327019481 0.0001206978612003477 0 -0.032011164202112329 1.0785288682749014e-05 0 -0.028306546761834469 0.00097159962573353028 0 -0.028219903018315111 0.0010186905165193352 0 -0.032128504426712251 7.2977263691335209e-05 0 -0.032165693760486253 6.106327498326906e-05 0 -0.032136259103795889 1.0331097279138483e-05 0 -0.032128504426712251 7.2977263691335209e-05 0 -0.032103536182689379 -4.3552331561785649e-05 0 -0.032011164202112329 1.0785288682749014e-05 0 -0.028302604929547844 0.0010471281495074921 0 -0.028219903018315111 0.0010186905165193352 0 -0.032165693760486253 6.106327498326906e-05 0 -0.032195870220573929 8.7936578235499351e-05 0 -0.032208791530469814 9.2974442793305773e-05 0 -0.03217306040683459 8.5246066606402404e-05 0 -0.032186276269983112 7.3327972905375171e-05 0 -0.032165693760486253 6.106327498326906e-05 0 -0.03217306040683459 8.5246066606402404e-05 0 -0.032128504426712251 7.2977263691335209e-05 0 -0.032165693760486253 6.106327498326906e-05 0 -0.032186276269983112 7.3327972905375171e-05 0 -0.032165693760486253 6.106327498326906e-05 0 -0.032195870220573929 8.7936578235499351e-05 0 -0.032195870220573929 8.7936578235499351e-05 0 -0.032208791530469814 9.2974442793305773e-05 0 -0.03220458421817321 0.00012536825808998764 0 -0.028219903018315111 0.0010186905165193352 0 -0.027565596581579567 0.00080816901531637249 0 -0.032208791530469814 9.2974442793305773e-05 0 -0.03220458421817321 0.00012536825808998764 0 -0.032223305809681448 0.00016208420353214627 0 -0.03220458421817321 0.00012536825808998764 0 -0.032213794355250139 0.00011772625852608088 0 -0.032188405322671275 0.00017177507876493355 0 -0.032213794355250139 0.00011772625852608088 0 -0.032188405322671275 0.00017177507876493355 0 -0.032185813531802401 0.00018772662964486436 0 -0.032195870220573929 8.7936578235499351e-05 0 -0.03220458421817321 0.00012536825808998764 0 -0.032213794355250139 0.00011772625852608088 0 -0.032208423956237797 6.8247660997281296e-05 0 -0.032195870220573929 8.7936578235499351e-05 0 -0.032213794355250139 0.00011772625852608088 0 -0.031849238373105361 0.00020222564236536324 0 -0.031704839968898654 -6.4313753792767855e-06 0 -0.031888664253388217 2.4410384670511019e-05 0 -0.033203079101346407 0.00066688722811251533 0 -0.033428964643792705 0.0010548634745730452 0 -0.033581869776834791 0.00068500433882647275 0 -0.032748762957227284 0.00044942000649133776 0 -0.032010397669916563 0.00084090566473559358 0 -0.031704839968898654 -6.4313753792767855e-06 0 -0.031888664253388217 2.4410384670511019e-05 0 -0.031813789462206615 -8.2089418108611975e-05 0 -0.031849238373105361 0.00020222564236536324 0 -0.031888664253388217 2.4410384670511019e-05 0 -0.032011497327019481 0.0001206978612003477 0 -0.031888664253388217 2.4410384670511019e-05 0 -0.032011497327019481 0.0001206978612003477 0 -0.032011164202112329 1.0785288682749014e-05 0 -0.032103536182689379 -4.3552331561785649e-05 0 -0.031936100678722885 -0.00012179492998828109 0 -0.031945220686514439 -0.00030850354614375469 0 -0.028219903018315111 0.0010186905165193352 0 -0.0276962848508325 0.0011377211861480227 0 -0.031888664253388217 2.4410384670511019e-05 0 -0.032011164202112329 1.0785288682749014e-05 0 -0.031936100678722885 -0.00012179492998828109 0 -0.032103536182689379 -4.3552331561785649e-05 0 -0.032011164202112329 1.0785288682749014e-05 0 -0.031936100678722885 -0.00012179492998828109 0 -0.031888664253388217 2.4410384670511019e-05 0 -0.031936100678722885 -0.00012179492998828109 0 -0.031813789462206615 -8.2089418108611975e-05 0 -0.031936100678722885 -0.00012179492998828109 0 -0.031813789462206615 -8.2089418108611975e-05 0 -0.031726001381787695 -0.00022601287251736301 0 -0.031704839968898654 -6.4313753792767855e-06 0 -0.031726001381787695 -0.00022601287251736301 0 -0.031568614659207718 -0.00022832114477644265 0 -0.031704839968898654 -6.4313753792767855e-06 0 -0.031813789462206615 -8.2089418108611975e-05 0 -0.031726001381787695 -0.00022601287251736301 0 -0.031726001381787695 -0.00022601287251736301 0 -0.031769172612412952 -0.00038516286379799357 0 -0.031945220686514439 -0.00030850354614375469 0 -0.031726001381787695 -0.00022601287251736301 0 -0.031769172612412952 -0.00038516286379799357 0 -0.031625894801288884 -0.00040491022731839346 0 -0.031936100678722885 -0.00012179492998828109 0 -0.031726001381787695 -0.00022601287251736301 0 -0.031945220686514439 -0.00030850354614375469 0 -0.0276962848508325 0.0011377211861480227 0 -0.026293593719123268 0.0012751312612539584 0 -0.027118727660331566 0.0009974381548926289 0 -0.027189797833278937 0.00073310761964964701 0 -0.02696804447701235 0.00073663987653576929 0 -0.027118727660331566 0.0009974381548926289 0 -0.027189797833278937 0.00073310761964964701 0 -0.027229829413492036 0.00099572035786251985 0 -0.026253297698358654 0.00058095030806375094 0 -0.026293593719123268 0.0012751312612539584 0 -0.031777325658360361 -0.00060371615860910081 0 -0.031625894801288884 -0.00040491022731839346 0 -0.031544848625866796 -0.000604546723118399 0 -0.031769172612412952 -0.00038516286379799357 0 -0.031777325658360361 -0.00060371615860910081 0 -0.031625894801288884 -0.00040491022731839346 0 -0.026293593719123268 0.0012751312612539584 0 -0.027850580545328182 0.0012311136494015656 0 -0.031769172612412952 -0.00038516286379799357 0 -0.031945220686514439 -0.00030850354614375469 0 -0.031777325658360361 -0.00060371615860910081 0 -0.0272706995546944 0.0012582496924356419 0 -0.027118727660331566 0.0009974381548926289 0 -0.027229829413492036 0.00099572035786251985 0 -0.03220458421817321 0.00012536825808998764 0 -0.032188405322671275 0.00017177507876493355 0 -0.032223305809681448 0.00016208420353214627 0 -0.032216386758971087 0.00020381453425596317 0 -0.032188405322671275 0.00017177507876493355 0 -0.032223305809681448 0.00016208420353214627 0 -0.026253297698358654 0.00058095030806375094 0 -0.027565596581579567 0.00080816901531637249 0 -0.032216386758971087 0.00020381453425596317 0 -0.032188405322671275 0.00017177507876493355 0 -0.032174189834694583 0.00020513644539606901 0 -0.032188405322671275 0.00017177507876493355 0 -0.032169308499488868 0.00018486062488894301 0 -0.032174189834694583 0.00020513644539606901 0 -0.032169308499488868 0.00018486062488894301 0 -0.032135833294990999 0.00020955776854425056 0 -0.032174189834694583 0.00020513644539606901 0 -0.032188405322671275 0.00017177507876493355 0 -0.032169308499488868 0.00018486062488894301 0 -0.032185813531802401 0.00018772662964486436 0 -0.032169308499488868 0.00018486062488894301 0 -0.032161194805640843 0.00018130155120911384 0 -0.032185813531802401 0.00018772662964486436 0 -0.031693298536558084 0.00062701642142373541 0 -0.02970575212307569 0.00073779938387558391 0 -0.031071735102964154 0.00021650905464574882 0 -0.023738032750914649 0.0016840418395239175 0 -0.023955406456019471 0.0008635850222042244 0 -0.024917376056798508 0.0010608531619646418 0 -0.028118768491380734 -0.00059697838978102805 0 -0.027382983144423771 -0.0001429697543791481 0 -0.028118768491380734 -0.00059697838978102805 0 -0.028125675118598144 -0.00059469041256821227 0 -0.028118768491380734 -0.00059697838978102805 0 -0.027481524857197542 0.00013883479786905639 0 -0.032169308499488868 0.00018486062488894301 0 -0.032161194805640843 0.00018130155120911384 0 -0.032147416707470622 0.00019092539419362671 0 -0.032169308499488868 0.00018486062488894301 0 -0.032147416707470622 0.00019092539419362671 0 -0.032135833294990999 0.00020955776854425056 0 -0.027481524857197542 0.00013883479786905639 0 -0.026793876520734901 0.00072628402146628014 0 -0.023955406456019471 0.0008635850222042244 0 -0.024513460135839431 0.00056309436535987819 0 -0.024174876137002001 2.5844563263170086e-05 0 -0.024513460135839431 0.00056309436535987819 0 -0.024917376056798508 0.0010608531619646418 0 -0.024833305159518555 7.7125479342876336e-06 0 -0.024917376056798508 0.0010608531619646418 0 -0.02552926433819612 -0.00012707274234069452 0 -0.024833305159518555 7.7125479342876336e-06 0 -0.024513460135839431 0.00056309436535987819 0 -0.024833305159518555 7.7125479342876336e-06 0 -0.024174876137002001 2.5844563263170086e-05 0 -0.023955406456019471 0.0008635850222042244 0 -0.024513460135839431 0.00056309436535987819 0 -0.024917376056798508 0.0010608531619646418 0 -0.026667676327634976 -4.4676801671809488e-09 0 -0.027382983144423771 -0.0001429697543791481 0 -0.026663349877602306 1.8045471333122435e-06 0 -0.024917376056798508 0.0010608531619646418 0 -0.02552926433819612 -0.00012707274234069452 0 -0.026669738478900269 2.8330227001346198e-06 0 -0.02970575212307569 0.00073779938387558391 0 -0.028698739207997939 -5.0183457590051806e-07 0 -0.02970575212307569 0.00073779938387558391 0 -0.031071735102964154 0.00021650905464574882 0 -0.028698739207997939 -5.0183457590051806e-07 0 -0.031071735102964154 0.00021650905464574882 0 -0.028698739207997939 -5.0183457590051806e-07 0 -0.031211583587391841 -6.7472105489007009e-05 0 -0.031404212300958717 -2.6438646479812509e-07 0 -0.028698739207997939 -5.0183457590051806e-07 0 -0.031211583587391841 -6.7472105489007009e-05 0 -0.031071735102964154 0.00021650905464574882 0 -0.031211583587391841 -6.7472105489007009e-05 0 -0.031942735491845467 2.5964511682583783e-05 0 -0.03284943790045948 7.7612677542349186e-05 0 -0.031211583587391841 -6.7472105489007009e-05 0 -0.031942735491845467 2.5964511682583783e-05 0 -0.03284943790045948 7.7612677542349186e-05 0 -0.031942735491845467 2.5964511682583783e-05 0 -0.032254538222593582 1.1805321616150944e-05 0 -0.031942735491845467 2.5964511682583783e-05 0 -0.032254538222593582 1.1805321616150944e-05 0 -0.031952574792818753 0.00014569116733857489 0 -0.032254538222593582 1.1805321616150944e-05 0 -0.032185813531802401 0.00018772662964486436 0 -0.031952574792818753 0.00014569116733857489 0 -0.032213794355250139 0.00011772625852608088 0 -0.032254538222593582 1.1805321616150944e-05 0 -0.032185813531802401 0.00018772662964486436 0 -0.031733919990511839 0.00059838937253408296 0 -0.032185813531802401 0.00018772662964486436 0 -0.031754041911300081 0.00049486272173727606 0 -0.032185813531802401 0.00018772662964486436 0 -0.031754041911300081 0.00049486272173727606 0 -0.031952574792818753 0.00014569116733857489 0 -0.028118768491380734 -0.00059697838978102805 0 -0.028844758588915852 -0.00078429508794567576 0 -0.031071735102964154 0.00021650905464574882 0 -0.031754041911300081 0.00049486272173727606 0 -0.031952574792818753 0.00014569116733857489 0 -0.031693298536558084 0.00062701642142373541 0 -0.031071735102964154 0.00021650905464574882 0 -0.031754041911300081 0.00049486272173727606 0 -0.031071735102964154 0.00021650905464574882 0 -0.031942735491845467 2.5964511682583783e-05 0 -0.031952574792818753 0.00014569116733857489 0 -0.031902636223297261 0.00058163602264431423 0 -0.03071993323851769 0.0015019363589300022 0 -0.034783396083126993 -0.0003341114966953784 0 -0.034830340746018359 -0.0014371825553237535 0 -0.034240716209502829 -0.0005460197579552228 0 -0.03493850249956755 0.0001051808070279114 0 -0.034961333762531563 8.074712232998645e-05 0 -0.034967378598455195 0.00013746188979346945 0 -0.03493850249956755 0.0001051808070279114 0 -0.03493323499619206 0.00015285041645770055 0 -0.034967378598455195 0.00013746188979346945 0 -0.03493850249956755 0.0001051808070279114 0 -0.034907394423604111 0.00014906529979643565 0 -0.03493323499619206 0.00015285041645770055 0 -0.03493850249956755 0.0001051808070279114 0 -0.034942538052853835 5.7269360232332824e-05 0 -0.034946610944138472 5.3510179766880351e-05 0 -0.03493850249956755 0.0001051808070279114 0 -0.034942538052853835 5.7269360232332824e-05 0 -0.034961333762531563 8.074712232998645e-05 0 -0.031902636223297261 0.00058163602264431423 0 -0.032272237502903714 0.00043172693555760367 0 -0.034942538052853835 5.7269360232332824e-05 0 -0.034961333762531563 8.074712232998645e-05 0 -0.034896756792762065 5.4141566408703979e-05 0 -0.034783396083126993 -0.0003341114966953784 0 -0.034896756792762065 5.4141566408703979e-05 0 -0.034306508352367343 4.4310645005417906e-05 0 -0.034896756792762065 5.4141566408703979e-05 0 -0.034999903957024521 1.1055023499766693e-07 0 -0.034960646881844991 3.46160371502211e-05 0 -0.034896756792762065 5.4141566408703979e-05 0 -0.034999903957024521 1.1055023499766693e-07 0 -0.034732023205490084 6.5837163979757019e-05 0 -0.034999903957024521 1.1055023499766693e-07 0 -0.034960646881844991 3.46160371502211e-05 0 -0.034999933760222382 -4.0065623027688467e-09 0 -0.034942538052853835 5.7269360232332824e-05 0 -0.034896756792762065 5.4141566408703979e-05 0 -0.034960646881844991 3.46160371502211e-05 0 -0.034942538052853835 5.7269360232332824e-05 0 -0.034960646881844991 3.46160371502211e-05 0 -0.034946610944138472 5.3510179766880351e-05 0 -0.034946610944138472 5.3510179766880351e-05 0 -0.034964942949125062 1.0129414564459527e-05 0 -0.034932371901664948 4.0673154193778942e-05 0 -0.034960646881844991 3.46160371502211e-05 0 -0.034946610944138472 5.3510179766880351e-05 0 -0.034964942949125062 1.0129414564459527e-05 0 -0.034999933760222382 -4.0065623027688467e-09 0 -0.034964942949125062 1.0129414564459527e-05 0 -0.034999928038551495 9.4538741341377466e-09 0 -0.034960646881844991 3.46160371502211e-05 0 -0.034999933760222382 -4.0065623027688467e-09 0 -0.034964942949125062 1.0129414564459527e-05 0 -0.034964942949125062 1.0129414564459527e-05 0 -0.034999928038551495 9.4538741341377466e-09 0 -0.03494831410390354 -9.084542976125045e-06 0 -0.03494831410390354 -9.084542976125045e-06 0 -0.034932371901664948 4.0673154193778942e-05 0 -0.034847687265987352 3.4630392962169632e-05 0 -0.034964942949125062 1.0129414564459527e-05 0 -0.03494831410390354 -9.084542976125045e-06 0 -0.034932371901664948 4.0673154193778942e-05 0 -0.034932371901664948 4.0673154193778942e-05 0 -0.034872831606022052 9.3811032068190931e-05 0 -0.034847687265987352 3.4630392962169632e-05 0 -0.034872831606022052 9.3811032068190931e-05 0 -0.034868348929008759 0.000143655