<?xml version="1.0"?>
<VTKFile type="UnstructuredGrid" version="0.1" byte_order="LittleEndian">
<UnstructuredGrid>
<Piece NumberOfPoints="31898" NumberOfCells="11152">
<Points>
<DataArray type="Float64" NumberOfComponents="3" format="ascii">
-0.5 -0.5 0 -0.47620991077874902 -0.44978878706170539 0 -0.49999999999999473 -0.42132396840504388 0 -0.5 -0.5 0 -0.47160970827802529 -0.4793630013852106 0 -0.47620991077874902 -0.44978878706170539 0 -0.5 -0.5 0 -0.47160970827802529 -0.4793630013852106 0 -0.44860394795025399 -0.5 0 -0.47160970827802529 -0.4793630013852106 0 -0.44860394795025399 -0.5 0 -0.4490820238307246 -0.45820516232899983 0 -0.44860394795025399 -0.5 0 -0.4490820238307246 -0.45820516232899983 0 -0.42881687682924802 -0.47781464288736519 0 -0.4490820238307246 -0.45820516232899983 0 -0.45555437223955858 -0.42914059360647611 0 -0.4490820238307246 -0.45820516232899983 0 -0.45555437223955858 -0.42914059360647611 0 -0.43867285131603428 -0.4271457417558665 0 -0.4490820238307246 -0.45820516232899983 0 -0.43867285131603428 -0.4271457417558665 0 -0.4263356171060747 -0.44269880333887462 0 -0.47160970827802529 -0.4793630013852106 0 -0.4490820238307246 -0.45820516232899983 0 -0.47620991077874902 -0.44978878706170539 0 -0.4490820238307246 -0.45820516232899983 0 -0.47620991077874902 -0.44978878706170539 0 -0.45555437223955858 -0.42914059360647611 0 -0.47620991077874902 -0.44978878706170539 0 -0.48101336032419229 -0.41069999664450008 0 -0.45555437223955858 -0.42914059360647611 0 -0.47620991077874902 -0.44978878706170539 0 -0.49999999999999473 -0.42132396840504388 0 -0.48101336032419229 -0.41069999664450008 0 -0.49999999999999473 -0.42132396840504388 0 -0.48101336032419229 -0.41069999664450008 0 -0.5 -0.393886241813306 0 -0.49999999999999473 -0.42132396840504388 0 -0.48101336032419229 -0.41069999664450008 0 -0.5 -0.393886241813306 0 -0.47854472220918332 -0.38978458738689759 0 -0.48422759779560409 -0.37130120630367158 0 -0.5 -0.393886241813306 0 -0.5 -0.36644851522156802 0 -0.48422759779560409 -0.37130120630367158 0 -0.48101336032419229 -0.41069999664450008 0 -0.5 -0.393886241813306 0 -0.47854472220918332 -0.38978458738689759 0 -0.48101336032419229 -0.41069999664450008 0 -0.47854472220918332 -0.38978458738689759 0 -0.46202672064839212 -0.40007602488395211 0 -0.48101336032419229 -0.41069999664450008 0 -0.46202672064839212 -0.40007602488395211 0 -0.47854472220918332 -0.38978458738689759 0 -0.46725442735267431 -0.37660061361585562 0 -0.46202672064839212 -0.40007602488395211 0 -0.47854472220918332 -0.38978458738689759 0 -0.46725442735267431 -0.37660061361585562 0 -0.48422759779560409 -0.37130120630367158 0 -0.46725442735267431 -0.37660061361585562 0 -0.46202672064839212 -0.40007602488395211 0 -0.46725442735267431 -0.37660061361585562 0 -0.45645674801697989 -0.38644133236760531 0 -0.46202672064839212 -0.40007602488395211 0 -0.46725442735267431 -0.37660061361585562 0 -0.45645674801697989 -0.38644133236760531 0 -0.4540003998136638 -0.37455519391687309 0 -0.45645674801697989 -0.38644133236760531 0 -0.46202672064839212 -0.40007602488395211 0 -0.44257020456291563 -0.38918913383950271 0 -0.46202672064839212 -0.40007602488395211 0 -0.44257020456291563 -0.38918913383950271 0 -0.44727608925983742 -0.41095911152778891 0 -0.46202672064839212 -0.40007602488395211 0 -0.44257020456291563 -0.38918913383950271 0 -0.44257020456291563 -0.38918913383950271 0 -0.44727608925983742 -0.41095911152778891 0 -0.43479358559901082 -0.4041454901736512 0 -0.44257020456291563 -0.38918913383950271 0 -0.4540003998136638 -0.37455519391687309 0 -0.44172858264042247 -0.37082207246888088 0 -0.45645674801697989 -0.38644133236760531 0 -0.44257020456291563 -0.38918913383950271 0 -0.4540003998136638 -0.37455519391687309 0 -0.46202672064839212 -0.40007602488395211 0 -0.45555437223955858 -0.42914059360647611 0 -0.44727608925983742 -0.41095911152778891 0 -0.46202672064839212 -0.40007602488395211 0 -0.45555437223955858 -0.42914059360647611 0 -0.48101336032419229 -0.41069999664450008 0 -0.46202672064839212 -0.40007602488395211 0 -0.45555437223955858 -0.42914059360647611 0 -0.44727608925983742 -0.41095911152778891 0 -0.43867285131603428 -0.4271457417558665 0 -0.43676601469929588 -0.41441201227470881 0 -0.44727608925983742 -0.41095911152778891 0 -0.43676601469929588 -0.41441201227470881 0 -0.43479358559901082 -0.4041454901736512 0 -0.45555437223955858 -0.42914059360647611 0 -0.44727608925983742 -0.41095911152778891 0 -0.43867285131603428 -0.4271457417558665 0 -0.43867285131603428 -0.4271457417558665 0 -0.42681803064840879 -0.42717069814352421 0 -0.4263356171060747 -0.44269880333887462 0 -0.42681803064840879 -0.42717069814352421 0 -0.41531815884496182 -0.42985383783075998 0 -0.4263356171060747 -0.44269880333887462 0 -0.42681803064840879 -0.42717069814352421 0 -0.42624289495594048 -0.42089725947505818 0 -0.42083332353326591 -0.42146747131641099 0 -0.42681803064840879 -0.42717069814352421 0 -0.43096994786351572 -0.41951492446283251 0 -0.42624289495594048 -0.42089725947505818 0 -0.43867285131603428 -0.4271457417558665 0 -0.42681803064840879 -0.42717069814352421 0 -0.43096994786351572 -0.41951492446283251 0 -0.43867285131603428 -0.4271457417558665 0 -0.43676601469929588 -0.41441201227470881 0 -0.43096994786351572 -0.41951492446283251 0 -0.43676601469929588 -0.41441201227470881 0 -0.43096994786351572 -0.41951492446283251 0 -0.42907264086257813 -0.41311715872526122 0 -0.43676601469929588 -0.41441201227470881 0 -0.42907264086257813 -0.41311715872526122 0 -0.43479358559901082 -0.4041454901736512 0 -0.42907264086257813 -0.41311715872526122 0 -0.43479358559901082 -0.4041454901736512 0 -0.42460885511582858 -0.40417321677700252 0 -0.42907264086257813 -0.41311715872526122 0 -0.41997834854398469 -0.41180534796019508 0 -0.42907264086257813 -0.41311715872526122 0 -0.42635027777857132 -0.41543594397746519 0 -0.41997834854398469 -0.41180534796019508 0 -0.42907264086257813 -0.41311715872526122 0 -0.41997834854398469 -0.41180534796019508 0 -0.42460885511582858 -0.40417321677700252 0 -0.42635027777857132 -0.41543594397746519 0 -0.41997834854398469 -0.41180534796019508 0 -0.42635027777857132 -0.41543594397746519 0 -0.42083332353326591 -0.42146747131641099 0 -0.41997834854398469 -0.41180534796019508 0 -0.43096994786351572 -0.41951492446283251 0 -0.42624289495594048 -0.42089725947505818 0 -0.42635027777857132 -0.41543594397746519 0 -0.43096994786351572 -0.41951492446283251 0 -0.42907264086257813 -0.41311715872526122 0 -0.42635027777857132 -0.41543594397746519 0 -0.42624289495594048 -0.42089725947505818 0 -0.42635027777857132 -0.41543594397746519 0 -0.42083332353326591 -0.42146747131641099 0 -0.42083332353326591 -0.42146747131641099 0 -0.41997834854398469 -0.41180534796019508 0 -0.40992282953163789 -0.42011435591993562 0 -0.41997834854398469 -0.41180534796019508 0 -0.39756877647335259 -0.40857286797681719 0 -0.41997834854398469 -0.41180534796019508 0 -0.40992282953163789 -0.42011435591993562 0 -0.39756877647335259 -0.40857286797681719 0 -0.40992282953163789 -0.42011435591993562 0 -0.41531815884496182 -0.42985383783075998 0 -0.39591554026262499 -0.42887225451549271 0 -0.41531815884496182 -0.42985383783075998 0 -0.39591554026262499 -0.42887225451549271 0 -0.41160927495564159 -0.44339431233754628 0 -0.42083332353326591 -0.42146747131641099 0 -0.40992282953163789 -0.42011435591993562 0 -0.41531815884496182 -0.42985383783075998 0 -0.42681803064840879 -0.42717069814352421 0 -0.42083332353326591 -0.42146747131641099 0 -0.41531815884496182 -0.42985383783075998 0 -0.44257020456291563 -0.38918913383950271 0 -0.42311368847744002 -0.37830224279505142 0 -0.42594061475171041 -0.39368797999533162 0 -0.44257020456291563 -0.38918913383950271 0 -0.42311368847744002 -0.37830224279505142 0 -0.44172858264042247 -0.37082207246888088 0 -0.44257020456291563 -0.38918913383950271 0 -0.42311368847744002 -0.37830224279505142 0 -0.42311368847744002 -0.37830224279505142 0 -0.42594061475171041 -0.39368797999533162 0 -0.416587075656149 -0.38785930376960043 0 -0.44257020456291563 -0.38918913383950271 0 -0.42594061475171041 -0.39368797999533162 0 -0.43479358559901082 -0.4041454901736512 0 -0.42594061475171041 -0.39368797999533162 0 -0.43479358559901082 -0.4041454901736512 0 -0.42460885511582858 -0.40417321677700252 0 -0.41997834854398469 -0.41180534796019508 0 -0.41325908582185972 -0.39811010703057192 0 -0.39770572831670092 -0.39911486077581648 0 -0.41997834854398469 -0.41180534796019508 0 -0.39770572831670092 -0.39911486077581648 0 -0.42594061475171041 -0.39368797999533162 0 -0.42460885511582858 -0.40417321677700252 0 -0.41325908582185972 -0.39811010703057192 0 -0.41997834854398469 -0.41180534796019508 0 -0.42460885511582858 -0.40417321677700252 0 -0.41325908582185972 -0.39811010703057192 0 -0.42594061475171041 -0.39368797999533162 0 -0.41325908582185972 -0.39811010703057192 0 -0.416587075656149 -0.38785930376960043 0 -0.41325908582185972 -0.39811010703057192 0 -0.416587075656149 -0.38785930376960043 0 -0.40403491357358612 -0.38133688525744702 0 -0.42311368847744002 -0.37830224279505142 0 -0.40403491357358612 -0.38133688525744702 0 -0.40365717239196519 -0.36741535175059892 0 -0.42311368847744002 -0.37830224279505142 0 -0.416587075656149 -0.38785930376960043 0 -0.40403491357358612 -0.38133688525744702 0 -0.40403491357358612 -0.38133688525744702 0 -0.39190790742475001 -0.38540387676521748 0 -0.39770572831670092 -0.39911486077581648 0 -0.40403491357358612 -0.38133688525744702 0 -0.39190790742475001 -0.38540387676521748 0 -0.3904578797192948 -0.37473938743617019 0 -0.41325908582185972 -0.39811010703057192 0 -0.40403491357358612 -0.38133688525744702 0 -0.39770572831670092 -0.39911486077581648 0 -0.39770572831670092 -0.39911486077581648 0 -0.37543310808941849 -0.38642437359143528 0 -0.39770572831670092 -0.39911486077581648 0 -0.37515920440272033 -0.40534038799344108 0 -0.37543310808941849 -0.38642437359143528 0 -0.39770572831670092 -0.39911486077581648 0 -0.37515920440272033 -0.40534038799344108 0 -0.39756877647335259 -0.40857286797681719
[...]
<PointData Scalars="" Vectors="displacement," Tensors="">
<DataArray type="Float64" Name="displacement" NumberOfComponents="3" format="ascii">
-5.0990579671475037e-06 -0.10499039903486437 0 -0.00051115573539374656 -0.09816652121688299 0 1.0794764978090183e-05 -0.08850251024525474 0 -5.0990579671475037e-06 -0.10499039903486437 0 -0.00047086331484970763 -0.10260259433996492 0 -0.00051115573539374656 -0.09816652121688299 0 -5.0990579671475037e-06 -0.10499039903486437 0 -0.00047086331484970763 -0.10260259433996492 0 1.7994768556555011e-08 -0.10499743578539013 0 -0.00047086331484970763 -0.10260259433996492 0 1.7994768556555011e-08 -0.10499743578539013 0 -0.00025982467804329368 -0.10260425755102121 0 1.7994768556555011e-08 -0.10499743578539013 0 -0.00025982467804329368 -0.10260425755102121 0 -0.00020467434723995623 -0.1042955084157819 0 -0.00089782663251678559 -0.096174973662812538 0 3.1068680557653866e-05 -0.09344328141026377 0 -0.00025982467804329368 -0.10260425755102121 0 0.001178833142201779 -0.10251496140129404 0 0.0012713931647289568 -0.10309675704253396 0 -0.00025982467804329368 -0.10260425755102121 0 0.0012713931647289568 -0.10309675704253396 0 0.00062329198738412628 -0.10375625325671654 0 -0.00047086331484970763 -0.10260259433996492 0 -0.00025982467804329368 -0.10260425755102121 0 -0.00051115573539374656 -0.09816652121688299 0 -0.00025982467804329368 -0.10260425755102121 0 -0.00051115573539374656 -0.09816652121688299 0 0.0018696670037113648 -0.10013581905386885 0 -0.00051115573539374656 -0.09816652121688299 0 0.0039734002701591088 -0.09487419497351296 0 0.0018696670037113648 -0.10013581905386885 0 -0.00051115573539374656 -0.09816652121688299 0 1.0794764978090183e-05 -0.08850251024525474 0 0.0039734002701591088 -0.09487419497351296 0 5.9409366267024493e-06 -0.088468960706182612 0 0.00090383873869694575 -0.081582518692367295 0 -2.5070902636425876e-06 -0.08271614186617407 0 3.6809437118528093e-06 -0.08847459921440301 0 0.0015504650875031302 -0.086897964554940227 0 -2.5070902636425876e-06 -0.08271614186617407 0 -0.00023826156774856951 -0.079466699576574776 0 -0.00050287840341757528 -0.077344531356337412 0 -2.5070902636425876e-06 -0.08271614186617407 0 -7.6461484043540892e-07 -0.076953520842735781 0 -0.00050287840341757528 -0.077344531356337412 0 0.00090383873869694575 -0.081582518692367295 0 -2.5070902636425876e-06 -0.08271614186617407 0 -0.00023826156774856951 -0.079466699576574776 0 0.00090383873869694575 -0.081582518692367295 0 -0.00023826156774856951 -0.079466699576574776 0 0.00039637191517909453 -0.078692022636191211 0 0.0015504650875031302 -0.086897964554940227 0 0.0022748314887769874 -0.083723737615707131 0 -0.00023826156774856951 -0.079466699576574776 0 -0.00061889130494227921 -0.078010197392302846 0 0.00039637191517909453 -0.078692022636191211 0 -0.00023826156774856951 -0.079466699576574776 0 -0.00061889130494227921 -0.078010197392302846 0 -0.00050287840341757528 -0.077344531356337412 0 0.0016204914084248213 -0.076043846791167991 0 0.0022748314887769874 -0.083723737615707131 0 0.0023368318711936599 -0.061177666620441953 0 0.0015226113865781531 -0.06200361222723634 0 0.00046281813483958219 -0.06159835245248494 0 0.0023368318711936599 -0.061177666620441953 0 0.0015226113865781531 -0.06200361222723634 0 0.0023937429581068655 -0.062143396386366956 0 0.0015226113865781531 -0.06200361222723634 0 0.00046281813483958219 -0.06159835245248494 0 0.0012803086891614152 -0.063075146986582689 0 0.0016784500002994464 -0.10273478185847172 0 0.0014826892737119473 -0.10299426850495985 0 0.0015921415987377719 -0.10287679966035945 0 0.0022748314887769874 -0.083723737615707131 0 0.001945782952780827 -0.082846606335077386 0 0.0014826892737119473 -0.10299426850495985 0 0.0015921415987377719 -0.10287679966035945 0 0.0016259750593076295 -0.10298045600011929 0 0.0012803086891614152 -0.063075146986582689 0 0.0023937429581068655 -0.062143396386366956 0 0.0026568661496114226 -0.063112376168929993 0 0.0015226113865781531 -0.06200361222723634 0 0.0012803086891614152 -0.063075146986582689 0 0.0023937429581068655 -0.062143396386366956 0 0.0016784500002994464 -0.10273478185847172 0 0.001178833142201779 -0.10251496140129404 0 0.0015921415987377719 -0.10287679966035945 0 0.0022748314887769874 -0.083723737615707131 0 3.1068680557653866e-05 -0.09344328141026377 0 0.0039734002701591088 -0.09487419497351296 0 0.0061325302891990672 -0.098392126912345723 0 0.0018696670037113648 -0.10013581905386885 0 0.0015921415987377719 -0.10287679966035945 0 0.0012713931647289568 -0.10309675704253396 0 0.0016052215732574797 -0.1030522665924949 0 0.0015921415987377719 -0.10287679966035945 0 0.0016052215732574797 -0.1030522665924949 0 0.0016259750593076295 -0.10298045600011929 0 0.001178833142201779 -0.10251496140129404 0 0.0015921415987377719 -0.10287679966035945 0 0.0012713931647289568 -0.10309675704253396 0 0.0012713931647289568 -0.10309675704253396 0 0.0012161942643917189 -0.10354692731777808 0 0.00062329198738412628 -0.10375625325671654 0 0.0012161942643917189 -0.10354692731777808 0 0.0010966019002353726 -0.10405617626918717 0 0.00062329198738412628 -0.10375625325671654 0 0.0012161942643917189 -0.10354692731777808 0 0.001444265322483867 -0.10348426561499861 0 0.0014138936605774604 -0.10375881381786872 0 0.0012161942643917189 -0.10354692731777808 0 0.0014985257038614989 -0.10324759928473079 0 0.001444265322483867 -0.10348426561499861 0 0.0012713931647289568 -0.10309675704253396 0 0.0012161942643917189 -0.10354692731777808 0 0.0014985257038614989 -0.10324759928473079 0 0.0012713931647289568 -0.10309675704253396 0 0.0016052215732574797 -0.1030522665924949 0 0.0014985257038614989 -0.10324759928473079 0 0.0016052215732574797 -0.1030522665924949 0 0.0014985257038614989 -0.10324759928473079 0 0.0017769563895894788 -0.10311883060299544 0 0.0016052215732574797 -0.1030522665924949 0 0.0017769563895894788 -0.10311883060299544 0 0.0016259750593076295 -0.10298045600011929 0 0.0017769563895894788 -0.10311883060299544 0 0.0016259750593076295 -0.10298045600011929 0 0.0016518822622506619 -0.10277413855104629 0 0.003778269337347795 -0.10088500549131929 0 0.0038160266628489378 -0.10060977709724028 0 0.0017769563895894788 -0.10311883060299544 0 0.0016539518633608983 -0.10339095930804289 0 0.0019891895292693603 -0.10393142062951799 0 0.0017769563895894788 -0.10311883060299544 0 0.0019432827440909706 -0.10261295464748595 0 0.0016518822622506619 -0.10277413855104629 0 0.0038153988080116149 -0.10074822337688254 0 0.0038160266628489378 -0.10060977709724028 0 0.0016539518633608983 -0.10339095930804289 0 0.0014138936605774604 -0.10375881381786872 0 0.0018388554438240996 -0.10378699824759803 0 0.0014985257038614989 -0.10324759928473079 0 0.001444265322483867 -0.10348426561499861 0 0.0016539518633608983 -0.10339095930804289 0 0.0014985257038614989 -0.10324759928473079 0 0.0017769563895894788 -0.10311883060299544 0 0.0016539518633608983 -0.10339095930804289 0 0.001444265322483867 -0.10348426561499861 0 0.0016539518633608983 -0.10339095930804289 0 0.0014138936605774604 -0.10375881381786872 0 0.0014138936605774604 -0.10375881381786872 0 0.0018388554438240996 -0.10378699824759803 0 0.001471905113258913 -0.10423014483554226 0 0.0038160266628489378 -0.10060977709724028 0 0.0031710180226725646 -0.10000304667282796 0 0.0018388554438240996 -0.10378699824759803 0 0.001471905113258913 -0.10423014483554226 0 0.0019068508169138838 -0.10470410638885831 0 0.001471905113258913 -0.10423014483554226 0 0.0010966019002353726 -0.10405617626918717 0 0.0011399391694958566 -0.10477324666050246 0 0.0010966019002353726 -0.10405617626918717 0 0.0011399391694958566 -0.10477324666050246 0 0.00060790720535600128 -0.10427546865888951 0 0.0014138936605774604 -0.10375881381786872 0 0.001471905113258913 -0.10423014483554226 0 0.0010966019002353726 -0.10405617626918717 0 0.0012161942643917189 -0.10354692731777808 0 0.0014138936605774604 -0.10375881381786872 0 0.0010966019002353726 -0.10405617626918717 0 0.0014826892737119473 -0.10299426850495985 0 0.00083696973588033162 -0.10259626336175683 0 0.0013988915311662603 -0.10272609269809059 0 0.0012803086891614152 -0.063075146986582689 0 0.0020668259865618032 -0.064607434577669903 0 0.0026568661496114226 -0.063112376168929993 0 0.001945782952780827 -0.082846606335077386 0 0.0021109345696760742 -0.082333941035086566 0 0.00083696973588033162 -0.10259626336175683 0 0.0013988915311662603 -0.10272609269809059 0 0.0011573378229830626 -0.10234934931261742 0 0.0014826892737119473 -0.10299426850495985 0 0.0013988915311662603 -0.10272609269809059 0 0.0016259750593076295 -0.10298045600011929 0 0.0013988915311662603 -0.10272609269809059 0 0.0016259750593076295 -0.10298045600011929 0 0.0016518822622506619 -0.10277413855104629 0 0.0019432827440909706 -0.10261295464748595 0 0.0015290089013652176 -0.10225509554324468 0 0.0016603728823720663 -0.10150623145647457 0 0.0038160266628489378 -0.10060977709724028 0 0.0039977357972777842 -0.097418111028464288 0 0.0013988915311662603 -0.10272609269809059 0 0.0016518822622506619 -0.10277413855104629 0 0.0015290089013652176 -0.10225509554324468 0 0.0019432827440909706 -0.10261295464748595 0 0.0016518822622506619 -0.10277413855104629 0 0.0015290089013652176 -0.10225509554324468 0 0.0013988915311662603 -0.10272609269809059 0 0.0015290089013652176 -0.10225509554324468 0 0.0011573378229830626 -0.10234934931261742 0 0.0015290089013652176 -0.10225509554324468 0 0.0011573378229830626 -0.10234934931261742 0 0.00084967786272956104 -0.10179018030149099 0 0.00083696973588033162 -0.10259626336175683 0 0.00084967786272956104 -0.10179018030149099 0 0.00027533600828994788 -0.10174266610872809 0 0.00083696973588033162 -0.10259626336175683 0 0.0011573378229830626 -0.10234934931261742 0 0.00084967786272956104 -0.10179018030149099 0 0.00084967786272956104 -0.10179018030149099 0 0.0010179471769314217 -0.10114587383270517 0 0.0016603728823720663 -0.10150623145647457 0 0.00084967786272956104 -0.10179018030149099 0 0.0010179471769314217 -0.10114587383270517 0 0.00045253772888152445 -0.10103447985035093 0 0.0015290089013652176 -0.10225509554324468 0 0.00084967786272956104 -0.10179018030149099 0 0.0016603728823720663 -0.10150623145647457 0 0.0039977357972777842 -0.097418111028464288 0 0.0036530586108161388 -0.090896091569211565 0 0.0038056562160993356 -0.097189956324272769 0 0.0045183238016555435 -0.094599577284458683 0 0.0023522256590498229 -0.094624284223913266 0 0.0038056562160993356 -0.097189956324272769 0 0.0045183238016555435 -0.094599577284458683 0 0.0048908913392776239 -0.097176510396234581 0 0.0021810056946400397 -0.097299808421669798 0 0.0036530586108161388 -0.090896091569211565 0 0.0010925483829620484 -0.10022446203391579 0 0.00045253772888152445 -0.10103447985035093 0 0.00014439064258546931 -0.10018905641403189 0 0.0010179471769314217 -0.10114587383270517 0 0.0010925483829620484 -0.10022446203391579 0 0.00045253772888152445 -0.10103447985035093 0 0.0036530586108161388 -0.090896091569211565 0 0.0025044675135544783 -0.085250440993910423 0 0.0010179471769314217 -0.10114587383270517 0 0.0016603728823720663 -0.10150623145647457 0 0.0010925483829620484 -0.10022446203391579 0 0.005260806911948265 -0.099758142350235474 0 0.0038056562160993356 -0.097189956324272769 0 0.0048908913392776239 -0.097176510396234581 0 0.001471905113258913 -0.10423014483554226 0 0.0011399391694958566 -0.10477324666050246 0 0.0019068508169138838 -0.10470410638885831 0 0.0020108149790687459 -0.10550650780234805 0 0.0011399391694958566 -0.10477324666050246 0 0.0019068508169138838 -0.10470410638885831 0 0.0021810056946400397 -0.097299808421669798 0 0.0031710180226725646 -0.10000304667282796 0 0.0020108149790687459 -0.10550650780234805 0 0.0011399391694958566 -0.10477324666050246 0 0.00090830250901264111 -0.1055193674191607 0 0.0011399391694958566 -0.10477324666050246 0 0.00052018518369714424 -0.1048835107271886 0 0.00090830250901264111 -0.1055193674191607 0 0.00052018518369714424 -0.1048835107271886 0 -0.00012903936395888932 -0.10552326433849994 0 0.00090830250901264111 -0.1055193674191607 0 0.0011399391694958566 -0.10477324666050246 0 0.00052018518369714424 -0.1048835107271886 0 0.00060790720535600128 -0.10427546865888951 0 0.00052018518369714424 -0.1048835107271886 0 0.00015127621187601513 -0.10452191742734945 0 0.00060790720535600128 -0.10427546865888951 0 0.00014194125936061285 -0.10460774188362675 0 -6.4978807631170288e-05 -0.10485555360777689 0 -6.7217007321657268e-05 -0.10451488052599052 0 1.5338464417725151e-05 -0.10498312611532648 0 1.2385639413934448e-05 -0.10499225044508197 0 2.7400713998862912e-06 -0.10499233045323358 0 0.0001995215253760724 -0.10468153625561154 0 1.7717783526185539e-05 -0.104888410253668 0 0.0001995215253760724 -0.10468153625561154 0 0.00019968836410328686 -0.10468019887877104 0 0.0001995215253760724 -0.10468153625561154 0 0.0002170269715675112 -0.10455057976791583 0 0.00052018518369714424 -0.1048835107271886 0 0.00015127621187601513 -0.10452191742734945 0 1.0763897393654863e-05 -0.1050169955010135 0 0.00052018518369714424 -0.1048835107271886 0 1.0763897393654863e-05 -0.1050169955010135 0 -0.00012903936395888932 -0.10552326433849994 0 0.0002170269715675112 -0.10455057976791583 0 0.00036146599810613425 -0.1040109777322594 0 1.2385639413934448e-05 -0.10499225044508197 0 6.2421591453216333e-06 -0.10499506184012136 0 9.7515435794148314e-06 -0.10499912576130599 0 6.2421591453216333e-06 -0.10499506184012136 0 2.7400713998862912e-06 -0.10499233045323358 0 2.1318353419425705e-06 -0.10499887641210318 0 2.7400713998862912e-06 -0.10499233045323358 0 1.0538049854700143e-06 -0.10499922218167976 0 2.1318353419425705e-06 -0.10499887641210318 0 6.2421591453216333e-06 -0.10499506184012136 0 2.1318353419425705e-06 -0.10499887641210318 0 9.7515435794148314e-06 -0.10499912576130599 0 1.2385639413934448e-05 -0.10499225044508197 0 6.2421591453216333e-06 -0.10499506184012136 0 2.7400713998862912e-06 -0.10499233045323358 0 -7.5487031430018947e-08 -0.10499983177152211 0 1.7717783526185539e-05 -0.104888410253668 0 -4.5327470253065498e-09 -0.10499999315546617 0 2.7400713998862912e-06 -0.10499233045323358 0 1.0538049854700143e-06 -0.10499922218167976 0 1.7037961319878243e-07 -0.10499995108759341 0 -6.4978807631170288e-05 -0.10485555360777689 0 -4.2263399978168967e-07 -0.10499964289294932 0 -6.4978807631170288e-05 -0.10485555360777689 0 -6.7217007321657268e-05 -0.10451488052599052 0 -4.2263399978168967e-07 -0.10499964289294932 0 -6.7217007321657268e-05 -0.10451488052599052 0 -4.2263399978168967e-07 -0.10499964289294932 0 -0.00020467434723995623 -0.1042955084157819 0 1.7994768556555011e-08 -0.10499743578539013 0 -4.2263399978168967e-07 -0.10499964289294932 0 -0.00020467434723995623 -0.1042955084157819 0 -6.7217007321657268e-05 -0.10451488052599052 0 -0.00020467434723995623 -0.1042955084157819 0 4.9236833591988607e-06 -0.10396205050693001 0 -0.00025982467804329368 -0.10260425755102121 0 -0.00020467434723995623 -0.1042955084157819 0 4.9236833591988607e-06 -0.10396205050693001 0 -0.00025982467804329368 -0.10260425755102121 0 4.9236833591988607e-06 -0.10396205050693001 0 0.00062329198738412628 -0.10375625325671654 0 4.9236833591988607e-06 -0.10396205050693001 0 0.00062329198738412628 -0.10375625325671654 0 0.0002388776366266688 -0.10421947741202879 0 0.00062329198738412628 -0.10375625325671654 0 0.00060790720535600128 -0.10427546865888951 0 0.0002388776366266688 -0.10421947741202879 0 0.0010966019002353726 -0.10405617626918717 0 0.00062329198738412628 -0.10375625325671654 0 0.00060790720535600128 -0.10427546865888951 0 0.0001438631890225044 -0.10464779674351175 0 0.00060790720535600128 -0.10427546865888951 0 0.00016466983707370797 -0.10454785156106589 0 0.00060790720535600128 -0.10427546865888951 0 0.00016466983707370797 -0.10454785156106589 0 0.0002388776366266688 -0.10421947741202879 0 0.0001995215253760724 -0.10468153625561154 0 0.00028583155664563427 -0.10461887368482289 0 -6.7217007321657268e-05 -0.10451488052599052 0 0.00016466983707370797 -0.10454785156106589 0 0.0002388776366266688 -0.10421947741202879 0 0.00014194125936061285 -0.10460774188362675 0 -6.7217007321657268e-05 -0.10451488052599052 0 0.00016466983707370797 -0.10454785156106589 0 -6.7217007321657268e-05 -0.10451488052599052 0 4.9236833591988607e-06 -0.10396205050693001 0 0.0002388776366266688 -0.10421947741202879 0 0.0032511693923679193 -0.054098721606497237 0 0.004580532482179404 -0.051553560033928539 0 0.0015007724852584663 -0.052682920667395078 0 0.0017879523773649689 -0.050958709863559937 0 0.00096886573332884151 -0.052126210250232383 0 -0.00036515462725961791 -0.058785580278345906 0 0.00043796643490135335 -0.058655929176184285 0 0.00023246540405035237 -0.059041281301035586 0 -0.00036515462725961791 -0.058785580278345906 0 -0.00021514756038735455 -0.058881067241572972 0 0.00023246540405035237 -0.059041281301035586 0 -0.00036515462725961791 -0.058785580278345906 0 -0.0002128312373730181 -0.058594664450801803 0 -0.00021514756038735455 -0.058881067241572972 0 -0.00036515462725961791 -0.058785580278345906 0 -0.00033812902735676957 -0.057959999008032857 0 -0.00054492641495052277 -0.058987771087832833 0 -0.00036515462725961791 -0.058785580278345906 0 -0.00033812902735676957 -0.057959999008032857 0 0.00043796643490135335 -0.058655929176184285 0 0.0032511693923679193 -0.054098721606497237 0 0.0028053996037893333 -0.054563652777858934 0 -0.00033812902735676957 -0.057959999008032857 0 0.00043796643490135335 -0.058655929176184285 0 0.00042241386215237489 -0.055525831792484534 0 0.0015007724852584663 -0.052682920667395078 0 0.00042241386215237489 -0.055525831792484534 0 0.00012770367442416848 -0.053470767383430394 0 0.00042241386215237489 -0.055525831792484534 0 -1.2349427418046654e-06 -0.053905787592707338 0 -0.00037002969904331425 -0.057803723646779305 0 0.00042241386215237489 -0.055525831792484534 0 -1.2349427418046654e-06 -0.053905787592707338 0 -7.751607871473164e-05 -0.052703568663304994 0 -1.2349427418046654e-06 -0.053905787592707338 0 -0.00037002969904331425 -0.057803723646779305 0 -1.0909152482160767e-06 -0.059668415273494542 0 -0.00033812902735676957 -0.057959999008032857 0 0.00042241386215237489 -0.055525831792484534 0 -0.00037002969904331425 -0.057803723646779305 0 -0.00033812902735676957 -0.057959999008032857 0 -0.00037002969904331425 -0.057803723646779305 0 -0.00054492641495052277 -0.058987771087832833 0 -0.00054492641495052277 -0.058987771087832833 0 -0.00022977596659862494 -0.060814226393283634 0 -7.1395768997919884e-05 -0.060452904477544887 0 -0.00037002969904331425 -0.057803723646779305 0 -0.00054492641495052277 -0.058987771087832833 0 -0.00022977596659862494 -0.060814226393283634 0 -1.0909152482160767e-06 -0.059668415273494542 0 -0.00022977596659862494 -0.060814226393283634 0 1.3723658718075459e-06 -0.065429944958087113 0 -0.00037002969904331425 -0.057803723646779305 0 -1.0909152482160767e-06 -0.059668415273494542 0 -0.00022977596659862494 -0.060814226393283634 0 -0.00022977596659862494 -0.060814226393283634 0 1.3723658718075459e-06 -0.065429944958087113 0 0.00044152067739822854 -0.063142275591686572 0 0.00044152067739822854 -0.063142275591686572 0 -7.1395768997919884e-05 -0.060452904477544887 0 0.0016407274114839524 -0.061164211459431378 0 -0.00022977596659862494 -0.060814226393283634 0 0.00044152067739822854 -0.063142275591686572 0 -7.1395768997919884e-05 -0.060452904477544887 0 -7.1395768997919884e-05 -0.060452904477544887 0 0.00076733828793148682 -0.059765719082894686 0 0.0016407274114839524 -0.061164211459431378 0 0.00076733828793148682 -0.059765719082894686 0 0.00054494515861279881 -0.058796273574265978 0 0.0014645099044546918 -0.059175712479604882 0 0.00076733828793148682 -0.059765719082894686 0 -0.00023924446624766873 -0.059153888515279592 0 0.00054494515861279881 -0.058796273574265978 0 -7.1395768997919884e-05 -0.060452904477544887 0 0.00076733828793148682 -0.059765719082894686 0 -0.00023924446624766873 -0.059153888515279592 0 -0.00036515462725961791 -0.058785580278345906 0 -0.00054492641495052277 -0.058987771087832833