<?xml version="1.0"?>
<VTKFile type="UnstructuredGrid" version="0.1" byte_order="LittleEndian">
<UnstructuredGrid>
<Piece NumberOfPoints="31898" NumberOfCells="11152">
<Points>
<DataArray type="Float64" NumberOfComponents="3" format="ascii">
-0.5 -0.5 0 -0.47620991077874902 -0.44978878706170539 0 -0.49999999999999473 -0.42132396840504388 0 -0.5 -0.5 0 -0.47160970827802529 -0.4793630013852106 0 -0.47620991077874902 -0.44978878706170539 0 -0.5 -0.5 0 -0.47160970827802529 -0.4793630013852106 0 -0.44860394795025399 -0.5 0 -0.47160970827802529 -0.4793630013852106 0 -0.44860394795025399 -0.5 0 -0.4490820238307246 -0.45820516232899983 0 -0.44860394795025399 -0.5 0 -0.4490820238307246 -0.45820516232899983 0 -0.42881687682924802 -0.47781464288736519 0 -0.4490820238307246 -0.45820516232899983 0 -0.45555437223955858 -0.42914059360647611 0 -0.4490820238307246 -0.45820516232899983 0 -0.45555437223955858 -0.42914059360647611 0 -0.43867285131603428 -0.4271457417558665 0 -0.4490820238307246 -0.45820516232899983 0 -0.43867285131603428 -0.4271457417558665 0 -0.4263356171060747 -0.44269880333887462 0 -0.47160970827802529 -0.4793630013852106 0 -0.4490820238307246 -0.45820516232899983 0 -0.47620991077874902 -0.44978878706170539 0 -0.4490820238307246 -0.45820516232899983 0 -0.47620991077874902 -0.44978878706170539 0 -0.45555437223955858 -0.42914059360647611 0 -0.47620991077874902 -0.44978878706170539 0 -0.48101336032419229 -0.41069999664450008 0 -0.45555437223955858 -0.42914059360647611 0 -0.47620991077874902 -0.44978878706170539 0 -0.49999999999999473 -0.42132396840504388 0 -0.48101336032419229 -0.41069999664450008 0 -0.49999999999999473 -0.42132396840504388 0 -0.48101336032419229 -0.41069999664450008 0 -0.5 -0.393886241813306 0 -0.49999999999999473 -0.42132396840504388 0 -0.48101336032419229 -0.41069999664450008 0 -0.5 -0.393886241813306 0 -0.47854472220918332 -0.38978458738689759 0 -0.48422759779560409 -0.37130120630367158 0 -0.5 -0.393886241813306 0 -0.5 -0.36644851522156802 0 -0.48422759779560409 -0.37130120630367158 0 -0.48101336032419229 -0.41069999664450008 0 -0.5 -0.393886241813306 0 -0.47854472220918332 -0.38978458738689759 0 -0.48101336032419229 -0.41069999664450008 0 -0.47854472220918332 -0.38978458738689759 0 -0.46202672064839212 -0.40007602488395211 0 -0.48101336032419229 -0.41069999664450008 0 -0.46202672064839212 -0.40007602488395211 0 -0.47854472220918332 -0.38978458738689759 0 -0.46725442735267431 -0.37660061361585562 0 -0.46202672064839212 -0.40007602488395211 0 -0.47854472220918332 -0.38978458738689759 0 -0.46725442735267431 -0.37660061361585562 0 -0.48422759779560409 -0.37130120630367158 0 -0.46725442735267431 -0.37660061361585562 0 -0.46202672064839212 -0.40007602488395211 0 -0.46725442735267431 -0.37660061361585562 0 -0.45645674801697989 -0.38644133236760531 0 -0.46202672064839212 -0.40007602488395211 0 -0.46725442735267431 -0.37660061361585562 0 -0.45645674801697989 -0.38644133236760531 0 -0.4540003998136638 -0.37455519391687309 0 -0.45645674801697989 -0.38644133236760531 0 -0.46202672064839212 -0.40007602488395211 0 -0.44257020456291563 -0.38918913383950271 0 -0.46202672064839212 -0.40007602488395211 0 -0.44257020456291563 -0.38918913383950271 0 -0.44727608925983742 -0.41095911152778891 0 -0.46202672064839212 -0.40007602488395211 0 -0.44257020456291563 -0.38918913383950271 0 -0.44257020456291563 -0.38918913383950271 0 -0.44727608925983742 -0.41095911152778891 0 -0.43479358559901082 -0.4041454901736512 0 -0.44257020456291563 -0.38918913383950271 0 -0.4540003998136638 -0.37455519391687309 0 -0.44172858264042247 -0.37082207246888088 0 -0.45645674801697989 -0.38644133236760531 0 -0.44257020456291563 -0.38918913383950271 0 -0.4540003998136638 -0.37455519391687309 0 -0.46202672064839212 -0.40007602488395211 0 -0.45555437223955858 -0.42914059360647611 0 -0.44727608925983742 -0.41095911152778891 0 -0.46202672064839212 -0.40007602488395211 0 -0.45555437223955858 -0.42914059360647611 0 -0.48101336032419229 -0.41069999664450008 0 -0.46202672064839212 -0.40007602488395211 0 -0.45555437223955858 -0.42914059360647611 0 -0.44727608925983742 -0.41095911152778891 0 -0.43867285131603428 -0.4271457417558665 0 -0.43676601469929588 -0.41441201227470881 0 -0.44727608925983742 -0.41095911152778891 0 -0.43676601469929588 -0.41441201227470881 0 -0.43479358559901082 -0.4041454901736512 0 -0.45555437223955858 -0.42914059360647611 0 -0.44727608925983742 -0.41095911152778891 0 -0.43867285131603428 -0.4271457417558665 0 -0.43867285131603428 -0.4271457417558665 0 -0.42681803064840879 -0.42717069814352421 0 -0.4263356171060747 -0.44269880333887462 0 -0.42681803064840879 -0.42717069814352421 0 -0.41531815884496182 -0.42985383783075998 0 -0.4263356171060747 -0.44269880333887462 0 -0.42681803064840879 -0.42717069814352421 0 -0.42624289495594048 -0.42089725947505818 0 -0.42083332353326591 -0.42146747131641099 0 -0.42681803064840879 -0.42717069814352421 0 -0.43096994786351572 -0.41951492446283251 0 -0.42624289495594048 -0.42089725947505818 0 -0.43867285131603428 -0.4271457417558665 0 -0.42681803064840879 -0.42717069814352421 0 -0.43096994786351572 -0.41951492446283251 0 -0.43867285131603428 -0.4271457417558665 0 -0.43676601469929588 -0.41441201227470881 0 -0.43096994786351572 -0.41951492446283251 0 -0.43676601469929588 -0.41441201227470881 0 -0.43096994786351572 -0.41951492446283251 0 -0.42907264086257813 -0.41311715872526122 0 -0.43676601469929588 -0.41441201227470881 0 -0.42907264086257813 -0.41311715872526122 0 -0.43479358559901082 -0.4041454901736512 0 -0.42907264086257813 -0.41311715872526122 0 -0.43479358559901082 -0.4041454901736512 0 -0.42460885511582858 -0.40417321677700252 0 -0.42907264086257813 -0.41311715872526122 0 -0.41997834854398469 -0.41180534796019508 0 -0.42907264086257813 -0.41311715872526122 0 -0.42635027777857132 -0.41543594397746519 0 -0.41997834854398469 -0.41180534796019508 0 -0.42907264086257813 -0.41311715872526122 0 -0.41997834854398469 -0.41180534796019508 0 -0.42460885511582858 -0.40417321677700252 0 -0.42635027777857132 -0.41543594397746519 0 -0.41997834854398469 -0.41180534796019508 0 -0.42635027777857132 -0.41543594397746519 0 -0.42083332353326591 -0.42146747131641099 0 -0.41997834854398469 -0.41180534796019508 0 -0.43096994786351572 -0.41951492446283251 0 -0.42624289495594048 -0.42089725947505818 0 -0.42635027777857132 -0.41543594397746519 0 -0.43096994786351572 -0.41951492446283251 0 -0.42907264086257813 -0.41311715872526122 0 -0.42635027777857132 -0.41543594397746519 0 -0.42624289495594048 -0.42089725947505818 0 -0.42635027777857132 -0.41543594397746519 0 -0.42083332353326591 -0.42146747131641099 0 -0.42083332353326591 -0.42146747131641099 0 -0.41997834854398469 -0.41180534796019508 0 -0.40992282953163789 -0.42011435591993562 0 -0.41997834854398469 -0.41180534796019508 0 -0.39756877647335259 -0.40857286797681719 0 -0.41997834854398469 -0.41180534796019508 0 -0.40992282953163789 -0.42011435591993562 0 -0.39756877647335259 -0.40857286797681719 0 -0.40992282953163789 -0.42011435591993562 0 -0.41531815884496182 -0.42985383783075998 0 -0.39591554026262499 -0.42887225451549271 0 -0.41531815884496182 -0.42985383783075998 0 -0.39591554026262499 -0.42887225451549271 0 -0.41160927495564159 -0.44339431233754628 0 -0.42083332353326591 -0.42146747131641099 0 -0.40992282953163789 -0.42011435591993562 0 -0.41531815884496182 -0.42985383783075998 0 -0.42681803064840879 -0.42717069814352421 0 -0.42083332353326591 -0.42146747131641099 0 -0.41531815884496182 -0.42985383783075998 0 -0.44257020456291563 -0.38918913383950271 0 -0.42311368847744002 -0.37830224279505142 0 -0.42594061475171041 -0.39368797999533162 0 -0.44257020456291563 -0.38918913383950271 0 -0.42311368847744002 -0.37830224279505142 0 -0.44172858264042247 -0.37082207246888088 0 -0.44257020456291563 -0.38918913383950271 0 -0.42311368847744002 -0.37830224279505142 0 -0.42311368847744002 -0.37830224279505142 0 -0.42594061475171041 -0.39368797999533162 0 -0.416587075656149 -0.38785930376960043 0 -0.44257020456291563 -0.38918913383950271 0 -0.42594061475171041 -0.39368797999533162 0 -0.43479358559901082 -0.4041454901736512 0 -0.42594061475171041 -0.39368797999533162 0 -0.43479358559901082 -0.4041454901736512 0 -0.42460885511582858 -0.40417321677700252 0 -0.41997834854398469 -0.41180534796019508 0 -0.41325908582185972 -0.39811010703057192 0 -0.39770572831670092 -0.39911486077581648 0 -0.41997834854398469 -0.41180534796019508 0 -0.39770572831670092 -0.39911486077581648 0 -0.42594061475171041 -0.39368797999533162 0 -0.42460885511582858 -0.40417321677700252 0 -0.41325908582185972 -0.39811010703057192 0 -0.41997834854398469 -0.41180534796019508 0 -0.42460885511582858 -0.40417321677700252 0 -0.41325908582185972 -0.39811010703057192 0 -0.42594061475171041 -0.39368797999533162 0 -0.41325908582185972 -0.39811010703057192 0 -0.416587075656149 -0.38785930376960043 0 -0.41325908582185972 -0.39811010703057192 0 -0.416587075656149 -0.38785930376960043 0 -0.40403491357358612 -0.38133688525744702 0 -0.42311368847744002 -0.37830224279505142 0 -0.40403491357358612 -0.38133688525744702 0 -0.40365717239196519 -0.36741535175059892 0 -0.42311368847744002 -0.37830224279505142 0 -0.416587075656149 -0.38785930376960043 0 -0.40403491357358612 -0.38133688525744702 0 -0.40403491357358612 -0.38133688525744702 0 -0.39190790742475001 -0.38540387676521748 0 -0.39770572831670092 -0.39911486077581648 0 -0.40403491357358612 -0.38133688525744702 0 -0.39190790742475001 -0.38540387676521748 0 -0.3904578797192948 -0.37473938743617019 0 -0.41325908582185972 -0.39811010703057192 0 -0.40403491357358612 -0.38133688525744702 0 -0.39770572831670092 -0.39911486077581648 0 -0.39770572831670092 -0.39911486077581648 0 -0.37543310808941849 -0.38642437359143528 0 -0.39770572831670092 -0.39911486077581648 0 -0.37515920440272033 -0.40534038799344108 0 -0.37543310808941849 -0.38642437359143528 0 -0.39770572831670092 -0.39911486077581648 0 -0.37515920440272033 -0.40534038799344108 0 -0.39756877647335259 -0.40857286797681719
[...]
<PointData Scalars="" Vectors="displacement," Tensors="">
<DataArray type="Float64" Name="displacement" NumberOfComponents="3" format="ascii">
-0.10499242496573979 -0.10499408739431132 0 -0.097889337342607449 -0.10312803277437421 0 -0.088509825629947678 -0.10498600907450212 0 -0.10499242496573979 -0.10499408739431132 0 -0.10332510950748755 -0.10117117139048631 0 -0.097889337342607449 -0.10312803277437421 0 -0.10499242496573979 -0.10499408739431132 0 -0.10332510950748755 -0.10117117139048631 0 -0.10499411784709364 -0.09421589781498102 0 -0.10332510950748755 -0.10117117139048631 0 -0.10499411784709364 -0.09421589781498102 0 -0.10396166320160236 -0.099709775284978625 0 -0.10499411784709364 -0.09421589781498102 0 -0.10396166320160236 -0.099709775284978625 0 -0.10533423203586052 -0.092280345545177472 0 -0.10185709642576722 -0.10252318353694671 0 -0.101456518364002 -0.10335099358659469 0 -0.10396166320160236 -0.099709775284978625 0 -0.11295958899047381 -0.10062106989066763 0 -0.11366291649326876 -0.096136409481272014 0 -0.10396166320160236 -0.099709775284978625 0 -0.11366291649326876 -0.096136409481272014 0 -0.10989137536054634 -0.092684504303363668 0 -0.10332510950748755 -0.10117117139048631 0 -0.10396166320160236 -0.099709775284978625 0 -0.097889337342607449 -0.10312803277437421 0 -0.10396166320160236 -0.099709775284978625 0 -0.097889337342607449 -0.10312803277437421 0 -0.09553404496739086 -0.10493808072068304 0 -0.097889337342607449 -0.10312803277437421 0 -0.091101371900968509 -0.10387839164333157 0 -0.09553404496739086 -0.10493808072068304 0 -0.097889337342607449 -0.10312803277437421 0 -0.088509825629947678 -0.10498600907450212 0 -0.091101371900968509 -0.10387839164333157 0 -0.088478005457934591 -0.10499998766927859 0 -0.086244233062994571 -0.1089605907014264 0 -0.082716125319987455 -0.10499998309908889 0 -0.088481130324223251 -0.10500135148444498 0 -0.089913376141175935 -0.10551945877830067 0 -0.082716125319987455 -0.10499998309908889 0 -0.081862861865029529 -0.10947468166388025 0 -0.077980048649919323 -0.10829051519855538 0 -0.082716125319987455 -0.10499998309908889 0 -0.076954196672959108 -0.10499998006955201 0 -0.077980048649919323 -0.10829051519855538 0 -0.086244233062994571 -0.1089605907014264 0 -0.082716125319987455 -0.10499998309908889 0 -0.081862861865029529 -0.10947468166388025 0 -0.086244233062994571 -0.1089605907014264 0 -0.081862861865029529 -0.10947468166388025 0 -0.084028080212395009 -0.11291098680562926 0 -0.089913376141175935 -0.10551945877830067 0 -0.093002782462617062 -0.10370095609228989 0 -0.081862861865029529 -0.10947468166388025 0 -0.079099524283420777 -0.11183288174233007 0 -0.084028080212395009 -0.11291098680562926 0 -0.081862861865029529 -0.10947468166388025 0 -0.079099524283420777 -0.11183288174233007 0 -0.077980048649919323 -0.10829051519855538 0 -0.079741031619981764 -0.10635568975032421 0 -0.093002782462617062 -0.10370095609228989 0 -0.073148921284895918 -0.11097571734220835 0 -0.072954687565229992 -0.1109169089063274 0 -0.072825069906339315 -0.11097908023591341 0 -0.073148921284895918 -0.11097571734220835 0 -0.072954687565229992 -0.1109169089063274 0 -0.07297916893118947 -0.11095637889564526 0 -0.072954687565229992 -0.1109169089063274 0 -0.072825069906339315 -0.11097908023591341 0 -0.0728530242116711 -0.1107547797177084 0 -0.11926254730878763 -0.10112751350878046 0 -0.1210509994982425 -0.096931333373527925 0 -0.11707140224874867 -0.098131641121720709 0 -0.093002782462617062 -0.10370095609228989 0 -0.093889206821507934 -0.10194977655037502 0 -0.1210509994982425 -0.096931333373527925 0 -0.11707140224874867 -0.098131641121720709 0 -0.11835416277696605 -0.095442992990036016 0 -0.0728530242116711 -0.1107547797177084 0 -0.07297916893118947 -0.11095637889564526 0 -0.072982562867022274 -0.11074685165996387 0 -0.072954687565229992 -0.1109169089063274 0 -0.0728530242116711 -0.1107547797177084 0 -0.07297916893118947 -0.11095637889564526 0 -0.11926254730878763 -0.10112751350878046 0 -0.11295958899047381 -0.10062106989066763 0 -0.11707140224874867 -0.098131641121720709 0 -0.093002782462617062 -0.10370095609228989 0 -0.101456518364002 -0.10335099358659469 0 -0.091101371900968509 -0.10387839164333157 0 -0.090644186414993319 -0.10544800726310934 0 -0.09553404496739086 -0.10493808072068304 0 -0.11707140224874867 -0.098131641121720709 0 -0.11366291649326876 -0.096136409481272014 0 -0.11641494932648219 -0.095785955700913944 0 -0.11707140224874867 -0.098131641121720709 0 -0.11641494932648219 -0.095785955700913944 0 -0.11835416277696605 -0.095442992990036016 0 -0.11295958899047381 -0.10062106989066763 0 -0.11707140224874867 -0.098131641121720709 0 -0.11366291649326876 -0.096136409481272014 0 -0.11366291649326876 -0.096136409481272014 0 -0.1135647805194865 -0.093188130752303713 0 -0.10989137536054634 -0.092684504303363668 0 -0.1135647805194865 -0.093188130752303713 0 -0.11292155306746168 -0.090421819205494608 0 -0.10989137536054634 -0.092684504303363668 0 -0.1135647805194865 -0.093188130752303713 0 -0.11500370499483929 -0.093179190452191502 0 -0.11485657459966285 -0.091821302169076927 0 -0.1135647805194865 -0.093188130752303713 0 -0.11533499700354639 -0.0943947876969186 0 -0.11500370499483929 -0.093179190452191502 0 -0.11366291649326876 -0.096136409481272014 0 -0.1135647805194865 -0.093188130752303713 0 -0.11533499700354639 -0.0943947876969186 0 -0.11366291649326876 -0.096136409481272014 0 -0.11641494932648219 -0.095785955700913944 0 -0.11533499700354639 -0.0943947876969186 0 -0.11641494932648219 -0.095785955700913944 0 -0.11533499700354639 -0.0943947876969186 0 -0.11682477812923708 -0.094157716402770944 0 -0.11641494932648219 -0.095785955700913944 0 -0.11682477812923708 -0.094157716402770944 0 -0.11835416277696605 -0.095442992990036016 0 -0.11682477812923708 -0.094157716402770944 0 -0.11835416277696605 -0.095442992990036016 0 -0.11832509006413224 -0.093648833187889219 0 -0.11298467697002093 -0.087993860723491232 0 -0.11292401587642999 -0.087282557296908037 0 -0.11682477812923708 -0.094157716402770944 0 -0.11626121936741113 -0.093316072016188939 0 -0.11734147162698105 -0.091458786114419488 0 -0.11682477812923708 -0.094157716402770944 0 -0.11718110143548714 -0.092918421424520795 0 -0.11832509006413224 -0.093648833187889219 0 -0.11291228744647393 -0.087555031209095455 0 -0.11292401587642999 -0.087282557296908037 0 -0.11626121936741113 -0.093316072016188939 0 -0.11485657459966285 -0.091821302169076927 0 -0.11715800450797792 -0.091620027953826205 0 -0.11533499700354639 -0.0943947876969186 0 -0.11500370499483929 -0.093179190452191502 0 -0.11626121936741113 -0.093316072016188939 0 -0.11533499700354639 -0.0943947876969186 0 -0.11682477812923708 -0.094157716402770944 0 -0.11626121936741113 -0.093316072016188939 0 -0.11500370499483929 -0.093179190452191502 0 -0.11626121936741113 -0.093316072016188939 0 -0.11485657459966285 -0.091821302169076927 0 -0.11485657459966285 -0.091821302169076927 0 -0.11715800450797792 -0.091620027953826205 0 -0.11517592549759464 -0.089223556267061827 0 -0.11292401587642999 -0.087282557296908037 0 -0.11362234118914506 -0.083524543894992226 0 -0.11715800450797792 -0.091620027953826205 0 -0.11517592549759464 -0.089223556267061827 0 -0.11780955796425231 -0.086373703668992774 0 -0.11517592549759464 -0.089223556267061827 0 -0.11292155306746168 -0.090421819205494608 0 -0.11318969008311497 -0.086010395669388784 0 -0.11292155306746168 -0.090421819205494608 0 -0.11318969008311497 -0.086010395669388784 0 -0.10994027186284859 -0.08952511978225336 0 -0.11485657459966285 -0.091821302169076927 0 -0.11517592549759464 -0.089223556267061827 0 -0.11292155306746168 -0.090421819205494608 0 -0.1135647805194865 -0.093188130752303713 0 -0.11485657459966285 -0.091821302169076927 0 -0.11292155306746168 -0.090421819205494608 0 -0.1210509994982425 -0.096931333373527925 0 -0.12223168551531532 -0.093480859111307921 0 -0.1200106855649701 -0.093939423300195765 0 -0.0728530242116711 -0.1107547797177084 0 -0.072874018726296952 -0.11037129746962505 0 -0.072982562867022274 -0.11074685165996387 0 -0.093889206821507934 -0.10194977655037502 0 -0.093815111051017155 -0.098795835371501647 0 -0.12223168551531532 -0.093480859111307921 0 -0.1200106855649701 -0.093939423300195765 0 -0.12076617773288807 -0.092502969519854122 0 -0.1210509994982425 -0.096931333373527925 0 -0.1200106855649701 -0.093939423300195765 0 -0.11835416277696605 -0.095442992990036016 0 -0.1200106855649701 -0.093939423300195765 0 -0.11835416277696605 -0.095442992990036016 0 -0.11832509006413224 -0.093648833187889219 0 -0.11718110143548714 -0.092918421424520795 0 -0.11927396192207362 -0.09198749746260311 0 -0.11920029716248019 -0.089840901023302083 0 -0.11292401587642999 -0.087282557296908037 0 -0.11224470933176081 -0.083691016193378265 0 -0.1200106855649701 -0.093939423300195765 0 -0.11832509006413224 -0.093648833187889219 0 -0.11927396192207362 -0.09198749746260311 0 -0.11718110143548714 -0.092918421424520795 0 -0.11832509006413224 -0.093648833187889219 0 -0.11927396192207362 -0.09198749746260311 0 -0.1200106855649701 -0.093939423300195765 0 -0.11927396192207362 -0.09198749746260311 0 -0.12076617773288807 -0.092502969519854122 0 -0.11927396192207362 -0.09198749746260311 0 -0.12076617773288807 -0.092502969519854122 0 -0.12153365340405835 -0.090651079747291793 0 -0.12223168551531532 -0.093480859111307921 0 -0.12153365340405835 -0.090651079747291793 0 -0.12355075929009025 -0.090604178079282893 0 -0.12223168551531532 -0.093480859111307921 0 -0.12076617773288807 -0.092502969519854122 0 -0.12153365340405835 -0.090651079747291793 0 -0.12153365340405835 -0.090651079747291793 0 -0.1209245452082407 -0.089195987988306538 0 -0.11920029716248019 -0.089840901023302083 0 -0.12153365340405835 -0.090651079747291793 0 -0.1209245452082407 -0.089195987988306538 0 -0.12212377909640006 -0.089049141327666184 0 -0.11927396192207362 -0.09198749746260311 0 -0.12153365340405835 -0.090651079747291793 0 -0.11920029716248019 -0.089840901023302083 0 -0.11224470933176081 -0.083691016193378265 0 -0.10968651824250279 -0.078102396752991562 0 -0.11306737614244068 -0.082298156966978717 0 -0.11220275479820717 -0.079166949383167221 0 -0.11481304496564899 -0.079202581299930519 0 -0.11306737614244068 -0.082298156966978717 0 -0.11220275479820717 -0.079166949383167221 0 -0.11175710465792164 -0.082281061462802479 0 -0.11397937173424591 -0.078213384217806797 0 -0.10968651824250279 -0.078102396752991562 0 -0.12080289728403727 -0.087310837486140588 0 -0.12212377909640006 -0.089049141327666184 0 -0.12268240817013988 -0.087419219293541975 0 -0.1209245452082407 -0.089195987988306538 0 -0.12080289728403727 -0.087310837486140588 0 -0.12212377909640006 -0.089049141327666184 0 -0.10968651824250279 -0.078102396752991562 0 -0.10381792277190847 -0.080094430436929792 0 -0.1209245452082407 -0.089195987988306538 0 -0.11920029716248019 -0.089840901023302083 0 -0.12080289728403727 -0.087310837486140588 0 -0.11131619636111779 -0.085408146884198732 0 -0.11306737614244068 -0.082298156966978717 0 -0.11175710465792164 -0.082281061462802479 0 -0.11517592549759464 -0.089223556267061827 0 -0.11318969008311497 -0.086010395669388784 0 -0.11780955796425231 -0.086373703668992774 0 -0.11851858242189821 -0.081303987592364263 0 -0.11318969008311497 -0.086010395669388784 0 -0.11780955796425231 -0.086373703668992774 0 -0.11397937173424591 -0.078213384217806797 0 -0.11362234118914506 -0.083524543894992226 0 -0.11851858242189821 -0.081303987592364263 0 -0.11318969008311497 -0.086010395669388784 0 -0.11171660944696256 -0.081237086093931696 0 -0.11318969008311497 -0.086010395669388784 0 -0.10923461117012263 -0.085348796714670952 0 -0.11171660944696256 -0.081237086093931696 0 -0.10923461117012263 -0.085348796714670952 0 -0.10498875439220122 -0.081150933568325742 0 -0.11171660944696256 -0.081237086093931696 0 -0.11318969008311497 -0.086010395669388784 0 -0.10923461117012263 -0.085348796714670952 0 -0.10994027186284859 -0.08952511978225336 0 -0.10923461117012263 -0.085348796714670952 0 -0.10678138890979293 -0.087797851853062603 0 -0.10994027186284859 -0.08952511978225336 0 -0.10810578404215038 -0.087986844796275152 0 -0.10679698489504581 -0.084523152078422203 0 -0.1067324566509545 -0.088887794767133196 0 -0.11370537740604024 -0.084635448674377056 0 -0.11289515410841777 -0.081631864843330293 0 -0.10939909905977728 -0.082321128357215376 0 -0.11004918203019642 -0.083519041948105846 0 -0.10766159216144454 -0.082094399788092354 0 -0.11004918203019642 -0.083519041948105846 0 -0.11005171954482912 -0.083561613058572265 0 -0.11004918203019642 -0.083519041948105846 0 -0.11006084967870279 -0.081809825289187135 0 -0.10923461117012263 -0.085348796714670952 0 -0.10678138890979293 -0.087797851853062603 0 -0.1058858887007669 -0.084473140753194925 0 -0.10923461117012263 -0.085348796714670952 0 -0.1058858887007669 -0.084473140753194925 0 -0.10498875439220122 -0.081150933568325742 0 -0.11006084967870279 -0.081809825289187135 0 -0.11002414319429693 -0.079197947152654644 0 -0.11289515410841777 -0.081631864843330293 0 -0.11085935136888635 -0.080543197107813796 0 -0.11208408968555535 -0.078605789494097938 0 -0.11085935136888635 -0.080543197107813796 0 -0.10939909905977728 -0.082321128357215376 0 -0.10969534935763259 -0.078557674838491784 0 -0.10939909905977728 -0.082321128357215376 0 -0.10712916072233949 -0.078201775905582652 0 -0.10969534935763259 -0.078557674838491784 0 -0.11085935136888635 -0.080543197107813796 0 -0.10969534935763259 -0.078557674838491784 0 -0.11208408968555535 -0.078605789494097938 0 -0.11289515410841777 -0.081631864843330293 0 -0.11085935136888635 -0.080543197107813796 0 -0.10939909905977728 -0.082321128357215376 0 -0.10500198356419876 -0.080001492862163293 0 -0.10766159216144454 -0.082094399788092354 0 -0.10500000969226546 -0.079998776404067468 0 -0.10939909905977728 -0.082321128357215376 0 -0.10712916072233949 -0.078201775905582652 0 -0.1049996509983878 -0.080002490596487993 0 -0.10679698489504581 -0.084523152078422203 0 -0.10499739541921253 -0.086097249076660526 0 -0.10679698489504581 -0.084523152078422203 0 -0.1067324566509545 -0.088887794767133196 0 -0.10499739541921253 -0.086097249076660526 0 -0.1067324566509545 -0.088887794767133196 0 -0.10499739541921253 -0.086097249076660526 0 -0.10533423203586052 -0.092280345545177472 0 -0.10499411784709364 -0.09421589781498102 0 -0.10499739541921253 -0.086097249076660526 0 -0.10533423203586052 -0.092280345545177472 0 -0.1067324566509545 -0.088887794767133196 0 -0.10533423203586052 -0.092280345545177472 0 -0.10653681636924453 -0.092524145681753656 0 -0.10396166320160236 -0.099709775284978625 0 -0.10533423203586052 -0.092280345545177472 0 -0.10653681636924453 -0.092524145681753656 0 -0.10396166320160236 -0.099709775284978625 0 -0.10653681636924453 -0.092524145681753656 0 -0.10989137536054634 -0.092684504303363668 0 -0.10653681636924453 -0.092524145681753656 0 -0.10989137536054634 -0.092684504303363668 0 -0.10812056258256647 -0.090329437698717568 0 -0.10989137536054634 -0.092684504303363668 0 -0.10994027186284859 -0.08952511978225336 0 -0.10812056258256647 -0.090329437698717568 0 -0.11292155306746168 -0.090421819205494608 0 -0.10989137536054634 -0.092684504303363668 0 -0.10994027186284859 -0.08952511978225336 0 -0.10799351888740745 -0.088007758256196292 0 -0.10994027186284859 -0.08952511978225336 0 -0.10808118256903577 -0.08842186262727629 0 -0.10994027186284859 -0.08952511978225336 0 -0.10808118256903577 -0.08842186262727629 0 -0.10812056258256647 -0.090329437698717568 0 -0.11004918203019642 -0.083519041948105846 0 -0.11026429064336289 -0.084213241685896098 0 -0.1067324566509545 -0.088887794767133196 0 -0.10808118256903577 -0.08842186262727629 0 -0.10812056258256647 -0.090329437698717568 0 -0.10810578404215038 -0.087986844796275152 0 -0.1067324566509545 -0.088887794767133196 0 -0.10808118256903577 -0.08842186262727629 0 -0.1067324566509545 -0.088887794767133196 0 -0.10653681636924453 -0.092524145681753656 0 -0.10812056258256647 -0.090329437698717568 0 -0.044836015558668361 -0.11016114462243246 0 -0.040044122201895439 -0.10442817755506648 0 -0.052835869190094177 -0.11340217704172095 0 -0.052553061534475629 -0.11985265757720626 0 -0.049131741287072379 -0.11492687002023302 0 -0.057698075988464145 -0.11484717540030183 0 -0.053727094840594548 -0.11353045631050213 0 -0.053387245522560904 -0.11800834660471647 0 -0.057698075988464145 -0.11484717540030183 0 -0.057480716494439837 -0.11874176352385335 0 -0.053387245522560904 -0.11800834660471647 0 -0.057698075988464145 -0.11484717540030183 0 -0.061316019075787175 -0.11653120830295934 0 -0.057480716494439837 -0.11874176352385335 0 -0.057698075988464145 -0.11484717540030183 0 -0.056188911957185297 -0.11139465061981366 0 -0.059332722454378845 -0.11100290944096269 0 -0.057698075988464145 -0.11484717540030183 0 -0.056188911957185297 -0.11139465061981366 0 -0.053727094840594548 -0.11353045631050213 0 -0.044836015558668361 -0.11016114462243246 0 -0.04639923182962194 -0.10990416469119266 0 -0.056188911957185297 -0.11139465061981366 0 -0.053727094840594548 -0.11353045631050213 0 -0.05382816087917193 -0.10884300488960111 0 -0.052835869190094177 -0.11340217704172095 0 -0.05382816087917193 -0.10884300488960111 0 -0.048422083793728733 -0.10995926398037011 0 -0.05382816087917193 -0.10884300488960111 0 -0.053906006117328785 -0.10499906295192346 0 -0.057449472993926567 -0.10806700400992494 0 -0.05382816087917193 -0.10884300488960111 0 -0.053906006117328785 -0.10499906295192346 0 -0.050370379063794428 -0.10702868374224934 0 -0.053906006117328785 -0.10499906295192346 0 -0.057449472993926567 -0.10806700400992494 0 -0.059668261700304294 -0.10499987154715294 0 -0.056188911957185297 -0.11139465061981366 0 -0.05382816087917193 -0.10884300488960111 0 -0.057449472993926567 -0.10806700400992494 0 -0.056188911957185297 -0.11139465061981366 0 -0.057449472993926567 -0.10806700400992494 0 -0.059332722454378845 -0.11100290944096269 0 -0.059332722454378845 -0.11100290944096269 0 -0.061221655741704843 -0.10774895195649861 0 -0.062556408589586665 -0.1105112732992999 0 -0.057449472993926567 -0.10806700400992494 0 -0.059332722454378845 -0.11100290944096269 0 -0.061221655741704843 -0.10774895195649861 0 -0.059668261700304294 -0.10499987154715294 0 -0.061221655741704843 -0.10774895195649861 0 -0.065430116701634566 -0.10499982599551143 0 -0.057449472993926567 -0.10806700400992494 0 -0.059668261700304294 -0.10499987154715294 0 -0.061221655741704843 -0.10774895195649861 0 -0.061221655741704843 -0.10774895195649861 0 -0.065430116701634566 -0.10499982599551143 0 -0.064178341941485847 -0.10837153498039949 0 -0.064178341941485847 -0.10837153498039949 0 -0.062556408589586665 -0.1105112732992999 0 -0.065887568325219428 -0.11038334591502884 0 -0.061221655741704843 -0.10774895195649861 0 -0.064178341941485847 -0.10837153498039949 0 -0.062556408589586665 -0.1105112732992999 0 -0.062556408589586665 -0.1105112732992999 0 -0.064196035665977064 -0.11255118188345804 0 -0.065887568325219428 -0.11038334591502884 0 -0.064196035665977064 -0.11255118188345804 0 -0.063541601707943554 -0.11527184641006354 0 -0.065665341205847133 -0.11422168432414824 0 -0.064196035665977064 -0.11255118188345804 0 -0.06137599548243218 -0.11343299938924133 0 -0.063541601707943554 -0.11527184641006354 0 -0.062556408589586665 -0.1105112732992999 0 -0.064196035665977064 -0.11255118188345804 0 -0.06137599548243218 -0.11343299938924133 0 -0.057698075988464145 -0.11484717540030183 0 -0.059332722454378845 -0.11100290944096269 0 -0.06137599548243218 -0.11343299938924133 0 -0.059332722454378845 -0.11100290944096269 0 -0.062556408589586665 -0.1105112732992999 0 -0.06137599548243218 -0.11343299938924133 0 -0.057698075988464145 -0.11484717540030183 0 -0.06137599548243218 -0.11343299938924133 0 -0.061316019075787175 -0.11653120830295934 0 -0.06137599548243218 -0.11343299938924133 0 -0.061316019075787175 -0.11653120830295934 0 -0.063541601707943554 -0.11527184641006354 0 -0.061316019075787175 -0.11653120830295934 0 -0.063541601707943554 -0.11527184641006354 0 -