<?xml version="1.0"?>
<VTKFile type="UnstructuredGrid" version="0.1" byte_order="LittleEndian">
<UnstructuredGrid>
<Piece NumberOfPoints="31898" NumberOfCells="11152">
<Points>
<DataArray type="Float64" NumberOfComponents="3" format="ascii">
-0.5 -0.5 0 -0.47620991077874902 -0.44978878706170539 0 -0.49999999999999473 -0.42132396840504388 0 -0.5 -0.5 0 -0.47160970827802529 -0.4793630013852106 0 -0.47620991077874902 -0.44978878706170539 0 -0.5 -0.5 0 -0.47160970827802529 -0.4793630013852106 0 -0.44860394795025399 -0.5 0 -0.47160970827802529 -0.4793630013852106 0 -0.44860394795025399 -0.5 0 -0.4490820238307246 -0.45820516232899983 0 -0.44860394795025399 -0.5 0 -0.4490820238307246 -0.45820516232899983 0 -0.42881687682924802 -0.47781464288736519 0 -0.4490820238307246 -0.45820516232899983 0 -0.45555437223955858 -0.42914059360647611 0 -0.4490820238307246 -0.45820516232899983 0 -0.45555437223955858 -0.42914059360647611 0 -0.43867285131603428 -0.4271457417558665 0 -0.4490820238307246 -0.45820516232899983 0 -0.43867285131603428 -0.4271457417558665 0 -0.4263356171060747 -0.44269880333887462 0 -0.47160970827802529 -0.4793630013852106 0 -0.4490820238307246 -0.45820516232899983 0 -0.47620991077874902 -0.44978878706170539 0 -0.4490820238307246 -0.45820516232899983 0 -0.47620991077874902 -0.44978878706170539 0 -0.45555437223955858 -0.42914059360647611 0 -0.47620991077874902 -0.44978878706170539 0 -0.48101336032419229 -0.41069999664450008 0 -0.45555437223955858 -0.42914059360647611 0 -0.47620991077874902 -0.44978878706170539 0 -0.49999999999999473 -0.42132396840504388 0 -0.48101336032419229 -0.41069999664450008 0 -0.49999999999999473 -0.42132396840504388 0 -0.48101336032419229 -0.41069999664450008 0 -0.5 -0.393886241813306 0 -0.49999999999999473 -0.42132396840504388 0 -0.48101336032419229 -0.41069999664450008 0 -0.5 -0.393886241813306 0 -0.47854472220918332 -0.38978458738689759 0 -0.48422759779560409 -0.37130120630367158 0 -0.5 -0.393886241813306 0 -0.5 -0.36644851522156802 0 -0.48422759779560409 -0.37130120630367158 0 -0.48101336032419229 -0.41069999664450008 0 -0.5 -0.393886241813306 0 -0.47854472220918332 -0.38978458738689759 0 -0.48101336032419229 -0.41069999664450008 0 -0.47854472220918332 -0.38978458738689759 0 -0.46202672064839212 -0.40007602488395211 0 -0.48101336032419229 -0.41069999664450008 0 -0.46202672064839212 -0.40007602488395211 0 -0.47854472220918332 -0.38978458738689759 0 -0.46725442735267431 -0.37660061361585562 0 -0.46202672064839212 -0.40007602488395211 0 -0.47854472220918332 -0.38978458738689759 0 -0.46725442735267431 -0.37660061361585562 0 -0.48422759779560409 -0.37130120630367158 0 -0.46725442735267431 -0.37660061361585562 0 -0.46202672064839212 -0.40007602488395211 0 -0.46725442735267431 -0.37660061361585562 0 -0.45645674801697989 -0.38644133236760531 0 -0.46202672064839212 -0.40007602488395211 0 -0.46725442735267431 -0.37660061361585562 0 -0.45645674801697989 -0.38644133236760531 0 -0.4540003998136638 -0.37455519391687309 0 -0.45645674801697989 -0.38644133236760531 0 -0.46202672064839212 -0.40007602488395211 0 -0.44257020456291563 -0.38918913383950271 0 -0.46202672064839212 -0.40007602488395211 0 -0.44257020456291563 -0.38918913383950271 0 -0.44727608925983742 -0.41095911152778891 0 -0.46202672064839212 -0.40007602488395211 0 -0.44257020456291563 -0.38918913383950271 0 -0.44257020456291563 -0.38918913383950271 0 -0.44727608925983742 -0.41095911152778891 0 -0.43479358559901082 -0.4041454901736512 0 -0.44257020456291563 -0.38918913383950271 0 -0.4540003998136638 -0.37455519391687309 0 -0.44172858264042247 -0.37082207246888088 0 -0.45645674801697989 -0.38644133236760531 0 -0.44257020456291563 -0.38918913383950271 0 -0.4540003998136638 -0.37455519391687309 0 -0.46202672064839212 -0.40007602488395211 0 -0.45555437223955858 -0.42914059360647611 0 -0.44727608925983742 -0.41095911152778891 0 -0.46202672064839212 -0.40007602488395211 0 -0.45555437223955858 -0.42914059360647611 0 -0.48101336032419229 -0.41069999664450008 0 -0.46202672064839212 -0.40007602488395211 0 -0.45555437223955858 -0.42914059360647611 0 -0.44727608925983742 -0.41095911152778891 0 -0.43867285131603428 -0.4271457417558665 0 -0.43676601469929588 -0.41441201227470881 0 -0.44727608925983742 -0.41095911152778891 0 -0.43676601469929588 -0.41441201227470881 0 -0.43479358559901082 -0.4041454901736512 0 -0.45555437223955858 -0.42914059360647611 0 -0.44727608925983742 -0.41095911152778891 0 -0.43867285131603428 -0.4271457417558665 0 -0.43867285131603428 -0.4271457417558665 0 -0.42681803064840879 -0.42717069814352421 0 -0.4263356171060747 -0.44269880333887462 0 -0.42681803064840879 -0.42717069814352421 0 -0.41531815884496182 -0.42985383783075998 0 -0.4263356171060747 -0.44269880333887462 0 -0.42681803064840879 -0.42717069814352421 0 -0.42624289495594048 -0.42089725947505818 0 -0.42083332353326591 -0.42146747131641099 0 -0.42681803064840879 -0.42717069814352421 0 -0.43096994786351572 -0.41951492446283251 0 -0.42624289495594048 -0.42089725947505818 0 -0.43867285131603428 -0.4271457417558665 0 -0.42681803064840879 -0.42717069814352421 0 -0.43096994786351572 -0.41951492446283251 0 -0.43867285131603428 -0.4271457417558665 0 -0.43676601469929588 -0.41441201227470881 0 -0.43096994786351572 -0.41951492446283251 0 -0.43676601469929588 -0.41441201227470881 0 -0.43096994786351572 -0.41951492446283251 0 -0.42907264086257813 -0.41311715872526122 0 -0.43676601469929588 -0.41441201227470881 0 -0.42907264086257813 -0.41311715872526122 0 -0.43479358559901082 -0.4041454901736512 0 -0.42907264086257813 -0.41311715872526122 0 -0.43479358559901082 -0.4041454901736512 0 -0.42460885511582858 -0.40417321677700252 0 -0.42907264086257813 -0.41311715872526122 0 -0.41997834854398469 -0.41180534796019508 0 -0.42907264086257813 -0.41311715872526122 0 -0.42635027777857132 -0.41543594397746519 0 -0.41997834854398469 -0.41180534796019508 0 -0.42907264086257813 -0.41311715872526122 0 -0.41997834854398469 -0.41180534796019508 0 -0.42460885511582858 -0.40417321677700252 0 -0.42635027777857132 -0.41543594397746519 0 -0.41997834854398469 -0.41180534796019508 0 -0.42635027777857132 -0.41543594397746519 0 -0.42083332353326591 -0.42146747131641099 0 -0.41997834854398469 -0.41180534796019508 0 -0.43096994786351572 -0.41951492446283251 0 -0.42624289495594048 -0.42089725947505818 0 -0.42635027777857132 -0.41543594397746519 0 -0.43096994786351572 -0.41951492446283251 0 -0.42907264086257813 -0.41311715872526122 0 -0.42635027777857132 -0.41543594397746519 0 -0.42624289495594048 -0.42089725947505818 0 -0.42635027777857132 -0.41543594397746519 0 -0.42083332353326591 -0.42146747131641099 0 -0.42083332353326591 -0.42146747131641099 0 -0.41997834854398469 -0.41180534796019508 0 -0.40992282953163789 -0.42011435591993562 0 -0.41997834854398469 -0.41180534796019508 0 -0.39756877647335259 -0.40857286797681719 0 -0.41997834854398469 -0.41180534796019508 0 -0.40992282953163789 -0.42011435591993562 0 -0.39756877647335259 -0.40857286797681719 0 -0.40992282953163789 -0.42011435591993562 0 -0.41531815884496182 -0.42985383783075998 0 -0.39591554026262499 -0.42887225451549271 0 -0.41531815884496182 -0.42985383783075998 0 -0.39591554026262499 -0.42887225451549271 0 -0.41160927495564159 -0.44339431233754628 0 -0.42083332353326591 -0.42146747131641099 0 -0.40992282953163789 -0.42011435591993562 0 -0.41531815884496182 -0.42985383783075998 0 -0.42681803064840879 -0.42717069814352421 0 -0.42083332353326591 -0.42146747131641099 0 -0.41531815884496182 -0.42985383783075998 0 -0.44257020456291563 -0.38918913383950271 0 -0.42311368847744002 -0.37830224279505142 0 -0.42594061475171041 -0.39368797999533162 0 -0.44257020456291563 -0.38918913383950271 0 -0.42311368847744002 -0.37830224279505142 0 -0.44172858264042247 -0.37082207246888088 0 -0.44257020456291563 -0.38918913383950271 0 -0.42311368847744002 -0.37830224279505142 0 -0.42311368847744002 -0.37830224279505142 0 -0.42594061475171041 -0.39368797999533162 0 -0.416587075656149 -0.38785930376960043 0 -0.44257020456291563 -0.38918913383950271 0 -0.42594061475171041 -0.39368797999533162 0 -0.43479358559901082 -0.4041454901736512 0 -0.42594061475171041 -0.39368797999533162 0 -0.43479358559901082 -0.4041454901736512 0 -0.42460885511582858 -0.40417321677700252 0 -0.41997834854398469 -0.41180534796019508 0 -0.41325908582185972 -0.39811010703057192 0 -0.39770572831670092 -0.39911486077581648 0 -0.41997834854398469 -0.41180534796019508 0 -0.39770572831670092 -0.39911486077581648 0 -0.42594061475171041 -0.39368797999533162 0 -0.42460885511582858 -0.40417321677700252 0 -0.41325908582185972 -0.39811010703057192 0 -0.41997834854398469 -0.41180534796019508 0 -0.42460885511582858 -0.40417321677700252 0 -0.41325908582185972 -0.39811010703057192 0 -0.42594061475171041 -0.39368797999533162 0 -0.41325908582185972 -0.39811010703057192 0 -0.416587075656149 -0.38785930376960043 0 -0.41325908582185972 -0.39811010703057192 0 -0.416587075656149 -0.38785930376960043 0 -0.40403491357358612 -0.38133688525744702 0 -0.42311368847744002 -0.37830224279505142 0 -0.40403491357358612 -0.38133688525744702 0 -0.40365717239196519 -0.36741535175059892 0 -0.42311368847744002 -0.37830224279505142 0 -0.416587075656149 -0.38785930376960043 0 -0.40403491357358612 -0.38133688525744702 0 -0.40403491357358612 -0.38133688525744702 0 -0.39190790742475001 -0.38540387676521748 0 -0.39770572831670092 -0.39911486077581648 0 -0.40403491357358612 -0.38133688525744702 0 -0.39190790742475001 -0.38540387676521748 0 -0.3904578797192948 -0.37473938743617019 0 -0.41325908582185972 -0.39811010703057192 0 -0.40403491357358612 -0.38133688525744702 0 -0.39770572831670092 -0.39911486077581648 0 -0.39770572831670092 -0.39911486077581648 0 -0.37543310808941849 -0.38642437359143528 0 -0.39770572831670092 -0.39911486077581648 0 -0.37515920440272033 -0.40534038799344108 0 -0.37543310808941849 -0.38642437359143528 0 -0.39770572831670092 -0.39911486077581648 0 -0.37515920440272033 -0.40534038799344108 0 -0.39756877647335259 -0.40857286797681719
[...]
<PointData Scalars="" Vectors="displacement," Tensors="">
<DataArray type="Float64" Name="displacement" NumberOfComponents="3" format="ascii">
-1.7038639267707141e-06 -0.03499679794466113 0 -0.00017038561034895262 -0.032724931843633773 0 3.613549609211768e-06 -0.029500845650721266 0 -1.7038639267707141e-06 -0.03499679794466113 0 -0.00015701423354304208 -0.03420226132596519 0 -0.00017038561034895262 -0.032724931843633773 0 -1.7038639267707141e-06 -0.03499679794466113 0 -0.00015701423354304208 -0.03420226132596519 0 2.803943115604983e-09 -0.03499915420841801 0 -0.00015701423354304208 -0.03420226132596519 0 2.803943115604983e-09 -0.03499915420841801 0 -8.5742727250457182e-05 -0.034206362283498049 0 2.803943115604983e-09 -0.03499915420841801 0 -8.5742727250457182e-05 -0.034206362283498049 0 -6.8443750470882441e-05 -0.034775226356720146 0 -0.00028201232862736246 -0.032036489550760064 0 5.4365452707332327e-05 -0.031111253890948432 0 -8.5742727250457182e-05 -0.034206362283498049 0 0.00043298804853093777 -0.034154760078453299 0 0.0004677740739368438 -0.034390385946949174 0 -8.5742727250457182e-05 -0.034206362283498049 0 0.0004677740739368438 -0.034390385946949174 0 0.0002290739895800464 -0.034618812548391942 0 -0.00015701423354304208 -0.03420226132596519 0 -8.5742727250457182e-05 -0.034206362283498049 0 -0.00017038561034895262 -0.032724931843633773 0 -8.5742727250457182e-05 -0.034206362283498049 0 -0.00017038561034895262 -0.032724931843633773 0 0.00062615332259364305 -0.033387459350474935 0 -0.00017038561034895262 -0.032724931843633773 0 0.0013297960633683052 -0.031630181109072869 0 0.00062615332259364305 -0.033387459350474935 0 -0.00017038561034895262 -0.032724931843633773 0 3.613549609211768e-06 -0.029500845650721266 0 0.0013297960633683052 -0.031630181109072869 0 1.9822331782357696e-06 -0.029489652207716498 0 0.00030159520276634634 -0.027192726814947193 0 -8.3662962431828e-07 -0.027572046912711107 0 1.370802544567673e-06 -0.029491454821059644 0 0.00058370663783386344 -0.028929603626682752 0 -8.3662962431828e-07 -0.027572046912711107 0 -7.971808549107117e-05 -0.026487922887592094 0 -0.00016802086951506667 -0.025781135671658365 0 -8.3662962431828e-07 -0.027572046912711107 0 -2.5544192833074971e-07 -0.025651173365880752 0 -0.00016802086951506667 -0.025781135671658365 0 0.00030159520276634634 -0.027192726814947193 0 -8.3662962431828e-07 -0.027572046912711107 0 -7.971808549107117e-05 -0.026487922887592094 0 0.00030159520276634634 -0.027192726814947193 0 -7.971808549107117e-05 -0.026487922887592094 0 0.00013209727381231954 -0.026228101388000139 0 0.00058370663783386344 -0.028929603626682752 0 0.00091583969641428095 -0.027816058040655747 0 -7.971808549107117e-05 -0.026487922887592094 0 -0.00020698197278366416 -0.026002630983680587 0 0.00013209727381231954 -0.026228101388000139 0 -7.971808549107117e-05 -0.026487922887592094 0 -0.00020698197278366416 -0.026002630983680587 0 -0.00016802086951506667 -0.025781135671658365 0 0.00073467651679092871 -0.025280769177245893 0 0.00091583969641428095 -0.027816058040655747 0 0.0012583244062598976 -0.020312363430113681 0 0.001112908895839735 -0.02045024296455197 0 0.00093004770726264291 -0.020381355623843304 0 0.0012583244062598976 -0.020312363430113681 0 0.001112908895839735 -0.02045024296455197 0 0.001257269830560446 -0.020470401821224629 0 0.001112908895839735 -0.02045024296455197 0 0.00093004770726264291 -0.020381355623843304 0 0.0010683099043266476 -0.020632686425203051 0 0.00071060630260644383 -0.034178137916921716 0 0.00072130156375877256 -0.034346000394454443 0 0.00063113209809450524 -0.034290680097455353 0 0.00091583969641428095 -0.027816058040655747 0 0.00093100459306148439 -0.027495579231801039 0 0.00072130156375877256 -0.034346000394454443 0 0.00063113209809450524 -0.034290680097455353 0 0.00067530996514694687 -0.034383735016831278 0 0.0010683099043266476 -0.020632686425203051 0 0.001257269830560446 -0.020470401821224629 0 0.001299134388875267 -0.020637196937397618 0 0.001112908895839735 -0.02045024296455197 0 0.0010683099043266476 -0.020632686425203051 0 0.001257269830560446 -0.020470401821224629 0 0.00071060630260644383 -0.034178137916921716 0 0.00043298804853093777 -0.034154760078453299 0 0.00063113209809450524 -0.034290680097455353 0 0.00091583969641428095 -0.027816058040655747 0 5.4365452707332327e-05 -0.031111253890948432 0 0.0013297960633683052 -0.031630181109072869 0 0.0020540700470335804 -0.032809870638685922 0 0.00062615332259364305 -0.033387459350474935 0 0.00063113209809450524 -0.034290680097455353 0 0.0004677740739368438 -0.034390385946949174 0 0.00061515652545026745 -0.034389853362768785 0 0.00063113209809450524 -0.034290680097455353 0 0.00061515652545026745 -0.034389853362768785 0 0.00067530996514694687 -0.034383735016831278 0 0.00043298804853093777 -0.034154760078453299 0 0.00063113209809450524 -0.034290680097455353 0 0.0004677740739368438 -0.034390385946949174 0 0.0004677740739368438 -0.034390385946949174 0 0.00045310871280053152 -0.034562202766352114 0 0.0002290739895800464 -0.034618812548391942 0 0.00045310871280053152 -0.034562202766352114 0 0.0004090014761987512 -0.034741479849314423 0 0.0002290739895800464 -0.034618812548391942 0 0.00045310871280053152 -0.034562202766352114 0 0.0005409444991653613 -0.034549654094585741 0 0.0005300956258772816 -0.034642860297496435 0 0.00045310871280053152 -0.034562202766352114 0 0.00056184047608803659 -0.034467864593494789 0 0.0005409444991653613 -0.034549654094585741 0 0.0004677740739368438 -0.034390385946949174 0 0.00045310871280053152 -0.034562202766352114 0 0.00056184047608803659 -0.034467864593494789 0 0.0004677740739368438 -0.034390385946949174 0 0.00061515652545026745 -0.034389853362768785 0 0.00056184047608803659 -0.034467864593494789 0 0.00061515652545026745 -0.034389853362768785 0 0.00056184047608803659 -0.034467864593494789 0 0.00066269074843118287 -0.034447288181933343 0 0.00061515652545026745 -0.034389853362768785 0 0.00066269074843118287 -0.034447288181933343 0 0.00067530996514694687 -0.034383735016831278 0 0.00066269074843118287 -0.034447288181933343 0 0.00067530996514694687 -0.034383735016831278 0 0.00068123967093985873 -0.034389393858229915 0 0.0014167156560738736 -0.033713336420500409 0 0.0014324018940820059 -0.033621633305877842 0 0.00066269074843118287 -0.034447288181933343 0 0.00062010510939645178 -0.034527015486933835 0 0.00072017654710372831 -0.034691505090276797 0 0.00066269074843118287 -0.034447288181933343 0 0.00071021159804923099 -0.0343757935250995 0 0.00068123967093985873 -0.034389393858229915 0 0.0014283613923599962 -0.033664004601161014 0 0.0014324018940820059 -0.033621633305877842 0 0.00062010510939645178 -0.034527015486933835 0 0.0005300956258772816 -0.034642860297496435 0 0.00068214936329777213 -0.034653939671950178 0 0.00056184047608803659 -0.034467864593494789 0 0.0005409444991653613 -0.034549654094585741 0 0.00062010510939645178 -0.034527015486933835 0 0.00056184047608803659 -0.034467864593494789 0 0.00066269074843118287 -0.034447288181933343 0 0.00062010510939645178 -0.034527015486933835 0 0.0005409444991653613 -0.034549654094585741 0 0.00062010510939645178 -0.034527015486933835 0 0.0005300956258772816 -0.034642860297496435 0 0.0005300956258772816 -0.034642860297496435 0 0.00068214936329777213 -0.034653939671950178 0 0.00055072733367734746 -0.034811908988024318 0 0.0014324018940820059 -0.033621633305877842 0 0.0011894571255446171 -0.033384823989328925 0 0.00068214936329777213 -0.034653939671950178 0 0.00055072733367734746 -0.034811908988024318 0 0.00071558505822194997 -0.034990019109641092 0 0.00055072733367734746 -0.034811908988024318 0 0.0004090014761987512 -0.034741479849314423 0 0.00042510109807684308 -0.035014777245644196 0 0.0004090014761987512 -0.034741479849314423 0 0.00042510109807684308 -0.035014777245644196 0 0.00022075627924165314 -0.034809613052596257 0 0.0005300956258772816 -0.034642860297496435 0 0.00055072733367734746 -0.034811908988024318 0 0.0004090014761987512 -0.034741479849314423 0 0.00045310871280053152 -0.034562202766352114 0 0.0005300956258772816 -0.034642860297496435 0 0.0004090014761987512 -0.034741479849314423 0 0.00072130156375877256 -0.034346000394454443 0 0.00062274027208513783 -0.034355760771919243 0 0.00067637374438065539 -0.034371082533250524 0 0.0010683099043266476 -0.020632686425203051 0 0.0011969327371300863 -0.020897007943759292 0 0.001299134388875267 -0.020637196937397618 0 0.00093100459306148439 -0.027495579231801039 0 0.0010199082995944618 -0.027279595319020689 0 0.00062274027208513783 -0.034355760771919243 0 0.00067637374438065539 -0.034371082533250524 0 0.00064872652613399094 -0.034330987992012486 0 0.00072130156375877256 -0.034346000394454443 0 0.00067637374438065539 -0.034371082533250524 0 0.00067530996514694687 -0.034383735016831278 0 0.00067637374438065539 -0.034371082533250524 0 0.00067530996514694687 -0.034383735016831278 0 0.00068123967093985873 -0.034389393858229915 0 0.00071021159804923099 -0.0343757935250995 0 0.0006840884472251997 -0.034325734237242646 0 0.00071110798934172312 -0.034227672442883605 0 0.0014324018940820059 -0.033621633305877842 0 0.0015628875149034363 -0.032584265766736377 0 0.00067637374438065539 -0.034371082533250524 0 0.00068123967093985873 -0.034389393858229915 0 0.0006840884472251997 -0.034325734237242646 0 0.00071021159804923099 -0.0343757935250995 0 0.00068123967093985873 -0.034389393858229915 0 0.0006840884472251997 -0.034325734237242646 0 0.00067637374438065539 -0.034371082533250524 0 0.0006840884472251997 -0.034325734237242646 0 0.00064872652613399094 -0.034330987992012486 0 0.0006840884472251997 -0.034325734237242646 0 0.00064872652613399094 -0.034330987992012486 0 0.00060814902668271571 -0.034263858826609601 0 0.00062274027208513783 -0.034355760771919243 0 0.00060814902668271571 -0.034263858826609601 0 0.00054460996239760989 -0.03425506589964563 0 0.00062274027208513783 -0.034355760771919243 0 0.00064872652613399094 -0.034330987992012486 0 0.00060814902668271571 -0.034263858826609601 0 0.00060814902668271571 -0.034263858826609601 0 0.0006269580710345611 -0.034170075859682569 0 0.00071110798934172312 -0.034227672442883605 0 0.00060814902668271571 -0.034263858826609601 0 0.0006269580710345611 -0.034170075859682569 0 0.00054433411072645789 -0.034150551772668541 0 0.0006840884472251997 -0.034325734237242646 0 0.00060814902668271571 -0.034263858826609601 0 0.00071110798934172312 -0.034227672442883605 0 0.0015628875149034363 -0.032584265766736377 0 0.0014722413126367947 -0.030236074068318974 0 0.0014435710721967131 -0.03242646462201234 0 0.0016973602867192928 -0.03150531107793722 0 0.00092629849781178993 -0.031515031681258389 0 0.0014435710721967131 -0.03242646462201234 0 0.0016973602867192928 -0.03150531107793722 0 0.0018295931040468135 -0.032421361016011938 0 0.00082542766748638289 -0.032424003063283059 0 0.0014722413126367947 -0.030236074068318974 0 0.00063987970397472117 -0.034030821179588083 0 0.00054433411072645789 -0.034150551772668541 0 0.00049742610372666921 -0.034020451583109915 0 0.0006269580710345611 -0.034170075859682569 0 0.00063987970397472117 -0.034030821179588083 0 0.00054433411072645789 -0.034150551772668541 0 0.0014722413126367947 -0.030236074068318974 0 0.0011247186200540752 -0.028280337089554245 0 0.0006269580710345611 -0.034170075859682569 0 0.00071110798934172312 -0.034227672442883605 0 0.00063987970397472117 -0.034030821179588083 0 0.0019611107906381143 -0.033338381427308363 0 0.0014435710721967131 -0.03242646462201234 0 0.0018295931040468135 -0.032421361016011938 0 0.00055072733367734746 -0.034811908988024318 0 0.00042510109807684308 -0.035014777245644196 0 0.00071558505822194997 -0.034990019109641092 0 0.00075791756670781402 -0.035300843982117552 0 0.00042510109807684308 -0.035014777245644196 0 0.00071558505822194997 -0.034990019109641092 0 0.00082542766748638289 -0.032424003063283059 0 0.0011894571255446171 -0.033384823989328925 0 0.00075791756670781402 -0.035300843982117552 0 0.00042510109807684308 -0.035014777245644196 0 0.00033448833790053137 -0.035306252251148237 0 0.00042510109807684308 -0.035014777245644196 0 0.00018228635676946299 -0.035056171214150805 0 0.00033448833790053137 -0.035306252251148237 0 0.00018228635676946299 -0.035056171214150805 0 -7.5248132752437036e-05 -0.035309701949887654 0 0.00033448833790053137 -0.035306252251148237 0 0.00042510109807684308 -0.035014777245644196 0 0.00018228635676946299 -0.035056171214150805 0 0.00022075627924165314 -0.034809613052596257 0 0.00018228635676946299 -0.035056171214150805 0 3.4812499157901242e-05 -0.034910312437795125 0 0.00022075627924165314 -0.034809613052596257 0 5.241930104464621e-05 -0.034895696707894629 0 -2.0174355780226752e-05 -0.034960521963174979 0 -1.990022664565388e-05 -0.034857401308489022 0 3.0004691919964174e-06 -0.034996928893654258 0 2.458807286462281e-06 -0.034998591475513173 0 6.7027517855066366e-07 -0.034998581006678943 0 6.2783699102906111e-05 -0.034923670462946421 0 8.3312147828063495e-06 -0.034973815945392367 0 6.2783699102906111e-05 -0.034923670462946421 0 6.2868825794928337e-05 -0.03492320326705059 0 6.2783699102906111e-05 -0.034923670462946421 0 6.7078525745694996e-05 -0.034891978789913965 0 0.00018228635676946299 -0.035056171214150805 0 3.4812499157901242e-05 -0.034910312437795125 0 -2.0257290995307704e-05 -0.035108924855521022 0 0.00018228635676946299 -0.035056171214150805 0 -2.0257290995307704e-05 -0.035108924855521022 0 -7.5248132752437036e-05 -0.035309701949887654 0 6.7078525745694996e-05 -0.034891978789913965 0 0.00011720290194096863 -0.034714496193667926 0 2.458807286462281e-06 -0.034998591475513173 0 1.3205361930573058e-06 -0.034999099983341608 0 1.9854731633291295e-06 -0.034999867078198521 0 1.3205361930573058e-06 -0.034999099983341608 0 6.7027517855066366e-07 -0.034998581006678943 0 5.4587411231904887e-07 -0.034999809335667285 0 6.7027517855066366e-07 -0.034998581006678943 0 3.4540359764773576e-07 -0.034999822520571634 0 5.4587411231904887e-07 -0.034999809335667285 0 1.3205361930573058e-06 -0.034999099983341608 0 5.4587411231904887e-07 -0.034999809335667285 0 1.9854731633291295e-06 -0.034999867078198521 0 2.458807286462281e-06 -0.034998591475513173 0 1.3205361930573058e-06 -0.034999099983341608 0 6.7027517855066366e-07 -0.034998581006678943 0 -1.5799899003486858e-08 -0.034999963164092582 0 8.3312147828063495e-06 -0.034973815945392367 0 -7.0883279501600777e-10 -0.034999998719173725 0 6.7027517855066366e-07 -0.034998581006678943 0 3.4540359764773576e-07 -0.034999822520571634 0 5.6865297988137465e-08 -0.034999984312859611 0 -2.0174355780226752e-05 -0.034960521963174979 0 -1.3916234521368301e-07 -0.034999903444803547 0 -2.0174355780226752e-05 -0.034960521963174979 0 -1.990022664565388e-05 -0.034857401308489022 0 -1.3916234521368301e-07 -0.034999903444803547 0 -1.990022664565388e-05 -0.034857401308489022 0 -1.3916234521368301e-07 -0.034999903444803547 0 -6.8443750470882441e-05 -0.034775226356720146 0 2.803943115604983e-09 -0.03499915420841801 0 -1.3916234521368301e-07 -0.034999903444803547 0 -6.8443750470882441e-05 -0.034775226356720146 0 -1.990022664565388e-05 -0.034857401308489022 0 -6.8443750470882441e-05 -0.034775226356720146 0 6.1221652642890328e-06 -0.034675546410508046 0 -8.5742727250457182e-05 -0.034206362283498049 0 -6.8443750470882441e-05 -0.034775226356720146 0 6.1221652642890328e-06 -0.034675546410508046 0 -8.5742727250457182e-05 -0.034206362283498049 0 6.1221652642890328e-06 -0.034675546410508046 0 0.0002290739895800464 -0.034618812548391942 0 6.1221652642890328e-06 -0.034675546410508046 0 0.0002290739895800464 -0.034618812548391942 0 8.7847287943686731e-05 -0.034772435150784285 0 0.0002290739895800464 -0.034618812548391942 0 0.00022075627924165314 -0.034809613052596257 0 8.7847287943686731e-05 -0.034772435150784285 0 0.0004090014761987512 -0.034741479849314423 0 0.0002290739895800464 -0.034618812548391942 0 0.00022075627924165314 -0.034809613052596257 0 5.2323201501046196e-05 -0.034909955459557794 0 0.00022075627924165314 -0.034809613052596257 0 6.0404136900390688e-05 -0.034878454300130257 0 0.00022075627924165314 -0.034809613052596257 0 6.0404136900390688e-05 -0.034878454300130257 0 8.7847287943686731e-05 -0.034772435150784285 0 6.2783699102906111e-05 -0.034923670462946421 0 9.6467569074020149e-05 -0.034902821220425165 0 -1.990022664565388e-05 -0.034857401308489022 0 6.0404136900390688e-05 -0.034878454300130257 0 8.7847287943686731e-05 -0.034772435150784285 0 5.241930104464621e-05 -0.034895696707894629 0 -1.990022664565388e-05 -0.034857401308489022 0 6.0404136900390688e-05 -0.034878454300130257 0 -1.990022664565388e-05 -0.034857401308489022 0 6.1221652642890328e-06 -0.034675546410508046 0 8.7847287943686731e-05 -0.034772435150784285 0 0.0012357661341839642 -0.017964532483684296 0 0.0017685184119824399 -0.016951796305556207 0 0.00048959687684698317 -0.017594083542933871 0 0.00058813898956794656 -0.017043523684807129 0 0.00032707328560955596 -0.017417021267943474 0 -0.000128833061904054 -0.0195658255729362 0 0.00012507811283564782 -0.019530037439826592 0 5.4228467030181221e-05 -0.019641604943191834 0 -0.000128833061904054 -0.0195658255729362 0 -8.0155214611002208e-05 -0.019584004852932043 0 5.4228467030181221e-05 -0.019641604943191834 0 -0.000128833061904054 -0.0195658255729362 0 -6.8331685869669253e-05 -0.019491814694892588 0 -8.0155214611002208e-05 -0.019584004852932043 0 -0.000128833061904054 -0.0195658255729362 0 -0.0001216610549341413 -0.019307673549819215 0 -0.00018406768172615 -0.019648374946073913 0 -0.000128833061904054 -0.0195658255729362 0 -0.0001216610549341413 -0.019307673549819215 0 0.00012507811283564782 -0.019530037439826592 0 0.0012357661341839642 -0.017964532483684296 0 0.0010600400011588098 -0.018151056178872221 0 -0.0001216610549341413 -0.019307673549819215 0 0.00012507811283564782 -0.019530037439826592 0 0.00013066721317447333 -0.018510541918151716 0 0.00048959687684698317 -0.017594083542933871 0 0.00013066721317447333 -0.018510541918151716 0 4.9276709534159454e-05 -0.017840972638033619 0 0.00013066721317447333 -0.018510541918151716 0 -4.3288564468226983e-07 -0.017968597348077375 0 -0.00012783737888121392 -0.019265999560030514 0 0.00013066721317447333 -0.018510541918151716 0 -4.3288564468226983e-07 -0.017968597348077375 0 -2.5230563149670296e-05 -0.017570169072417895 0 -4.3288564468226983e-07 -0.017968597348077375 0 -0.00012783737888121392 -0.019265999560030514 0 -3.6519095958805272e-07 -0.019889469986788717 0 -0.0001216610549341413 -0.019307673549819215 0 0.00013066721317447333 -0.018510541918151716 0 -0.00012783737888121392 -0.019265999560030514 0 -0.0001216610549341413 -0.019307673549819215 0 -0.00012783737888121392 -0.019265999560030514 0 -0.00018406768172615 -0.019648374946073913 0 -0.00018406768172615 -0.019648374946073913 0 -7.6026261381037074e-05 -0.02026794220630055 0 -2.0186060544761519e-05 -0.020135375692611559 0 -0.00012783737888121392 -0.019265999560030514 0 -0.00018406768172615 -0.019648374946073913 0 -7.6026261381037074e-05 -0.02026794220630055 0 -3.6519095958805272e-07 -0.019889469986788717 0 -7.6026261381037074e-05 -0.02026794220630055 0 4.6493882945935287e-07 -0.021809978669555211 0 -0.00012783737888121392 -0.019265999560030514 0 -3.6519095958805272e-07 -0.019889469986788717 0 -7.6026261381037074e-05 -0.02026794220630055 0 -7.6026261381037074e-05 -0.02026794220630055 0 4.6493882945935287e-07 -0.021809978669555211 0 0.00015113730778116218 -0.02104289106980466 0 0.00015113730778116218 -0.02104289106980466 0 -2.0186060544761519e-05 -0.020135375692611559 0 0.00056379253606909528 -0.020367266857570183 0 -7.6026261381037074e-05 -0.02026794220630055 0 0.00015113730778116218 -0.02104289106980466 0 -2.0186060544761519e-05 -0.020135375692611559 0 -2.0186060544761519e-05 -0.020135375692611559 0 0.000268127970694269 -0.019891535289199309 0 0.00056379253606909528 -0.020367266857570183 0 0.000268127970694269 -0.019891535289199309 0 0.0001933173639247872 -0.019559665527707808 0 0.00050852717922073216 -0.019684469151164372 0 0.000268127970694269 -0.01989153528919