<?xml version="1.0"?>
<VTKFile type="UnstructuredGrid" version="0.1" byte_order="LittleEndian">
<UnstructuredGrid>
<Piece NumberOfPoints="31898" NumberOfCells="11152">
<Points>
<DataArray type="Float64" NumberOfComponents="3" format="ascii">
-0.5 -0.5 0 -0.47620991077874902 -0.44978878706170539 0 -0.49999999999999473 -0.42132396840504388 0 -0.5 -0.5 0 -0.47160970827802529 -0.4793630013852106 0 -0.47620991077874902 -0.44978878706170539 0 -0.5 -0.5 0 -0.47160970827802529 -0.4793630013852106 0 -0.44860394795025399 -0.5 0 -0.47160970827802529 -0.4793630013852106 0 -0.44860394795025399 -0.5 0 -0.4490820238307246 -0.45820516232899983 0 -0.44860394795025399 -0.5 0 -0.4490820238307246 -0.45820516232899983 0 -0.42881687682924802 -0.47781464288736519 0 -0.4490820238307246 -0.45820516232899983 0 -0.45555437223955858 -0.42914059360647611 0 -0.4490820238307246 -0.45820516232899983 0 -0.45555437223955858 -0.42914059360647611 0 -0.43867285131603428 -0.4271457417558665 0 -0.4490820238307246 -0.45820516232899983 0 -0.43867285131603428 -0.4271457417558665 0 -0.4263356171060747 -0.44269880333887462 0 -0.47160970827802529 -0.4793630013852106 0 -0.4490820238307246 -0.45820516232899983 0 -0.47620991077874902 -0.44978878706170539 0 -0.4490820238307246 -0.45820516232899983 0 -0.47620991077874902 -0.44978878706170539 0 -0.45555437223955858 -0.42914059360647611 0 -0.47620991077874902 -0.44978878706170539 0 -0.48101336032419229 -0.41069999664450008 0 -0.45555437223955858 -0.42914059360647611 0 -0.47620991077874902 -0.44978878706170539 0 -0.49999999999999473 -0.42132396840504388 0 -0.48101336032419229 -0.41069999664450008 0 -0.49999999999999473 -0.42132396840504388 0 -0.48101336032419229 -0.41069999664450008 0 -0.5 -0.393886241813306 0 -0.49999999999999473 -0.42132396840504388 0 -0.48101336032419229 -0.41069999664450008 0 -0.5 -0.393886241813306 0 -0.47854472220918332 -0.38978458738689759 0 -0.48422759779560409 -0.37130120630367158 0 -0.5 -0.393886241813306 0 -0.5 -0.36644851522156802 0 -0.48422759779560409 -0.37130120630367158 0 -0.48101336032419229 -0.41069999664450008 0 -0.5 -0.393886241813306 0 -0.47854472220918332 -0.38978458738689759 0 -0.48101336032419229 -0.41069999664450008 0 -0.47854472220918332 -0.38978458738689759 0 -0.46202672064839212 -0.40007602488395211 0 -0.48101336032419229 -0.41069999664450008 0 -0.46202672064839212 -0.40007602488395211 0 -0.47854472220918332 -0.38978458738689759 0 -0.46725442735267431 -0.37660061361585562 0 -0.46202672064839212 -0.40007602488395211 0 -0.47854472220918332 -0.38978458738689759 0 -0.46725442735267431 -0.37660061361585562 0 -0.48422759779560409 -0.37130120630367158 0 -0.46725442735267431 -0.37660061361585562 0 -0.46202672064839212 -0.40007602488395211 0 -0.46725442735267431 -0.37660061361585562 0 -0.45645674801697989 -0.38644133236760531 0 -0.46202672064839212 -0.40007602488395211 0 -0.46725442735267431 -0.37660061361585562 0 -0.45645674801697989 -0.38644133236760531 0 -0.4540003998136638 -0.37455519391687309 0 -0.45645674801697989 -0.38644133236760531 0 -0.46202672064839212 -0.40007602488395211 0 -0.44257020456291563 -0.38918913383950271 0 -0.46202672064839212 -0.40007602488395211 0 -0.44257020456291563 -0.38918913383950271 0 -0.44727608925983742 -0.41095911152778891 0 -0.46202672064839212 -0.40007602488395211 0 -0.44257020456291563 -0.38918913383950271 0 -0.44257020456291563 -0.38918913383950271 0 -0.44727608925983742 -0.41095911152778891 0 -0.43479358559901082 -0.4041454901736512 0 -0.44257020456291563 -0.38918913383950271 0 -0.4540003998136638 -0.37455519391687309 0 -0.44172858264042247 -0.37082207246888088 0 -0.45645674801697989 -0.38644133236760531 0 -0.44257020456291563 -0.38918913383950271 0 -0.4540003998136638 -0.37455519391687309 0 -0.46202672064839212 -0.40007602488395211 0 -0.45555437223955858 -0.42914059360647611 0 -0.44727608925983742 -0.41095911152778891 0 -0.46202672064839212 -0.40007602488395211 0 -0.45555437223955858 -0.42914059360647611 0 -0.48101336032419229 -0.41069999664450008 0 -0.46202672064839212 -0.40007602488395211 0 -0.45555437223955858 -0.42914059360647611 0 -0.44727608925983742 -0.41095911152778891 0 -0.43867285131603428 -0.4271457417558665 0 -0.43676601469929588 -0.41441201227470881 0 -0.44727608925983742 -0.41095911152778891 0 -0.43676601469929588 -0.41441201227470881 0 -0.43479358559901082 -0.4041454901736512 0 -0.45555437223955858 -0.42914059360647611 0 -0.44727608925983742 -0.41095911152778891 0 -0.43867285131603428 -0.4271457417558665 0 -0.43867285131603428 -0.4271457417558665 0 -0.42681803064840879 -0.42717069814352421 0 -0.4263356171060747 -0.44269880333887462 0 -0.42681803064840879 -0.42717069814352421 0 -0.41531815884496182 -0.42985383783075998 0 -0.4263356171060747 -0.44269880333887462 0 -0.42681803064840879 -0.42717069814352421 0 -0.42624289495594048 -0.42089725947505818 0 -0.42083332353326591 -0.42146747131641099 0 -0.42681803064840879 -0.42717069814352421 0 -0.43096994786351572 -0.41951492446283251 0 -0.42624289495594048 -0.42089725947505818 0 -0.43867285131603428 -0.4271457417558665 0 -0.42681803064840879 -0.42717069814352421 0 -0.43096994786351572 -0.41951492446283251 0 -0.43867285131603428 -0.4271457417558665 0 -0.43676601469929588 -0.41441201227470881 0 -0.43096994786351572 -0.41951492446283251 0 -0.43676601469929588 -0.41441201227470881 0 -0.43096994786351572 -0.41951492446283251 0 -0.42907264086257813 -0.41311715872526122 0 -0.43676601469929588 -0.41441201227470881 0 -0.42907264086257813 -0.41311715872526122 0 -0.43479358559901082 -0.4041454901736512 0 -0.42907264086257813 -0.41311715872526122 0 -0.43479358559901082 -0.4041454901736512 0 -0.42460885511582858 -0.40417321677700252 0 -0.42907264086257813 -0.41311715872526122 0 -0.41997834854398469 -0.41180534796019508 0 -0.42907264086257813 -0.41311715872526122 0 -0.42635027777857132 -0.41543594397746519 0 -0.41997834854398469 -0.41180534796019508 0 -0.42907264086257813 -0.41311715872526122 0 -0.41997834854398469 -0.41180534796019508 0 -0.42460885511582858 -0.40417321677700252 0 -0.42635027777857132 -0.41543594397746519 0 -0.41997834854398469 -0.41180534796019508 0 -0.42635027777857132 -0.41543594397746519 0 -0.42083332353326591 -0.42146747131641099 0 -0.41997834854398469 -0.41180534796019508 0 -0.43096994786351572 -0.41951492446283251 0 -0.42624289495594048 -0.42089725947505818 0 -0.42635027777857132 -0.41543594397746519 0 -0.43096994786351572 -0.41951492446283251 0 -0.42907264086257813 -0.41311715872526122 0 -0.42635027777857132 -0.41543594397746519 0 -0.42624289495594048 -0.42089725947505818 0 -0.42635027777857132 -0.41543594397746519 0 -0.42083332353326591 -0.42146747131641099 0 -0.42083332353326591 -0.42146747131641099 0 -0.41997834854398469 -0.41180534796019508 0 -0.40992282953163789 -0.42011435591993562 0 -0.41997834854398469 -0.41180534796019508 0 -0.39756877647335259 -0.40857286797681719 0 -0.41997834854398469 -0.41180534796019508 0 -0.40992282953163789 -0.42011435591993562 0 -0.39756877647335259 -0.40857286797681719 0 -0.40992282953163789 -0.42011435591993562 0 -0.41531815884496182 -0.42985383783075998 0 -0.39591554026262499 -0.42887225451549271 0 -0.41531815884496182 -0.42985383783075998 0 -0.39591554026262499 -0.42887225451549271 0 -0.41160927495564159 -0.44339431233754628 0 -0.42083332353326591 -0.42146747131641099 0 -0.40992282953163789 -0.42011435591993562 0 -0.41531815884496182 -0.42985383783075998 0 -0.42681803064840879 -0.42717069814352421 0 -0.42083332353326591 -0.42146747131641099 0 -0.41531815884496182 -0.42985383783075998 0 -0.44257020456291563 -0.38918913383950271 0 -0.42311368847744002 -0.37830224279505142 0 -0.42594061475171041 -0.39368797999533162 0 -0.44257020456291563 -0.38918913383950271 0 -0.42311368847744002 -0.37830224279505142 0 -0.44172858264042247 -0.37082207246888088 0 -0.44257020456291563 -0.38918913383950271 0 -0.42311368847744002 -0.37830224279505142 0 -0.42311368847744002 -0.37830224279505142 0 -0.42594061475171041 -0.39368797999533162 0 -0.416587075656149 -0.38785930376960043 0 -0.44257020456291563 -0.38918913383950271 0 -0.42594061475171041 -0.39368797999533162 0 -0.43479358559901082 -0.4041454901736512 0 -0.42594061475171041 -0.39368797999533162 0 -0.43479358559901082 -0.4041454901736512 0 -0.42460885511582858 -0.40417321677700252 0 -0.41997834854398469 -0.41180534796019508 0 -0.41325908582185972 -0.39811010703057192 0 -0.39770572831670092 -0.39911486077581648 0 -0.41997834854398469 -0.41180534796019508 0 -0.39770572831670092 -0.39911486077581648 0 -0.42594061475171041 -0.39368797999533162 0 -0.42460885511582858 -0.40417321677700252 0 -0.41325908582185972 -0.39811010703057192 0 -0.41997834854398469 -0.41180534796019508 0 -0.42460885511582858 -0.40417321677700252 0 -0.41325908582185972 -0.39811010703057192 0 -0.42594061475171041 -0.39368797999533162 0 -0.41325908582185972 -0.39811010703057192 0 -0.416587075656149 -0.38785930376960043 0 -0.41325908582185972 -0.39811010703057192 0 -0.416587075656149 -0.38785930376960043 0 -0.40403491357358612 -0.38133688525744702 0 -0.42311368847744002 -0.37830224279505142 0 -0.40403491357358612 -0.38133688525744702 0 -0.40365717239196519 -0.36741535175059892 0 -0.42311368847744002 -0.37830224279505142 0 -0.416587075656149 -0.38785930376960043 0 -0.40403491357358612 -0.38133688525744702 0 -0.40403491357358612 -0.38133688525744702 0 -0.39190790742475001 -0.38540387676521748 0 -0.39770572831670092 -0.39911486077581648 0 -0.40403491357358612 -0.38133688525744702 0 -0.39190790742475001 -0.38540387676521748 0 -0.3904578797192948 -0.37473938743617019 0 -0.41325908582185972 -0.39811010703057192 0 -0.40403491357358612 -0.38133688525744702 0 -0.39770572831670092 -0.39911486077581648 0 -0.39770572831670092 -0.39911486077581648 0 -0.37543310808941849 -0.38642437359143528 0 -0.39770572831670092 -0.39911486077581648 0 -0.37515920440272033 -0.40534038799344108 0 -0.37543310808941849 -0.38642437359143528 0 -0.39770572831670092 -0.39911486077581648 0 -0.37515920440272033 -0.40534038799344108 0 -0.39756877647335259 -0.40857286797681719
[...]
<PointData Scalars="" Vectors="displacement," Tensors="">
<DataArray type="Float64" Name="displacement" NumberOfComponents="3" format="ascii">
-0.03499713232623209 -2.7226430219299404e-07 0 -0.034119697623356142 -0.00018267522036111389 0 -0.034997661531990798 -7.4838978212602675e-07 0 -0.03499713232623209 -2.7226430219299404e-07 0 -0.033474662937639857 -0.0001233253731387128 0 -0.034119697623356142 -0.00018267522036111389 0 -0.03499713232623209 -2.7226430219299404e-07 0 -0.033474662937639857 -0.0001233253731387128 0 -0.031404216066806039 -2.79574529617606e-07 0 -0.033474662937639857 -0.0001233253731387128 0 -0.031404216066806039 -2.79574529617606e-07 0 -0.032862685345924451 6.20018983467306e-05 0 -0.031404216066806039 -2.79574529617606e-07 0 -0.032862685345924451 6.20018983467306e-05 0 -0.031218652523022479 -6.7688644854411412e-05 0 -0.033216802044119247 0.00019230784022098723 0 -0.033408583780311148 0.00018997254142084284 0 -0.032862685345924451 6.20018983467306e-05 0 -0.032336384039241814 0.0002833517143550605 0 -0.032286713816817449 9.0759631767122655e-05 0 -0.032862685345924451 6.20018983467306e-05 0 -0.032286713816817449 9.0759631767122655e-05 0 -0.032303106269979419 1.5526282243529194e-05 0 -0.033474662937639857 -0.0001233253731387128 0 -0.032862685345924451 6.20018983467306e-05 0 -0.034119697623356142 -0.00018267522036111389 0 -0.032862685345924451 6.20018983467306e-05 0 -0.034119697623356142 -0.00018267522036111389 0 -0.034444185239207718 0.00025838778438498367 0 -0.034119697623356142 -0.00018267522036111389 0 -0.034881963778190181 -3.3680058067634918e-05 0 -0.034444185239207718 0.00025838778438498367 0 -0.034119697623356142 -0.00018267522036111389 0 -0.034997661531990798 -7.4838978212602675e-07 0 -0.034881963778190181 -3.3680058067634918e-05 0 -0.034999999367539246 5.4443267535836551e-11 0 -0.034999193306261923 -3.2059569633603057e-07 0 -0.034999999075351007 -4.0998341554482456e-10 0 -0.03499900732903849 3.8037350122475893e-07 0 -0.03450814439286453 0.00011795534479669467 0 -0.034999999075351007 -4.0998341554482456e-10 0 -0.034999040513903124 -5.5162096161786718e-07 0 -0.034999637983147605 -8.4532290798381316e-07 0 -0.034999999075351007 -4.0998341554482456e-10 0 -0.034999998239365906 -1.166990947235562e-09 0 -0.034999637983147605 -8.4532290798381316e-07 0 -0.034999193306261923 -3.2059569633603057e-07 0 -0.034999999075351007 -4.0998341554482456e-10 0 -0.034999040513903124 -5.5162096161786718e-07 0 -0.034999193306261923 -3.2059569633603057e-07 0 -0.034999040513903124 -5.5162096161786718e-07 0 -0.034997955574596541 -5.0653035844531704e-07 0 -0.03450814439286453 0.00011795534479669467 0 -0.033750987651680234 0.00013071670793005717 0 -0.034999040513903124 -5.5162096161786718e-07 0 -0.034998848388633819 -6.2541735080841081e-07 0 -0.034997955574596541 -5.0653035844531704e-07 0 -0.034999040513903124 -5.5162096161786718e-07 0 -0.034998848388633819 -6.2541735080841081e-07 0 -0.034999637983147605 -8.4532290798381316e-07 0 -0.034307043908591343 4.2957492506966717e-05 0 -0.033750987651680234 0.00013071670793005717 0 -0.033808610066133241 0.00010301478649009881 0 -0.03362922490312073 0.0003067672655873646 0 -0.033377905712094313 0.00020452642901484656 0 -0.033808610066133241 0.00010301478649009881 0 -0.03362922490312073 0.0003067672655873646 0 -0.033850598133461078 0.00035467176993065464 0 -0.03362922490312073 0.0003067672655873646 0 -0.033377905712094313 0.00020452642901484656 0 -0.033580824845439526 0.00056258457517385633 0 -0.032106310535545905 0.00031612512324938184 0 -0.032022670402261297 0.00017257583195493895 0 -0.032191239191283388 0.00019842661230916756 0 -0.033750987651680234 0.00013071670793005717 0 -0.032965173043822141 0.0003788081005515081 0 -0.032022670402261297 0.00017257583195493895 0 -0.032191239191283388 0.00019842661230916756 0 -0.032146336666971899 0.000110635141277656 0 -0.033580824845439526 0.00056258457517385633 0 -0.033850598133461078 0.00035467176993065464 0 -0.033917963832510743 0.0005784247193518472 0 -0.03362922490312073 0.0003067672655873646 0 -0.033580824845439526 0.00056258457517385633 0 -0.033850598133461078 0.00035467176993065464 0 -0.032106310535545905 0.00031612512324938184 0 -0.032336384039241814 0.0002833517143550605 0 -0.032191239191283388 0.00019842661230916756 0 -0.033750987651680234 0.00013071670793005717 0 -0.033408583780311148 0.00018997254142084284 0 -0.034881963778190181 -3.3680058067634918e-05 0 -0.035003105965864416 0.0002319925110020351 0 -0.034444185239207718 0.00025838778438498367 0 -0.032191239191283388 0.00019842661230916756 0 -0.032286713816817449 9.0759631767122655e-05 0 -0.032229390222649673 0.00011637356666433372 0 -0.032191239191283388 0.00019842661230916756 0 -0.032229390222649673 0.00011637356666433372 0 -0.032146336666971899 0.000110635141277656 0 -0.032336384039241814 0.0002833517143550605 0 -0.032191239191283388 0.00019842661230916756 0 -0.032286713816817449 9.0759631767122655e-05 0 -0.032286713816817449 9.0759631767122655e-05 0 -0.032288434846682944 7.210424549573603e-05 0 -0.032303106269979419 1.5526282243529194e-05 0 -0.032288434846682944 7.210424549573603e-05 0 -0.032290156801002896 0.00013892076930154044 0 -0.032303106269979419 1.5526282243529194e-05 0 -0.032288434846682944 7.210424549573603e-05 0 -0.032279268041322549 7.8961970078711416e-05 0 -0.032287915721276525 0.00010166931135891427 0 -0.032288434846682944 7.210424549573603e-05 0 -0.032268744639374423 8.2818901805693603e-05 0 -0.032279268041322549 7.8961970078711416e-05 0 -0.032286713816817449 9.0759631767122655e-05 0 -0.032288434846682944 7.210424549573603e-05 0 -0.032268744639374423 8.2818901805693603e-05 0 -0.032286713816817449 9.0759631767122655e-05 0 -0.032229390222649673 0.00011637356666433372 0 -0.032268744639374423 8.2818901805693603e-05 0 -0.032229390222649673 0.00011637356666433372 0 -0.032268744639374423 8.2818901805693603e-05 0 -0.032238958813310799 7.5407891952195918e-05 0 -0.032229390222649673 0.00011637356666433372 0 -0.032238958813310799 7.5407891952195918e-05 0 -0.032146336666971899 0.000110635141277656 0 -0.032238958813310799 7.5407891952195918e-05 0 -0.032146336666971899 0.000110635141277656 0 -0.032147196599489523 2.6768410782075265e-05 0 -0.029019148077427025 0.00088166201377066567 0 -0.028914424981586934 0.00094599815913548753 0 -0.032238958813310799 7.5407891952195918e-05 0 -0.032270080991497425 6.8026001251363409e-05 0 -0.032249708439448938 3.0154404649153404e-05 0 -0.032238958813310799 7.5407891952195918e-05 0 -0.032218735501768486 -1.5086474076697122e-05 0 -0.032147196599489523 2.6768410782075265e-05 0 -0.029013223062495649 0.00097570716912043307 0 -0.028914424981586934 0.00094599815913548753 0 -0.032270080991497425 6.8026001251363409e-05 0 -0.032287915721276525 0.00010166931135891427 0 -0.032317283276658393 0.00010783716023686831 0 -0.032268744639374423 8.2818901805693603e-05 0 -0.032279268041322549 7.8961970078711416e-05 0 -0.032270080991497425 6.8026001251363409e-05 0 -0.032268744639374423 8.2818901805693603e-05 0 -0.032238958813310799 7.5407891952195918e-05 0 -0.032270080991497425 6.8026001251363409e-05 0 -0.032279268041322549 7.8961970078711416e-05 0 -0.032270080991497425 6.8026001251363409e-05 0 -0.032287915721276525 0.00010166931135891427 0 -0.032287915721276525 0.00010166931135891427 0 -0.032317283276658393 0.00010783716023686831 0 -0.032299290184253149 0.00015520300189659811 0 -0.028914424981586934 0.00094599815913548753 0 -0.0281489392336861 0.00077909552843520688 0 -0.032317283276658393 0.00010783716023686831 0 -0.032299290184253149 0.00015520300189659811 0 -0.032338159520313513 0.00021034424080343465 0 -0.032299290184253149 0.00015520300189659811 0 -0.032290156801002896 0.00013892076930154044 0 -0.032269590827208629 0.00022252599321702387 0 -0.032290156801002896 0.00013892076930154044 0 -0.032269590827208629 0.00022252599321702387 0 -0.032238241911983545 0.00021244151478874907 0 -0.032287915721276525 0.00010166931135891427 0 -0.032299290184253149 0.00015520300189659811 0 -0.032290156801002896 0.00013892076930154044 0 -0.032288434846682944 7.210424549573603e-05 0 -0.032287915721276525 0.00010166931135891427 0 -0.032290156801002896 0.00013892076930154044 0 -0.032022670402261297 0.00017257583195493895 0 -0.031913862576122019 1.3508634848737162e-05 0 -0.032053468322039508 3.7143517457397975e-05 0 -0.033580824845439526 0.00056258457517385633 0 -0.033780973042532476 0.00091188885274067443 0 -0.033917963832510743 0.0005784247193518472 0 -0.032965173043822141 0.0003788081005515081 0 -0.032332409535368777 0.00077990778645721417 0 -0.031913862576122019 1.3508634848737162e-05 0 -0.032053468322039508 3.7143517457397975e-05 0 -0.031996866253435827 -4.4142858865078488e-05 0 -0.032022670402261297 0.00017257583195493895 0 -0.032053468322039508 3.7143517457397975e-05 0 -0.032146336666971899 0.000110635141277656 0 -0.032053468322039508 3.7143517457397975e-05 0 -0.032146336666971899 0.000110635141277656 0 -0.032147196599489523 2.6768410782075265e-05 0 -0.032218735501768486 -1.5086474076697122e-05 0 -0.032090165356893664 -7.4519900444306868e-05 0 -0.032097202748702161 -0.00021669538445954424 0 -0.028914424981586934 0.00094599815913548753 0 -0.028273747161332487 0.0011032704308684953 0 -0.032053468322039508 3.7143517457397975e-05 0 -0.032147196599489523 2.6768410782075265e-05 0 -0.032090165356893664 -7.4519900444306868e-05 0 -0.032218735501768486 -1.5086474076697122e-05 0 -0.032147196599489523 2.6768410782075265e-05 0 -0.032090165356893664 -7.4519900444306868e-05 0 -0.032053468322039508 3.7143517457397975e-05 0 -0.032090165356893664 -7.4519900444306868e-05 0 -0.031996866253435827 -4.4142858865078488e-05 0 -0.032090165356893664 -7.4519900444306868e-05 0 -0.031996866253435827 -4.4142858865078488e-05 0 -0.031930412416322385 -0.00015384567222413256 0 -0.031913862576122019 1.3508634848737162e-05 0 -0.031930412416322385 -0.00015384567222413256 0 -0.03181055263554803 -0.00015564040017527762 0 -0.031913862576122019 1.3508634848737162e-05 0 -0.031996866253435827 -4.4142858865078488e-05 0 -0.031930412416322385 -0.00015384567222413256 0 -0.031930412416322385 -0.00015384567222413256 0 -0.031963414524304207 -0.00027463311590766805 0 -0.032097202748702161 -0.00021669538445954424 0 -0.031930412416322385 -0.00015384567222413256 0 -0.031963414524304207 -0.00027463311590766805 0 -0.03185471477492554 -0.00028947815605621848 0 -0.032090165356893664 -7.4519900444306868e-05 0 -0.031930412416322385 -0.00015384567222413256 0 -0.032097202748702161 -0.00021669538445954424 0 -0.028273747161332487 0.0011032704308684953 0 -0.026532097129660114 0.0013277258098861819 0 -0.027585167564753418 0.00098699887327859505 0 -0.027669131381358472 0.00067654351799367339 0 -0.02740844538116545 0.00068062278246164417 0 -0.027585167564753418 0.00098699887327859505 0 -0.027669131381358472 0.00067654351799367339 0 -0.027715631102287128 0.00098498849611552107 0 -0.026535106938648818 0.00053785102150900757 0 -0.026532097129660114 0.0013277258098861819 0 -0.031969664371365079 -0.00044028899305797737 0 -0.03185471477492554 -0.00028947815605621848 0 -0.031793331222896432 -0.00044069475690272631 0 -0.031963414524304207 -0.00027463311590766805 0 -0.031969664371365079 -0.00044028899305797737 0 -0.03185471477492554 -0.00028947815605621848 0 -0.026532097129660114 0.0013277258098861819 0 -0.028190700042610498 0.001304994774469514 0 -0.031963414524304207 -0.00027463311590766805 0 -0.032097202748702161 -0.00021669538445954424 0 -0.031969664371365079 -0.00044028899305797737 0 -0.027762998274165587 0.0012929913875519303 0 -0.027585167564753418 0.00098699887327859505 0 -0.027715631102287128 0.00098498849611552107 0 -0.032299290184253149 0.00015520300189659811 0 -0.032269590827208629 0.00022252599321702387 0 -0.032338159520313513 0.00021034424080343465 0 -0.032338829032754653 0.00028708159379089152 0 -0.032269590827208629 0.00022252599321702387 0 -0.032338159520313513 0.00021034424080343465 0 -0.026535106938648818 0.00053785102150900757 0 -0.0281489392336861 0.00077909552843520688 0 -0.032338829032754653 0.00028708159379089152 0 -0.032269590827208629 0.00022252599321702387 0 -0.032246761359597517 0.00028814733566662339 0 -0.032269590827208629 0.00022252599321702387 0 -0.032222500011880276 0.00023916228225508932 0 -0.032246761359597517 0.00028814733566662339 0 -0.032222500011880276 0.00023916228225508932 0 -0.032163700838460631 0.00029116674213496398 0 -0.032246761359597517 0.00028814733566662339 0 -0.032269590827208629 0.00022252599321702387 0 -0.032222500011880276 0.00023916228225508932 0 -0.032238241911983545 0.00021244151478874907 0 -0.032222500011880276 0.00023916228225508932 0 -0.032198027949485758 0.00021890257094485651 0 -0.032238241911983545 0.00021244151478874907 0 -0.031717669380860285 0.0006466758159019623 0 -0.029713325937703584 0.00074717849644072775 0 -0.0310852789770939 0.00022620180476165048 0 -0.02370717158067371 0.0017137028893951913 0 -0.023930182692116778 0.00087628544210395444 0 -0.024909302040911269 0.0010744045297671916 0 -0.028334821391762785 -0.00054771289832995437 0 -0.027407513431847535 -3.0440419508863059e-05 0 -0.028334821391762785 -0.00054771289832995437 0 -0.028344148508291724 -0.00054418150106952498 0 -0.028334821391762785 -0.00054771289832995437 0 -0.027586179748575298 0.0001905715257235457 0 -0.032222500011880276 0.00023916228225508932 0 -0.032198027949485758 0.00021890257094485651 0 -0.032179863344169758 0.0002507962130703016 0 -0.032222500011880276 0.00023916228225508932 0 -0.032179863344169758 0.0002507962130703016 0 -0.032163700838460631 0.00029116674213496398 0 -0.027586179748575298 0.0001905715257235457 0 -0.026787659418878406 0.00070247460809104662 0 -0.023930182692116778 0.00087628544210395444 0 -0.024499117390312759 0.00057069873099691167 0 -0.02415483115172487 2.4963176707299602e-05 0 -0.024499117390312759 0.00057069873099691167 0 -0.024909302040911269 0.0010744045297671916 0 -0.024825400883545474 8.4218967892323444e-06 0 -0.024909302040911269 0.0010744045297671916 0 -0.025527015483705319 -0.00012715230087815909 0 -0.024825400883545474 8.4218967892323444e-06 0 -0.024499117390312759 0.00057069873099691167 0 -0.024825400883545474 8.4218967892323444e-06 0 -0.02415483115172487 2.4963176707299602e-05 0 -0.023930182692116778 0.00087628544210395444 0 -0.024499117390312759 0.00057069873099691167 0 -0.024909302040911269 0.0010744045297671916 0 -0.0266675724232661 2.192006904951894e-07 0 -0.027407513431847535 -3.0440419508863059e-05 0 -0.026663352321196286 1.8194287389726453e-06 0 -0.024909302040911269 0.0010744045297671916 0 -0.025527015483705319 -0.00012715230087815909 0 -0.026669742405684475 2.8444429852189027e-06 0 -0.029713325937703584 0.00074717849644072775 0 -0.028698741869669545 -4.8929938786855872e-07 0 -0.029713325937703584 0.00074717849644072775 0 -0.0310852789770939 0.00022620180476165048 0 -0.028698741869669545 -4.8929938786855872e-07 0 -0.0310852789770939 0.00022620180476165048 0 -0.028698741869669545 -4.8929938786855872e-07 0 -0.031218652523022479 -6.7688644854411412e-05 0 -0.031404216066806039 -2.79574529617606e-07 0 -0.028698741869669545 -4.8929938786855872e-07 0 -0.031218652523022479 -6.7688644854411412e-05 0 -0.0310852789770939 0.00022620180476165048 0 -0.031218652523022479 -6.7688644854411412e-05 0 -0.031963363541513704 2.8467211158504219e-05 0 -0.032862685345924451 6.20018983467306e-05 0 -0.031218652523022479 -6.7688644854411412e-05 0 -0.031963363541513704 2.8467211158504219e-05 0 -0.032862685345924451 6.20018983467306e-05 0 -0.031963363541513704 2.8467211158504219e-05 0 -0.032303106269979419 1.5526282243529194e-05 0 -0.031963363541513704 2.8467211158504219e-05 0 -0.032303106269979419 1.5526282243529194e-05 0 -0.031982974186097156 0.0001583114136672914 0 -0.032303106269979419 1.5526282243529194e-05 0 -0.032238241911983545 0.00021244151478874907 0 -0.031982974186097156 0.0001583114136672914 0 -0.032290156801002896 0.00013892076930154044 0 -0.032303106269979419 1.5526282243529194e-05 0 -0.032238241911983545 0.00021244151478874907 0 -0.031758092312732418 0.00062093271945765148 0 -0.032238241911983545 0.00021244151478874907 0 -0.031779680786234783 0.00051463714441795348 0 -0.032238241911983545 0.00021244151478874907 0 -0.031779680786234783 0.00051463714441795348 0 -0.031982974186097156 0.0001583114136672914 0 -0.028334821391762785 -0.00054771289832995437 0 -0.029278484104744672 -0.00077929026003580038 0 -0.0310852789770939 0.00022620180476165048 0 -0.031779680786234783 0.00051463714441795348 0 -0.031982974186097156 0.0001583114136672914 0 -0.031717669380860285 0.0006466758159019623 0 -0.0310852789770939 0.00022620180476165048 0 -0.031779680786234783 0.00051463714441795348 0 -0.0310852789770939 0.00022620180476165048 0 -0.031963363541513704 2.8467211158504219e-05 0 -0.031982974186097156 0.0001583114136672914 0 -0.032295328864256533 0.00047516809756337208 0 -0.030818685539239124 0.0016590506722858318 0 -0.034779519837039571 -0.00028752693820745657 0 -0.034822350499802993 -0.0012903167257574696 0 -0.034284012589126549 -0.00047682971985518242 0 -0.034942567765503328 6.101643073128049e-05 0 -0.034944934768290713 4.673254716826057e-05 0 -0.034949197429788227 7.4216447429463172e-05 0 -0.034942567765503328 6.101643073128049e-05 0 -0.034938030721012849 8.3573035613652009e-05 0 -0.034949197429788227 7.4216447429463172e-05 0 -0.034942567765503328 6.101643073128049e-05 0 -0.034931274486082499 8.8448879757715575e-05 0 -0.034938030721012849 8.3573035613652009e-05 0 -0.034942567765503328 6.101643073128049e-05 0 -0.034940608513126761 3.7819390154641015e-05 0 -0.034954623870206404 3.556900224622523e-05 0 -0.034942567765503328 6.101643073128049e-05 0 -0.034940608513126761 3.7819390154641015e-05 0 -0.034944934768290713 4.673254716826057e-05 0 -0.032295328864256533 0.00047516809756337208 0 -0.032741554589394511 0.00031743741215415488 0 -0.034940608513126761 3.7819390154641015e-05 0 -0.034944934768290713 4.673254716826057e-05 0 -0.034893135046701773 4.9562351712607278e-05 0 -0.034779519837039571 -0.00028752693820745657 0 -0.034893135046701773 4.9562351712607278e-05 0 -0.034351360807777426 5.0366984517640452e-05 0 -0.034893135046701773 4.9562351712607278e-05 0 -0.034999888560880356 1.0480878686213619e-07 0 -0.034961459086058314 3.0869739766928533e-05 0 -0.034893135046701773 4.9562351712607278e-05 0 -0.034999888560880356 1.0480878686213619e-07 0 -0.034746517366230169 6.1324932897753159e-05 0 -0.034999888560880356 1.0480878686213619e-07 0 -0.034961459086058314 3.0869739766928533e-05 0 -0.034999947175600211 -1.4363680235463193e-09 0 -0.034940608513126761 3.7819390154641015e-05 0 -0.034893135046701773 4.9562351712607278e-05 0 -0.034961459086058314 3.0869739766928533e-05 0 -0.034940608513126761 3.7819390154641015e-05 0 -0.034961459086058314 3.0869739766928533e-05 0 -0.034954623870206404 3.556900224622523e-05 0 -0.034954623870206404 3.556900224622523e-05 0 -0.034973438122561623 9.6193239204459187e-06 0 -0.03495161774374294 2.6521973035849308e-05 0 -0.034961459086058314 3.0869739766928533e-05 0 -0.034954623870206404 3.556900224622523e-05 0 -0.034973438122561623 9.6193239204459187e-06 0 -0.034999947175600211 -1.4363680235463193e-09 0 -0.034973438122561623 9.6193239204459187e-06 0 -0.03499995135528073 8.1780956358384714e-09 0 -0.034961459086058314 3.0869739766928533e-05 0 -0.034999947175600211 -1.4363680235463193e-09 0 -0.034973438122561623 9.6193239204459187e-06 0 -0.034973438122561623 9.6193239204459187e-06 0 -0.03499995135528073 8.1780956358384714e-09 0 -0.034964810523670578 -5.5472239436884313e-06 0 -0.034964810523670578 -5.5472239436884313e-06 0 -0.03495161774374294 2.6521973035849308e-05 0 -0.034898467410258462 2.1173382851786598e-05 0 -0.034973438122561623 9.6193239204459187e-06 0 -0.034964810523670578 -5.5472239436884313e-06 0 -0.03495161774374294 2.6521973035849308e-05 0 -0.03495161774374294 2.6521973035849308e-05 0 -0.034913117341128654 5.9695100502400331e-05 0 -0.034898467410258462 2.1173382851786598e-05 0 -0.034913117341128654 5.9695100502400331e-05 0 -0.034908601149725958 8.8474574560828799e-05 0 -0.0348789300