<?xml version="1.0"?>
<VTKFile type="UnstructuredGrid" version="0.1" byte_order="LittleEndian">
<UnstructuredGrid>
<Piece NumberOfPoints="31898" NumberOfCells="11152">
<Points>
<DataArray type="Float64" NumberOfComponents="3" format="ascii">
-0.5 -0.5 0 -0.47620991077874902 -0.44978878706170539 0 -0.49999999999999473 -0.42132396840504388 0 -0.5 -0.5 0 -0.47160970827802529 -0.4793630013852106 0 -0.47620991077874902 -0.44978878706170539 0 -0.5 -0.5 0 -0.47160970827802529 -0.4793630013852106 0 -0.44860394795025399 -0.5 0 -0.47160970827802529 -0.4793630013852106 0 -0.44860394795025399 -0.5 0 -0.4490820238307246 -0.45820516232899983 0 -0.44860394795025399 -0.5 0 -0.4490820238307246 -0.45820516232899983 0 -0.42881687682924802 -0.47781464288736519 0 -0.4490820238307246 -0.45820516232899983 0 -0.45555437223955858 -0.42914059360647611 0 -0.4490820238307246 -0.45820516232899983 0 -0.45555437223955858 -0.42914059360647611 0 -0.43867285131603428 -0.4271457417558665 0 -0.4490820238307246 -0.45820516232899983 0 -0.43867285131603428 -0.4271457417558665 0 -0.4263356171060747 -0.44269880333887462 0 -0.47160970827802529 -0.4793630013852106 0 -0.4490820238307246 -0.45820516232899983 0 -0.47620991077874902 -0.44978878706170539 0 -0.4490820238307246 -0.45820516232899983 0 -0.47620991077874902 -0.44978878706170539 0 -0.45555437223955858 -0.42914059360647611 0 -0.47620991077874902 -0.44978878706170539 0 -0.48101336032419229 -0.41069999664450008 0 -0.45555437223955858 -0.42914059360647611 0 -0.47620991077874902 -0.44978878706170539 0 -0.49999999999999473 -0.42132396840504388 0 -0.48101336032419229 -0.41069999664450008 0 -0.49999999999999473 -0.42132396840504388 0 -0.48101336032419229 -0.41069999664450008 0 -0.5 -0.393886241813306 0 -0.49999999999999473 -0.42132396840504388 0 -0.48101336032419229 -0.41069999664450008 0 -0.5 -0.393886241813306 0 -0.47854472220918332 -0.38978458738689759 0 -0.48422759779560409 -0.37130120630367158 0 -0.5 -0.393886241813306 0 -0.5 -0.36644851522156802 0 -0.48422759779560409 -0.37130120630367158 0 -0.48101336032419229 -0.41069999664450008 0 -0.5 -0.393886241813306 0 -0.47854472220918332 -0.38978458738689759 0 -0.48101336032419229 -0.41069999664450008 0 -0.47854472220918332 -0.38978458738689759 0 -0.46202672064839212 -0.40007602488395211 0 -0.48101336032419229 -0.41069999664450008 0 -0.46202672064839212 -0.40007602488395211 0 -0.47854472220918332 -0.38978458738689759 0 -0.46725442735267431 -0.37660061361585562 0 -0.46202672064839212 -0.40007602488395211 0 -0.47854472220918332 -0.38978458738689759 0 -0.46725442735267431 -0.37660061361585562 0 -0.48422759779560409 -0.37130120630367158 0 -0.46725442735267431 -0.37660061361585562 0 -0.46202672064839212 -0.40007602488395211 0 -0.46725442735267431 -0.37660061361585562 0 -0.45645674801697989 -0.38644133236760531 0 -0.46202672064839212 -0.40007602488395211 0 -0.46725442735267431 -0.37660061361585562 0 -0.45645674801697989 -0.38644133236760531 0 -0.4540003998136638 -0.37455519391687309 0 -0.45645674801697989 -0.38644133236760531 0 -0.46202672064839212 -0.40007602488395211 0 -0.44257020456291563 -0.38918913383950271 0 -0.46202672064839212 -0.40007602488395211 0 -0.44257020456291563 -0.38918913383950271 0 -0.44727608925983742 -0.41095911152778891 0 -0.46202672064839212 -0.40007602488395211 0 -0.44257020456291563 -0.38918913383950271 0 -0.44257020456291563 -0.38918913383950271 0 -0.44727608925983742 -0.41095911152778891 0 -0.43479358559901082 -0.4041454901736512 0 -0.44257020456291563 -0.38918913383950271 0 -0.4540003998136638 -0.37455519391687309 0 -0.44172858264042247 -0.37082207246888088 0 -0.45645674801697989 -0.38644133236760531 0 -0.44257020456291563 -0.38918913383950271 0 -0.4540003998136638 -0.37455519391687309 0 -0.46202672064839212 -0.40007602488395211 0 -0.45555437223955858 -0.42914059360647611 0 -0.44727608925983742 -0.41095911152778891 0 -0.46202672064839212 -0.40007602488395211 0 -0.45555437223955858 -0.42914059360647611 0 -0.48101336032419229 -0.41069999664450008 0 -0.46202672064839212 -0.40007602488395211 0 -0.45555437223955858 -0.42914059360647611 0 -0.44727608925983742 -0.41095911152778891 0 -0.43867285131603428 -0.4271457417558665 0 -0.43676601469929588 -0.41441201227470881 0 -0.44727608925983742 -0.41095911152778891 0 -0.43676601469929588 -0.41441201227470881 0 -0.43479358559901082 -0.4041454901736512 0 -0.45555437223955858 -0.42914059360647611 0 -0.44727608925983742 -0.41095911152778891 0 -0.43867285131603428 -0.4271457417558665 0 -0.43867285131603428 -0.4271457417558665 0 -0.42681803064840879 -0.42717069814352421 0 -0.4263356171060747 -0.44269880333887462 0 -0.42681803064840879 -0.42717069814352421 0 -0.41531815884496182 -0.42985383783075998 0 -0.4263356171060747 -0.44269880333887462 0 -0.42681803064840879 -0.42717069814352421 0 -0.42624289495594048 -0.42089725947505818 0 -0.42083332353326591 -0.42146747131641099 0 -0.42681803064840879 -0.42717069814352421 0 -0.43096994786351572 -0.41951492446283251 0 -0.42624289495594048 -0.42089725947505818 0 -0.43867285131603428 -0.4271457417558665 0 -0.42681803064840879 -0.42717069814352421 0 -0.43096994786351572 -0.41951492446283251 0 -0.43867285131603428 -0.4271457417558665 0 -0.43676601469929588 -0.41441201227470881 0 -0.43096994786351572 -0.41951492446283251 0 -0.43676601469929588 -0.41441201227470881 0 -0.43096994786351572 -0.41951492446283251 0 -0.42907264086257813 -0.41311715872526122 0 -0.43676601469929588 -0.41441201227470881 0 -0.42907264086257813 -0.41311715872526122 0 -0.43479358559901082 -0.4041454901736512 0 -0.42907264086257813 -0.41311715872526122 0 -0.43479358559901082 -0.4041454901736512 0 -0.42460885511582858 -0.40417321677700252 0 -0.42907264086257813 -0.41311715872526122 0 -0.41997834854398469 -0.41180534796019508 0 -0.42907264086257813 -0.41311715872526122 0 -0.42635027777857132 -0.41543594397746519 0 -0.41997834854398469 -0.41180534796019508 0 -0.42907264086257813 -0.41311715872526122 0 -0.41997834854398469 -0.41180534796019508 0 -0.42460885511582858 -0.40417321677700252 0 -0.42635027777857132 -0.41543594397746519 0 -0.41997834854398469 -0.41180534796019508 0 -0.42635027777857132 -0.41543594397746519 0 -0.42083332353326591 -0.42146747131641099 0 -0.41997834854398469 -0.41180534796019508 0 -0.43096994786351572 -0.41951492446283251 0 -0.42624289495594048 -0.42089725947505818 0 -0.42635027777857132 -0.41543594397746519 0 -0.43096994786351572 -0.41951492446283251 0 -0.42907264086257813 -0.41311715872526122 0 -0.42635027777857132 -0.41543594397746519 0 -0.42624289495594048 -0.42089725947505818 0 -0.42635027777857132 -0.41543594397746519 0 -0.42083332353326591 -0.42146747131641099 0 -0.42083332353326591 -0.42146747131641099 0 -0.41997834854398469 -0.41180534796019508 0 -0.40992282953163789 -0.42011435591993562 0 -0.41997834854398469 -0.41180534796019508 0 -0.39756877647335259 -0.40857286797681719 0 -0.41997834854398469 -0.41180534796019508 0 -0.40992282953163789 -0.42011435591993562 0 -0.39756877647335259 -0.40857286797681719 0 -0.40992282953163789 -0.42011435591993562 0 -0.41531815884496182 -0.42985383783075998 0 -0.39591554026262499 -0.42887225451549271 0 -0.41531815884496182 -0.42985383783075998 0 -0.39591554026262499 -0.42887225451549271 0 -0.41160927495564159 -0.44339431233754628 0 -0.42083332353326591 -0.42146747131641099 0 -0.40992282953163789 -0.42011435591993562 0 -0.41531815884496182 -0.42985383783075998 0 -0.42681803064840879 -0.42717069814352421 0 -0.42083332353326591 -0.42146747131641099 0 -0.41531815884496182 -0.42985383783075998 0 -0.44257020456291563 -0.38918913383950271 0 -0.42311368847744002 -0.37830224279505142 0 -0.42594061475171041 -0.39368797999533162 0 -0.44257020456291563 -0.38918913383950271 0 -0.42311368847744002 -0.37830224279505142 0 -0.44172858264042247 -0.37082207246888088 0 -0.44257020456291563 -0.38918913383950271 0 -0.42311368847744002 -0.37830224279505142 0 -0.42311368847744002 -0.37830224279505142 0 -0.42594061475171041 -0.39368797999533162 0 -0.416587075656149 -0.38785930376960043 0 -0.44257020456291563 -0.38918913383950271 0 -0.42594061475171041 -0.39368797999533162 0 -0.43479358559901082 -0.4041454901736512 0 -0.42594061475171041 -0.39368797999533162 0 -0.43479358559901082 -0.4041454901736512 0 -0.42460885511582858 -0.40417321677700252 0 -0.41997834854398469 -0.41180534796019508 0 -0.41325908582185972 -0.39811010703057192 0 -0.39770572831670092 -0.39911486077581648 0 -0.41997834854398469 -0.41180534796019508 0 -0.39770572831670092 -0.39911486077581648 0 -0.42594061475171041 -0.39368797999533162 0 -0.42460885511582858 -0.40417321677700252 0 -0.41325908582185972 -0.39811010703057192 0 -0.41997834854398469 -0.41180534796019508 0 -0.42460885511582858 -0.40417321677700252 0 -0.41325908582185972 -0.39811010703057192 0 -0.42594061475171041 -0.39368797999533162 0 -0.41325908582185972 -0.39811010703057192 0 -0.416587075656149 -0.38785930376960043 0 -0.41325908582185972 -0.39811010703057192 0 -0.416587075656149 -0.38785930376960043 0 -0.40403491357358612 -0.38133688525744702 0 -0.42311368847744002 -0.37830224279505142 0 -0.40403491357358612 -0.38133688525744702 0 -0.40365717239196519 -0.36741535175059892 0 -0.42311368847744002 -0.37830224279505142 0 -0.416587075656149 -0.38785930376960043 0 -0.40403491357358612 -0.38133688525744702 0 -0.40403491357358612 -0.38133688525744702 0 -0.39190790742475001 -0.38540387676521748 0 -0.39770572831670092 -0.39911486077581648 0 -0.40403491357358612 -0.38133688525744702 0 -0.39190790742475001 -0.38540387676521748 0 -0.3904578797192948 -0.37473938743617019 0 -0.41325908582185972 -0.39811010703057192 0 -0.40403491357358612 -0.38133688525744702 0 -0.39770572831670092 -0.39911486077581648 0 -0.39770572831670092 -0.39911486077581648 0 -0.37543310808941849 -0.38642437359143528 0 -0.39770572831670092 -0.39911486077581648 0 -0.37515920440272033 -0.40534038799344108 0 -0.37543310808941849 -0.38642437359143528 0 -0.39770572831670092 -0.39911486077581648 0 -0.37515920440272033 -0.40534038799344108 0 -0.39756877647335259 -0.40857286797681719
[...]
<PointData Scalars="" Vectors="displacement," Tensors="">
<DataArray type="Float64" Name="displacement" NumberOfComponents="3" format="ascii">
-0.034997514813987655 -0.034998040263061997 0 -0.032639124413336475 -0.034391705715368412 0 -0.029503246764261474 -0.034995358978769431 0 -0.034997514813987655 -0.034998040263061997 0 -0.034455894409061209 -0.033739572301215326 0 -0.032639124413336475 -0.034391705715368412 0 -0.034997514813987655 -0.034998040263061997 0 -0.034455894409061209 -0.033739572301215326 0 -0.034998041323735539 -0.031405354356858005 0 -0.034455894409061209 -0.033739572301215326 0 -0.034998041323735539 -0.031405354356858005 0 -0.034690269198295147 -0.033299755008034865 0 -0.034998041323735539 -0.031405354356858005 0 -0.034690269198295147 -0.033299755008034865 0 -0.03512779440582537 -0.030756674970534244 0 -0.034076133606746321 -0.034268907199121963 0 -0.034004057348725622 -0.034555885567886913 0 -0.034690269198295147 -0.033299755008034865 0 -0.037953100531960028 -0.033784705463965607 0 -0.038201656879979146 -0.032112179032422694 0 -0.034690269198295147 -0.033299755008034865 0 -0.038201656879979146 -0.032112179032422694 0 -0.036801479015650722 -0.0308655314019615 0 -0.034455894409061209 -0.033739572301215326 0 -0.034690269198295147 -0.033299755008034865 0 -0.032639124413336475 -0.034391705715368412 0 -0.034690269198295147 -0.033299755008034865 0 -0.032639124413336475 -0.034391705715368412 0 -0.031836666559701701 -0.035020891274131327 0 -0.032639124413336475 -0.034391705715368412 0 -0.030350806188142194 -0.034642733171024856 0 -0.031836666559701701 -0.035020891274131327 0 -0.032639124413336475 -0.034391705715368412 0 -0.029503246764261474 -0.034995358978769431 0 -0.030350806188142194 -0.034642733171024856 0 -0.029492672119339584 -0.034999997422454882 0 -0.02874860036671139 -0.036323536539696014 0 -0.027572040215836712 -0.034999996539613644 0 -0.029493902110411509 -0.035000560179910753 0 -0.030063226771868554 -0.035219692425734826 0 -0.027572040215836712 -0.034999996539613644 0 -0.027286813177505857 -0.036495416184720846 0 -0.025992616177665146 -0.036099490306199959 0 -0.027572040215836712 -0.034999996539613644 0 -0.025651398069153925 -0.034999995511419607 0 -0.025992616177665146 -0.036099490306199959 0 -0.02874860036671139 -0.036323536539696014 0 -0.027572040215836712 -0.034999996539613644 0 -0.027286813177505857 -0.036495416184720846 0 -0.02874860036671139 -0.036323536539696014 0 -0.027286813177505857 -0.036495416184720846 0 -0.02800826195588518 -0.03764497205272075 0 -0.030063226771868554 -0.035219692425734826 0 -0.031240186954471227 -0.034647977263277466 0 -0.027286813177505857 -0.036495416184720846 0 -0.026365095150364934 -0.037283099865669793 0 -0.02800826195588518 -0.03764497205272075 0 -0.027286813177505857 -0.036495416184720846 0 -0.026365095150364934 -0.037283099865669793 0 -0.025992616177665146 -0.036099490306199959 0 -0.026720293121813569 -0.035507791403998699 0 -0.031240186954471227 -0.034647977263277466 0 -0.024624209837476829 -0.037077468006670063 0 -0.024678314936614449 -0.037179555739025268 0 -0.024788999232013949 -0.037136437148880819 0 -0.024624209837476829 -0.037077468006670063 0 -0.024678314936614449 -0.037179555739025268 0 -0.024557803496037197 -0.037215691416943655 0 -0.024678314936614449 -0.037179555739025268 0 -0.024788999232013949 -0.037136437148880819 0 -0.024681896191113391 -0.037287992264930458 0 -0.040445715905204099 -0.034106971365760942 0 -0.04123144018392999 -0.032449159550032164 0 -0.039554616557210237 -0.032894533265994598 0 -0.031240186954471227 -0.034647977263277466 0 -0.031708821287249507 -0.034078676173173339 0 -0.04123144018392999 -0.032449159550032164 0 -0.039554616557210237 -0.032894533265994598 0 -0.040086267893191356 -0.031834149310488155 0 -0.024681896191113391 -0.037287992264930458 0 -0.024557803496037197 -0.037215691416943655 0 -0.02451769029867553 -0.03729563125736983 0 -0.024678314936614449 -0.037179555739025268 0 -0.024681896191113391 -0.037287992264930458 0 -0.024557803496037197 -0.037215691416943655 0 -0.040445715905204099 -0.034106971365760942 0 -0.037953100531960028 -0.033784705463965607 0 -0.039554616557210237 -0.032894533265994598 0 -0.031240186954471227 -0.034647977263277466 0 -0.034004057348725622 -0.034555885567886913 0 -0.030350806188142194 -0.034642733171024856 0 -0.030186998659795385 -0.035183942822826851 0 -0.031836666559701701 -0.035020891274131327 0 -0.039554616557210237 -0.032894533265994598 0 -0.038201656879979146 -0.032112179032422694 0 -0.039277488594868216 -0.031978282195292536 0 -0.039554616557210237 -0.032894533265994598 0 -0.039277488594868216 -0.031978282195292536 0 -0.040086267893191356 -0.031834149310488155 0 -0.037953100531960028 -0.033784705463965607 0 -0.039554616557210237 -0.032894533265994598 0 -0.038201656879979146 -0.032112179032422694 0 -0.038201656879979146 -0.032112179032422694 0 -0.038173859919111763 -0.031025562280091883 0 -0.036801479015650722 -0.0308655314019615 0 -0.038173859919111763 -0.031025562280091883 0 -0.037932621492065249 -0.030023850272289682 0 -0.036801479015650722 -0.0308655314019615 0 -0.038173859919111763 -0.031025562280091883 0 -0.038718451302871749 -0.031009291520076827 0 -0.038661236585599959 -0.030520733438957601 0 -0.038173859919111763 -0.031025562280091883 0 -0.038845718899934274 -0.031451713363229786 0 -0.038718451302871749 -0.031009291520076827 0 -0.038201656879979146 -0.032112179032422694 0 -0.038173859919111763 -0.031025562280091883 0 -0.038845718899934274 -0.031451713363229786 0 -0.038201656879979146 -0.032112179032422694 0 -0.039277488594868216 -0.031978282195292536 0 -0.038845718899934274 -0.031451713363229786 0 -0.039277488594868216 -0.031978282195292536 0 -0.038845718899934274 -0.031451713363229786 0 -0.039414678309115707 -0.031336230527027026 0 -0.039277488594868216 -0.031978282195292536 0 -0.039414678309115707 -0.031336230527027026 0 -0.040086267893191356 -0.031834149310488155 0 -0.039414678309115707 -0.031336230527027026 0 -0.040086267893191356 -0.031834149310488155 0 -0.040078244141445951 -0.031066743631505515 0 -0.03817707930992089 -0.029112048179255223 0 -0.038160428674081578 -0.028855512466727212 0 -0.039414678309115707 -0.031336230527027026 0 -0.039194440946778764 -0.031043059593794525 0 -0.039577480637952377 -0.030377987098491398 0 -0.039414678309115707 -0.031336230527027026 0 -0.039551217607831701 -0.030738333797572841 0 -0.040078244141445951 -0.031066743631505515 0 -0.038149646304691184 -0.028959175734860825 0 -0.038160428674081578 -0.028855512466727212 0 -0.039194440946778764 -0.031043059593794525 0 -0.038661236585599959 -0.030520733438957601 0 -0.039506149718147157 -0.03044778639879565 0 -0.038845718899934274 -0.031451713363229786 0 -0.038718451302871749 -0.031009291520076827 0 -0.039194440946778764 -0.031043059593794525 0 -0.038845718899934274 -0.031451713363229786 0 -0.039414678309115707 -0.031336230527027026 0 -0.039194440946778764 -0.031043059593794525 0 -0.038718451302871749 -0.031009291520076827 0 -0.039194440946778764 -0.031043059593794525 0 -0.038661236585599959 -0.030520733438957601 0 -0.038661236585599959 -0.030520733438957601 0 -0.039506149718147157 -0.03044778639879565 0 -0.038774770608335077 -0.029573182939040987 0 -0.038160428674081578 -0.028855512466727212 0 -0.038370232721309266 -0.027585848921271534 0 -0.039506149718147157 -0.03044778639879565 0 -0.038774770608335077 -0.029573182939040987 0 -0.039752951092695117 -0.028521040295624744 0 -0.038774770608335077 -0.029573182939040987 0 -0.037932621492065249 -0.030023850272289682 0 -0.038032332182475627 -0.028386189337161891 0 -0.037932621492065249 -0.030023850272289682 0 -0.038032332182475627 -0.028386189337161891 0 -0.036811044086251535 -0.029717412850522051 0 -0.038661236585599959 -0.030520733438957601 0 -0.038774770608335077 -0.029573182939040987 0 -0.037932621492065249 -0.030023850272289682 0 -0.038173859919111763 -0.031025562280091883 0 -0.038661236585599959 -0.030520733438957601 0 -0.037932621492065249 -0.030023850272289682 0 -0.04123144018392999 -0.032449159550032164 0 -0.04186923420547458 -0.030978683099385364 0 -0.040830356088451099 -0.031181331671735337 0 -0.024681896191113391 -0.037287992264930458 0 -0.024570035493141958 -0.037402421656624572 0 -0.02451769029867553 -0.03729563125736983 0 -0.031708821287249507 -0.034078676173173339 0 -0.031767086154506533 -0.032960933169849917 0 -0.04186923420547458 -0.030978683099385364 0 -0.040830356088451099 -0.031181331671735337 0 -0.041203072231785917 -0.030530091876704347 0 -0.04123144018392999 -0.032449159550032164 0 -0.040830356088451099 -0.031181331671735337 0 -0.040086267893191356 -0.031834149310488155 0 -0.040830356088451099 -0.031181331671735337 0 -0.040086267893191356 -0.031834149310488155 0 -0.040078244141445951 -0.031066743631505515 0 -0.039551217607831701 -0.030738333797572841 0 -0.04050816227141394 -0.030296735651887466 0 -0.0404609831486131 -0.029275107973733654 0 -0.038160428674081578 -0.028855512466727212 0 -0.03804434619313244 -0.027493014749864597 0 -0.040830356088451099 -0.031181331671735337 0 -0.040078244141445951 -0.031066743631505515 0 -0.04050816227141394 -0.030296735651887466 0 -0.039551217607831701 -0.030738333797572841 0 -0.040078244141445951 -0.031066743631505515 0 -0.04050816227141394 -0.030296735651887466 0 -0.040830356088451099 -0.031181331671735337 0 -0.04050816227141394 -0.030296735651887466 0 -0.041203072231785917 -0.030530091876704347 0 -0.04050816227141394 -0.030296735651887466 0 -0.041203072231785917 -0.030530091876704347 0 -0.04160067718495785 -0.029675577918176897 0 -0.04186923420547458 -0.030978683099385364 0 -0.04160067718495785 -0.029675577918176897 0 -0.042541831136310812 -0.029651963647119087 0 -0.04186923420547458 -0.030978683099385364 0 -0.041203072231785917 -0.030530091876704347 0 -0.04160067718495785 -0.029675577918176897 0 -0.04160067718495785 -0.029675577918176897 0 -0.041321620663707079 -0.028934439579496193 0 -0.0404609831486131 -0.029275107973733654 0 -0.04160067718495785 -0.029675577918176897 0 -0.041321620663707079 -0.028934439579496193 0 -0.041954888081659605 -0.028853241327548958 0 -0.04050816227141394 -0.030296735651887466 0 -0.04160067718495785 -0.029675577918176897 0 -0.0404609831486131 -0.029275107973733654 0 -0.03804434619313244 -0.027493014749864597 0 -0.037202290217502598 -0.025682561347226004 0 -0.038221894221224392 -0.027144501701554701 0 -0.037934267668840678 -0.026102930340896533 0 -0.038804902169054564 -0.026115042225605879 0 -0.038221894221224392 -0.027144501701554701 0 -0.037934267668840678 -0.026102930340896533 0 -0.037785511794101799 -0.027138600100832695 0 -0.038453605668821236 -0.025860443993789516 0 -0.037202290217502598 -0.025682561347226004 0 -0.041260438113977428 -0.027951090496475931 0 -0.041954888081659605 -0.028853241327548958 0 -0.042269228599550415 -0.027986504721564439 0 -0.041321620663707079 -0.028934439579496193 0 -0.041260438113977428 -0.027951090496475931 0 -0.041954888081659605 -0.028853241327548958 0 -0.037202290217502598 -0.025682561347226004 0 -0.035282980868967966 -0.026309095874888475 0 -0.041321620663707079 -0.028934439579496193 0 -0.0404609831486131 -0.029275107973733654 0 -0.041260438113977428 -0.027951090496475931 0 -0.037637580732680719 -0.028177188533857676 0 -0.038221894221224392 -0.027144501701554701 0 -0.037785511794101799 -0.027138600100832695 0 -0.038774770608335077 -0.029573182939040987 0 -0.038032332182475627 -0.028386189337161891 0 -0.039752951092695117 -0.028521040295624744 0 -0.040021842792255242 -0.026629002388149154 0 -0.038032332182475627 -0.028386189337161891 0 -0.039752951092695117 -0.028521040295624744 0 -0.038453605668821236 -0.025860443993789516 0 -0.038370232721309266 -0.027585848921271534 0 -0.040021842792255242 -0.026629002388149154 0 -0.038032332182475627 -0.028386189337161891 0 -0.037478311113563346 -0.02659857225228808 0 -0.038032332182475627 -0.028386189337161891 0 -0.036544234192200903 -0.028142175588685196 0 -0.037478311113563346 -0.02659857225228808 0 -0.036544234192200903 -0.028142175588685196 0 -0.034944089060940826 -0.026564277065756661 0 -0.037478311113563346 -0.02659857225228808 0 -0.038032332182475627 -0.028386189337161891 0 -0.036544234192200903 -0.028142175588685196 0 -0.036811044086251535 -0.029717412850522051 0 -0.036544234192200903 -0.028142175588685196 0 -0.035618929632623655 -0.029066674803315866 0 -0.036811044086251535 -0.029717412850522051 0 -0.036104082259636468 -0.029249885907288206 0 -0.035618014194750233 -0.028141834645777429 0 -0.03561426688090373 -0.029585869969026051 0 -0.037929216553147863 -0.028235950736442861 0 -0.037654698314515463 -0.02722094749060832 0 -0.036474490731989904 -0.027452071734441124 0 -0.036742234455227805 -0.02776656528166109 0 -0.03592180332148788 -0.027337350732157161 0 -0.036742234455227805 -0.02776656528166109 0 -0.036743105277092826 -0.027780695900133538 0 -0.036742234455227805 -0.02776656528166109 0 -0.036766341572157024 -0.027167657991003454 0 -0.036544234192200903 -0.028142175588685196 0 -0.035618929632623655 -0.029066674803315866 0 -0.035282003507665603 -0.027813951659371505 0 -0.036544234192200903 -0.028142175588685196 0 -0.035282003507665603 -0.027813951659371505 0 -0.034944089060940826 -0.026564277065756661 0 -0.036766341572157024 -0.027167657991003454 0 -0.036803053018238566 -0.026332557671169817 0 -0.037654698314515463 -0.02722094749060832 0 -0.036966855224168912 -0.02685414247762755 0 -0.037380076113766869 -0.026201107521328971 0 -0.036966855224168912 -0.02685414247762755 0 -0.036474490731989904 -0.027452071734441124 0 -0.036573606161893389 -0.026186686941019444 0 -0.036474490731989904 -0.027452071734441124 0 -0.035712853336633592 -0.026067487727573495 0 -0.036573606161893389 -0.026186686941019444 0 -0.036966855224168912 -0.02685414247762755 0 -0.036573606161893389 -0.026186686941019444 0 -0.037380076113766869 -0.026201107521328971 0 -0.037654698314515463 -0.02722094749060832 0 -0.036966855224168912 -0.02685414247762755 0 -0.036474490731989904 -0.027452071734441124 0 -0.035000721734109966 -0.026667106269836587 0 -0.03592180332148788 -0.027337350732157161 0 -0.035000002440947205 -0.02666627355979943 0 -0.036474490731989904 -0.027452071734441124 0 -0.035712853336633592 -0.026067487727573495 0 -0.034999892912288749 -0.026667470260603537 0 -0.035618014194750233 -0.028141834645777429 0 -0.034999137392625529 -0.028699026481427838 0 -0.035618014194750233 -0.028141834645777429 0 -0.03561426688090373 -0.029585869969026051 0 -0.034999137392625529 -0.028699026481427838 0 -0.03561426688090373 -0.029585869969026051 0 -0.034999137392625529 -0.028699026481427838 0 -0.03512779440582537 -0.030756674970534244 0 -0.034998041323735539 -0.031405354356858005 0 -0.034999137392625529 -0.028699026481427838 0 -0.03512779440582537 -0.030756674970534244 0 -0.03561426688090373 -0.029585869969026051 0 -0.03512779440582537 -0.030756674970534244 0 -0.035572951623126833 -0.030821928367674313 0 -0.034690269198295147 -0.033299755008034865 0 -0.03512779440582537 -0.030756674970534244 0 -0.035572951623126833 -0.030821928367674313 0 -0.034690269198295147 -0.033299755008034865 0 -0.035572951623126833 -0.030821928367674313 0 -0.036801479015650722 -0.0308655314019615 0 -0.035572951623126833 -0.030821928367674313 0 -0.036801479015650722 -0.0308655314019615 0 -0.036132279178694909 -0.03004465367858512 0 -0.036801479015650722 -0.0308655314019615 0 -0.036811044086251535 -0.029717412850522051 0 -0.036132279178694909 -0.03004465367858512 0 -0.037932621492065249 -0.030023850272289682 0 -0.036801479015650722 -0.0308655314019615 0 -0.036811044086251535 -0.029717412850522051 0 -0.036064972563251099 -0.029248386270434537 0 -0.036811044086251535 -0.029717412850522051 0 -0.036100325746132679 -0.029391483843420944 0 -0.036811044086251535 -0.029717412850522051 0 -0.036100325746132679 -0.029391483843420944 0 -0.036132279178694909 -0.03004465367858512 0 -0.036742234455227805 -0.02776656528166109 0 -0.036835013650197368 -0.028000390985609833 0 -0.03561426688090373 -0.029585869969026051 0 -0.036100325746132679 -0.029391483843420944 0 -0.036132279178694909 -0.03004465367858512 0 -0.036104082259636468 -0.029249885907288206 0 -0.03561426688090373 -0.029585869969026051 0 -0.036100325746132679 -0.029391483843420944 0 -0.03561426688090373 -0.029585869969026051 0 -0.035572951623126833 -0.030821928367674313 0 -0.036132279178694909 -0.03004465367858512 0 -0.014881382646641763 -0.036786814390288337 0 -0.013236820632182794 -0.034786375548111224 0 -0.017670702372874145 -0.037943745929045765 0 -0.017575447073688671 -0.040155885569513682 0 -0.016407911905831546 -0.038479577482461801 0 -0.019240687954950649 -0.038353912709882448 0 -0.017905263686524373 -0.03790542323350693 0 -0.017788930870681612 -0.0394253212664867 0 -0.019240687954950649 -0.038353912709882448 0 -0.01916851656527143 -0.039674183272008626 0 -0.017788930870681612 -0.0394253212664867 0 -0.019240687954950649 -0.038353912709882448 0 -0.020457459948020975 -0.038929900510554366 0 -0.01916851656527143 -0.039674183272008626 0 -0.019240687954950649 -0.038353912709882448 0 -0.018736406850626587 -0.037181723587681702 0 -0.019786213067920944 -0.037048644360279541 0 -0.019240687954950649 -0.038353912709882448 0 -0.018736406850626587 -0.037181723587681702 0 -0.017905263686524373 -0.03790542323350693 0 -0.014881382646641763 -0.036786814390288337 0 -0.015417090454943005 -0.036707964439372652 0 -0.018736406850626587 -0.037181723587681702 0 -0.017905263686524373 -0.03790542323350693 0 -0.017963565109783555 -0.036327115361637512 0 -0.017670702372874145 -0.037943745929045765 0 -0.017963565109783555 -0.036327115361637512 0 -0.016149772487639436 -0.036743731592829572 0 -0.017963565109783555 -0.036327115361637512 0 -0.017968719155779349 -0.0349997223773411 0 -0.019156919855230461 -0.036052527641716972 0 -0.017963565109783555 -0.036327115361637512 0 -0.017968719155779349 -0.0349997223773411 0 -0.016794800377483494 -0.035704779482060293 0 -0.017968719155779349 -0.0349997223773411 0 -0.019156919855230461 -0.036052527641716972 0 -0.019889422132573695 -0.034999978293757755 0 -0.018736406850626587 -0.037181723587681702 0 -0.017963565109783555 -0.036327115361637512 0 -0.019156919855230461 -0.036052527641716972 0 -0.018736406850626587 -0.037181723587681702 0 -0.019156919855230461 -0.036052527641716972 0 -0.019786213067920944 -0.037048644360279541 0 -0.019786213067920944 -0.037048644360279541 0 -0.020413778482495676 -0.035937486711423806 0 -0.020865339311858286 -0.03688246171942211 0 -0.019156919855230461 -0.036052527641716972 0 -0.019786213067920944 -0.037048644360279541 0 -0.020413778482495676 -0.035937486711423806 0 -0.019889422132573695 -0.034999978293757755 0 -0.020413778482495676 -0.035937486711423806 0 -0.021810064133771064 -0.034999956556822781 0 -0.019156919855230461 -0.036052527641716972 0 -0.019889422132573695 -0.034999978293757755 0 -0.020413778482495676 -0.035937486711423806 0 -0.020413778482495676 -0.035937486711423806 0 -0.021810064133771064 -0.034999956556822781 0 -0.021404737593839155 -0.036145921551165756 0 -0.021404737593839155 -0.036145921551165756 0 -0.020865339311858286 -0.03688246171942211 0 -0.021990866075423797 -0.03684687503688458 0 -0.020413778482495676 -0.035937486711423806 0 -0.021404737593839155 -0.036145921551165756 0 -0.020865339311858286 -0.03688246171942211 0 -0.020865339311858286 -0.03688246171942211 0 -0.021423198551174704 -0.037584230977341183 0 -0.021990866075423797 -0.03684687503688458 0 -0.021423198551174704 -0.037584230977341183 0 -0.02120694285720021 -0.03850662935891512 0 -0.021922422631120913 -0.038157143514409055 0 -0.021423198551174704 -0.037584230977341183 0 -0.020474467963744285 -0.03787784626863306 0 -0.02120694285720021 -0.03850662935891512 0 -0.020865339311858286 -0.03688246171942211 0 -0.021423198551174704 -0.037584230977341183 0 -0.020474467963744285 -0.03787784626863306 0 -0.019240687954950649 -0.038353912709882448 0 -0.019786213067920944 -0.037048644360279541 0 -0.020474467963744285 -0.03787784626863306 0 -0.019786213067920944 -0.037048644360279541 0 -0.020865339311