<?xml version="1.0"?>
<VTKFile type="UnstructuredGrid" version="0.1" byte_order="LittleEndian">
<UnstructuredGrid>
<Piece NumberOfPoints="31898" NumberOfCells="11152">
<Points>
<DataArray type="Float64" NumberOfComponents="3" format="ascii">
-0.5 -0.5 0 -0.47620991077874902 -0.44978878706170539 0 -0.49999999999999473 -0.42132396840504388 0 -0.5 -0.5 0 -0.47160970827802529 -0.4793630013852106 0 -0.47620991077874902 -0.44978878706170539 0 -0.5 -0.5 0 -0.47160970827802529 -0.4793630013852106 0 -0.44860394795025399 -0.5 0 -0.47160970827802529 -0.4793630013852106 0 -0.44860394795025399 -0.5 0 -0.4490820238307246 -0.45820516232899983 0 -0.44860394795025399 -0.5 0 -0.4490820238307246 -0.45820516232899983 0 -0.42881687682924802 -0.47781464288736519 0 -0.4490820238307246 -0.45820516232899983 0 -0.45555437223955858 -0.42914059360647611 0 -0.4490820238307246 -0.45820516232899983 0 -0.45555437223955858 -0.42914059360647611 0 -0.43867285131603428 -0.4271457417558665 0 -0.4490820238307246 -0.45820516232899983 0 -0.43867285131603428 -0.4271457417558665 0 -0.4263356171060747 -0.44269880333887462 0 -0.47160970827802529 -0.4793630013852106 0 -0.4490820238307246 -0.45820516232899983 0 -0.47620991077874902 -0.44978878706170539 0 -0.4490820238307246 -0.45820516232899983 0 -0.47620991077874902 -0.44978878706170539 0 -0.45555437223955858 -0.42914059360647611 0 -0.47620991077874902 -0.44978878706170539 0 -0.48101336032419229 -0.41069999664450008 0 -0.45555437223955858 -0.42914059360647611 0 -0.47620991077874902 -0.44978878706170539 0 -0.49999999999999473 -0.42132396840504388 0 -0.48101336032419229 -0.41069999664450008 0 -0.49999999999999473 -0.42132396840504388 0 -0.48101336032419229 -0.41069999664450008 0 -0.5 -0.393886241813306 0 -0.49999999999999473 -0.42132396840504388 0 -0.48101336032419229 -0.41069999664450008 0 -0.5 -0.393886241813306 0 -0.47854472220918332 -0.38978458738689759 0 -0.48422759779560409 -0.37130120630367158 0 -0.5 -0.393886241813306 0 -0.5 -0.36644851522156802 0 -0.48422759779560409 -0.37130120630367158 0 -0.48101336032419229 -0.41069999664450008 0 -0.5 -0.393886241813306 0 -0.47854472220918332 -0.38978458738689759 0 -0.48101336032419229 -0.41069999664450008 0 -0.47854472220918332 -0.38978458738689759 0 -0.46202672064839212 -0.40007602488395211 0 -0.48101336032419229 -0.41069999664450008 0 -0.46202672064839212 -0.40007602488395211 0 -0.47854472220918332 -0.38978458738689759 0 -0.46725442735267431 -0.37660061361585562 0 -0.46202672064839212 -0.40007602488395211 0 -0.47854472220918332 -0.38978458738689759 0 -0.46725442735267431 -0.37660061361585562 0 -0.48422759779560409 -0.37130120630367158 0 -0.46725442735267431 -0.37660061361585562 0 -0.46202672064839212 -0.40007602488395211 0 -0.46725442735267431 -0.37660061361585562 0 -0.45645674801697989 -0.38644133236760531 0 -0.46202672064839212 -0.40007602488395211 0 -0.46725442735267431 -0.37660061361585562 0 -0.45645674801697989 -0.38644133236760531 0 -0.4540003998136638 -0.37455519391687309 0 -0.45645674801697989 -0.38644133236760531 0 -0.46202672064839212 -0.40007602488395211 0 -0.44257020456291563 -0.38918913383950271 0 -0.46202672064839212 -0.40007602488395211 0 -0.44257020456291563 -0.38918913383950271 0 -0.44727608925983742 -0.41095911152778891 0 -0.46202672064839212 -0.40007602488395211 0 -0.44257020456291563 -0.38918913383950271 0 -0.44257020456291563 -0.38918913383950271 0 -0.44727608925983742 -0.41095911152778891 0 -0.43479358559901082 -0.4041454901736512 0 -0.44257020456291563 -0.38918913383950271 0 -0.4540003998136638 -0.37455519391687309 0 -0.44172858264042247 -0.37082207246888088 0 -0.45645674801697989 -0.38644133236760531 0 -0.44257020456291563 -0.38918913383950271 0 -0.4540003998136638 -0.37455519391687309 0 -0.46202672064839212 -0.40007602488395211 0 -0.45555437223955858 -0.42914059360647611 0 -0.44727608925983742 -0.41095911152778891 0 -0.46202672064839212 -0.40007602488395211 0 -0.45555437223955858 -0.42914059360647611 0 -0.48101336032419229 -0.41069999664450008 0 -0.46202672064839212 -0.40007602488395211 0 -0.45555437223955858 -0.42914059360647611 0 -0.44727608925983742 -0.41095911152778891 0 -0.43867285131603428 -0.4271457417558665 0 -0.43676601469929588 -0.41441201227470881 0 -0.44727608925983742 -0.41095911152778891 0 -0.43676601469929588 -0.41441201227470881 0 -0.43479358559901082 -0.4041454901736512 0 -0.45555437223955858 -0.42914059360647611 0 -0.44727608925983742 -0.41095911152778891 0 -0.43867285131603428 -0.4271457417558665 0 -0.43867285131603428 -0.4271457417558665 0 -0.42681803064840879 -0.42717069814352421 0 -0.4263356171060747 -0.44269880333887462 0 -0.42681803064840879 -0.42717069814352421 0 -0.41531815884496182 -0.42985383783075998 0 -0.4263356171060747 -0.44269880333887462 0 -0.42681803064840879 -0.42717069814352421 0 -0.42624289495594048 -0.42089725947505818 0 -0.42083332353326591 -0.42146747131641099 0 -0.42681803064840879 -0.42717069814352421 0 -0.43096994786351572 -0.41951492446283251 0 -0.42624289495594048 -0.42089725947505818 0 -0.43867285131603428 -0.4271457417558665 0 -0.42681803064840879 -0.42717069814352421 0 -0.43096994786351572 -0.41951492446283251 0 -0.43867285131603428 -0.4271457417558665 0 -0.43676601469929588 -0.41441201227470881 0 -0.43096994786351572 -0.41951492446283251 0 -0.43676601469929588 -0.41441201227470881 0 -0.43096994786351572 -0.41951492446283251 0 -0.42907264086257813 -0.41311715872526122 0 -0.43676601469929588 -0.41441201227470881 0 -0.42907264086257813 -0.41311715872526122 0 -0.43479358559901082 -0.4041454901736512 0 -0.42907264086257813 -0.41311715872526122 0 -0.43479358559901082 -0.4041454901736512 0 -0.42460885511582858 -0.40417321677700252 0 -0.42907264086257813 -0.41311715872526122 0 -0.41997834854398469 -0.41180534796019508 0 -0.42907264086257813 -0.41311715872526122 0 -0.42635027777857132 -0.41543594397746519 0 -0.41997834854398469 -0.41180534796019508 0 -0.42907264086257813 -0.41311715872526122 0 -0.41997834854398469 -0.41180534796019508 0 -0.42460885511582858 -0.40417321677700252 0 -0.42635027777857132 -0.41543594397746519 0 -0.41997834854398469 -0.41180534796019508 0 -0.42635027777857132 -0.41543594397746519 0 -0.42083332353326591 -0.42146747131641099 0 -0.41997834854398469 -0.41180534796019508 0 -0.43096994786351572 -0.41951492446283251 0 -0.42624289495594048 -0.42089725947505818 0 -0.42635027777857132 -0.41543594397746519 0 -0.43096994786351572 -0.41951492446283251 0 -0.42907264086257813 -0.41311715872526122 0 -0.42635027777857132 -0.41543594397746519 0 -0.42624289495594048 -0.42089725947505818 0 -0.42635027777857132 -0.41543594397746519 0 -0.42083332353326591 -0.42146747131641099 0 -0.42083332353326591 -0.42146747131641099 0 -0.41997834854398469 -0.41180534796019508 0 -0.40992282953163789 -0.42011435591993562 0 -0.41997834854398469 -0.41180534796019508 0 -0.39756877647335259 -0.40857286797681719 0 -0.41997834854398469 -0.41180534796019508 0 -0.40992282953163789 -0.42011435591993562 0 -0.39756877647335259 -0.40857286797681719 0 -0.40992282953163789 -0.42011435591993562 0 -0.41531815884496182 -0.42985383783075998 0 -0.39591554026262499 -0.42887225451549271 0 -0.41531815884496182 -0.42985383783075998 0 -0.39591554026262499 -0.42887225451549271 0 -0.41160927495564159 -0.44339431233754628 0 -0.42083332353326591 -0.42146747131641099 0 -0.40992282953163789 -0.42011435591993562 0 -0.41531815884496182 -0.42985383783075998 0 -0.42681803064840879 -0.42717069814352421 0 -0.42083332353326591 -0.42146747131641099 0 -0.41531815884496182 -0.42985383783075998 0 -0.44257020456291563 -0.38918913383950271 0 -0.42311368847744002 -0.37830224279505142 0 -0.42594061475171041 -0.39368797999533162 0 -0.44257020456291563 -0.38918913383950271 0 -0.42311368847744002 -0.37830224279505142 0 -0.44172858264042247 -0.37082207246888088 0 -0.44257020456291563 -0.38918913383950271 0 -0.42311368847744002 -0.37830224279505142 0 -0.42311368847744002 -0.37830224279505142 0 -0.42594061475171041 -0.39368797999533162 0 -0.416587075656149 -0.38785930376960043 0 -0.44257020456291563 -0.38918913383950271 0 -0.42594061475171041 -0.39368797999533162 0 -0.43479358559901082 -0.4041454901736512 0 -0.42594061475171041 -0.39368797999533162 0 -0.43479358559901082 -0.4041454901736512 0 -0.42460885511582858 -0.40417321677700252 0 -0.41997834854398469 -0.41180534796019508 0 -0.41325908582185972 -0.39811010703057192 0 -0.39770572831670092 -0.39911486077581648 0 -0.41997834854398469 -0.41180534796019508 0 -0.39770572831670092 -0.39911486077581648 0 -0.42594061475171041 -0.39368797999533162 0 -0.42460885511582858 -0.40417321677700252 0 -0.41325908582185972 -0.39811010703057192 0 -0.41997834854398469 -0.41180534796019508 0 -0.42460885511582858 -0.40417321677700252 0 -0.41325908582185972 -0.39811010703057192 0 -0.42594061475171041 -0.39368797999533162 0 -0.41325908582185972 -0.39811010703057192 0 -0.416587075656149 -0.38785930376960043 0 -0.41325908582185972 -0.39811010703057192 0 -0.416587075656149 -0.38785930376960043 0 -0.40403491357358612 -0.38133688525744702 0 -0.42311368847744002 -0.37830224279505142 0 -0.40403491357358612 -0.38133688525744702 0 -0.40365717239196519 -0.36741535175059892 0 -0.42311368847744002 -0.37830224279505142 0 -0.416587075656149 -0.38785930376960043 0 -0.40403491357358612 -0.38133688525744702 0 -0.40403491357358612 -0.38133688525744702 0 -0.39190790742475001 -0.38540387676521748 0 -0.39770572831670092 -0.39911486077581648 0 -0.40403491357358612 -0.38133688525744702 0 -0.39190790742475001 -0.38540387676521748 0 -0.3904578797192948 -0.37473938743617019 0 -0.41325908582185972 -0.39811010703057192 0 -0.40403491357358612 -0.38133688525744702 0 -0.39770572831670092 -0.39911486077581648 0 -0.39770572831670092 -0.39911486077581648 0 -0.37543310808941849 -0.38642437359143528 0 -0.39770572831670092 -0.39911486077581648 0 -0.37515920440272033 -0.40534038799344108 0 -0.37543310808941849 -0.38642437359143528 0 -0.39770572831670092 -0.39911486077581648 0 -0.37515920440272033 -0.40534038799344108 0 -0.39756877647335259 -0.40857286797681719
[...]
<PointData Scalars="" Vectors="displacement," Tensors="">
<DataArray type="Float64" Name="displacement" NumberOfComponents="3" format="ascii">
-3.6418012400272985e-06 -0.074993142084754952 0 -0.00036499550255003464 -0.070118763346490656 0 7.710379480357713e-06 -0.06321607842004473 0 -3.6418012400272985e-06 -0.074993142084754952 0 -0.00033616630551034043 -0.07328738825921316 0 -0.00036499550255003464 -0.070118763346490656 0 -3.6418012400272985e-06 -0.074993142084754952 0 -0.00033616630551034043 -0.07328738825921316 0 1.3039768237732653e-08 -0.074998167676212174 0 -0.00033616630551034043 -0.07328738825921316 0 1.3039768237732653e-08 -0.074998167676212174 0 -0.00018516281037400412 -0.073288053469857048 0 1.3039768237732653e-08 -0.074998167676212174 0 -0.00018516281037400412 -0.073288053469857048 0 -0.00014597250832289272 -0.074496569748883842 0 -0.00064040318632456244 -0.068693434865016473 0 2.4407174941589879e-05 -0.066741099228139505 0 -0.00018516281037400412 -0.073288053469857048 0 0.00084411063073651035 -0.073223211718322051 0 0.00091026294502631643 -0.073639270191494396 0 -0.00018516281037400412 -0.073288053469857048 0 0.00091026294502631643 -0.073639270191494396 0 0.00044650420975594028 -0.074111016054896131 0 -0.00033616630551034043 -0.07328738825921316 0 -0.00018516281037400412 -0.073288053469857048 0 -0.00036499550255003464 -0.070118763346490656 0 -0.00018516281037400412 -0.073288053469857048 0 -0.00036499550255003464 -0.070118763346490656 0 0.0013354251519922507 -0.07152512213566535 0 -0.00036499550255003464 -0.070118763346490656 0 0.0028379958247872067 -0.067767082935566963 0 0.0013354251519922507 -0.07152512213566535 0 -0.00036499550255003464 -0.070118763346490656 0 7.710379480357713e-06 -0.06321607842004473 0 0.0028379958247872067 -0.067767082935566963 0 4.2435552758422828e-06 -0.063192114786784492 0 0.00064561891152923212 -0.058273218579995935 0 -1.7907678493543931e-06 -0.059082958467669838 0 2.6413426451830688e-06 -0.063196134901133946 0 0.0011129492564299771 -0.062066246652122306 0 -1.7907678493543931e-06 -0.059082958467669838 0 -0.00017016606359735879 -0.056761920502902914 0 -0.0003591913022348968 -0.055246099460627106 0 -1.7907678493543931e-06 -0.059082958467669838 0 -5.4608910625535304e-07 -0.054966800630172022 0 -0.0003591913022348968 -0.055246099460627106 0 0.00064561891152923212 -0.058273218579995935 0 -1.7907678493543931e-06 -0.059082958467669838 0 -0.00017016606359735879 -0.056761920502902914 0 0.00064561891152923212 -0.058273218579995935 0 -0.00017016606359735879 -0.056761920502902914 0 0.00028316486430653295 -0.056208558037007972 0 0.0011129492564299771 -0.062066246652122306 0 0.0016376964246984373 -0.059793120627299433 0 -0.00017016606359735879 -0.056761920502902914 0 -0.00044203570284403733 -0.055721556129052302 0 0.00028316486430653295 -0.056208558037007972 0 -0.00017016606359735879 -0.056761920502902914 0 -0.00044203570284403733 -0.055721556129052302 0 -0.0003591913022348968 -0.055246099460627106 0 0.0011747501016088576 -0.054310734509301815 0 0.0016376964246984373 -0.059793120627299433 0 0.0017123042561497184 -0.043693022838074788 0 0.0011384915291025707 -0.044274407503418808 0 0.00039217087100136349 -0.043989313127508194 0 0.0017123042561497184 -0.043693022838074788 0 0.0011384915291025707 -0.044274407503418808 0 0.0017514481664681841 -0.0443723169314875 0 0.0011384915291025707 -0.044274407503418808 0 0.00039217087100136349 -0.043989313127508194 0 0.00096760684892244079 -0.045028839199217491 0 0.0012014440524847042 -0.073380453330527798 0 0.0010611220077008175 -0.073565804631561704 0 0.0011398117622602381 -0.073481876230107823 0 0.0016376964246984373 -0.059793120627299433 0 0.001416094313451318 -0.059157860867575365 0 0.0010611220077008175 -0.073565804631561704 0 0.0011398117622602381 -0.073481876230107823 0 0.00116402403670792 -0.073555697096104211 0 0.00096760684892244079 -0.045028839199217491 0 0.0017514481664681841 -0.0443723169314875 0 0.0019365261280630463 -0.045054720239146973 0 0.0011384915291025707 -0.044274407503418808 0 0.00096760684892244079 -0.045028839199217491 0 0.0017514481664681841 -0.0443723169314875 0 0.0012014440524847042 -0.073380453330527798 0 0.00084411063073651035 -0.073223211718322051 0 0.0011398117622602381 -0.073481876230107823 0 0.0016376964246984373 -0.059793120627299433 0 2.4407174941589879e-05 -0.066741099228139505 0 0.0028379958247872067 -0.067767082935566963 0 0.0043801456263876893 -0.070279698734137017 0 0.0013354251519922507 -0.07152512213566535 0 0.0011398117622602381 -0.073481876230107823 0 0.00091026294502631643 -0.073639270191494396 0 0.0011492289544284716 -0.073607238386087709 0 0.0011398117622602381 -0.073481876230107823 0 0.0011492289544284716 -0.073607238386087709 0 0.00116402403670792 -0.073555697096104211 0 0.00084411063073651035 -0.073223211718322051 0 0.0011398117622602381 -0.073481876230107823 0 0.00091026294502631643 -0.073639270191494396 0 0.00091026294502631643 -0.073639270191494396 0 0.00087076734975316322 -0.073961189848751455 0 0.00044650420975594028 -0.074111016054896131 0 0.00087076734975316322 -0.073961189848751455 0 0.00078519972504068243 -0.074325462756199973 0 0.00044650420975594028 -0.074111016054896131 0 0.00087076734975316322 -0.073961189848751455 0 0.0010339928864318436 -0.073916312300400272 0 0.0010122359388752035 -0.07411273507504855 0 0.00087076734975316322 -0.073961189848751455 0 0.0010728381804361025 -0.073746972726269552 0 0.0010339928864318436 -0.073916312300400272 0 0.00091026294502631643 -0.073639270191494396 0 0.00087076734975316322 -0.073961189848751455 0 0.0010728381804361025 -0.073746972726269552 0 0.00091026294502631643 -0.073639270191494396 0 0.0011492289544284716 -0.073607238386087709 0 0.0010728381804361025 -0.073746972726269552 0 0.0011492289544284716 -0.073607238386087709 0 0.0010728381804361025 -0.073746972726269552 0 0.0012722565586761089 -0.073654650792838602 0 0.0011492289544284716 -0.073607238386087709 0 0.0012722565586761089 -0.073654650792838602 0 0.00116402403670792 -0.073555697096104211 0 0.0012722565586761089 -0.073654650792838602 0 0.00116402403670792 -0.073555697096104211 0 0.0011826810005407574 -0.073407604962600265 0 0.0027246697309955712 -0.072042221750180449 0 0.0027522183881616381 -0.071843680234543364 0 0.0012722565586761089 -0.073654650792838602 0 0.0011840845893621879 -0.073849527229418191 0 0.0014242034868324792 -0.074236606167294258 0 0.0012722565586761089 -0.073654650792838602 0 0.001391598593192293 -0.073292017201004533 0 0.0011826810005407574 -0.073407604962600265 0 0.0027514178008196028 -0.071943247744603686 0 0.0027522183881616381 -0.071843680234543364 0 0.0011840845893621879 -0.073849527229418191 0 0.0010122359388752035 -0.07411273507504855 0 0.0013162649397580938 -0.074132872761512189 0 0.0010728381804361025 -0.073746972726269552 0 0.0010339928864318436 -0.073916312300400272 0 0.0011840845893621879 -0.073849527229418191 0 0.0010728381804361025 -0.073746972726269552 0 0.0012722565586761089 -0.073654650792838602 0 0.0011840845893621879 -0.073849527229418191 0 0.0010339928864318436 -0.073916312300400272 0 0.0011840845893621879 -0.073849527229418191 0 0.0010122359388752035 -0.07411273507504855 0 0.0010122359388752035 -0.07411273507504855 0 0.0013162649397580938 -0.074132872761512189 0 0.0010537049603249024 -0.074449860260610304 0 0.0027522183881616381 -0.071843680234543364 0 0.0022885025802833209 -0.071405254189809489 0 0.0013162649397580938 -0.074132872761512189 0 0.0010537049603249024 -0.074449860260610304 0 0.0013647967463573676 -0.074788811832315172 0 0.0010537049603249024 -0.074449860260610304 0 0.00078519972504068243 -0.074325462756199973 0 0.00081622565382268313 -0.074838291960361611 0 0.00078519972504068243 -0.074325462756199973 0 0.00081622565382268313 -0.074838291960361611 0 0.00043557831550134114 -0.074482332547744626 0 0.0010122359388752035 -0.07411273507504855 0 0.0010537049603249024 -0.074449860260610304 0 0.00078519972504068243 -0.074325462756199973 0 0.00087076734975316322 -0.073961189848751455 0 0.0010122359388752035 -0.07411273507504855 0 0.00078519972504068243 -0.074325462756199973 0 0.0010611220077008175 -0.073565804631561704 0 0.00059854732156307928 -0.073280068129273415 0 0.0010012983740860515 -0.073373195443207043 0 0.00096760684892244079 -0.045028839199217491 0 0.0015209443582380807 -0.046108010660308604 0 0.0019365261280630463 -0.045054720239146973 0 0.001416094313451318 -0.059157860867575365 0 0.0015429004949538882 -0.05877356547420913 0 0.00059854732156307928 -0.073280068129273415 0 0.0010012983740860515 -0.073373195443207043 0 0.00082826199668042369 -0.073102998298825189 0 0.0010611220077008175 -0.073565804631561704 0 0.0010012983740860515 -0.073373195443207043 0 0.00116402403670792 -0.073555697096104211 0 0.0010012983740860515 -0.073373195443207043 0 0.00116402403670792 -0.073555697096104211 0 0.0011826810005407574 -0.073407604962600265 0 0.001391598593192293 -0.073292017201004533 0 0.0010946828387781036 -0.07303541404873258 0 0.00118892355794562 -0.072498513393747355 0 0.0027522183881616381 -0.071843680234543364 0 0.0028880676345423508 -0.069546720631423087 0 0.0010012983740860515 -0.073373195443207043 0 0.0011826810005407574 -0.073407604962600265 0 0.0010946828387781036 -0.07303541404873258 0 0.001391598593192293 -0.073292017201004533 0 0.0011826810005407574 -0.073407604962600265 0 0.0010946828387781036 -0.07303541404873258 0 0.0010012983740860515 -0.073373195443207043 0 0.0010946828387781036 -0.07303541404873258 0 0.00082826199668042369 -0.073102998298825189 0 0.0010946828387781036 -0.07303541404873258 0 0.00082826199668042369 -0.073102998298825189 0 0.00060790141930620856 -0.072701990579623746 0 0.00059854732156307928 -0.073280068129273415 0 0.00060790141930620856 -0.072701990579623746 0 0.00019610839474934434 -0.072667923359518646 0 0.00059854732156307928 -0.073280068129273415 0 0.00082826199668042369 -0.073102998298825189 0 0.00060790141930620856 -0.072701990579623746 0 0.00060790141930620856 -0.072701990579623746 0 0.00072859539899039244 -0.0722402411661896 0 0.00118892355794562 -0.072498513393747355 0 0.00060790141930620856 -0.072701990579623746 0 0.00072859539899039244 -0.0722402411661896 0 0.00032352806757816551 -0.072160388453186522 0 0.0010946828387781036 -0.07303541404873258 0 0.00060790141930620856 -0.072701990579623746 0 0.00118892355794562 -0.072498513393747355 0 0.0028880676345423508 -0.069546720631423087 0 0.0026511131290523926 -0.064852390430289814 0 0.0027491257195406257 -0.069380653194488329 0 0.0032621766326027864 -0.067515868963775399 0 0.001702849009554946 -0.06753365757527767 0 0.0027491257195406257 -0.069380653194488329 0 0.0032621766326027864 -0.067515868963775399 0 0.0035303661464235431 -0.069370973721731205 0 0.001578789261673806 -0.069458880599802278 0 0.0026511131290523926 -0.064852390430289814 0 0.00078211913993693157 -0.071579952639676786 0 0.00032352806757816551 -0.072160388453186522 0 0.00010285234816394486 -0.071554603341669215 0 0.00072859539899039244 -0.0722402411661896 0 0.00078211913993693157 -0.071579952639676786 0 0.00032352806757816551 -0.072160388453186522 0 0.0026511131290523926 -0.064852390430289814 0 0.0018350431872274349 -0.060800245289219901 0 0.00072859539899039244 -0.0722402411661896 0 0.00118892355794562 -0.072498513393747355 0 0.00078211913993693157 -0.071579952639676786 0 0.0037966359873896718 -0.07122945877594869 0 0.0027491257195406257 -0.069380653194488329 0 0.0035303661464235431 -0.069370973721731205 0 0.0010537049603249024 -0.074449860260610304 0 0.00081622565382268313 -0.074838291960361611 0 0.0013647967463573676 -0.074788811832315172 0 0.0014391652194303685 -0.075362654963500864 0 0.00081622565382268313 -0.074838291960361611 0 0.0013647967463573676 -0.074788811832315172 0 0.001578789261673806 -0.069458880599802278 0 0.0022885025802833209 -0.071405254189809489 0 0.0014391652194303685 -0.075362654963500864 0 0.00081622565382268313 -0.074838291960361611 0 0.00065055236750848869 -0.075371897021530271 0 0.00081622565382268313 -0.074838291960361611 0 0.00037293312488329374 -0.074917145684906469 0 0.00065055236750848869 -0.075371897021530271 0 0.00037293312488329374 -0.074917145684906469 0 -9.1370090340800637e-05 -0.075374666735443241 0 0.00065055236750848869 -0.075371897021530271 0 0.00081622565382268313 -0.074838291960361611 0 0.00037293312488329374 -0.074917145684906469 0 0.00043557831550134114 -0.074482332547744626 0 0.00037293312488329374 -0.074917145684906469 0 0.00010909917508707187 -0.074658562040940249 0 0.00043557831550134114 -0.074482332547744626 0 0.00010204502393163464 -0.07471994161047095 0 -4.6226361696576519e-05 -0.074896947372527486 0 -4.7641327039758278e-05 -0.07465342824316884 0 1.1051684257282948e-05 -0.074987852840175645 0 8.9267807190896176e-06 -0.074994418829058468 0 1.9829803966478565e-06 -0.074994474814565504 0 0.00014322447765477073 -0.074771735890904356 0 1.2865793427287131e-05 -0.074920037431747938 0 0.00014322447765477073 -0.074771735890904356 0 0.00014334187185238611 -0.074770789403347096 0 0.00014322447765477073 -0.074771735890904356 0 0.00015616849901782781 -0.074676766369014796 0 0.00037293312488329374 -0.074917145684906469 0 0.00010909917508707187 -0.074658562040940249 0 8.6137755557011442e-06 -0.075012605791059783 0 0.00037293312488329374 -0.074917145684906469 0 8.6137755557011442e-06 -0.075012605791059783 0 -9.1370090340800637e-05 -0.075374666735443241 0 0.00015616849901782781 -0.074676766369014796 0 0.00026034751942431657 -0.074287805160102069 0 8.9267807190896176e-06 -0.074994418829058468 0 4.5045404533343255e-06 -0.074996442035487415 0 7.0313162531798813e-06 -0.074999367715236812 0 4.5045404533343255e-06 -0.074996442035487415 0 1.9829803966478565e-06 -0.074994474814565504 0 1.5456852389992993e-06 -0.074999188554174243 0 1.9829803966478565e-06 -0.074994474814565504 0 7.6535405745689307e-07 -0.07499943817844433 0 1.5456852389992993e-06 -0.074999188554174243 0 4.5045404533343255e-06 -0.074996442035487415 0 1.5456852389992993e-06 -0.074999188554174243 0 7.0313162531798813e-06 -0.074999367715236812 0 8.9267807190896176e-06 -0.074994418829058468 0 4.5045404533343255e-06 -0.074996442035487415 0 1.9829803966478565e-06 -0.074994474814565504 0 -5.3762936045453941e-08 -0.074999879497697958 0 1.2865793427287131e-05 -0.074920037431747938 0 -3.2520640114569458e-09 -0.07499999505975985 0 1.9829803966478565e-06 -0.074994474814565504 0 7.6535405745689307e-07 -0.07499943817844433 0 1.2179816630900046e-07 -0.074999965360954504 0 -4.6226361696576519e-05 -0.074896947372527486 0 -3.0184759202282883e-07 -0.074999744910519361 0 -4.6226361696576519e-05 -0.074896947372527486 0 -4.7641327039758278e-05 -0.07465342824316884 0 -3.0184759202282883e-07 -0.074999744910519361 0 -4.7641327039758278e-05 -0.07465342824316884 0 -3.0184759202282883e-07 -0.074999744910519361 0 -0.00014597250832289272 -0.074496569748883842 0 1.3039768237732653e-08 -0.074998167676212174 0 -3.0184759202282883e-07 -0.074999744910519361 0 -0.00014597250832289272 -0.074496569748883842 0 -4.7641327039758278e-05 -0.07465342824316884 0 -0.00014597250832289272 -0.074496569748883842 0 4.1053785440811964e-06 -0.074258238941474472 0 -0.00018516281037400412 -0.073288053469857048 0 -0.00014597250832289272 -0.074496569748883842 0 4.1053785440811964e-06 -0.074258238941474472 0 -0.00018516281037400412 -0.073288053469857048 0 4.1053785440811964e-06 -0.074258238941474472 0 0.00044650420975594028 -0.074111016054896131 0 4.1053785440811964e-06 -0.074258238941474472 0 0.00044650420975594028 -0.074111016054896131 0 0.00017145882775911227 -0.074442266407900512 0 0.00044650420975594028 -0.074111016054896131 0 0.00043557831550134114 -0.074482332547744626 0 0.00017145882775911227 -0.074442266407900512 0 0.00078519972504068243 -0.074325462756199973 0 0.00044650420975594028 -0.074111016054896131 0 0.00043557831550134114 -0.074482332547744626 0 0.00010342276862465629 -0.074748628388688537 0 0.00043557831550134114 -0.074482332547744626 0 0.00011831905609348747 -0.074677118304119619 0 0.00043557831550134114 -0.074482332547744626 0 0.00011831905609348747 -0.074677118304119619 0 0.00017145882775911227 -0.074442266407900512 0 0.00014322447765477073 -0.074771735890904356 0 0.0002049408479812272 -0.074727037110576267 0 -4.7641327039758278e-05 -0.07465342824316884 0 0.00011831905609348747 -0.074677118304119619 0 0.00017145882775911227 -0.074442266407900512 0 0.00010204502393163464 -0.07471994161047095 0 -4.7641327039758278e-05 -0.07465342824316884 0 0.00011831905609348747 -0.074677118304119619 0 -4.7641327039758278e-05 -0.07465342824316884 0 4.1053785440811964e-06 -0.074258238941474472 0 0.00017145882775911227 -0.074442266407900512 0 0.0024116291860024832 -0.038617683756774934 0 0.0034092265067232966 -0.036748275073945846 0 0.0010796338913689528 -0.037634276477394271 0 0.0012834258317734608 -0.036430277973125064 0 0.00071329102587023717 -0.037241401328742957 0 -0.0002588884804256496 -0.04198553137823284 0 0.00031428056257183439 -0.041893634340677291 0 0.00016732322751849892 -0.042167228447214621 0 -0.0002588884804256496 -0.04198553137823284 0 -0.0001515570071277523 -0.042052353163351201 0 0.00016732322751849892 -0.042167228447214621 0 -0.0002588884804256496 -0.04198553137823284 0 -0.00014927478163508635 -0.041847873856552975 0 -0.0001515570071277523 -0.042052353163351201 0 -0.0002588884804256496 -0.04198553137823284 0 -0.00023966472001873924 -0.041397164906783128 0 -0.00038760265750197622 -0.042131532533194127 0 -0.0002588884804256496 -0.04198553137823284 0 -0.00023966472001873924 -0.041397164906783128 0 0.00031428056257183439 -0.041893634340677291 0 0.0024116291860024832 -0.038617683756774934 0 0.0020786309278019509 -0.038958070067164015 0 -0.00023966472001873924 -0.041397164906783128 0 0.00031428056257183439 -0.041893634340677291 0 0.00030519524213580747 -0.039658189438258606 0 0.0010796338913689528 -0.037634276477394271 0 0.00030519524213580747 -0.039658189438258606 0 0.00010960122451384757 -0.038188756398621168 0 0.00030519524213580747 -0.039658189438258606 0 -8.7887617849329658e-07 -0.038504130224355969 0 -0.00026298874339017106 -0.041286482522941738 0 0.00030519524213580747 -0.039658189438258606 0 -8.7887617849329658e-07 -0.038504130224355969 0 -4.8704658958396001e-05 -0.03764243892739063 0 -8.7887617849329658e-07 -0.038504130224355969 0 -0.00026298874339017106 -0.041286482522941738 0 -7.7713886904686602e-07 -0.042620295947462784 0 -0.00023966472001873924 -0.041397164906783128 0 0.00030519524213580747 -0.039658189438258606 0 -0.00026298874339017106 -0.041286482522941738 0 -0.00023966472001873924 -0.041397164906783128 0 -0.00026298874339017106 -0.041286482522941738 0 -0.00038760265750197622 -0.042131532533194127 0 -0.00038760265750197622 -0.042131532533194127 0 -0.00016307294972476389 -0.043437840537031785 0 -4.9022857622991056e-05 -0.043178501770691727 0 -0.00026298874339017106 -0.041286482522941738 0 -0.00038760265750197622 -0.042131532533194127 0 -0.00016307294972476389 -0.043437840537031785 0 -7.7713886904686602e-07 -0.042620295947462784 0 -0.00016307294972476389 -0.043437840537031785 0 9.825593020865891e-07 -0.046735674373335395 0 -0.00026298874339017106 -0.041286482522941738 0 -7.7713886904686602e-07 -0.042620295947462784 0 -0.00016307294972476389 -0.043437840537031785 0 -0.00016307294972476389 -0.043437840537031785 0 9.825593020865891e-07 -0.046735674373335395 0 0.00031690911049996626 -0.045101234530683661 0 0.00031690911049996626 -0.045101234530683661 0 -4.9022857622991056e-05 -0.043178501770691727 0 0.0011762242040289166 -0.043686624295615449 0 -0.00016307294972476389 -0.043437840537031785 0 0.00031690911049996626 -0.045101234530683661 0 -4.9022857622991056e-05 -0.043178501770691727 0 -4.9022857622991056e-05 -0.043178501770691727 0 0.00055171335898587901 -0.042685963756169308 0 0.0011762242040289166 -0.043686624295615449 0 0.00055171335898587901 -0.042685963756169308 0 0.00039302655268758573 -0.041992037599823305 0 0.0010511276179117806 -0.04226311869788326 0 0.00055171335898587901 -0.042685963756169308 0 -0.00016848483948666244 -0.0422488