<?xml version="1.0"?>
<VTKFile type="UnstructuredGrid" version="0.1" byte_order="LittleEndian">
<UnstructuredGrid>
<Piece NumberOfPoints="31898" NumberOfCells="11152">
<Points>
<DataArray type="Float64" NumberOfComponents="3" format="ascii">
-0.5 -0.5 0 -0.47620991077874902 -0.44978878706170539 0 -0.49999999999999473 -0.42132396840504388 0 -0.5 -0.5 0 -0.47160970827802529 -0.4793630013852106 0 -0.47620991077874902 -0.44978878706170539 0 -0.5 -0.5 0 -0.47160970827802529 -0.4793630013852106 0 -0.44860394795025399 -0.5 0 -0.47160970827802529 -0.4793630013852106 0 -0.44860394795025399 -0.5 0 -0.4490820238307246 -0.45820516232899983 0 -0.44860394795025399 -0.5 0 -0.4490820238307246 -0.45820516232899983 0 -0.42881687682924802 -0.47781464288736519 0 -0.4490820238307246 -0.45820516232899983 0 -0.45555437223955858 -0.42914059360647611 0 -0.4490820238307246 -0.45820516232899983 0 -0.45555437223955858 -0.42914059360647611 0 -0.43867285131603428 -0.4271457417558665 0 -0.4490820238307246 -0.45820516232899983 0 -0.43867285131603428 -0.4271457417558665 0 -0.4263356171060747 -0.44269880333887462 0 -0.47160970827802529 -0.4793630013852106 0 -0.4490820238307246 -0.45820516232899983 0 -0.47620991077874902 -0.44978878706170539 0 -0.4490820238307246 -0.45820516232899983 0 -0.47620991077874902 -0.44978878706170539 0 -0.45555437223955858 -0.42914059360647611 0 -0.47620991077874902 -0.44978878706170539 0 -0.48101336032419229 -0.41069999664450008 0 -0.45555437223955858 -0.42914059360647611 0 -0.47620991077874902 -0.44978878706170539 0 -0.49999999999999473 -0.42132396840504388 0 -0.48101336032419229 -0.41069999664450008 0 -0.49999999999999473 -0.42132396840504388 0 -0.48101336032419229 -0.41069999664450008 0 -0.5 -0.393886241813306 0 -0.49999999999999473 -0.42132396840504388 0 -0.48101336032419229 -0.41069999664450008 0 -0.5 -0.393886241813306 0 -0.47854472220918332 -0.38978458738689759 0 -0.48422759779560409 -0.37130120630367158 0 -0.5 -0.393886241813306 0 -0.5 -0.36644851522156802 0 -0.48422759779560409 -0.37130120630367158 0 -0.48101336032419229 -0.41069999664450008 0 -0.5 -0.393886241813306 0 -0.47854472220918332 -0.38978458738689759 0 -0.48101336032419229 -0.41069999664450008 0 -0.47854472220918332 -0.38978458738689759 0 -0.46202672064839212 -0.40007602488395211 0 -0.48101336032419229 -0.41069999664450008 0 -0.46202672064839212 -0.40007602488395211 0 -0.47854472220918332 -0.38978458738689759 0 -0.46725442735267431 -0.37660061361585562 0 -0.46202672064839212 -0.40007602488395211 0 -0.47854472220918332 -0.38978458738689759 0 -0.46725442735267431 -0.37660061361585562 0 -0.48422759779560409 -0.37130120630367158 0 -0.46725442735267431 -0.37660061361585562 0 -0.46202672064839212 -0.40007602488395211 0 -0.46725442735267431 -0.37660061361585562 0 -0.45645674801697989 -0.38644133236760531 0 -0.46202672064839212 -0.40007602488395211 0 -0.46725442735267431 -0.37660061361585562 0 -0.45645674801697989 -0.38644133236760531 0 -0.4540003998136638 -0.37455519391687309 0 -0.45645674801697989 -0.38644133236760531 0 -0.46202672064839212 -0.40007602488395211 0 -0.44257020456291563 -0.38918913383950271 0 -0.46202672064839212 -0.40007602488395211 0 -0.44257020456291563 -0.38918913383950271 0 -0.44727608925983742 -0.41095911152778891 0 -0.46202672064839212 -0.40007602488395211 0 -0.44257020456291563 -0.38918913383950271 0 -0.44257020456291563 -0.38918913383950271 0 -0.44727608925983742 -0.41095911152778891 0 -0.43479358559901082 -0.4041454901736512 0 -0.44257020456291563 -0.38918913383950271 0 -0.4540003998136638 -0.37455519391687309 0 -0.44172858264042247 -0.37082207246888088 0 -0.45645674801697989 -0.38644133236760531 0 -0.44257020456291563 -0.38918913383950271 0 -0.4540003998136638 -0.37455519391687309 0 -0.46202672064839212 -0.40007602488395211 0 -0.45555437223955858 -0.42914059360647611 0 -0.44727608925983742 -0.41095911152778891 0 -0.46202672064839212 -0.40007602488395211 0 -0.45555437223955858 -0.42914059360647611 0 -0.48101336032419229 -0.41069999664450008 0 -0.46202672064839212 -0.40007602488395211 0 -0.45555437223955858 -0.42914059360647611 0 -0.44727608925983742 -0.41095911152778891 0 -0.43867285131603428 -0.4271457417558665 0 -0.43676601469929588 -0.41441201227470881 0 -0.44727608925983742 -0.41095911152778891 0 -0.43676601469929588 -0.41441201227470881 0 -0.43479358559901082 -0.4041454901736512 0 -0.45555437223955858 -0.42914059360647611 0 -0.44727608925983742 -0.41095911152778891 0 -0.43867285131603428 -0.4271457417558665 0 -0.43867285131603428 -0.4271457417558665 0 -0.42681803064840879 -0.42717069814352421 0 -0.4263356171060747 -0.44269880333887462 0 -0.42681803064840879 -0.42717069814352421 0 -0.41531815884496182 -0.42985383783075998 0 -0.4263356171060747 -0.44269880333887462 0 -0.42681803064840879 -0.42717069814352421 0 -0.42624289495594048 -0.42089725947505818 0 -0.42083332353326591 -0.42146747131641099 0 -0.42681803064840879 -0.42717069814352421 0 -0.43096994786351572 -0.41951492446283251 0 -0.42624289495594048 -0.42089725947505818 0 -0.43867285131603428 -0.4271457417558665 0 -0.42681803064840879 -0.42717069814352421 0 -0.43096994786351572 -0.41951492446283251 0 -0.43867285131603428 -0.4271457417558665 0 -0.43676601469929588 -0.41441201227470881 0 -0.43096994786351572 -0.41951492446283251 0 -0.43676601469929588 -0.41441201227470881 0 -0.43096994786351572 -0.41951492446283251 0 -0.42907264086257813 -0.41311715872526122 0 -0.43676601469929588 -0.41441201227470881 0 -0.42907264086257813 -0.41311715872526122 0 -0.43479358559901082 -0.4041454901736512 0 -0.42907264086257813 -0.41311715872526122 0 -0.43479358559901082 -0.4041454901736512 0 -0.42460885511582858 -0.40417321677700252 0 -0.42907264086257813 -0.41311715872526122 0 -0.41997834854398469 -0.41180534796019508 0 -0.42907264086257813 -0.41311715872526122 0 -0.42635027777857132 -0.41543594397746519 0 -0.41997834854398469 -0.41180534796019508 0 -0.42907264086257813 -0.41311715872526122 0 -0.41997834854398469 -0.41180534796019508 0 -0.42460885511582858 -0.40417321677700252 0 -0.42635027777857132 -0.41543594397746519 0 -0.41997834854398469 -0.41180534796019508 0 -0.42635027777857132 -0.41543594397746519 0 -0.42083332353326591 -0.42146747131641099 0 -0.41997834854398469 -0.41180534796019508 0 -0.43096994786351572 -0.41951492446283251 0 -0.42624289495594048 -0.42089725947505818 0 -0.42635027777857132 -0.41543594397746519 0 -0.43096994786351572 -0.41951492446283251 0 -0.42907264086257813 -0.41311715872526122 0 -0.42635027777857132 -0.41543594397746519 0 -0.42624289495594048 -0.42089725947505818 0 -0.42635027777857132 -0.41543594397746519 0 -0.42083332353326591 -0.42146747131641099 0 -0.42083332353326591 -0.42146747131641099 0 -0.41997834854398469 -0.41180534796019508 0 -0.40992282953163789 -0.42011435591993562 0 -0.41997834854398469 -0.41180534796019508 0 -0.39756877647335259 -0.40857286797681719 0 -0.41997834854398469 -0.41180534796019508 0 -0.40992282953163789 -0.42011435591993562 0 -0.39756877647335259 -0.40857286797681719 0 -0.40992282953163789 -0.42011435591993562 0 -0.41531815884496182 -0.42985383783075998 0 -0.39591554026262499 -0.42887225451549271 0 -0.41531815884496182 -0.42985383783075998 0 -0.39591554026262499 -0.42887225451549271 0 -0.41160927495564159 -0.44339431233754628 0 -0.42083332353326591 -0.42146747131641099 0 -0.40992282953163789 -0.42011435591993562 0 -0.41531815884496182 -0.42985383783075998 0 -0.42681803064840879 -0.42717069814352421 0 -0.42083332353326591 -0.42146747131641099 0 -0.41531815884496182 -0.42985383783075998 0 -0.44257020456291563 -0.38918913383950271 0 -0.42311368847744002 -0.37830224279505142 0 -0.42594061475171041 -0.39368797999533162 0 -0.44257020456291563 -0.38918913383950271 0 -0.42311368847744002 -0.37830224279505142 0 -0.44172858264042247 -0.37082207246888088 0 -0.44257020456291563 -0.38918913383950271 0 -0.42311368847744002 -0.37830224279505142 0 -0.42311368847744002 -0.37830224279505142 0 -0.42594061475171041 -0.39368797999533162 0 -0.416587075656149 -0.38785930376960043 0 -0.44257020456291563 -0.38918913383950271 0 -0.42594061475171041 -0.39368797999533162 0 -0.43479358559901082 -0.4041454901736512 0 -0.42594061475171041 -0.39368797999533162 0 -0.43479358559901082 -0.4041454901736512 0 -0.42460885511582858 -0.40417321677700252 0 -0.41997834854398469 -0.41180534796019508 0 -0.41325908582185972 -0.39811010703057192 0 -0.39770572831670092 -0.39911486077581648 0 -0.41997834854398469 -0.41180534796019508 0 -0.39770572831670092 -0.39911486077581648 0 -0.42594061475171041 -0.39368797999533162 0 -0.42460885511582858 -0.40417321677700252 0 -0.41325908582185972 -0.39811010703057192 0 -0.41997834854398469 -0.41180534796019508 0 -0.42460885511582858 -0.40417321677700252 0 -0.41325908582185972 -0.39811010703057192 0 -0.42594061475171041 -0.39368797999533162 0 -0.41325908582185972 -0.39811010703057192 0 -0.416587075656149 -0.38785930376960043 0 -0.41325908582185972 -0.39811010703057192 0 -0.416587075656149 -0.38785930376960043 0 -0.40403491357358612 -0.38133688525744702 0 -0.42311368847744002 -0.37830224279505142 0 -0.40403491357358612 -0.38133688525744702 0 -0.40365717239196519 -0.36741535175059892 0 -0.42311368847744002 -0.37830224279505142 0 -0.416587075656149 -0.38785930376960043 0 -0.40403491357358612 -0.38133688525744702 0 -0.40403491357358612 -0.38133688525744702 0 -0.39190790742475001 -0.38540387676521748 0 -0.39770572831670092 -0.39911486077581648 0 -0.40403491357358612 -0.38133688525744702 0 -0.39190790742475001 -0.38540387676521748 0 -0.3904578797192948 -0.37473938743617019 0 -0.41325908582185972 -0.39811010703057192 0 -0.40403491357358612 -0.38133688525744702 0 -0.39770572831670092 -0.39911486077581648 0 -0.39770572831670092 -0.39911486077581648 0 -0.37543310808941849 -0.38642437359143528 0 -0.39770572831670092 -0.39911486077581648 0 -0.37515920440272033 -0.40534038799344108 0 -0.37543310808941849 -0.38642437359143528 0 -0.39770572831670092 -0.39911486077581648 0 -0.37515920440272033 -0.40534038799344108 0 -0.39756877647335259 -0.40857286797681719
[...]
<PointData Scalars="" Vectors="displacement," Tensors="">
<DataArray type="Float64" Name="displacement" NumberOfComponents="3" format="ascii">
-0.074993829287944722 -5.736899228835698e-07 0 -0.073102555587802501 -0.00038082771766518198 0 -0.074994978206587681 -1.5886380233861224e-06 0 -0.074993829287944722 -5.736899228835698e-07 0 -0.071717617761951805 -0.00025240203235039985 0 -0.073102555587802501 -0.00038082771766518198 0 -0.074993829287944722 -5.736899228835698e-07 0 -0.071717617761951805 -0.00025240203235039985 0 -0.067294736924363441 -5.562640290540311e-07 0 -0.071717617761951805 -0.00025240203235039985 0 -0.067294736924363441 -5.562640290540311e-07 0 -0.070380857999412086 0.00017632683298845101 0 -0.067294736924363441 -5.562640290540311e-07 0 -0.070380857999412086 0.00017632683298845101 0 -0.06687599617011955 -0.00014444644182408983 0 -0.07108806687508111 0.00046945526025408708 0 -0.071458433893724763 0.00047103923869103994 0 -0.070380857999412086 0.00017632683298845101 0 -0.06908321369581584 0.00074739990614077054 0 -0.068964899595297266 0.00024036078184497159 0 -0.070380857999412086 0.00017632683298845101 0 -0.068964899595297266 0.00024036078184497159 0 -0.069081481700135713 2.3176008209181175e-05 0 -0.071717617761951805 -0.00025240203235039985 0 -0.070380857999412086 0.00017632683298845101 0 -0.073102555587802501 -0.00038082771766518198 0 -0.070380857999412086 0.00017632683298845101 0 -0.073102555587802501 -0.00038082771766518198 0 -0.073807261556173606 0.00058090094960048177 0 -0.073102555587802501 -0.00038082771766518198 0 -0.074752990706561995 -6.1241485923971774e-05 0 -0.073807261556173606 0.00058090094960048177 0 -0.073102555587802501 -0.00038082771766518198 0 -0.074994978206587681 -1.5886380233861224e-06 0 -0.074752990706561995 -6.1241485923971774e-05 0 -0.074999997447711478 2.1402355140149971e-10 0 -0.074996830535367237 -9.0240270710354523e-07 0 -0.074999996123934792 -1.1576110501145013e-09 0 -0.074997691436379396 9.0846913956804923e-07 0 -0.073858072240316833 0.00028993898519816421 0 -0.074999996123934792 -1.1576110501145013e-09 0 -0.074996258048118353 -1.64535943306582e-06 0 -0.074998413422395521 -2.6854808317731746e-06 0 -0.074999996123934792 -1.1576110501145013e-09 0 -0.074999993609868185 -4.0632418876735753e-09 0 -0.074998413422395521 -2.6854808317731746e-06 0 -0.074996830535367237 -9.0240270710354523e-07 0 -0.074999996123934792 -1.1576110501145013e-09 0 -0.074996258048118353 -1.64535943306582e-06 0 -0.074996830535367237 -9.0240270710354523e-07 0 -0.074996258048118353 -1.64535943306582e-06 0 -0.074992176028857077 -1.2924883192318695e-06 0 -0.073858072240316833 0.00028993898519816421 0 -0.072098663898304757 0.00034434913473993376 0 -0.074996258048118353 -1.64535943306582e-06 0 -0.074995366122847101 -1.7749248936132594e-06 0 -0.074992176028857077 -1.2924883192318695e-06 0 -0.074996258048118353 -1.64535943306582e-06 0 -0.074995366122847101 -1.7749248936132594e-06 0 -0.074998413422395521 -2.6854808317731746e-06 0 -0.073230210185226519 0.00014354463563473035 0 -0.072098663898304757 0.00034434913473993376 0 -0.071755116838409155 0.0003133220631991229 0 -0.071362515839852855 0.00077654630111682389 0 -0.070803892861661832 0.00054968566193459173 0 -0.071755116838409155 0.0003133220631991229 0 -0.071362515839852855 0.00077654630111682389 0 -0.071862473985090297 0.00088851748411372243 0 -0.071362515839852855 0.00077654630111682389 0 -0.070803892861661832 0.00054968566193459173 0 -0.071259358956070371 0.0013479617088826914 0 -0.068408331975054693 0.00087627035016286188 0 -0.068149811129888507 0.0004504143176401001 0 -0.068658494269860981 0.00052847478246239189 0 -0.072098663898304757 0.00034434913473993376 0 -0.070245549581358424 0.00081173768498793181 0 -0.068149811129888507 0.0004504143176401001 0 -0.068658494269860981 0.00052847478246239189 0 -0.068514081175982511 0.00026693808313456692 0 -0.071259358956070371 0.0013479617088826914 0 -0.071862473985090297 0.00088851748411372243 0 -0.072014011561968225 0.0013844868541256082 0 -0.071362515839852855 0.00077654630111682389 0 -0.071259358956070371 0.0013479617088826914 0 -0.071862473985090297 0.00088851748411372243 0 -0.068408331975054693 0.00087627035016286188 0 -0.06908321369581584 0.00074739990614077054 0 -0.068658494269860981 0.00052847478246239189 0 -0.072098663898304757 0.00034434913473993376 0 -0.071458433893724763 0.00047103923869103994 0 -0.074752990706561995 -6.1241485923971774e-05 0 -0.075015648835113524 0.00051792746112701217 0 -0.073807261556173606 0.00058090094960048177 0 -0.068658494269860981 0.00052847478246239189 0 -0.068964899595297266 0.00024036078184497159 0 -0.068762321737504864 0.00028979682600776998 0 -0.068658494269860981 0.00052847478246239189 0 -0.068762321737504864 0.00028979682600776998 0 -0.068514081175982511 0.00026693808313456692 0 -0.06908321369581584 0.00074739990614077054 0 -0.068658494269860981 0.00052847478246239189 0 -0.068964899595297266 0.00024036078184497159 0 -0.068964899595297266 0.00024036078184497159 0 -0.068963379670938157 0.00014473703238696221 0 -0.069081481700135713 2.3176008209181175e-05 0 -0.068963379670938157 0.00014473703238696221 0 -0.068976061016540122 0.00023938486801544607 0 -0.069081481700135713 2.3176008209181175e-05 0 -0.068963379670938157 0.00014473703238696221 0 -0.06890848829508231 0.0001551349142834635 0 -0.068929171777927623 0.00018097354501334109 0 -0.068963379670938157 0.00014473703238696221 0 -0.068878973240894689 0.00018571606928557854 0 -0.06890848829508231 0.0001551349142834635 0 -0.068964899595297266 0.00024036078184497159 0 -0.068963379670938157 0.00014473703238696221 0 -0.068878973240894689 0.00018571606928557854 0 -0.068964899595297266 0.00024036078184497159 0 -0.068762321737504864 0.00028979682600776998 0 -0.068878973240894689 0.00018571606928557854 0 -0.068762321737504864 0.00028979682600776998 0 -0.068878973240894689 0.00018571606928557854 0 -0.068775053099334765 0.00015802778575611611 0 -0.068762321737504864 0.00028979682600776998 0 -0.068775053099334765 0.00015802778575611611 0 -0.068514081175982511 0.00026693808313456692 0 -0.068775053099334765 0.00015802778575611611 0 -0.068514081175982511 0.00026693808313456692 0 -0.068512280079815011 2.0939018232881222e-05 0 -0.061919263062956607 0.0017499439153107886 0 -0.061694764749522013 0.001871949554827628 0 -0.068775053099334765 0.00015802778575611611 0 -0.068858058861171245 0.00012889411280768846 0 -0.068789895901067794 1.1618284800935789e-05 0 -0.068775053099334765 0.00015802778575611611 0 -0.068718128936105335 -0.00010013850400878064 0 -0.068512280079815011 2.0939018232881222e-05 0 -0.061908731772022454 0.0019435456758924552 0 -0.061694764749522013 0.001871949554827628 0 -0.068858058861171245 0.00012889411280768846 0 -0.068929171777927623 0.00018097354501334109 0 -0.068946749300270657 0.00019103884308036855 0 -0.068878973240894689 0.00018571606928557854 0 -0.06890848829508231 0.0001551349142834635 0 -0.068858058861171245 0.00012889411280768846 0 -0.068878973240894689 0.00018571606928557854 0 -0.068775053099334765 0.00015802778575611611 0 -0.068858058861171245 0.00012889411280768846 0 -0.06890848829508231 0.0001551349142834635 0 -0.068858058861171245 0.00012889411280768846 0 -0.068929171777927623 0.00018097354501334109 0 -0.068929171777927623 0.00018097354501334109 0 -0.068946749300270657 0.00019103884308036855 0 -0.068945317133906239 0.00025114948474217044 0 -0.061694764749522013 0.001871949554827628 0 -0.060041432695791382 0.0014711300447187254 0 -0.068946749300270657 0.00019103884308036855 0 -0.068945317133906239 0.00025114948474217044 0 -0.068972844839968364 0.00031903229451348621 0 -0.068945317133906239 0.00025114948474217044 0 -0.068976061016540122 0.00023938486801544607 0 -0.06891711427491945 0.00033859160521454657 0 -0.068976061016540122 0.00023938486801544607 0 -0.06891711427491945 0.00033859160521454657 0 -0.068929430906437231 0.00038606140701583243 0 -0.068929171777927623 0.00018097354501334109 0 -0.068945317133906239 0.00025114948474217044 0 -0.068976061016540122 0.00023938486801544607 0 -0.068963379670938157 0.00014473703238696221 0 -0.068929171777927623 0.00018097354501334109 0 -0.068976061016540122 0.00023938486801544607 0 -0.068149811129888507 0.0004504143176401001 0 -0.067826787129622396 -1.6848547693184661e-05 0 -0.068237861039111308 5.1918899464985973e-05 0 -0.071259358956070371 0.0013479617088826914 0 -0.071709891629302483 0.0021160636751789406 0 -0.072014011561968225 0.0013844868541256082 0 -0.070245549581358424 0.00081173768498793181 0 -0.068805971602253338 0.0015673245699027419 0 -0.067826787129622396 -1.6848547693184661e-05 0 -0.068237861039111308 5.1918899464985973e-05 0 -0.068069707607961868 -0.00018521339594864823 0 -0.068149811129888507 0.0004504143176401001 0 -0.068237861039111308 5.1918899464985973e-05 0 -0.068514081175982511 0.00026693808313456692 0 -0.068237861039111308 5.1918899464985973e-05 0 -0.068514081175982511 0.00026693808313456692 0 -0.068512280079815011 2.0939018232881222e-05 0 -0.068718128936105335 -0.00010013850400878064 0 -0.068343170197090852 -0.00027403102240589218 0 -0.068362451809878072 -0.00069017274523850705 0 -0.061694764749522013 0.001871949554827628 0 -0.060296289733065819 0.0020801341192226226 0 -0.068237861039111308 5.1918899464985973e-05 0 -0.068512280079815011 2.0939018232881222e-05 0 -0.068343170197090852 -0.00027403102240589218 0 -0.068718128936105335 -0.00010013850400878064 0 -0.068512280079815011 2.0939018232881222e-05 0 -0.068343170197090852 -0.00027403102240589218 0 -0.068237861039111308 5.1918899464985973e-05 0 -0.068343170197090852 -0.00027403102240589218 0 -0.068069707607961868 -0.00018521339594864823 0 -0.068343170197090852 -0.00027403102240589218 0 -0.068069707607961868 -0.00018521339594864823 0 -0.067872320890061261 -0.00050503823397522317 0 -0.067826787129622396 -1.6848547693184661e-05 0 -0.067872320890061261 -0.00050503823397522317 0 -0.067523756385102052 -0.00050983454256345784 0 -0.067826787129622396 -1.6848547693184661e-05 0 -0.068069707607961868 -0.00018521339594864823 0 -0.067872320890061261 -0.00050503823397522317 0 -0.067872320890061261 -0.00050503823397522317 0 -0.067967394496917494 -0.00086179227928907148 0 -0.068362451809878072 -0.00069017274523850705 0 -0.067872320890061261 -0.00050503823397522317 0 -0.067967394496917494 -0.00086179227928907148 0 -0.067645401590216439 -0.00090597066779130671 0 -0.068343170197090852 -0.00027403102240589218 0 -0.067872320890061261 -0.00050503823397522317 0 -0.068362451809878072 -0.00069017274523850705 0 -0.060296289733065819 0.0020801341192226226 0 -0.0565610924496655 0.0023985145000070675 0 -0.058845341442297035 0.001849116787966191 0 -0.059041384885387974 0.0011171734305183256 0 -0.05842662675371018 0.0011269287949840598 0 -0.058845341442297035 0.001849116787966191 0 -0.059041384885387974 0.0011171734305183256 0 -0.059153189195875262 0.0018443119394798066 0 -0.056572104678888332 0.00091601605069232801 0 -0.0565610924496655 0.0023985145000070675 0 -0.06798410868448107 -0.0013517914098881718 0 -0.067645401590216439 -0.00090597066779130671 0 -0.067462055088897785 -0.0013538779494733613 0 -0.067967394496917494 -0.00086179227928907148 0 -0.06798410868448107 -0.0013517914098881718 0 -0.067645401590216439 -0.00090597066779130671 0 -0.0565610924496655 0.0023985145000070675 0 -0.059909405057978295 0.0022101337335045956 0 -0.067967394496917494 -0.00086179227928907148 0 -0.068362451809878072 -0.00069017274523850705 0 -0.06798410868448107 -0.0013517914098881718 0 -0.059267929200612572 0.0025702127456367994 0 -0.058845341442297035 0.001849116787966191 0 -0.059153189195875262 0.0018443119394798066 0 -0.068945317133906239 0.00025114948474217044 0 -0.06891711427491945 0.00033859160521454657 0 -0.068972844839968364 0.00031903229451348621 0 -0.068952431688707572 0.0003891146277109296 0 -0.06891711427491945 0.00033859160521454657 0 -0.068972844839968364 0.00031903229451348621 0 -0.056572104678888332 0.00091601605069232801 0 -0.060041432695791382 0.0014711300447187254 0 -0.068952431688707572 0.0003891146277109296 0 -0.06891711427491945 0.00033859160521454657 0 -0.068889580492226626 0.00039394551219638051 0 -0.06891711427491945 0.00033859160521454657 0 -0.068889290307783332 0.00036490889133291811 0 -0.068889580492226626 0.00039394551219638051 0 -0.068889290307783332 0.00036490889133291811 0 -0.06882416086678203 0.0004064320787867501 0 -0.068889580492226626 0.00039394551219638051 0 -0.06891711427491945 0.00033859160521454657 0 -0.068889290307783332 0.00036490889133291811 0 -0.068929430906437231 0.00038606140701583243 0 -0.068889290307783332 0.00036490889133291811 0 -0.068878902016527507 0.00036488506472505812 0 -0.068929430906437231 0.00038606140701583243 0 -0.067894963999463986 0.0013293768289986466 0 -0.063648713274888885 0.0015740993369014269 0 -0.066571371901896478 0.00045713062076646111 0 -0.050930665047561101 0.0035509545790547172 0 -0.051384069848797842 0.0018272362029689581 0 -0.05340935279511707 0.002247833172193799 0 -0.060652829551887666 -0.0012044967156424659 0 -0.058719479516981914 -9.3218838247907895e-05 0 -0.060652829551887666 -0.0012044967156424659 0 -0.060672830547053892 -0.0011971495966932467 0 -0.060652829551887666 -0.0012044967156424659 0 -0.059015352665091919 0.00037741079872884522 0 -0.068889290307783332 0.00036490889133291811 0 -0.068878902016527507 0.00036488506472505812 0 -0.068848900272855479 0.0003755955064371053 0 -0.068889290307783332 0.00036490889133291811 0 -0.068848900272855479 0.0003755955064371053 0 -0.06882416086678203 0.0004064320787867501 0 -0.059015352665091919 0.00037741079872884522 0 -0.057234710070866307 0.0015532052211818393 0 -0.051384069848797842 0.0018272362029689581 0 -0.052556774981874922 0.0011932137413258731 0 -0.051842814515924637 5.9226355043590317e-05 0 -0.052556774981874922 0.0011932137413258731 0 -0.05340935279511707 0.002247833172193799 0 -0.053228475179130014 1.6413200961698444e-05 0 -0.05340935279511707 0.002247833172193799 0 -0.054709459274056446 -0.00027162418892045202 0 -0.053228475179130014 1.6413200961698444e-05 0 -0.052556774981874922 0.0011932137413258731 0 -0.053228475179130014 1.6413200961698444e-05 0 -0.051842814515924637 5.9226355043590317e-05 0 -0.051384069848797842 0.0018272362029689581 0 -0.052556774981874922 0.0011932137413258731 0 -0.05340935279511707 0.002247833172193799 0 -0.057144777028361175 4.1041789168397129e-07 0 -0.058719479516981914 -9.3218838247907895e-05 0 -0.057135743158876429 3.8406990230576727e-06 0 -0.05340935279511707 0.002247833172193799 0 -0.054709459274056446 -0.00027162418892045202 0 -0.05714943629723248 6.0618948887721311e-06 0 -0.063648713274888885 0.0015740993369014269 0 -0.061497295692010512 -1.0840025090679649e-06 0 -0.063648713274888885 0.0015740993369014269 0 -0.066571371901896478 0.00045713062076646111 0 -0.061497295692010512 -1.0840025090679649e-06 0 -0.066571371901896478 0.00045713062076646111 0 -0.061497295692010512 -1.0840025090679649e-06 0 -0.06687599617011955 -0.00014444644182408983 0 -0.067294736924363441 -5.562640290540311e-07 0 -0.061497295692010512 -1.0840025090679649e-06 0 -0.06687599617011955 -0.00014444644182408983 0 -0.066571371901896478 0.00045713062076646111 0 -0.06687599617011955 -0.00014444644182408983 0 -0.068432572147718473 5.4071988151359049e-05 0 -0.070380857999412086 0.00017632683298845101 0 -0.06687599617011955 -0.00014444644182408983 0 -0.068432572147718473 5.4071988151359049e-05 0 -0.070380857999412086 0.00017632683298845101 0 -0.068432572147718473 5.4071988151359049e-05 0 -0.069081481700135713 2.3176008209181175e-05 0 -0.068432572147718473 5.4071988151359049e-05 0 -0.069081481700135713 2.3176008209181175e-05 0 -0.068446353269055016 0.00030390344983944776 0 -0.069081481700135713 2.3176008209181175e-05 0 -0.068929430906437231 0.00038606140701583243 0 -0.068446353269055016 0.00030390344983944776 0 -0.068976061016540122 0.00023938486801544607 0 -0.069081481700135713 2.3176008209181175e-05 0 -0.068929430906437231 0.00038606140701583243 0 -0.06798215379382859 0.0012656070358390264 0 -0.068929430906437231 0.00038606140701583243 0 -0.068024253432909979 0.0010462271235423264 0 -0.068929430906437231 0.00038606140701583243 0 -0.068024253432909979 0.0010462271235423264 0 -0.068446353269055016 0.00030390344983944776 0 -0.060652829551887666 -0.0012044967156424659 0 -0.062654263202498298 -0.0016972896094037122 0 -0.066571371901896478 0.00045713062076646111 0 -0.068024253432909979 0.0010462271235423264 0 -0.068446353269055016 0.00030390344983944776 0 -0.067894963999463986 0.0013293768289986466 0 -0.066571371901896478 0.00045713062076646111 0 -0.068024253432909979 0.0010462271235423264 0 -0.066571371901896478 0.00045713062076646111 0 -0.068432572147718473 5.4071988151359049e-05 0 -0.068446353269055016 0.00030390344983944776 0 -0.069184239415624404 0.00079814780592571031 0 -0.065972775758723332 0.0028154432252920532 0 -0.074518368014721573 -0.00072523528052469567 0 -0.074621469159794368 -0.0031492863444966723 0 -0.073326801338406591 -0.0011898670546618424 0 -0.074860366391427444 0.0002225517862403878 0 -0.074905590050265258 0.00017083172204275399 0 -0.07491637706225461 0.00028937261603217333 0 -0.074860366391427444 0.0002225517862403878 0 -0.074847440152102651 0.00032211389493728071 0 -0.07491637706225461 0.00028937261603217333 0 -0.074860366391427444 0.0002225517862403878 0 -0.074795551668343396 0.00031571651255068344 0 -0.074847440152102651 0.00032211389493728071 0 -0.074860366391427444 0.0002225517862403878 0 -0.074869319100814735 0.00012291820698376492 0 -0.074880846298131021 0.00011438744348370252 0 -0.074860366391427444 0.0002225517862403878 0 -0.074869319100814735 0.00012291820698376492 0 -0.074905590050265258 0.00017083172204275399 0 -0.069184239415624404 0.00079814780592571031 0 -0.070150490017271694 0.00057855017984004547 0 -0.074869319100814735 0.00012291820698376492 0 -0.074905590050265258 0.00017083172204275399 0 -0.074768850468462544 0.00012068157487241761 0 -0.074518368014721573 -0.00072523528052469567 0 -0.074768850468462544 0.00012068157487241761 0 -0.073473646632083736 0.00010438093937421726 0 -0.074768850468462544 0.00012068157487241761 0 -0.074999783841728354 2.436624577019395e-07 0 -0.074911429996126072 7.6346980705392889e-05 0 -0.074768850468462544 0.00012068157487241761 0 -0.074999783841728354 2.436624577019395e-07 0 -0.07441070258181022 0.00014658538794200577 0 -0.074999783841728354 2.436624577019395e-07 0 -0.074911429996126072 7.6346980705392889e-05 0 -0.074999852490840208 -8.2439419957484858e-09 0 -0.074869319100814735 0.00012291820698376492 0 -0.074768850468462544 0.00012068157487241761 0 -0.074911429996126072 7.6346980705392889e-05 0 -0.074869319100814735 0.00012291820698376492 0 -0.074911429996126072 7.6346980705392889e-05 0 -0.074880846298131021 0.00011438744348370252 0 -0.074880846298131021 0.00011438744348370252 0 -0.074922838172371581 2.2125643564601722e-05 0 -0.074851952004387934 8.6204760438307609e-05 0 -0.074911429996126072 7.6346980705392889e-05 0 -0.074880846298131021 0.00011438744348370252 0 -0.074922838172371581 2.2125643564601722e-05 0 -0.074999852490840208 -8.2439419957484858e-09 0 -0.074922838172371581 2.2125643564601722e-05 0 -0.074999843795925974 2.0648287690641237e-08 0 -0.074911429996126072 7.6346980705392889e-05 0 -0.074999852490840208 -8.2439419957484858e-09 0 -0.074922838172371581 2.2125643564601722e-05 0 -0.074922838172371581 2.2125643564601722e-05 0 -0.074999843795925974 2.0648287690641237e-08 0 -0.074887370195735617 -2.0024830889654883e-05 0 -0.074887370195735617 -2.0024830889654883e-05 0 -0.074851952004387934 8.6204760438307609e-05 0 -0.07467065782920787 7.2283111430469912e-05 0 -0.074922838172371581 2.2125643564601722e-05 0 -0.074887370195735617 -2.0024830889654883e-05 0 -0.074851952004387934 8.6204760438307609e-05 0 -0.074851952004387934 8.6204760438307609e-05 0 -0.074723961259149846 0.00019872145971243011 0 -0.07467065782920787 7.2283111430469912e-05 0 -0.074723961259149846 0.00019872145971243011 0 -0.074713406611266173 0.00030470073263736222 0 -0.074611091921971059 0.0002969