<?xml version="1.0"?>
<VTKFile type="UnstructuredGrid" version="0.1" byte_order="LittleEndian">
<UnstructuredGrid>
<Piece NumberOfPoints="31898" NumberOfCells="11152">
<Points>
<DataArray type="Float64" NumberOfComponents="3" format="ascii">
-0.5 -0.5 0 -0.47620991077874902 -0.44978878706170539 0 -0.49999999999999473 -0.42132396840504388 0 -0.5 -0.5 0 -0.47160970827802529 -0.4793630013852106 0 -0.47620991077874902 -0.44978878706170539 0 -0.5 -0.5 0 -0.47160970827802529 -0.4793630013852106 0 -0.44860394795025399 -0.5 0 -0.47160970827802529 -0.4793630013852106 0 -0.44860394795025399 -0.5 0 -0.4490820238307246 -0.45820516232899983 0 -0.44860394795025399 -0.5 0 -0.4490820238307246 -0.45820516232899983 0 -0.42881687682924802 -0.47781464288736519 0 -0.4490820238307246 -0.45820516232899983 0 -0.45555437223955858 -0.42914059360647611 0 -0.4490820238307246 -0.45820516232899983 0 -0.45555437223955858 -0.42914059360647611 0 -0.43867285131603428 -0.4271457417558665 0 -0.4490820238307246 -0.45820516232899983 0 -0.43867285131603428 -0.4271457417558665 0 -0.4263356171060747 -0.44269880333887462 0 -0.47160970827802529 -0.4793630013852106 0 -0.4490820238307246 -0.45820516232899983 0 -0.47620991077874902 -0.44978878706170539 0 -0.4490820238307246 -0.45820516232899983 0 -0.47620991077874902 -0.44978878706170539 0 -0.45555437223955858 -0.42914059360647611 0 -0.47620991077874902 -0.44978878706170539 0 -0.48101336032419229 -0.41069999664450008 0 -0.45555437223955858 -0.42914059360647611 0 -0.47620991077874902 -0.44978878706170539 0 -0.49999999999999473 -0.42132396840504388 0 -0.48101336032419229 -0.41069999664450008 0 -0.49999999999999473 -0.42132396840504388 0 -0.48101336032419229 -0.41069999664450008 0 -0.5 -0.393886241813306 0 -0.49999999999999473 -0.42132396840504388 0 -0.48101336032419229 -0.41069999664450008 0 -0.5 -0.393886241813306 0 -0.47854472220918332 -0.38978458738689759 0 -0.48422759779560409 -0.37130120630367158 0 -0.5 -0.393886241813306 0 -0.5 -0.36644851522156802 0 -0.48422759779560409 -0.37130120630367158 0 -0.48101336032419229 -0.41069999664450008 0 -0.5 -0.393886241813306 0 -0.47854472220918332 -0.38978458738689759 0 -0.48101336032419229 -0.41069999664450008 0 -0.47854472220918332 -0.38978458738689759 0 -0.46202672064839212 -0.40007602488395211 0 -0.48101336032419229 -0.41069999664450008 0 -0.46202672064839212 -0.40007602488395211 0 -0.47854472220918332 -0.38978458738689759 0 -0.46725442735267431 -0.37660061361585562 0 -0.46202672064839212 -0.40007602488395211 0 -0.47854472220918332 -0.38978458738689759 0 -0.46725442735267431 -0.37660061361585562 0 -0.48422759779560409 -0.37130120630367158 0 -0.46725442735267431 -0.37660061361585562 0 -0.46202672064839212 -0.40007602488395211 0 -0.46725442735267431 -0.37660061361585562 0 -0.45645674801697989 -0.38644133236760531 0 -0.46202672064839212 -0.40007602488395211 0 -0.46725442735267431 -0.37660061361585562 0 -0.45645674801697989 -0.38644133236760531 0 -0.4540003998136638 -0.37455519391687309 0 -0.45645674801697989 -0.38644133236760531 0 -0.46202672064839212 -0.40007602488395211 0 -0.44257020456291563 -0.38918913383950271 0 -0.46202672064839212 -0.40007602488395211 0 -0.44257020456291563 -0.38918913383950271 0 -0.44727608925983742 -0.41095911152778891 0 -0.46202672064839212 -0.40007602488395211 0 -0.44257020456291563 -0.38918913383950271 0 -0.44257020456291563 -0.38918913383950271 0 -0.44727608925983742 -0.41095911152778891 0 -0.43479358559901082 -0.4041454901736512 0 -0.44257020456291563 -0.38918913383950271 0 -0.4540003998136638 -0.37455519391687309 0 -0.44172858264042247 -0.37082207246888088 0 -0.45645674801697989 -0.38644133236760531 0 -0.44257020456291563 -0.38918913383950271 0 -0.4540003998136638 -0.37455519391687309 0 -0.46202672064839212 -0.40007602488395211 0 -0.45555437223955858 -0.42914059360647611 0 -0.44727608925983742 -0.41095911152778891 0 -0.46202672064839212 -0.40007602488395211 0 -0.45555437223955858 -0.42914059360647611 0 -0.48101336032419229 -0.41069999664450008 0 -0.46202672064839212 -0.40007602488395211 0 -0.45555437223955858 -0.42914059360647611 0 -0.44727608925983742 -0.41095911152778891 0 -0.43867285131603428 -0.4271457417558665 0 -0.43676601469929588 -0.41441201227470881 0 -0.44727608925983742 -0.41095911152778891 0 -0.43676601469929588 -0.41441201227470881 0 -0.43479358559901082 -0.4041454901736512 0 -0.45555437223955858 -0.42914059360647611 0 -0.44727608925983742 -0.41095911152778891 0 -0.43867285131603428 -0.4271457417558665 0 -0.43867285131603428 -0.4271457417558665 0 -0.42681803064840879 -0.42717069814352421 0 -0.4263356171060747 -0.44269880333887462 0 -0.42681803064840879 -0.42717069814352421 0 -0.41531815884496182 -0.42985383783075998 0 -0.4263356171060747 -0.44269880333887462 0 -0.42681803064840879 -0.42717069814352421 0 -0.42624289495594048 -0.42089725947505818 0 -0.42083332353326591 -0.42146747131641099 0 -0.42681803064840879 -0.42717069814352421 0 -0.43096994786351572 -0.41951492446283251 0 -0.42624289495594048 -0.42089725947505818 0 -0.43867285131603428 -0.4271457417558665 0 -0.42681803064840879 -0.42717069814352421 0 -0.43096994786351572 -0.41951492446283251 0 -0.43867285131603428 -0.4271457417558665 0 -0.43676601469929588 -0.41441201227470881 0 -0.43096994786351572 -0.41951492446283251 0 -0.43676601469929588 -0.41441201227470881 0 -0.43096994786351572 -0.41951492446283251 0 -0.42907264086257813 -0.41311715872526122 0 -0.43676601469929588 -0.41441201227470881 0 -0.42907264086257813 -0.41311715872526122 0 -0.43479358559901082 -0.4041454901736512 0 -0.42907264086257813 -0.41311715872526122 0 -0.43479358559901082 -0.4041454901736512 0 -0.42460885511582858 -0.40417321677700252 0 -0.42907264086257813 -0.41311715872526122 0 -0.41997834854398469 -0.41180534796019508 0 -0.42907264086257813 -0.41311715872526122 0 -0.42635027777857132 -0.41543594397746519 0 -0.41997834854398469 -0.41180534796019508 0 -0.42907264086257813 -0.41311715872526122 0 -0.41997834854398469 -0.41180534796019508 0 -0.42460885511582858 -0.40417321677700252 0 -0.42635027777857132 -0.41543594397746519 0 -0.41997834854398469 -0.41180534796019508 0 -0.42635027777857132 -0.41543594397746519 0 -0.42083332353326591 -0.42146747131641099 0 -0.41997834854398469 -0.41180534796019508 0 -0.43096994786351572 -0.41951492446283251 0 -0.42624289495594048 -0.42089725947505818 0 -0.42635027777857132 -0.41543594397746519 0 -0.43096994786351572 -0.41951492446283251 0 -0.42907264086257813 -0.41311715872526122 0 -0.42635027777857132 -0.41543594397746519 0 -0.42624289495594048 -0.42089725947505818 0 -0.42635027777857132 -0.41543594397746519 0 -0.42083332353326591 -0.42146747131641099 0 -0.42083332353326591 -0.42146747131641099 0 -0.41997834854398469 -0.41180534796019508 0 -0.40992282953163789 -0.42011435591993562 0 -0.41997834854398469 -0.41180534796019508 0 -0.39756877647335259 -0.40857286797681719 0 -0.41997834854398469 -0.41180534796019508 0 -0.40992282953163789 -0.42011435591993562 0 -0.39756877647335259 -0.40857286797681719 0 -0.40992282953163789 -0.42011435591993562 0 -0.41531815884496182 -0.42985383783075998 0 -0.39591554026262499 -0.42887225451549271 0 -0.41531815884496182 -0.42985383783075998 0 -0.39591554026262499 -0.42887225451549271 0 -0.41160927495564159 -0.44339431233754628 0 -0.42083332353326591 -0.42146747131641099 0 -0.40992282953163789 -0.42011435591993562 0 -0.41531815884496182 -0.42985383783075998 0 -0.42681803064840879 -0.42717069814352421 0 -0.42083332353326591 -0.42146747131641099 0 -0.41531815884496182 -0.42985383783075998 0 -0.44257020456291563 -0.38918913383950271 0 -0.42311368847744002 -0.37830224279505142 0 -0.42594061475171041 -0.39368797999533162 0 -0.44257020456291563 -0.38918913383950271 0 -0.42311368847744002 -0.37830224279505142 0 -0.44172858264042247 -0.37082207246888088 0 -0.44257020456291563 -0.38918913383950271 0 -0.42311368847744002 -0.37830224279505142 0 -0.42311368847744002 -0.37830224279505142 0 -0.42594061475171041 -0.39368797999533162 0 -0.416587075656149 -0.38785930376960043 0 -0.44257020456291563 -0.38918913383950271 0 -0.42594061475171041 -0.39368797999533162 0 -0.43479358559901082 -0.4041454901736512 0 -0.42594061475171041 -0.39368797999533162 0 -0.43479358559901082 -0.4041454901736512 0 -0.42460885511582858 -0.40417321677700252 0 -0.41997834854398469 -0.41180534796019508 0 -0.41325908582185972 -0.39811010703057192 0 -0.39770572831670092 -0.39911486077581648 0 -0.41997834854398469 -0.41180534796019508 0 -0.39770572831670092 -0.39911486077581648 0 -0.42594061475171041 -0.39368797999533162 0 -0.42460885511582858 -0.40417321677700252 0 -0.41325908582185972 -0.39811010703057192 0 -0.41997834854398469 -0.41180534796019508 0 -0.42460885511582858 -0.40417321677700252 0 -0.41325908582185972 -0.39811010703057192 0 -0.42594061475171041 -0.39368797999533162 0 -0.41325908582185972 -0.39811010703057192 0 -0.416587075656149 -0.38785930376960043 0 -0.41325908582185972 -0.39811010703057192 0 -0.416587075656149 -0.38785930376960043 0 -0.40403491357358612 -0.38133688525744702 0 -0.42311368847744002 -0.37830224279505142 0 -0.40403491357358612 -0.38133688525744702 0 -0.40365717239196519 -0.36741535175059892 0 -0.42311368847744002 -0.37830224279505142 0 -0.416587075656149 -0.38785930376960043 0 -0.40403491357358612 -0.38133688525744702 0 -0.40403491357358612 -0.38133688525744702 0 -0.39190790742475001 -0.38540387676521748 0 -0.39770572831670092 -0.39911486077581648 0 -0.40403491357358612 -0.38133688525744702 0 -0.39190790742475001 -0.38540387676521748 0 -0.3904578797192948 -0.37473938743617019 0 -0.41325908582185972 -0.39811010703057192 0 -0.40403491357358612 -0.38133688525744702 0 -0.39770572831670092 -0.39911486077581648 0 -0.39770572831670092 -0.39911486077581648 0 -0.37543310808941849 -0.38642437359143528 0 -0.39770572831670092 -0.39911486077581648 0 -0.37515920440272033 -0.40534038799344108 0 -0.37543310808941849 -0.38642437359143528 0 -0.39770572831670092 -0.39911486077581648 0 -0.37515920440272033 -0.40534038799344108 0 -0.39756877647335259 -0.40857286797681719
[...]
<PointData Scalars="" Vectors="displacement," Tensors="">
<DataArray type="Float64" Name="displacement" NumberOfComponents="3" format="ascii">
0.054996032363847959 0.054996903000101328 0 0.051275424523938719 0.054019533399569983 0 0.046362289484279333 0.054992671534114954 0 0.054996032363847959 0.054996903000101328 0 0.054122761894922398 0.052994514809843657 0 0.051275424523938719 0.054019533399569983 0 0.054996032363847959 0.054996903000101328 0 0.054122761894922398 0.052994514809843657 0 0.05499691883965082 0.04935118484756526 0 0.054122761894922398 0.052994514809843657 0 0.05499691883965082 0.04935118484756526 0 0.054456330848947868 0.052229296407343036 0 0.05499691883965082 0.04935118484756526 0 0.054456330848947868 0.052229296407343036 0 0.055175169212137637 0.048337201307633901 0 0.053354752683466178 0.053702504409944445 0 0.053145351710146553 0.054135885011024593 0 0.054456330848947868 0.052229296407343036 0 0.059171518085422321 0.052708096569578158 0 0.059540084499318142 0.050357321755968951 0 0.054456330848947868 0.052229296407343036 0 0.059540084499318142 0.050357321755968951 0 0.05756344400481396 0.048548484393476719 0 0.054122761894922398 0.052994514809843657 0 0.054456330848947868 0.052229296407343036 0 0.051275424523938719 0.054019533399569983 0 0.054456330848947868 0.052229296407343036 0 0.051275424523938719 0.054019533399569983 0 0.050041608392103906 0.054967790720399846 0 0.051275424523938719 0.054019533399569983 0 0.047719683353589545 0.054412577737500634 0 0.050041608392103906 0.054967790720399846 0 0.051275424523938719 0.054019533399569983 0 0.046362289484279333 0.054992671534114954 0 0.047719683353589545 0.054412577737500634 0 0.046345621891234375 0.054999993540626291 0 0.045175546573065183 0.05707458404496208 0 0.043327494219868666 0.054999991133139484 0 0.046347258430409294 0.055000707303752186 0 0.047097483270224283 0.0552715533581477 0 0.043327494219868666 0.054999991133139484 0 0.042880545555959187 0.057343864844471987 0 0.040846689612928685 0.05672358256422113 0 0.043327494219868666 0.054999991133139484 0 0.040309341076205409 0.054999989552814696 0 0.040846689612928685 0.05672358256422113 0 0.045175546573065183 0.05707458404496208 0 0.043327494219868666 0.054999991133139484 0 0.042880545555959187 0.057343864844471987 0 0.045175546573065183 0.05707458404496208 0 0.042880545555959187 0.057343864844471987 0 0.044014706378461978 0.059143828269637433 0 0.047097483270224283 0.0552715533581477 0 0.048716182406963494 0.054317472826771698 0 0.042880545555959187 0.057343864844471987 0 0.041433081648903615 0.05857910737360935 0 0.044014706378461978 0.059143828269637433 0 0.042880545555959187 0.057343864844471987 0 0.041433081648903615 0.05857910737360935 0 0.040846689612928685 0.05672358256422113 0 0.041767824118694327 0.055708519666661648 0 0.048716182406963494 0.054317472826771698 0 0.038312005277397178 0.05812873322525814 0 0.038207742005655826 0.058095452555910754 0 0.038136553044149077 0.05812938052424127 0 0.038312005277397178 0.05812873322525814 0 0.038207742005655826 0.058095452555910754 0 0.038223293285614898 0.05811562767414985 0 0.038207742005655826 0.058095452555910754 0 0.038136553044149077 0.05812938052424127 0 0.038153719470817499 0.058007179050101249 0 0.062476997487674379 0.052975179242388107 0 0.063416160598275206 0.050774410445801159 0 0.061327557777933736 0.051403589015077779 0 0.048716182406963494 0.054317472826771698 0 0.049182153477996426 0.053396741109316859 0 0.063416160598275206 0.050774410445801159 0 0.061327557777933736 0.051403589015077779 0 0.062000601841128739 0.049993369660440407 0 0.038153719470817499 0.058007179050101249 0 0.038223293285614898 0.05811562767414985 0 0.038225929902037402 0.058002812826835802 0 0.038207742005655826 0.058095452555910754 0 0.038153719470817499 0.058007179050101249 0 0.038223293285614898 0.05811562767414985 0 0.062476997487674379 0.052975179242388107 0 0.059171518085422321 0.052708096569578158 0 0.061327557777933736 0.051403589015077779 0 0.048716182406963494 0.054317472826771698 0 0.053145351710146553 0.054135885011024593 0 0.047719683353589545 0.054412577737500634 0 0.047480151867084319 0.055234842842252115 0 0.050041608392103906 0.054967790720399846 0 0.061327557777933736 0.051403589015077779 0 0.059540084499318142 0.050357321755968951 0 0.060983054705968015 0.050173454374137796 0 0.061327557777933736 0.051403589015077779 0 0.060983054705968015 0.050173454374137796 0 0.062000601841128739 0.049993369660440407 0 0.059171518085422321 0.052708096569578158 0 0.061327557777933736 0.051403589015077779 0 0.059540084499318142 0.050357321755968951 0 0.059540084499318142 0.050357321755968951 0 0.059488787243600953 0.048812060039635993 0 0.05756344400481396 0.048548484393476719 0 0.059488787243600953 0.048812060039635993 0 0.059151678105326462 0.047362474436780842 0 0.05756344400481396 0.048548484393476719 0 0.059488787243600953 0.048812060039635993 0 0.060243031590869467 0.04880717524331693 0 0.060165913742357573 0.048095687005898141 0 0.059488787243600953 0.048812060039635993 0 0.060416694048124227 0.049444169082264941 0 0.060243031590869467 0.04880717524331693 0 0.059540084499318142 0.050357321755968951 0 0.059488787243600953 0.048812060039635993 0 0.060416694048124227 0.049444169082264941 0 0.059540084499318142 0.050357321755968951 0 0.060983054705968015 0.050173454374137796 0 0.060416694048124227 0.049444169082264941 0 0.060983054705968015 0.050173454374137796 0 0.060416694048124227 0.049444169082264941 0 0.061197559038957718 0.049319425634929921 0 0.060983054705968015 0.050173454374137796 0 0.061197559038957718 0.049319425634929921 0 0.062000601841128739 0.049993369660440407 0 0.061197559038957718 0.049319425634929921 0 0.062000601841128739 0.049993369660440407 0 0.061985327801297556 0.049051359110691833 0 0.059198867673461719 0.046087672143212709 0 0.059167595964135573 0.045714547266718496 0 0.061197559038957718 0.049319425634929921 0 0.060902169239683432 0.048878670677538878 0 0.061467983842347147 0.047905798628051929 0 0.061197559038957718 0.049319425634929921 0 0.061384114874779093 0.048667605328071628 0 0.061985327801297556 0.049051359110691833 0 0.059160873471419601 0.045857864516075666 0 0.059167595964135573 0.045714547266718496 0 0.060902169239683432 0.048878670677538878 0 0.060165913742357573 0.048095687005898141 0 0.061371964850103836 0.047990200887417678 0 0.060416694048124227 0.049444169082264941 0 0.060243031590869467 0.04880717524331693 0 0.060902169239683432 0.048878670677538878 0 0.060416694048124227 0.049444169082264941 0 0.061197559038957718 0.049319425634929921 0 0.060902169239683432 0.048878670677538878 0 0.060243031590869467 0.04880717524331693 0 0.060902169239683432 0.048878670677538878 0 0.060165913742357573 0.048095687005898141 0 0.060165913742357573 0.048095687005898141 0 0.061371964850103836 0.047990200887417678 0 0.060333244710925493 0.046734395094962591 0 0.059167595964135573 0.045714547266718496 0 0.059538062876358683 0.043742934416076407 0 0.061371964850103836 0.047990200887417678 0 0.060333244710925493 0.046734395094962591 0 0.061713546278832083 0.045240847679739696 0 0.060333244710925493 0.046734395094962591 0 0.059151678105326462 0.047362474436780842 0 0.059292232056747357 0.045050453024667425 0 0.059151678105326462 0.047362474436780842 0 0.059292232056747357 0.045050453024667425 0 0.057589042301413193 0.046892790058746608 0 0.060165913742357573 0.048095687005898141 0 0.060333244710925493 0.046734395094962591 0 0.059151678105326462 0.047362474436780842 0 0.059488787243600953 0.048812060039635993 0 0.060165913742357573 0.048095687005898141 0 0.059151678105326462 0.047362474436780842 0 0.063416160598275206 0.050774410445801159 0 0.064038057276291388 0.048962779974423068 0 0.062870682559123273 0.0492037241681215 0 0.038153719470817499 0.058007179050101249 0 0.038167239823659237 0.057801370702086415 0 0.038225929902037402 0.058002812826835802 0 0.049182153477996426 0.053396741109316859 0 0.049147550849780119 0.051736830332793839 0 0.064038057276291388 0.048962779974423068 0 0.062870682559123273 0.0492037241681215 0 0.063268032532480867 0.048448845298709443 0 0.063416160598275206 0.050774410445801159 0 0.062870682559123273 0.0492037241681215 0 0.062000601841128739 0.049993369660440407 0 0.062870682559123273 0.0492037241681215 0 0.062000601841128739 0.049993369660440407 0 0.061985327801297556 0.049051359110691833 0 0.061384114874779093 0.048667605328071628 0 0.062483731136575855 0.048178018227838189 0 0.062444678214811658 0.04704916737652403 0 0.059167595964135573 0.045714547266718496 0 0.058816915810723958 0.043825049354279014 0 0.062870682559123273 0.0492037241681215 0 0.061985327801297556 0.049051359110691833 0 0.062483731136575855 0.048178018227838189 0 0.061384114874779093 0.048667605328071628 0 0.061985327801297556 0.049051359110691833 0 0.062483731136575855 0.048178018227838189 0 0.062870682559123273 0.0492037241681215 0 0.062483731136575855 0.048178018227838189 0 0.063268032532480867 0.048448845298709443 0 0.062483731136575855 0.048178018227838189 0 0.063268032532480867 0.048448845298709443 0 0.063671975095043243 0.047475384824818882 0 0.064038057276291388 0.048962779974423068 0 0.063671975095043243 0.047475384824818882 0 0.064732214102921987 0.047450684919255311 0 0.064038057276291388 0.048962779974423068 0 0.063268032532480867 0.048448845298709443 0 0.063671975095043243 0.047475384824818882 0 0.063671975095043243 0.047475384824818882 0 0.06335185869491515 0.046709430867971601 0 0.062444678214811658 0.04704916737652403 0 0.063671975095043243 0.047475384824818882 0 0.06335185869491515 0.046709430867971601 0 0.063983359203877113 0.046631972766059689 0 0.062483731136575855 0.048178018227838189 0 0.063671975095043243 0.047475384824818882 0 0.062444678214811658 0.04704916737652403 0 0.058816915810723958 0.043825049354279014 0 0.0574914470692197 0.040879266346930211 0 0.059249712985134463 0.043094954837888812 0 0.05879469080298725 0.041447027678884307 0 0.060168503658213475 0.04146576807692022 0 0.059249712985134463 0.043094954837888812 0 0.05879469080298725 0.041447027678884307 0 0.05856011754491755 0.043085957941538772 0 0.059734199147588485 0.040955597832859 0 0.0574914470692197 0.040879266346930211 0 0.063287812778644287 0.04571673530428598 0 0.063983359203877113 0.046631972766059689 0 0.064277803638703918 0.045773423364518069 0 0.06335185869491515 0.046709430867971601 0 0.063287812778644287 0.04571673530428598 0 0.063983359203877113 0.046631972766059689 0 0.0574914470692197 0.040879266346930211 0 0.054420111273469511 0.041904009874154644 0 0.06335185869491515 0.046709430867971601 0 0.062444678214811658 0.04704916737652403 0 0.063287812778644287 0.04571673530428598 0 0.058328027209969692 0.044731702032855349 0 0.059249712985134463 0.043094954837888812 0 0.05856011754491755 0.043085957941538772 0 0.060333244710925493 0.046734395094962591 0 0.059292232056747357 0.045050453024667425 0 0.061713546278832083 0.045240847679739696 0 0.062085232072936751 0.042583723904201475 0 0.059292232056747357 0.045050453024667425 0 0.061713546278832083 0.045240847679739696 0 0.059734199147588485 0.040955597832859 0 0.059538062876358683 0.043742934416076407 0 0.062085232072936751 0.042583723904201475 0 0.059292232056747357 0.045050453024667425 0 0.058520146189536396 0.042548640328062555 0 0.059292232056747357 0.045050453024667425 0 0.057219204083309667 0.044703734291210218 0 0.058520146189536396 0.042548640328062555 0 0.057219204083309667 0.044703734291210218 0 0.054993784699679915 0.042503486548622398 0 0.058520146189536396 0.042548640328062555 0 0.059292232056747357 0.045050453024667425 0 0.057219204083309667 0.044703734291210218 0 0.057589042301413193 0.046892790058746608 0 0.057219204083309667 0.044703734291210218 0 0.055933343863998834 0.045987418793158825 0 0.057589042301413193 0.046892790058746608 0 0.056627332606640782 0.046087560276420067 0 0.055941411220656226 0.044273733875645947 0 0.055907733413529372 0.046559797375231138 0 0.059560170410861708 0.04433300022261194 0 0.059135747613660944 0.042759629556487037 0 0.057304402038008233 0.043120684965241435 0 0.057646005557916657 0.043747354149368957 0 0.056394640466899848 0.043001500456157582 0 0.057646005557916657 0.043747354149368957 0 0.057647332216368419 0.043769650656878129 0 0.057646005557916657 0.043747354149368957 0 0.057653063808095782 0.042852130073400226 0 0.057219204083309667 0.044703734291210218 0 0.055933343863998834 0.045987418793158825 0 0.055463998495364063 0.044244779297294388 0 0.057219204083309667 0.044703734291210218 0 0.055463998495364063 0.044244779297294388 0 0.054993784699679915 0.042503486548622398 0 0.057653063808095782 0.042852130073400226 0 0.057635423787324433 0.041485121829139944 0 0.059135747613660944 0.042759629556487037 0 0.058069328654200288 0.042189354199546808 0 0.05871088720793223 0.041174482115235854 0 0.058069328654200288 0.042189354199546808 0 0.057304402038008233 0.043120684965241435 0 0.057459587029989094 0.041149282517662117 0 0.057304402038008233 0.043120684965241435 0 0.056115337904364612 0.040962851081398313 0 0.057459587029989094 0.041149282517662117 0 0.058069328654200288 0.042189354199546808 0 0.057459587029989094 0.041149282517662117 0 0.05871088720793223 0.041174482115235854 0 0.059135747613660944 0.042759629556487037 0 0.058069328654200288 0.042189354199546808 0 0.057304402038008233 0.043120684965241435 0 0.055001039744369679 0.041905543138462398 0 0.056394640466899848 0.043001500456157582 0 0.055000005144996283 0.041904121143499881 0 0.057304402038008233 0.043120684965241435 0 0.056115337904364612 0.040962851081398313 0 0.054999817247936449 0.041906066333045125 0 0.055941411220656226 0.044273733875645947 0 0.054998635744757565 0.04509855844313311 0 0.055941411220656226 0.044273733875645947 0 0.055907733413529372 0.046559797375231138 0 0.054998635744757565 0.04509855844313311 0 0.055907733413529372 0.046559797375231138 0 0.054998635744757565 0.04509855844313311 0 0.055175169212137637 0.048337201307633901 0 0.05499691883965082 0.04935118484756526 0 0.054998635744757565 0.04509855844313311 0 0.055175169212137637 0.048337201307633901 0 0.055907733413529372 0.046559797375231138 0 0.055175169212137637 0.048337201307633901 0 0.05580542710916199 0.048464683964276604 0 0.054456330848947868 0.052229296407343036 0 0.055175169212137637 0.048337201307633901 0 0.05580542710916199 0.048464683964276604 0 0.054456330848947868 0.052229296407343036 0 0.05580542710916199 0.048464683964276604 0 0.05756344400481396 0.048548484393476719 0 0.05580542710916199 0.048464683964276604 0 0.05756344400481396 0.048548484393476719 0 0.056635258053366 0.047314670014920117 0 0.05756344400481396 0.048548484393476719 0 0.057589042301413193 0.046892790058746608 0 0.056635258053366 0.047314670014920117 0 0.059151678105326462 0.047362474436780842 0 0.05756344400481396 0.048548484393476719 0 0.057589042301413193 0.046892790058746608 0 0.056568507223714114 0.046098442503873953 0 0.057589042301413193 0.046892790058746608 0 0.056614479272824592 0.046315376064071948 0 0.057589042301413193 0.046892790058746608 0 0.056614479272824592 0.046315376064071948 0 0.056635258053366 0.047314670014920117 0 0.057646005557916657 0.043747354149368957 0 0.057758652563131396 0.044110917805503073 0 0.055907733413529372 0.046559797375231138 0 0.056614479272824592 0.046315376064071948 0 0.056635258053366 0.047314670014920117 0 0.056627332606640782 0.046087560276420067 0 0.055907733413529372 0.046559797375231138 0 0.056614479272824592 0.046315376064071948 0 0.055907733413529372 0.046559797375231138 0 0.05580542710916199 0.048464683964276604 0 0.056635258053366 0.047314670014920117 0 0.023548265690319242 0.057679804589059455 0 0.021076295982136031 0.054654200921312797 0 0.027677338047197953 0.059368725134734526 0 0.027526125719884394 0.062682578495729238 0 0.02576786150815194 0.060152960933114903 0 0.030224011681210108 0.060155759239986409 0 0.028144695404407196 0.059466248691624216 0 0.027966935668924064 0.061810935563001358 0 0.030224011681210108 0.060155759239986409 0 0.030110325985309862 0.062195014553441078 0 0.027966935668924064 0.061810935563001358 0 0.030224011681210108 0.060155759239986409 0 0.032118550915870153 0.061037577764399886 0 0.030110325985309862 0.062195014553441078 0 0.030224011681210108 0.060155759239986409 0 0.029433619516511831 0.058347905659512429 0 0.031079724867637472 0.05814296260271444 0 0.030224011681210108 0.060155759239986409 0 0.029433619516511831 0.058347905659512429 0 0.028144695404407196 0.059466248691624216 0 0.023548265690319242 0.057679804589059455 0 0.024355868849959446 0.05755519640819725 0 0.029433619516511831 0.058347905659512429 0 0.028144695404407196 0.059466248691624216 0 0.028197470479962079 0.057011617371700837 0 0.027677338047197953 0.059368725134734526 0 0.028197470479962079 0.057011617371700837 0 0.025395835126490778 0.057591117115273517 0 0.028197470479962079 0.057011617371700837 0 0.028236475433144146 0.054999510545754374 0 0.030093194217807734 0.056605790299431261 0 0.028197470479962079 0.057011617371700837 0 0.028236475433144146 0.054999510545754374 0 0.026395637141730887 0.056063592249950736 0 0.028236475433144146 0.054999510545754374 0 0.030093194217807734 0.056605790299431261 0 0.031254805843277604 0.054999931711554033 0 0.029433619516511831 0.058347905659512429 0 0.028197470479962079 0.057011617371700837 0 0.030093194217807734 0.056605790299431261 0 0.029433619516511831 0.058347905659512429 0 0.030093194217807734 0.056605790299431261 0 0.031079724867637472 0.05814296260271444 0 0.031079724867637472 0.05814296260271444 0 0.032068668211276338 0.05643938796538784 0 0.032767890153490312 0.057885620183208565 0 0.030093194217807734 0.056605790299431261 0 0.031079724867637472 0.05814296260271444 0 0.032068668211276338 0.05643938796538784 0 0.031254805843277604 0.054999931711554033 0 0.032068668211276338 0.05643938796538784 0 0.03427291763089526 0.054999908704108501 0 0.030093194217807734 0.056605790299431261 0 0.031254805843277604 0.054999931711554033 0 0.032068668211276338 0.05643938796538784 0 0.032068668211276338 0.05643938796538784 0 0.03427291763089526 0.054999908704108501 0 0.033617253263347156 0.056765421557796653 0 0.033617253263347156 0.056765421557796653 0 0.032767890153490312 0.057885620183208565 0 0.03451241385477908 0.05781854961631569 0 0.032068668211276338 0.05643938796538784 0 0.033617253263347156 0.056765421557796653 0 0.032767890153490312 0.057885620183208565 0 0.032767890153490312 0.057885620183208565 0 0.033626610551854549 0.058953616251149969 0 0.03451241385477908 0.05781854961631569 0 0.033626610551854549 0.058953616251149969 0 0.033283956749451109 0.060378179075506015 0 0.034396091556850458 0.059828241848138716 0 0.033626610551854549 0.058953616251149969 0 0.032149848545353764 0.05941535861078006 0 0.033283956749451109 0.060378179075506015 0 0.032767890153490312 0.057885620183208565 0 0.033626610551854549 0.058953616251149969 0 0.032149848545353764 0.05941535861078006 0 0.030224011681210108 0.060155759239986409 0 0.031079724867637472 0.05814296260271444 0 0.032149848545353764 0.05941535861078006 0 0.031079724867637472 0.05814296260271444 0 0.032767890153490312 0.057885620183208565 0 0.032149848545353764 0.05941535861078006 0 0.030224011681210108 0.060155759239986409 0 0.032149848545353764 0.05941535861078006 0 0.032118550915870153 0.061037577764399886 0 0.032149848545353764 0.05941535861078006 0 0.032118550915870153 0.061037577764399886 0 0.033283956749451109 0.060378179075506015 0 0.032118550915870153 0.061037577764399886 0 0.033283956749451109 0.060378179075506015 0 0.033349244721439519 0.061653905245687021 0 0.033283956749451109 0.060378179075506015 0 0.03486052797681452 0.061119270922583208 0 0.033349244721439519 0.061653905245687021 0 0.033283956749451109 0.060378179075506015 0 0.034396091556850458 0.059828241848138716 0 0.03486052797681452 0.061119270922583208 0 0.031586375798180286 0.057060007954127065 0 0.031931662589837505 0.057627570764215673 0 0.034921928721084343 0.060898022182384749 0 0.036534312268