<?xml version="1.0"?>
<VTKFile type="UnstructuredGrid" version="0.1" byte_order="LittleEndian">
<UnstructuredGrid>
<Piece NumberOfPoints="29821" NumberOfCells="10495">
<Points>
<DataArray type="Float64" NumberOfComponents="3" format="ascii">
-0.5 -0.5 0 -0.45580702237719029 -0.47031576190444391 0 -0.43243467811010322 -0.5 0 -0.5 -0.5 0 -0.45580702237719029 -0.47031576190444391 0 -0.47056466239647921 -0.44429109177928727 0 -0.5 -0.5 0 -0.47056466239647921 -0.44429109177928727 0 -0.50000000000000067 -0.43158214482168028 0 -0.45580702237719029 -0.47031576190444391 0 -0.43243467811010322 -0.5 0 -0.42961604146339721 -0.46377633293523041 0 -0.45580702237719029 -0.47031576190444391 0 -0.44641972991597212 -0.44351138480770158 0 -0.42961604146339721 -0.46377633293523041 0 -0.45580702237719029 -0.47031576190444391 0 -0.44641972991597212 -0.44351138480770158 0 -0.47056466239647921 -0.44429109177928727 0 -0.44641972991597212 -0.44351138480770158 0 -0.47056466239647921 -0.44429109177928727 0 -0.44641972991597212 -0.44351138480770158 0 -0.47056466239647921 -0.44429109177928727 0 -0.45944454976877941 -0.42990820002862329 0 -0.49504846672071873 -0.42858433011404418 0 -0.47778632077977401 -0.41813328150579909 0 -0.48231456188247462 -0.42983304566791047 0 -0.50000000000000067 -0.43158214482168028 0 -0.49504846672071873 -0.42858433011404418 0 -0.5 -0.41252923302729261 0 -0.49504846672071873 -0.42858433011404418 0 -0.47778632077977401 -0.41813328150579909 0 -0.47056466239647921 -0.44429109177928727 0 -0.50000000000000067 -0.43158214482168028 0 -0.49667638185075558 -0.43028484614513862 0 -0.50000000000000067 -0.43158214482168028 0 -0.49667638185075558 -0.43028484614513862 0 -0.49504846672071873 -0.42858433011404418 0 -0.50000000000000067 -0.43158214482168028 0 -0.49504846672071873 -0.42858433011404418 0 -0.49667638185075558 -0.43028484614513862 0 -0.49504846672071873 -0.42858433011404418 0 -0.48231456188247462 -0.42983304566791047 0 -0.49667638185075558 -0.43028484614513862 0 -0.49504846672071873 -0.42858433011404418 0 -0.49504846672071873 -0.42858433011404418 0 -0.5 -0.41252923302729261 0 -0.48102210750200741 -0.41393243071879382 0 -0.49504846672071873 -0.42858433011404418 0 -0.47778632077977401 -0.41813328150579909 0 -0.48102210750200741 -0.41393243071879382 0 -0.5 -0.41252923302729261 0 -0.48102210750200741 -0.41393243071879382 0 -0.48367010456116077 -0.39735777334359212 0 -0.49504846672071873 -0.42858433011404418 0 -0.48102210750200741 -0.41393243071879382 0 -0.47778632077977401 -0.41813328150579909 0 -0.46052417483882913 -0.40768223289755412 0 -0.47778632077977401 -0.41813328150579909 0 -0.48102210750200741 -0.41393243071879382 0 -0.46052417483882913 -0.40768223289755412 0 -0.48102210750200741 -0.41393243071879382 0 -0.46699574828329599 -0.3992805313235433 0 -0.46052417483882913 -0.40768223289755412 0 -0.48102210750200741 -0.41393243071879382 0 -0.46699574828329599 -0.3992805313235433 0 -0.47778632077977401 -0.41813328150579909 0 -0.47149697766464538 -0.42787167879528321 0 -0.46582828669008169 -0.41944469631335762 0 -0.47056466239647921 -0.44429109177928727 0 -0.49667638185075558 -0.43028484614513862 0 -0.48231456188247462 -0.42983304566791047 0 -0.47056466239647921 -0.44429109177928727 0 -0.47149697766464538 -0.42787167879528321 0 -0.48231456188247462 -0.42983304566791047 0 -0.47778632077977401 -0.41813328150579909 0 -0.47149697766464538 -0.42787167879528321 0 -0.48231456188247462 -0.42983304566791047 0 -0.48680409162406041 -0.37573720864611132 0 -0.49999999999999389 -0.39347632123290488 0 -0.5 -0.37142231553439942 0 -0.48680409162406041 -0.37573720864611132 0 -0.49999999999999389 -0.39347632123290488 0 -0.48367010456116077 -0.39735777334359212 0 -0.48680409162406041 -0.37573720864611132 0 -0.49999999999999389 -0.39347632123290488 0 -0.5 -0.41252923302729261 0 -0.49999999999999389 -0.39347632123290488 0 -0.48367010456116077 -0.39735777334359212 0 -0.48367010456116077 -0.39735777334359212 0 -0.4707456239378921 -0.38566350184706849 0 -0.46699574828329599 -0.3992805313235433 0 -0.48102210750200741 -0.41393243071879382 0 -0.48367010456116077 -0.39735777334359212 0 -0.46699574828329599 -0.3992805313235433 0 -0.48680409162406041 -0.37573720864611132 0 -0.48367010456116077 -0.39735777334359212 0 -0.4707456239378921 -0.38566350184706849 0 -0.48680409162406041 -0.37573720864611132 0 -0.4707456239378921 -0.38566350184706849 0 -0.4632887861563576 -0.37131336399380382 0 -0.46699574828329599 -0.3992805313235433 0 -0.45117345206255421 -0.38694595552412098 0 -0.45296938906458539 -0.38462863192829222 0 -0.4707456239378921 -0.38566350184706849 0 -0.46699574828329599 -0.3992805313235433 0 -0.45296938906458539 -0.38462863192829222 0 -0.4707456239378921 -0.38566350184706849 0 -0.45296938906458539 -0.38462863192829222 0 -0.4632887861563576 -0.37131336399380382 0 -0.45296938906458539 -0.38462863192829222 0 -0.4632887861563576 -0.37131336399380382 0 -0.45296938906458539 -0.38462863192829222 0 -0.4632887861563576 -0.37131336399380382 0 -0.45393071014682351 -0.37393450826071412 0 -0.45117345206255421 -0.38694595552412098 0 -0.46052417483882913 -0.40768223289755412 0 -0.46699574828329599 -0.3992805313235433 0 -0.45117345206255421 -0.38694595552412098 0 -0.46052417483882913 -0.40768223289755412 0 -0.46699574828329599 -0.3992805313235433 0 -0.45296938906458539 -0.38462863192829222 0 -0.44322140923969122 -0.3972065918647254 0 -0.45117345206255421 -0.38694595552412098 0 -0.46052417483882913 -0.40768223289755412 0 -0.44322140923969122 -0.3972065918647254 0 -0.46052417483882913 -0.40768223289755412 0 -0.44322140923969122 -0.3972065918647254 0 -0.46052417483882913 -0.40768223289755412 0 -0.44668749594878249 -0.41183210695762429 0 -0.44322140923969122 -0.3972065918647254 0 -0.44058436686504832 -0.38695111725465081 0 -0.42998320178334498 -0.38919176276493422 0 -0.44322140923969122 -0.3972065918647254 0 -0.45117345206255421 -0.38694595552412098 0 -0.45117345206255421 -0.38694595552412098 0 -0.45296938906458539 -0.38462863192829222 0 -0.44759859952646641 -0.37901831874876279 0 -0.45117345206255421 -0.38694595552412098 0 -0.44759859952646641 -0.37901831874876279 0 -0.45117345206255421 -0.38694595552412098 0 -0.44058436686504832 -0.38695111725465081 0 -0.44759859952646641 -0.37901831874876279 0 -0.45117345206255421 -0.38694595552412098 0 -0.45296938906458539 -0.38462863192829222 0 -0.44322140923969122 -0.3972065918647254 0 -0.45117345206255421 -0.38694595552412098 0 -0.44058436686504832 -0.38695111725465081 0 -0.43829928845863131 -0.38136782023291782 0 -0.44759859952646641 -0.37901831874876279 0 -0.43305143215737668 -0.3741671062425001 0 -0.44058436686504832 -0.38695111725465081 0 -0.43829928845863131 -0.38136782023291782 0 -0.44759859952646641 -0.37901831874876279 0 -0.45296938906458539 -0.38462863192829222 0 -0.44759859952646641 -0.37901831874876279 0 -0.45393071014682351 -0.37393450826071412 0 -0.45296938906458539 -0.38462863192829222 0 -0.44759859952646641 -0.37901831874876279 0 -0.47056466239647921 -0.44429109177928727 0 -0.47149697766464538 -0.42787167879528321 0 -0.45944454976877941 -0.42990820002862329 0 -0.45944454976877941 -0.42990820002862329 0 -0.45551362604701823 -0.41863565835620031 0 -0.44508362298861781 -0.42431105558384219 0 -0.45944454976877941 -0.42990820002862329 0 -0.46582828669008169 -0.41944469631335762 0 -0.45551362604701823 -0.41863565835620031 0 -0.47149697766464538 -0.42787167879528321 0 -0.45944454976877941 -0.42990820002862329 0 -0.46582828669008169 -0.41944469631335762 0 -0.47778632077977401 -0.41813328150579909 0 -0.46582828669008169 -0.41944469631335762 0 -0.46052417483882913 -0.40768223289755412 0 -0.46582828669008169 -0.41944469631335762 0 -0.46052417483882913 -0.40768223289755412 0 -0.46052417483882913 -0.40768223289755412 0 -0.45551362604701823 -0.41863565835620031 0 -0.44668749594878249 -0.41183210695762429 0 -0.46582828669008169 -0.41944469631335762 0 -0.46052417483882913 -0.40768223289755412 0 -0.45551362604701823 -0.41863565835620031 0 -0.45551362604701823 -0.41863565835620031 0 -0.44668749594878249 -0.41183210695762429 0 -0.44508362298861781 -0.42431105558384219 0 -0.44668749594878249 -0.41183210695762429 0 -0.44508362298861781 -0.42431105558384219 0 -0.42635663522758249 -0.41896745469700042 0 -0.44322140923969122 -0.3972065918647254 0 -0.44668749594878249 -0.41183210695762429 0 -0.42635663522758249 -0.41896745469700042 0 -0.44641972991597212 -0.44351138480770158 0 -0.45944454976877941 -0.42990820002862329 0 -0.44508362298861781 -0.42431105558384219 0 -0.44641972991597212 -0.44351138480770158 0 -0.44508362298861781 -0.42431105558384219 0 -0.43468603808943879 -0.43263081411211501 0 -0.44508362298861781 -0.42431105558384219 0 -0.43468603808943879 -0.43263081411211501 0 -0.42635663522758249 -0.41896745469700042 0 -0.43468603808943879 -0.43263081411211501 0 -0.42635663522758249 -0.41896745469700042 0 -0.42227479743546492 -0.442731677836116 0 -0.44322140923969122 -0.3972065918647254 0 -0.42635663522758249 -0.41896745469700042 0 -0.42635663522758249 -0.41896745469700042 0 -0.42965242720967067 -0.4021075075563284 0 -0.41904846258806377 -0.40306422089865362 0 -0.41904846258806377 -0.40306422089865362 0 -0.39651669753125679 -0.42211824239579832 0 -0.41119244700740182 -0.42526126170771988 0 -0.41904846258806377 -0.40306422089865362 0 -0.39651669753125679 -0.42211824239579832 0 -0.42635663522758249 -0.41896745469700042 0 -0.41119244700740182 -0.42526126170771988 0 -0.41904846258806377 -0.40306422089865362 0 -0.42635663522758249 -0.41896745469700042 0 -0.42227479743546492 -0.442731677836116 0 -0.4094918612154736 -0.44072831752927522 0 -0.42635663522758249 -0.41896745469700042 0 -0.41119244700740182 -0.42526126170771988 0 -0.4094918612154736 -0.44072831752927522 0 -0.42635663522758249 -0.41896745469700042 0 -0.4094918612154736 -0.44072831752927522 0 -0.41119244700740182 -0.42526126170771988 0 -0.39812986495495778 -0.44195197086453031 0 -0.4094918612154736 -0.44072831752927522 0 -0.42343107035509481 -0.38002811772054618 0 -0.4299832017
[...]
<PointData Scalars="" Vectors="displacement," Tensors="">
<DataArray type="Float64" Name="displacement" NumberOfComponents="3" format="ascii">
-0.034995755941581781 -0.034998356868657036 0 -0.034689573645868457 -0.032698340386116569 0 -0.034998345573742679 -0.030273055284177942 0 -0.034995755941581781 -0.034998356868657036 0 -0.034689573645868457 -0.032698340386116569 0 -0.03290958562219938 -0.033786609310105332 0 -0.034995755941581781 -0.034998356868657036 0 -0.03290958562219938 -0.033786609310105332 0 -0.030223766635848637 -0.034996205115868692 0 -0.034689573645868457 -0.032698340386116569 0 -0.034998345573742679 -0.030273055284177942 0 -0.035652505415857183 -0.030680988599530928 0 -0.034689573645868457 -0.032698340386116569 0 -0.035576972290475767 -0.032195140318047079 0 -0.035652505415857183 -0.030680988599530928 0 -0.034689573645868457 -0.032698340386116569 0 -0.035576972290475767 -0.032195140318047079 0 -0.03290958562219938 -0.033786609310105332 0 -0.033497333215533151 -0.031640150521774421 0 -0.033030754262042106 -0.033424144401460396 0 -0.031425576749190914 -0.03137935065175871 0 -0.03290958562219938 -0.033786609310105332 0 -0.0329097460601337 -0.032796870823430323 0 -0.031168231244586574 -0.03478360345924978 0 -0.033379960973166388 -0.03398976731007354 0 -0.03209070383596313 -0.034177573447122862 0 -0.030210734847069268 -0.034999989233112656 0 -0.029974791540396981 -0.035321523451340542 0 -0.028876787135477009 -0.034999898441061002 0 -0.030365686178985288 -0.034831871636916541 0 -0.031758534345381818 -0.033928988770767755 0 -0.03290958562219938 -0.033786609310105332 0 -0.030223766635848637 -0.034996205115868692 0 -0.030731368399801843 -0.034834481023636649 0 -0.030223766635848637 -0.034996205115868692 0 -0.030731368399801843 -0.034834481023636649 0 -0.031121212662350035 -0.034771578500591163 0 -0.03021103809845915 -0.034999778419202168 0 -0.030365686178985288 -0.034831871636916541 0 -0.030731368399801843 -0.034834481023636649 0 -0.031168231244586574 -0.03478360345924978 0 -0.03209070383596313 -0.034177573447122862 0 -0.030433484315113522 -0.034791852571073659 0 -0.030365686178985288 -0.034831871636916541 0 -0.029974791540396981 -0.035321523451340542 0 -0.028876787135477009 -0.034999898441061002 0 -0.028902189107115648 -0.036122802096770573 0 -0.029826920259349226 -0.034740225456985269 0 -0.030291111752011692 -0.033927646813755576 0 -0.030486293622220037 -0.034081250560057702 0 -0.028876787135477009 -0.034999898441061002 0 -0.028902189107115648 -0.036122802096770573 0 -0.027864338591539771 -0.035932258134050189 0 -0.030365686178985288 -0.034831871636916541 0 -0.029718109935976018 -0.035054654127081683 0 -0.031758534345381818 -0.033928988770767755 0 -0.032910829812927207 -0.032591115392345923 0 -0.030291111752011692 -0.033927646813755576 0 -0.030486293622220037 -0.034081250560057702 0 -0.030774812785575763 -0.033084055665186414 0 -0.030486293622220037 -0.034081250560057702 0 -0.031171472494136016 -0.03339716942495749 0 -0.030774812785575763 -0.033084055665186414 0 -0.029718109935976018 -0.035054654127081683 0 -0.029212833562785222 -0.035626158488017833 0 -0.033379960973166388 -0.03398976731007354 0 -0.032769224499144017 -0.033627487597602125 0 -0.033587867658755835 -0.033289035842044915 0 -0.03290958562219938 -0.033786609310105332 0 -0.030731368399801843 -0.034834481023636649 0 -0.03209070383596313 -0.034177573447122862 0 -0.03290958562219938 -0.033786609310105332 0 -0.032769224499144017 -0.033627487597602125 0 -0.03209070383596313 -0.034177573447122862 0 -0.033379960973166388 -0.03398976731007354 0 -0.032769224499144017 -0.033627487597602125 0 -0.03209070383596313 -0.034177573447122862 0 -0.026296110108479452 -0.03590929617945314 0 -0.027543338345141603 -0.035000001737164846 0 -0.02599953719385344 -0.034999987425482576 0 -0.026786179403954769 -0.035756044510358978 0 -0.027543976793432748 -0.035000045990524836 0 -0.027864338591539771 -0.035932258134050189 0 -0.026037476039526115 -0.036276079864365526 0 -0.027543818784701541 -0.03499966587980255 0 -0.028876787135477009 -0.034999898441061002 0 -0.027543976793432748 -0.035000045990524836 0 -0.027864338591539771 -0.035932258134050189 0 -0.027864338591539771 -0.035932258134050189 0 -0.027301390620696257 -0.036533992471140184 0 -0.02797569835887747 -0.0367529968729697 0 -0.028902189107115648 -0.036122802096770573 0 -0.027864338591539771 -0.035932258134050189 0 -0.02797569835887747 -0.0367529968729697 0 -0.026786179403954769 -0.035756044510358978 0 -0.027864338591539771 -0.035932258134050189 0 -0.027301390620696257 -0.036533992471140184 0 -0.026786179403954769 -0.035756044510358978 0 -0.027301390620696257 -0.036533992471140184 0 -0.026632491879987612 -0.036846988252383875 0 -0.031171472494136016 -0.03339716942495749 0 -0.031760226614675945 -0.032597643233046661 0 -0.031871050500124218 -0.032684251852779116 0 -0.027301390620696257 -0.036533992471140184 0 -0.02797569835887747 -0.0367529968729697 0 -0.027270976653127482 -0.037322822555064208 0 -0.027301390620696257 -0.036533992471140184 0 -0.027270976653127482 -0.037322822555064208 0 -0.026632491879987612 -0.036846988252383875 0 -0.030094936338033826 -0.030564283489931059 0 -0.029370505901780853 -0.031560767584411759 0 -0.031486639230369783 -0.025775894817476833 0 -0.03215037622665351 -0.026270423936621167 0 -0.0320273375855024 -0.025804918979092047 0 -0.031545450427811809 -0.029845297294021373 0 -0.032910829812927207 -0.032591115392345923 0 -0.031171472494136016 -0.03339716942495749 0 -0.031760226614675945 -0.032597643233046661 0 -0.030774812785575763 -0.033084055665186414 0 -0.029212833562785222 -0.035626158488017833 0 -0.030094936338033826 -0.030564283489931059 0 -0.03267615141465742 -0.030036750979378069 0 -0.033154156752655019 -0.030412226025217138 0 -0.03218627755178026 -0.030870085574050798 0 -0.033508107878670798 -0.028423641074072636 0 -0.032910829812927207 -0.032591115392345923 0 -0.036634754451460021 -0.030722452804978383 0 -0.035285253885004503 -0.032791532395272792 0 -0.034896120497771903 -0.031147765646383819 0 -0.032505754759633909 -0.026031401705418913 0 -0.032969087926629899 -0.025900091544548687 0 -0.032864401540245752 -0.025449256943631034 0 -0.033508107878670798 -0.028423641074072636 0 -0.031545450427811809 -0.029845297294021373 0 -0.03016607806934796 -0.028843489562209855 0 -0.030950987576839332 -0.029451127726734996 0 -0.032855727405779404 -0.027618970080990742 0 -0.031545450427811809 -0.029845297294021373 0 -0.033206471658541431 -0.026512367947367464 0 -0.032970999697957123 -0.026416655098775145 0 -0.032969087926629899 -0.025900091544548687 0 -0.033364487995858554 -0.026242599925077558 0 -0.031545450427811809 -0.029845297294021373 0 -0.030094936338033826 -0.030564283489931059 0 -0.032505754759633909 -0.026031401705418913 0 -0.032970999697957123 -0.026416655098775145 0 -0.032969087926629899 -0.025900091544548687 0 -0.03323426486208228 -0.025771939137464693 0 -0.033364487995858554 -0.026242599925077558 0 -0.033579582802378008 -0.025468233734026381 0 -0.032969087926629899 -0.025900091544548687 0 -0.03323426486208228 -0.025771939137464693 0 -0.033364487995858554 -0.026242599925077558 0 -0.031486639230369783 -0.025775894817476833 0 -0.031772462756298643 -0.025486202408830608 0 -0.0320273375855024 -0.025804918979092047 0 -0.030094936338033826 -0.030564283489931059 0 -0.033206471658541431 -0.026512367947367464 0 -0.03290958562219938 -0.033786609310105332 0 -0.032769224499144017 -0.033627487597602125 0 -0.0329097460601337 -0.032796870823430323 0 -0.0329097460601337 -0.032796870823430323 0 -0.033972172851304529 -0.032228528439406663 0 -0.033495124692010367 -0.031005902989149157 0 -0.0329097460601337 -0.032796870823430323 0 -0.033587867658755835 -0.033289035842044915 0 -0.033972172851304529 -0.032228528439406663 0 -0.032769224499144017 -0.033627487597602125 0 -0.0329097460601337 -0.032796870823430323 0 -0.033587867658755835 -0.033289035842044915 0 -0.033379960973166388 -0.03398976731007354 0 -0.033587867658755835 -0.033289035842044915 0 -0.034315552229155347 -0.032981441202923671 0 -0.034087448254355432 -0.032890088129657109 0 -0.032910829812927207 -0.032591115392345923 0 -0.035285253885004503 -0.032791532395272792 0 -0.033972172851304529 -0.032228528439406663 0 -0.034896120497771903 -0.031147765646383819 0 -0.033587867658755835 -0.033289035842044915 0 -0.035285253885004503 -0.032791532395272792 0 -0.033972172851304529 -0.032228528439406663 0 -0.033972172851304529 -0.032228528439406663 0 -0.034896120497771903 -0.031147765646383819 0 -0.033495124692010367 -0.031005902989149157 0 -0.034896120497771903 -0.031147765646383819 0 -0.033495124692010367 -0.031005902989149157 0 -0.034214132361907346 -0.028531967773659336 0 -0.036634754451460021 -0.030722452804978383 0 -0.034896120497771903 -0.031147765646383819 0 -0.034214132361907346 -0.028531967773659336 0 -0.031425576749190914 -0.03137935065175871 0 -0.0329097460601337 -0.032796870823430323 0 -0.033495124692010367 -0.031005902989149157 0 -0.031425576749190914 -0.03137935065175871 0 -0.033495124692010367 -0.031005902989149157 0 -0.03256109373156138 -0.02962173372626347 0 -0.033495124692010367 -0.031005902989149157 0 -0.03256109373156138 -0.02962173372626347 0 -0.034214132361907346 -0.028531967773659336 0 -0.03256109373156138 -0.02962173372626347 0 -0.034214132361907346 -0.028531967773659336 0 -0.031154399095599951 -0.027651372722500449 0 -0.033508107878670798 -0.028423641074072636 0 -0.033255361445085334 -0.027057984519055941 0 -0.032035502364093811 -0.025501906226756903 0 -0.03235748016931958 -0.025515329766043145 0 -0.032228684159774632 -0.02520914891709632 0 -0.032413603284888452 -0.025322334601786265 0 -0.030819599512569629 -0.024038287408072991 0 -0.031923325389264783 -0.025591193846614051 0 -0.032228684159774632 -0.02520914891709632 0 -0.03200043381944831 -0.025142288909758472 0 -0.032035502364093811 -0.025501906226756903 0 -0.031923325389264783 -0.025591193846614051 0 -0.032228684159774632 -0.02520914891709632 0 -0.034214132361907346 -0.028531967773659336 0 -0.031154399095599951 -0.027651372722500449 0 -0.03140519835255242 -0.026142620113796564 0 -0.032035502364093811 -0.025501906226756903 0 -0.031923325389264783 -0.025591193846614051 0 -0.03140519835255242 -0.026142620113796564 0 -0.033255361445085334 -0.027057984519055941 0 -0.031407191935190468 -0.026083598121834316 0 -0.031923325389264783 -0.025591193846614051 0 -0.031364174964138875 -0.025030604090445562 0 -0.03140519835255242 -0.026142620113796564 0 -0.033326152172590606 -0.025081518129263444 0 -0.032864401540245752 -0.025449256943631034 0 -0.033579582802378008 -0.025468233734026381 0 -0.03323426486208228 -0.025771939137464693 0 -0.032864401540245752 -0.025449256943631034 0 -0.033579582802378008 -0.025468233734026381 0 -0.032969087926629899 -0.025900091544548687 0 -0.03323426486208228 -0.025771939137464693 0 -0.032864401540245752 -0.025449256943631034 0 -0.033326152172590606 -0.025081518129263444 0 -0.032864401540245752 -0.025449256943631034 0 -0.032963425365978946 -0.024782176332425503 0 -0.032492898860635486 -0.02587055494670654 0 -0.032035502364093811 -0.025501906226756903 0 -0.03235748016931958 -0.025515329766043145 0 -0.032864401540245752 -0.025449256943631034 0 -0.03235748016931958 -0.025515329766043145 0 -0.032228684159774632 -0.02520914891709632 0 -0.032492898860635486 -0.02587055494670654 0 -0.032864401540245752 -0.025449256943631034 0 -0.03235748016931958 -0.025515329766043145 0 -0.033508107878670798 -0.028423641074072636 0 -0.033196260997438748 -0.025183632384588123 0 -0.032228684159774632 -0.02520914891709632 0 -0.032963425365978946 -0.024782176332425503 0 -0.032307064086676308 -0.023944453735725339 0 -0.032963425365978946 -0.024782176332425503 0 -0.033201148398144892 -0.02382746580679428 0 -0.032307064086676308 -0.023944453735725339 0 -0.032864401540245752 -0.025449256943631034 0 -0.032228684159774632 -0.02520914891709632 0 -0.032963425365978946 -0.024782176332425503 0 -0.032963425365978946 -0.024782176332425503 0 -0.033201148398144892 -0.02382746580679428 0 -0.033590446301046434 -0.024577813735727459 0 -0.033326152172590606 -0.025081518129263444 0 -0.032963425365978946 -0.024782176332425503 0 -0.033590446301046434 -0.024577813735727459 0 -0.033201148398144892 -0.02382746580679428 0 -0.033124152035988577 -0.022494329962885241 0 -0.033776550137256924 -0.023161206676424236 0 -0.033201148398144892 -0.02382746580679428 0 -0.033590446301046434 -0.024577813735727459 0 -0.033920147064418135 -0.024038276929119185 0 -0.033201148398144892 -0.02382746580679428 0 -0.032540540615988961 -0.023226243551410015 0 -0.033124152035988577 -0.022494329962885241 0 -0.033201148398144892 -0.02382746580679428 0 -0.032540540615988961 -0.023226243551410015 0 -0.032307064086676308 -0.023944453735725339 0 -0.032540540615988961 -0.023226243551410015 0 -0.032307064086676308 -0.023944453735725339 0 -0.03172847395991181 -0.023024965510394867 0 -0.032540540615988961 -0.023226243551410015 0 -0.032228070697271252 -0.022391173739300305 0 -0.03172847395991181 -0.023024965510394867 0 -0.032228070697271252 -0.022391173739300305 0 -0.033124152035988577 -0.022494329962885241 0 -0.032438440961414967 -0.021295393455365016 0 -0.032540540615988961 -0.023226243551410015 0 -0.032228070697271252 -0.022391173739300305 0 -0.033124152035988577 -0.022494329962885241 0 -0.033124152035988577 -0.022494329962885241 0 -0.033898636084808323 -0.022090227166066723 0 -0.033534328410896749 -0.021458274073836447 0 -0.033124152035988577 -0.022494329962885241 0 -0.033776550137256924 -0.023161206676424236 0 -0.033898636084808323 -0.022090227166066723 0 -0.031923325389264783 -0.025591193846614051 0 -0.03200043381944831 -0.025142288909758472 0 -0.031364174964138875 -0.025030604090445562 0 -0.032228684159774632 -0.02520914891709632 0 -0.032307064086676308 -0.023944453735725339 0 -0.030779523542567192 -0.023447256418060333 0 -0.032307064086676308 -0.023944453735725339 0 -0.030779523542567192 -0.023447256418060333 0 -0.03172847395991181 -0.023024965510394867 0 -0.032228070697271252 -0.022391173739300305 0 -0.03172847395991181 -0.023024965510394867 0 -0.031131819399363495 -0.022015801684095532 0 -0.032228070697271252 -0.022391173739300305 0 -0.031131819399363495 -0.022015801684095532 0 -0.032438440961414967 -0.021295393455365016 0 -0.030779523542567192 -0.023447256418060333 0 -0.03172847395991181 -0.023024965510394867 0 -0.031131819399363495 -0.022015801684095532 0 -0.030779523542567192 -0.023447256418060333 0 -0.031131819399363495 -0.022015801684095532 0 -0.029403887338482142 -0.02174219575279767 0 -0.030819599512569629 -0.024038287408072991 0 -0.033401173387091664 -0.023561175173963979 0 -0.03200043381944831 -0.025142288909758472 0 -0.031364174964138875 -0.025030604090445562 0 -0.03141603091635535 -0.024285237554712319 0 -0.034689843392441758 -0.026994838859143427 0 -0.033401173387091664 -0.023561175173963979 0 -0.037814938702138874 -0.028180309016073657 0 -0.036592810884757215 -0.027199084822366847 0 -0.038114263000366182 -0.026423390182258824 0 -0.036592810884757215 -0.027199084822366847 0 -0.035758596729532785 -0.028974208340627992 0 -0.036601728700320232 -0.029079113000952249 0 -0.037814938702138874 -0.028180309016073657 0 -0.036592810884757215 -0.027199084822366847 0 -0.036601728700320232 -0.029079113000952249 0 -0.036592810884757215 -0.027199084822366847 0 -0.034999447141805806 -0.026709833207982637 0 -0.035758596729532785 -0.028974208340627992 0 -0.034999447141805806 -0.026709833207982637 0 -0.034998345573742679 -0.030273055284177942 0 -0.035758596729532785 -0.028974208340627992 0 -0.034998345573742679 -0.030273055284177942 0 -0.035758596729532785 -0.028974208340627992 0 -0.035652505415857183 -0.030680988599530928 0 -0.033497333215533151 -0.031640150521774421 0 -0.034099203655480699 -0.028779601084731484 0 -0.035576972290475767 -0.032195140318047079 0 -0.035652505415857183 -0.030680988599530928 0 -0.037082429325338444 -0.030143823660673256 0 -0.031425576749190914 -0.03137935065175871 0 -0.03256109373156138 -0.02962173372626347 0 -0.031154399095599951 -0.027651372722500449 0 -0.034689843392441758 -0.026994838859143427 0 -0.034099203655480699 -0.028779601084731484 0 -0.037814938702138874 -0.028180309016073657 0 -0.037082429325338444 -0.030143823660673256 0 -0.036601728700320232 -0.029079113000952249 0 -0.031364174964138875 -0.025030604090445562 0 -0.031154399095599951 -0.027651372722500449 0 -0.03140519835255242 -0.026142620113796564 0 -0.035758596729532785 -0.028974208340627992 0 -0.035652505415857183 -0.030680988599530928 0 -0.036601728700320232 -0.029079113000952249 0 -0.035652505415857183 -0.030680988599530928 0 -0.037082429325338444 -0.030143823660673256 0 -0.036601728700320232 -0.029079113000952249 0 -0.017374698555145292 -0.037583219730207874 0 -0.017329579870281157 -0.036693179103024262 0 -0.016948846731052 -0.037196428055001007 0 -0.017566361016197782 -0.037617428966836626 0 -0.017609873346295234 -0.036320087815004364 0 -0.017374698555145292 -0.037583219730207874 0 -0.016979661782670911 -0.037578206504005431 0 -0.016948846731052 -0.037196428055001007 0 -0.018133632204540614 -0.036559486411249717 0 -0.0182020268445993 -0.036534252804194887 0 -0.018204925856182146 -0.036465441671300121 0 -0.0182020268445993 -0.036534252804194887 0 -0.018204925856182146 -0.036465441671300121 0 -0.018252796886954872 -0.036542504584466853 0 -0.02161847088204303 -0.035397157960626147 0 -0.022295053721551061 -0.035155920244701565 0 -0.022124816408266849 -0.035273293367937629 0 -0.019270050036619087 -0.036417610311028428 0 -0.02013581824455736 -0.036140931875813201 0 -0.018204925856182146 -0.036465441671300121 0 -0.018201833316092809 -0.036438268371631589 0 -0.018252796886954872 -0.036542504584466853 0 -0.018133632204540614 -0.036559486411249717 0 -0.018204925856182146 -0.036465441671300121 0 -0.018191712057210159 -0.036423328291159879 0 -0.019069374240797479 -0.036408973588508545 0 -0.019270050036619087 -0.036417610311028428 0 -0.02161847088204303 -0.035397157960626147 0 -0.020470142960414786 -0.035535695292871608 0 -0.021283299311845916 -0.035503428934652088 0 -0.019270050036619087 -0.036417610311028428 0 -0.019680375292727169 -0.0358845311521356 0 -0.02161847088204303 -0.035397157960626147 0 -0.021283299311845916 -0.035503428934652088 0 -0.021915948011296354 -0.035388183895521071 0 -0.019270050036619087 -0.036417610311028428 0 -0.018131799815025686 -0.036270695515091787 0 -0.018133632204540614 -0.036559486411249717 0 -0.018191712057210159 -0.036423328291159879 0 -0.017873160663772581 -0.036286124622831151 0 -0.018191712057210159 -0.036423328291159879 0 -0.017873160663772581 -0.036286124622831151 0 -0.017991626224347978 -0.035971368325282083 0 -0.017609873346295234 -0.036320087815004364 0 -0.017450493364058451 -0.035587558852630374 0 -0.017873160663772581 -0.036286124622831151 0 -0.017991626224347978 -0.035971368325282083 0 -0.017453967087041652 -0.035505226578661814 0 -0.018131799815025686 -0.036270695515091787 0 -0.017752336925285047 -0.035000131253860471 0 -0.017991626224347978 -0.035971368325282083 0 -0.017751728114580367 -0.035000029944449972 0 -0.017453967087041652 -0.035505226578661814 0 -0.018387432020025966 -0.036426740078585471 0 -0.017752496517758672 -0.034999981078351054 0 -0.018730000249725244 -0.03499998357955432 0 -0.018387432020025966 -0.036426740078585471 0 -0.018730000249725244 -0.03499998357955432 0 -0.018804104799036388 -0.036420554368617179 0 -0.018730571016767582 -0.034999886929647207 0 -0.019680375292727169 -0.0358845311521356 0 -0.01873294498409292 -0.034999770379565608 0 -0.020470142960414786 -0.035535695292871608 0 -0.020821356529702201 -0.035483171418372809 0 -0.020470142960414786 -0.035535695292871608 0 -0.020821356529702201 -0.035483171418372809 0 -0.021283299311845916 -0.035503428934652088 0 -0.018913569194056998 -0.037652936898809421 0 -0.018387432020025966 -0.036426740078585471 0 -0.018804104799036388 -0.036420554368617179 0 -0.020821356529702201 -0.035483171418372809 0 -0.021666238076419961 -0.035505769486834843 0 -0.021836014548884