<?xml version="1.0"?>
<VTKFile type="UnstructuredGrid" version="0.1" byte_order="LittleEndian">
<UnstructuredGrid>
<Piece NumberOfPoints="29821" NumberOfCells="10495">
<Points>
<DataArray type="Float64" NumberOfComponents="3" format="ascii">
-0.5 -0.5 0 -0.45580702237719029 -0.47031576190444391 0 -0.43243467811010322 -0.5 0 -0.5 -0.5 0 -0.45580702237719029 -0.47031576190444391 0 -0.47056466239647921 -0.44429109177928727 0 -0.5 -0.5 0 -0.47056466239647921 -0.44429109177928727 0 -0.50000000000000067 -0.43158214482168028 0 -0.45580702237719029 -0.47031576190444391 0 -0.43243467811010322 -0.5 0 -0.42961604146339721 -0.46377633293523041 0 -0.45580702237719029 -0.47031576190444391 0 -0.44641972991597212 -0.44351138480770158 0 -0.42961604146339721 -0.46377633293523041 0 -0.45580702237719029 -0.47031576190444391 0 -0.44641972991597212 -0.44351138480770158 0 -0.47056466239647921 -0.44429109177928727 0 -0.44641972991597212 -0.44351138480770158 0 -0.47056466239647921 -0.44429109177928727 0 -0.44641972991597212 -0.44351138480770158 0 -0.47056466239647921 -0.44429109177928727 0 -0.45944454976877941 -0.42990820002862329 0 -0.49504846672071873 -0.42858433011404418 0 -0.47778632077977401 -0.41813328150579909 0 -0.48231456188247462 -0.42983304566791047 0 -0.50000000000000067 -0.43158214482168028 0 -0.49504846672071873 -0.42858433011404418 0 -0.5 -0.41252923302729261 0 -0.49504846672071873 -0.42858433011404418 0 -0.47778632077977401 -0.41813328150579909 0 -0.47056466239647921 -0.44429109177928727 0 -0.50000000000000067 -0.43158214482168028 0 -0.49667638185075558 -0.43028484614513862 0 -0.50000000000000067 -0.43158214482168028 0 -0.49667638185075558 -0.43028484614513862 0 -0.49504846672071873 -0.42858433011404418 0 -0.50000000000000067 -0.43158214482168028 0 -0.49504846672071873 -0.42858433011404418 0 -0.49667638185075558 -0.43028484614513862 0 -0.49504846672071873 -0.42858433011404418 0 -0.48231456188247462 -0.42983304566791047 0 -0.49667638185075558 -0.43028484614513862 0 -0.49504846672071873 -0.42858433011404418 0 -0.49504846672071873 -0.42858433011404418 0 -0.5 -0.41252923302729261 0 -0.48102210750200741 -0.41393243071879382 0 -0.49504846672071873 -0.42858433011404418 0 -0.47778632077977401 -0.41813328150579909 0 -0.48102210750200741 -0.41393243071879382 0 -0.5 -0.41252923302729261 0 -0.48102210750200741 -0.41393243071879382 0 -0.48367010456116077 -0.39735777334359212 0 -0.49504846672071873 -0.42858433011404418 0 -0.48102210750200741 -0.41393243071879382 0 -0.47778632077977401 -0.41813328150579909 0 -0.46052417483882913 -0.40768223289755412 0 -0.47778632077977401 -0.41813328150579909 0 -0.48102210750200741 -0.41393243071879382 0 -0.46052417483882913 -0.40768223289755412 0 -0.48102210750200741 -0.41393243071879382 0 -0.46699574828329599 -0.3992805313235433 0 -0.46052417483882913 -0.40768223289755412 0 -0.48102210750200741 -0.41393243071879382 0 -0.46699574828329599 -0.3992805313235433 0 -0.47778632077977401 -0.41813328150579909 0 -0.47149697766464538 -0.42787167879528321 0 -0.46582828669008169 -0.41944469631335762 0 -0.47056466239647921 -0.44429109177928727 0 -0.49667638185075558 -0.43028484614513862 0 -0.48231456188247462 -0.42983304566791047 0 -0.47056466239647921 -0.44429109177928727 0 -0.47149697766464538 -0.42787167879528321 0 -0.48231456188247462 -0.42983304566791047 0 -0.47778632077977401 -0.41813328150579909 0 -0.47149697766464538 -0.42787167879528321 0 -0.48231456188247462 -0.42983304566791047 0 -0.48680409162406041 -0.37573720864611132 0 -0.49999999999999389 -0.39347632123290488 0 -0.5 -0.37142231553439942 0 -0.48680409162406041 -0.37573720864611132 0 -0.49999999999999389 -0.39347632123290488 0 -0.48367010456116077 -0.39735777334359212 0 -0.48680409162406041 -0.37573720864611132 0 -0.49999999999999389 -0.39347632123290488 0 -0.5 -0.41252923302729261 0 -0.49999999999999389 -0.39347632123290488 0 -0.48367010456116077 -0.39735777334359212 0 -0.48367010456116077 -0.39735777334359212 0 -0.4707456239378921 -0.38566350184706849 0 -0.46699574828329599 -0.3992805313235433 0 -0.48102210750200741 -0.41393243071879382 0 -0.48367010456116077 -0.39735777334359212 0 -0.46699574828329599 -0.3992805313235433 0 -0.48680409162406041 -0.37573720864611132 0 -0.48367010456116077 -0.39735777334359212 0 -0.4707456239378921 -0.38566350184706849 0 -0.48680409162406041 -0.37573720864611132 0 -0.4707456239378921 -0.38566350184706849 0 -0.4632887861563576 -0.37131336399380382 0 -0.46699574828329599 -0.3992805313235433 0 -0.45117345206255421 -0.38694595552412098 0 -0.45296938906458539 -0.38462863192829222 0 -0.4707456239378921 -0.38566350184706849 0 -0.46699574828329599 -0.3992805313235433 0 -0.45296938906458539 -0.38462863192829222 0 -0.4707456239378921 -0.38566350184706849 0 -0.45296938906458539 -0.38462863192829222 0 -0.4632887861563576 -0.37131336399380382 0 -0.45296938906458539 -0.38462863192829222 0 -0.4632887861563576 -0.37131336399380382 0 -0.45296938906458539 -0.38462863192829222 0 -0.4632887861563576 -0.37131336399380382 0 -0.45393071014682351 -0.37393450826071412 0 -0.45117345206255421 -0.38694595552412098 0 -0.46052417483882913 -0.40768223289755412 0 -0.46699574828329599 -0.3992805313235433 0 -0.45117345206255421 -0.38694595552412098 0 -0.46052417483882913 -0.40768223289755412 0 -0.46699574828329599 -0.3992805313235433 0 -0.45296938906458539 -0.38462863192829222 0 -0.44322140923969122 -0.3972065918647254 0 -0.45117345206255421 -0.38694595552412098 0 -0.46052417483882913 -0.40768223289755412 0 -0.44322140923969122 -0.3972065918647254 0 -0.46052417483882913 -0.40768223289755412 0 -0.44322140923969122 -0.3972065918647254 0 -0.46052417483882913 -0.40768223289755412 0 -0.44668749594878249 -0.41183210695762429 0 -0.44322140923969122 -0.3972065918647254 0 -0.44058436686504832 -0.38695111725465081 0 -0.42998320178334498 -0.38919176276493422 0 -0.44322140923969122 -0.3972065918647254 0 -0.45117345206255421 -0.38694595552412098 0 -0.45117345206255421 -0.38694595552412098 0 -0.45296938906458539 -0.38462863192829222 0 -0.44759859952646641 -0.37901831874876279 0 -0.45117345206255421 -0.38694595552412098 0 -0.44759859952646641 -0.37901831874876279 0 -0.45117345206255421 -0.38694595552412098 0 -0.44058436686504832 -0.38695111725465081 0 -0.44759859952646641 -0.37901831874876279 0 -0.45117345206255421 -0.38694595552412098 0 -0.45296938906458539 -0.38462863192829222 0 -0.44322140923969122 -0.3972065918647254 0 -0.45117345206255421 -0.38694595552412098 0 -0.44058436686504832 -0.38695111725465081 0 -0.43829928845863131 -0.38136782023291782 0 -0.44759859952646641 -0.37901831874876279 0 -0.43305143215737668 -0.3741671062425001 0 -0.44058436686504832 -0.38695111725465081 0 -0.43829928845863131 -0.38136782023291782 0 -0.44759859952646641 -0.37901831874876279 0 -0.45296938906458539 -0.38462863192829222 0 -0.44759859952646641 -0.37901831874876279 0 -0.45393071014682351 -0.37393450826071412 0 -0.45296938906458539 -0.38462863192829222 0 -0.44759859952646641 -0.37901831874876279 0 -0.47056466239647921 -0.44429109177928727 0 -0.47149697766464538 -0.42787167879528321 0 -0.45944454976877941 -0.42990820002862329 0 -0.45944454976877941 -0.42990820002862329 0 -0.45551362604701823 -0.41863565835620031 0 -0.44508362298861781 -0.42431105558384219 0 -0.45944454976877941 -0.42990820002862329 0 -0.46582828669008169 -0.41944469631335762 0 -0.45551362604701823 -0.41863565835620031 0 -0.47149697766464538 -0.42787167879528321 0 -0.45944454976877941 -0.42990820002862329 0 -0.46582828669008169 -0.41944469631335762 0 -0.47778632077977401 -0.41813328150579909 0 -0.46582828669008169 -0.41944469631335762 0 -0.46052417483882913 -0.40768223289755412 0 -0.46582828669008169 -0.41944469631335762 0 -0.46052417483882913 -0.40768223289755412 0 -0.46052417483882913 -0.40768223289755412 0 -0.45551362604701823 -0.41863565835620031 0 -0.44668749594878249 -0.41183210695762429 0 -0.46582828669008169 -0.41944469631335762 0 -0.46052417483882913 -0.40768223289755412 0 -0.45551362604701823 -0.41863565835620031 0 -0.45551362604701823 -0.41863565835620031 0 -0.44668749594878249 -0.41183210695762429 0 -0.44508362298861781 -0.42431105558384219 0 -0.44668749594878249 -0.41183210695762429 0 -0.44508362298861781 -0.42431105558384219 0 -0.42635663522758249 -0.41896745469700042 0 -0.44322140923969122 -0.3972065918647254 0 -0.44668749594878249 -0.41183210695762429 0 -0.42635663522758249 -0.41896745469700042 0 -0.44641972991597212 -0.44351138480770158 0 -0.45944454976877941 -0.42990820002862329 0 -0.44508362298861781 -0.42431105558384219 0 -0.44641972991597212 -0.44351138480770158 0 -0.44508362298861781 -0.42431105558384219 0 -0.43468603808943879 -0.43263081411211501 0 -0.44508362298861781 -0.42431105558384219 0 -0.43468603808943879 -0.43263081411211501 0 -0.42635663522758249 -0.41896745469700042 0 -0.43468603808943879 -0.43263081411211501 0 -0.42635663522758249 -0.41896745469700042 0 -0.42227479743546492 -0.442731677836116 0 -0.44322140923969122 -0.3972065918647254 0 -0.42635663522758249 -0.41896745469700042 0 -0.42635663522758249 -0.41896745469700042 0 -0.42965242720967067 -0.4021075075563284 0 -0.41904846258806377 -0.40306422089865362 0 -0.41904846258806377 -0.40306422089865362 0 -0.39651669753125679 -0.42211824239579832 0 -0.41119244700740182 -0.42526126170771988 0 -0.41904846258806377 -0.40306422089865362 0 -0.39651669753125679 -0.42211824239579832 0 -0.42635663522758249 -0.41896745469700042 0 -0.41119244700740182 -0.42526126170771988 0 -0.41904846258806377 -0.40306422089865362 0 -0.42635663522758249 -0.41896745469700042 0 -0.42227479743546492 -0.442731677836116 0 -0.4094918612154736 -0.44072831752927522 0 -0.42635663522758249 -0.41896745469700042 0 -0.41119244700740182 -0.42526126170771988 0 -0.4094918612154736 -0.44072831752927522 0 -0.42635663522758249 -0.41896745469700042 0 -0.4094918612154736 -0.44072831752927522 0 -0.41119244700740182 -0.42526126170771988 0 -0.39812986495495778 -0.44195197086453031 0 -0.4094918612154736 -0.44072831752927522 0 -0.42343107035509481 -0.38002811772054618 0 -0.4299832017
[...]
<PointData Scalars="" Vectors="displacement," Tensors="">
<DataArray type="Float64" Name="displacement" NumberOfComponents="3" format="ascii">
-1.3635213092979873e-06 -0.034995772153270169 0 -5.1965818003408073e-05 -0.034179009014440237 0 9.207810960374294e-08 -0.034999631773624827 0 -1.3635213092979873e-06 -0.034995772153270169 0 -5.1965818003408073e-05 -0.034179009014440237 0 0.00022713877337098462 -0.032723449613346244 0 -1.3635213092979873e-06 -0.034995772153270169 0 0.00022713877337098462 -0.032723449613346244 0 2.5534392563906813e-06 -0.03021918098877064 0 -5.1965818003408073e-05 -0.034179009014440237 0 9.207810960374294e-08 -0.034999631773624827 0 0.00010888125570998734 -0.03467049404167153 0 -5.1965818003408073e-05 -0.034179009014440237 0 0.00049508161024027885 -0.034186662477825328 0 0.00010888125570998734 -0.03467049404167153 0 -5.1965818003408073e-05 -0.034179009014440237 0 0.00049508161024027885 -0.034186662477825328 0 0.00022713877337098462 -0.032723449613346244 0 0.00072699763021128545 -0.032734143573601548 0 0.0003542921190231631 -0.032689573705197511 0 0.0010926463786848982 -0.031357562599135282 0 0.00022713877337098462 -0.032723449613346244 0 0.00032016805270480944 -0.032056135642326879 0 0.00036255643893893261 -0.03071102590355777 0 0.00055829509088362549 -0.031994476396782712 0 0.00034400487079602315 -0.031681810635288424 0 1.0053564691910101e-06 -0.030209467094905577 0 3.7556934249339617e-05 -0.029536261294776319 0 -9.570145461479965e-07 -0.028876322627867761 0 0.0002607291645411605 -0.030107503006830561 0 0.0005991782810252968 -0.030926690711072909 0 0.00022713877337098462 -0.032723449613346244 0 2.5534392563906813e-06 -0.03021918098877064 0 0.00018360732911004663 -0.0305428138466231 0 2.5534392563906813e-06 -0.03021918098877064 0 0.00018360732911004663 -0.0305428138466231 0 0.00038690982058274829 -0.030699010356192425 0 3.7945562127351772e-07 -0.03021047408203301 0 0.0002607291645411605 -0.030107503006830561 0 0.00018360732911004663 -0.0305428138466231 0 0.00036255643893893261 -0.03071102590355777 0 0.00034400487079602315 -0.031681810635288424 0 0.00029129195045056862 -0.030163601627874671 0 0.0002607291645411605 -0.030107503006830561 0 3.7556934249339617e-05 -0.029536261294776319 0 -9.570145461479965e-07 -0.028876322627867761 0 -3.4782259234671056e-05 -0.028600312833375368 0 0.0006242277633736078 -0.029926598996377011 0 0.00056694533142702191 -0.02981935201269955 0 0.0005403897302980582 -0.029838060667454955 0 -9.570145461479965e-07 -0.028876322627867761 0 -3.4782259234671056e-05 -0.028600312833375368 0 -4.8643089918084177e-05 -0.028352287893171731 0 0.0002607291645411605 -0.030107503006830561 0 0.00019177359664334748 -0.029196433871988624 0 0.0005991782810252968 -0.030926690711072909 0 0.00024621150389134291 -0.030876475879752764 0 0.00056694533142702191 -0.02981935201269955 0 0.0005403897302980582 -0.029838060667454955 0 0.0005059230937535463 -0.029702316523920295 0 0.0005403897302980582 -0.029838060667454955 0 0.00045170306691460821 -0.029740373248858708 0 0.0005059230937535463 -0.029702316523920295 0 0.00019177359664334748 -0.029196433871988624 0 0.00022124432349209349 -0.029287721120664384 0 0.00055829509088362549 -0.031994476396782712 0 0.00034005719099895439 -0.032202359640920039 0 0.00023078814659247403 -0.032205955037533707 0 0.00022713877337098462 -0.032723449613346244 0 0.00018360732911004663 -0.0305428138466231 0 0.00034400487079602315 -0.031681810635288424 0 0.00022713877337098462 -0.032723449613346244 0 0.00034005719099895439 -0.032202359640920039 0 0.00034400487079602315 -0.031681810635288424 0 0.00055829509088362549 -0.031994476396782712 0 0.00034005719099895439 -0.032202359640920039 0 0.00034400487079602315 -0.031681810635288424 0 -1.0758137174717204e-05 -0.025747244169838375 0 8.2229541878634161e-07 -0.027542065262790908 0 -8.21572884395635e-07 -0.025999084185895253 0 0.00064167955498200559 -0.028159504830047366 0 9.2209062702066794e-07 -0.027546038508665244 0 -4.8643089918084177e-05 -0.028352287893171731 0 0.0002010396903407493 -0.027023765265328743 0 -7.5943482481164248e-08 -0.027542869630959851 0 -9.570145461479965e-07 -0.028876322627867761 0 9.2209062702066794e-07 -0.027546038508665244 0 -4.8643089918084177e-05 -0.028352287893171731 0 -4.8643089918084177e-05 -0.028352287893171731 0 0.00031689847234018094 -0.028611837750881001 0 -2.5473490006848755e-05 -0.028666961467633183 0 -3.4782259234671056e-05 -0.028600312833375368 0 -4.8643089918084177e-05 -0.028352287893171731 0 -2.5473490006848755e-05 -0.028666961467633183 0 0.00064167955498200559 -0.028159504830047366 0 -4.8643089918084177e-05 -0.028352287893171731 0 0.00031689847234018094 -0.028611837750881001 0 0.00064167955498200559 -0.028159504830047366 0 0.00031689847234018094 -0.028611837750881001 0 0.00073126766079202718 -0.028802345037548631 0 0.00045170306691460821 -0.029740373248858708 0 0.00037924049081026183 -0.02962444781788626 0 0.00036429773470852381 -0.029635232763404858 0 0.00031689847234018094 -0.028611837750881001 0 -2.5473490006848755e-05 -0.028666961467633183 0 0.00035620182300358992 -0.029070632267448326 0 0.00031689847234018094 -0.028611837750881001 0 0.00035620182300358992 -0.029070632267448326 0 0.00073126766079202718 -0.028802345037548631 0 0.0010168103113694798 -0.02837063491444735 0 0.0012310463236675261 -0.02778186531147351 0 0.0014949373468962348 -0.026975838568932115 0 0.0017463415306384587 -0.026775755955193103 0 0.0016985770000411797 -0.026952176727368122 0 0.0011676140054599623 -0.028479526065899957 0 0.00024621150389134291 -0.030876475879752764 0 0.00045170306691460821 -0.029740373248858708 0 0.00037924049081026183 -0.02962444781788626 0 0.0005059230937535463 -0.029702316523920295 0 0.00022124432349209349 -0.029287721120664384 0 0.0010168103113694798 -0.02837063491444735 0 0.00075993903222280185 -0.029370307848054614 0 0.00058030036326205039 -0.029508283721161887 0 0.00094022648858051031 -0.029685812292654299 0 0.00088335141537024731 -0.02903308575294981 0 0.00024621150389134291 -0.030876475879752764 0 -0.0013169766636862729 -0.031028473372924782 0 -0.00065875712970890491 -0.032004617244631522 0 -0.00049846132067512562 -0.031234495324618052 0 0.0020315037478541185 -0.027433307915938138 0 0.0021219396380040751 -0.027448496553149876 0 0.0021078348584938058 -0.027546310866402749 0 0.00088335141537024731 -0.02903308575294981 0 0.0011676140054599623 -0.028479526065899957 0 0.0012737047779522337 -0.028082859412916029 0 0.0013119258573959258 -0.028053056012088223 0 0.0014057943061147689 -0.028139267996256531 0 0.0011676140054599623 -0.028479526065899957 0 0.0017191515273583687 -0.027673657508917177 0 0.0021168285693404423 -0.027375525165907372 0 0.0021219396380040751 -0.027448496553149876 0 0.0021756659824913268 -0.027402566719118893 0 0.0011676140054599623 -0.028479526065899957 0 0.0010168103113694798 -0.02837063491444735 0 0.0020315037478541185 -0.027433307915938138 0 0.0021168285693404423 -0.027375525165907372 0 0.0021219396380040751 -0.027448496553149876 0 0.0021653990801904339 -0.027455512010449389 0 0.0021756659824913268 -0.027402566719118893 0 0.0022177248482832456 -0.027467089832106929 0 0.0021219396380040751 -0.027448496553149876 0 0.0021653990801904339 -0.027455512010449389 0 0.0021756659824913268 -0.027402566719118893 0 0.0014949373468962348 -0.026975838568932115 0 0.0016029728229683311 -0.027073830757103737 0 0.0016985770000411797 -0.026952176727368122 0 0.0010168103113694798 -0.02837063491444735 0 0.0017191515273583687 -0.027673657508917177 0 0.00022713877337098462 -0.032723449613346244 0 0.00034005719099895439 -0.032202359640920039 0 0.00032016805270480944 -0.032056135642326879 0 0.00032016805270480944 -0.032056135642326879 0 -4.3179493040996743e-05 -0.031754225782923862 0 0.00012240390009441473 -0.03117599846753934 0 0.00032016805270480944 -0.032056135642326879 0 0.00023078814659247403 -0.032205955037533707 0 -4.3179493040996743e-05 -0.031754225782923862 0 0.00034005719099895439 -0.032202359640920039 0 0.00032016805270480944 -0.032056135642326879 0 0.00023078814659247403 -0.032205955037533707 0 0.00055829509088362549 -0.031994476396782712 0 0.00023078814659247403 -0.032205955037533707 0 0.00036221304008738595 -0.032290624774607521 0 0.00027951448925129141 -0.031975656316200148 0 0.00024621150389134291 -0.030876475879752764 0 -0.00065875712970890491 -0.032004617244631522 0 -4.3179493040996743e-05 -0.031754225782923862 0 -0.00049846132067512562 -0.031234495324618052 0 0.00023078814659247403 -0.032205955037533707 0 -0.00065875712970890491 -0.032004617244631522 0 -4.3179493040996743e-05 -0.031754225782923862 0 -4.3179493040996743e-05 -0.031754225782923862 0 -0.00049846132067512562 -0.031234495324618052 0 0.00012240390009441473 -0.03117599846753934 0 -0.00049846132067512562 -0.031234495324618052 0 0.00012240390009441473 -0.03117599846753934 0 -0.0001939108328769962 -0.029973095976470434 0 -0.0013169766636862729 -0.031028473372924782 0 -0.00049846132067512562 -0.031234495324618052 0 -0.0001939108328769962 -0.029973095976470434 0 0.0010926463786848982 -0.031357562599135282 0 0.00032016805270480944 -0.032056135642326879 0 0.00012240390009441473 -0.03117599846753934 0 0.0010926463786848982 -0.031357562599135282 0 0.00012240390009441473 -0.03117599846753934 0 0.00056140751200143115 -0.030490039409972119 0 0.00012240390009441473 -0.03117599846753934 0 0.00056140751200143115 -0.030490039409972119 0 -0.0001939108328769962 -0.029973095976470434 0 0.00056140751200143115 -0.030490039409972119 0 -0.0001939108328769962 -0.029973095976470434 0 0.0012188016590388311 -0.029505121392315672 0 0.00088335141537024731 -0.02903308575294981 0 0.00056932725711179063 -0.028927673426419036 0 0.0014720150268061269 -0.027748947805605474 0 0.0019095276653991545 -0.027605809493889102 0 0.0019452636370489505 -0.027811592574441133 0 0.001816125220766738 -0.028031731976512431 0 0.0018171463833988896 -0.027707116171877318 0 0.0013227140843860637 -0.028427023584713457 0 0.0019452636370489505 -0.027811592574441133 0 0.0014058956988598657 -0.028696158238595466 0 0.0014720150268061269 -0.027748947805605474 0 0.0013227140843860637 -0.028427023584713457 0 0.0019452636370489505 -0.027811592574441133 0 -0.0001939108328769962 -0.029973095976470434 0 0.0012188016590388311 -0.029505121392315672 0 0.0011007033880965169 -0.028910275117943977 0 0.0014720150268061269 -0.027748947805605474 0 0.0013227140843860637 -0.028427023584713457 0 0.0011007033880965169 -0.028910275117943977 0 0.00056932725711179063 -0.028927673426419036 0 0.0011245138426112071 -0.028821395879351529 0 0.0013227140843860637 -0.028427023584713457 0 0.0010713208107150458 -0.028556916202857462 0 0.0011007033880965169 -0.028910275117943977 0 0.0021712015893488048 -0.027550297780323398 0 0.0021078348584938058 -0.027546310866402749 0 0.0022177248482832456 -0.027467089832106929 0 0.0021653990801904339 -0.027455512010449389 0 0.0021078348584938058 -0.027546310866402749 0 0.0022177248482832456 -0.027467089832106929 0 0.0021219396380040751 -0.027448496553149876 0 0.0021653990801904339 -0.027455512010449389 0 0.0021078348584938058 -0.027546310866402749 0 0.0021712015893488048 -0.027550297780323398 0 0.0021078348584938058 -0.027546310866402749 0 0.0020805882449369075 -0.027656211089065536 0 0.0020118924410841253 -0.027295829324657222 0 0.0014720150268061269 -0.027748947805605474 0 0.0019095276653991545 -0.027605809493889102 0 0.0021078348584938058 -0.027546310866402749 0 0.0019095276653991545 -0.027605809493889102 0 0.0019452636370489505 -0.027811592574441133 0 0.0020118924410841253 -0.027295829324657222 0 0.0021078348584938058 -0.027546310866402749 0 0.0019095276653991545 -0.027605809493889102 0 0.00088335141537024731 -0.02903308575294981 0 0.0018466256653238721 -0.027375340962337857 0 0.0019452636370489505 -0.027811592574441133 0 0.0020805882449369075 -0.027656211089065536 0 0.001963157909591244 -0.027698358439023886 0 0.0020805882449369075 -0.027656211089065536 0 0.0021239048641602818 -0.027641240205406224 0 0.001963157909591244 -0.027698358439023886 0 0.0021078348584938058 -0.027546310866402749 0 0.0019452636370489505 -0.027811592574441133 0 0.0020805882449369075 -0.027656211089065536 0 0.0020805882449369075 -0.027656211089065536 0 0.0021239048641602818 -0.027641240205406224 0 0.0022086051839374939 -0.027578549533833024 0 0.0021712015893488048 -0.027550297780323398 0 0.0020805882449369075 -0.027656211089065536 0 0.0022086051839374939 -0.027578549533833024 0 0.0021239048641602818 -0.027641240205406224 0 0.0021072711284815244 -0.027697844992248734 0 0.0022560541568502975 -0.027631754744132063 0 0.0021239048641602818 -0.027641240205406224 0 0.0022086051839374939 -0.027578549533833024 0 0.0022863469683947826 -0.027579025589911182 0 0.0021239048641602818 -0.027641240205406224 0 0.0020056813778038694 -0.02768976372307972 0 0.0021072711284815244 -0.027697844992248734 0 0.0021239048641602818 -0.027641240205406224 0 0.0020056813778038694 -0.02768976372307972 0 0.001963157909591244 -0.027698358439023886 0 0.0020056813778038694 -0.02768976372307972 0 0.001963157909591244 -0.027698358439023886 0 0.0019151697226755945 -0.0276980529019972 0 0.0020056813778038694 -0.02768976372307972 0 0.0019548102439510902 -0.027734483204125346 0 0.0019151697226755945 -0.0276980529019972 0 0.0019548102439510902 -0.027734483204125346 0 0.0021072711284815244 -0.027697844992248734 0 0.0019441717063265833 -0.027817099006665347 0 0.0020056813778038694 -0.02768976372307972 0 0.0019548102439510902 -0.027734483204125346 0 0.0021072711284815244 -0.027697844992248734 0 0.0021072711284815244 -0.027697844992248734 0 0.0022783121165946881 -0.027683915814810514 0 0.0021697846470176249 -0.02775467862093188 0 0.0021072711284815244 -0.027697844992248734 0 0.0022560541568502975 -0.027631754744132063 0 0.0022783121165946881 -0.027683915814810514 0 0.0013227140843860637 -0.028427023584713457 0 0.0014058956988598657 -0.028696158238595466 0 0.0010713208107150458 -0.028556916202857462 0 0.0019452636370489505 -0.027811592574441133 0 0.001963157909591244 -0.027698358439023886 0 0.0018484292541374541 -0.027659967794464755 0 0.001963157909591244 -0.027698358439023886 0 0.0018484292541374541 -0.027659967794464755 0 0.0019151697226755945 -0.0276980529019972 0 0.0019548102439510902 -0.027734483204125346 0 0.0019151697226755945 -0.0276980529019972 0 0.0018140589951206024 -0.027784028728963805 0 0.0019548102439510902 -0.027734483204125346 0 0.0018140589951206024 -0.027784028728963805 0 0.0019441717063265833 -0.027817099006665347 0 0.0018484292541374541 -0.027659967794464755 0 0.0019151697226755945 -0.0276980529019972 0 0.0018140589951206024 -0.027784028728963805 0 0.0018484292541374541 -0.027659967794464755 0 0.0018140589951206024 -0.027784028728963805 0 0.0015770823800078065 -0.027836154283987925 0 0.0018171463833988896 -0.027707116171877318 0 0.00084929405237915115 -0.030660361976607216 0 0.0014058956988598657 -0.028696158238595466 0 0.0010713208107150458 -0.028556916202857462 0 0.0010726797133142731 -0.029055147663012638 0 0.00065996462729283278 -0.032026369619291756 0 0.00084929405237915115 -0.030660361976607216 0 0.00025632461574215664 -0.034889910009524454 0 0.00011374546126592998 -0.034951587690152046 0 0.00020491400589184365 -0.034948690326038659 0 0.00011374546126592998 -0.034951587690152046 0 5.7216069444467554e-05 -0.034897996921239273 0 0.00018964929100798121 -0.034854508976608328 0 0.00025632461574215664 -0.034889910009524454 0 0.00011374546126592998 -0.034951587690152046 0 0.00018964929100798121 -0.034854508976608328 0 0.00011374546126592998 -0.034951587690152046 0 1.0822840703330387e-08 -0.034999962908438147 0 5.7216069444467554e-05 -0.034897996921239273 0 1.0822840703330387e-08 -0.034999962908438147 0 9.207810960374294e-08 -0.034999631773624827 0 5.7216069444467554e-05 -0.034897996921239273 0 9.207810960374294e-08 -0.034999631773624827 0 5.7216069444467554e-05 -0.034897996921239273 0 0.00010888125570998734 -0.03467049404167153 0 0.00072699763021128545 -0.032734143573601548 0 0.00079670615726373144 -0.032054175715262867 0 0.00049508161024027885 -0.034186662477825328 0 0.00010888125570998734 -0.03467049404167153 0 0.00039715449386968179 -0.034718034016295307 0 0.0010926463786848982 -0.031357562599135282 0 0.00056140751200143115 -0.030490039409972119 0 0.0012188016590388311 -0.029505121392315672 0 0.00065996462729283278 -0.032026369619291756 0 0.00079670615726373144 -0.032054175715262867 0 0.00025632461574215664 -0.034889910009524454 0 0.00039715449386968179 -0.034718034016295307 0 0.00018964929100798121 -0.034854508976608328 0 0.0010713208107150458 -0.028556916202857462 0 0.0012188016590388311 -0.029505121392315672 0 0.0011007033880965169 -0.028910275117943977 0 5.7216069444467554e-05 -0.034897996921239273 0 0.00010888125570998734 -0.03467049404167153 0 0.00018964929100798121 -0.034854508976608328 0 0.00010888125570998734 -0.03467049404167153 0 0.00039715449386968179 -0.034718034016295307 0 0.00018964929100798121 -0.034854508976608328 0 -0.00030197286243657855 -0.017006984677983512 0 -0.00012585838627431024 -0.016681379723661453 0 -0.00011198248237434138 -0.016853864174986417 0 -5.7976159391406529e-05 -0.017099441126759263 0 6.4473642072417861e-05 -0.016831398077839017 0 -0.00030197286243657855 -0.017006984677983512 0 -0.00013946236915501726 -0.017006686324490487 0 -0.00011198248237434138 -0.016853864174986417 0 0.00029793216489871891 -0.017528034605562546 0 -2.0566585053849333e-05 -0.017538948324378995 0 -3.7325736798383887e-05 -0.017204216322421632 0 -2.0566585053849333e-05 -0.017538948324378995 0 -3.7325736798383887e-05 -0.017204216322421632 0 -0.0003125485131313896 -0.017667700917322525 0 0.000341857567971037 -0.021521759548821816 0 3.7793484875039481e-05 -0.021646045600984366 0 0.00017426394907285177 -0.021746513861929325 0 0.00010294860800717453 -0.018734184898456793 0 -6.8405467359818346e-05 -0.019667572059642528 0 -3.7325736798383887e-05 -0.017204216322421632 0 -1.3085525570930724e-05 -0.01704446241169209 0 -0.0003125485131313896 -0.017667700917322525 0 0.00029793216489871891 -0.017528034605562546 0 -3.7325736798383887e-05 -0.017204216322421632 0 -1.3046148196783445e-05 -0.017055595423898944 0 0.00012180215679231437 -0.017881191425129592 0 0.00010294860800717453 -0.018734184898456793 0 0.000341857567971037 -0.021521759548821816 0 0.00051638750658086709 -0.020855370113241106 0 8.6908647652465595e-05 -0.021213234470001324 0 0.00010294860800717453 -0.018734184898456793 0 0.00023503000317509189 -0.019870878302027935 0 0.000341857567971037 -0.021521759548821816 0 8.6908647652465595e-05 -0.021213234470001324 0 -8.3420765948363211e-06 -0.021481361850020694 0 0.00010294860800717453 -0.018734184898456793 0 0.00013310798989690412 -0.017434790777319784 0 0.00029793216489871891 -0.017528034605562546 0 -1.3046148196783445e-05 -0.017055595423898944 0 0.00028490767478476164 -0.016811590388364099 0 -1.3046148196783445e-05 -0.017055595423898944 0 0.00028490767478476164 -0.016811590388364099 0 0.00026736816944891305 -0.01679907910617208 0 6.4473642072417861e-05 -0.016831398077839017 0 -6.2000662699973432e-05 -0.017077262497842628 0 0.00028490767478476164 -0.016811590388364099 0 0.00026736816944891305 -0.01679907910617208 0 -8.2588778554958271e-05 -0.017100479239493128 0 0.00013310798989690412 -0.017434790777319784 0 -5.676523516961143e-08 -0.017752556493941415 0 0.00026736816944891305 -0.01679907910617208 0 9.3500660184232637e-07 -0.017749989494210798 0 -8.2588778554958271e-05 -0.017100479239493128 0 -1.6379638459022172e-05 -0.018436919418094718 0 9.9104238503798734e-08 -0.017756942727223002 0 -9.5759017544144473e-08 -0.018725562908159955 0 -1.6379638459022172e-05 -0.018436919418094718 0 -9.5759017544144473e-08 -0.018725562908159955 0 5.3282318805466898e-05 -0.01844210657552204 0 1.6255320442385257e-07 -0.0187303086719765 0 0.00023503000317509189 -0.019870878302027935 0 1.8244358487169364e-06 -0.018733489261468731 0 0.00051638750658086709 -0.020855370113241106 0 -0.00010649784404918305 -0.020769713258079234 0 0.00051638750658086709 -