<?xml version="1.0"?>
<VTKFile type="UnstructuredGrid" version="0.1" byte_order="LittleEndian">
<UnstructuredGrid>
<Piece NumberOfPoints="29821" NumberOfCells="10495">
<Points>
<DataArray type="Float64" NumberOfComponents="3" format="ascii">
-0.5 -0.5 0 -0.45580702237719029 -0.47031576190444391 0 -0.43243467811010322 -0.5 0 -0.5 -0.5 0 -0.45580702237719029 -0.47031576190444391 0 -0.47056466239647921 -0.44429109177928727 0 -0.5 -0.5 0 -0.47056466239647921 -0.44429109177928727 0 -0.50000000000000067 -0.43158214482168028 0 -0.45580702237719029 -0.47031576190444391 0 -0.43243467811010322 -0.5 0 -0.42961604146339721 -0.46377633293523041 0 -0.45580702237719029 -0.47031576190444391 0 -0.44641972991597212 -0.44351138480770158 0 -0.42961604146339721 -0.46377633293523041 0 -0.45580702237719029 -0.47031576190444391 0 -0.44641972991597212 -0.44351138480770158 0 -0.47056466239647921 -0.44429109177928727 0 -0.44641972991597212 -0.44351138480770158 0 -0.47056466239647921 -0.44429109177928727 0 -0.44641972991597212 -0.44351138480770158 0 -0.47056466239647921 -0.44429109177928727 0 -0.45944454976877941 -0.42990820002862329 0 -0.49504846672071873 -0.42858433011404418 0 -0.47778632077977401 -0.41813328150579909 0 -0.48231456188247462 -0.42983304566791047 0 -0.50000000000000067 -0.43158214482168028 0 -0.49504846672071873 -0.42858433011404418 0 -0.5 -0.41252923302729261 0 -0.49504846672071873 -0.42858433011404418 0 -0.47778632077977401 -0.41813328150579909 0 -0.47056466239647921 -0.44429109177928727 0 -0.50000000000000067 -0.43158214482168028 0 -0.49667638185075558 -0.43028484614513862 0 -0.50000000000000067 -0.43158214482168028 0 -0.49667638185075558 -0.43028484614513862 0 -0.49504846672071873 -0.42858433011404418 0 -0.50000000000000067 -0.43158214482168028 0 -0.49504846672071873 -0.42858433011404418 0 -0.49667638185075558 -0.43028484614513862 0 -0.49504846672071873 -0.42858433011404418 0 -0.48231456188247462 -0.42983304566791047 0 -0.49667638185075558 -0.43028484614513862 0 -0.49504846672071873 -0.42858433011404418 0 -0.49504846672071873 -0.42858433011404418 0 -0.5 -0.41252923302729261 0 -0.48102210750200741 -0.41393243071879382 0 -0.49504846672071873 -0.42858433011404418 0 -0.47778632077977401 -0.41813328150579909 0 -0.48102210750200741 -0.41393243071879382 0 -0.5 -0.41252923302729261 0 -0.48102210750200741 -0.41393243071879382 0 -0.48367010456116077 -0.39735777334359212 0 -0.49504846672071873 -0.42858433011404418 0 -0.48102210750200741 -0.41393243071879382 0 -0.47778632077977401 -0.41813328150579909 0 -0.46052417483882913 -0.40768223289755412 0 -0.47778632077977401 -0.41813328150579909 0 -0.48102210750200741 -0.41393243071879382 0 -0.46052417483882913 -0.40768223289755412 0 -0.48102210750200741 -0.41393243071879382 0 -0.46699574828329599 -0.3992805313235433 0 -0.46052417483882913 -0.40768223289755412 0 -0.48102210750200741 -0.41393243071879382 0 -0.46699574828329599 -0.3992805313235433 0 -0.47778632077977401 -0.41813328150579909 0 -0.47149697766464538 -0.42787167879528321 0 -0.46582828669008169 -0.41944469631335762 0 -0.47056466239647921 -0.44429109177928727 0 -0.49667638185075558 -0.43028484614513862 0 -0.48231456188247462 -0.42983304566791047 0 -0.47056466239647921 -0.44429109177928727 0 -0.47149697766464538 -0.42787167879528321 0 -0.48231456188247462 -0.42983304566791047 0 -0.47778632077977401 -0.41813328150579909 0 -0.47149697766464538 -0.42787167879528321 0 -0.48231456188247462 -0.42983304566791047 0 -0.48680409162406041 -0.37573720864611132 0 -0.49999999999999389 -0.39347632123290488 0 -0.5 -0.37142231553439942 0 -0.48680409162406041 -0.37573720864611132 0 -0.49999999999999389 -0.39347632123290488 0 -0.48367010456116077 -0.39735777334359212 0 -0.48680409162406041 -0.37573720864611132 0 -0.49999999999999389 -0.39347632123290488 0 -0.5 -0.41252923302729261 0 -0.49999999999999389 -0.39347632123290488 0 -0.48367010456116077 -0.39735777334359212 0 -0.48367010456116077 -0.39735777334359212 0 -0.4707456239378921 -0.38566350184706849 0 -0.46699574828329599 -0.3992805313235433 0 -0.48102210750200741 -0.41393243071879382 0 -0.48367010456116077 -0.39735777334359212 0 -0.46699574828329599 -0.3992805313235433 0 -0.48680409162406041 -0.37573720864611132 0 -0.48367010456116077 -0.39735777334359212 0 -0.4707456239378921 -0.38566350184706849 0 -0.48680409162406041 -0.37573720864611132 0 -0.4707456239378921 -0.38566350184706849 0 -0.4632887861563576 -0.37131336399380382 0 -0.46699574828329599 -0.3992805313235433 0 -0.45117345206255421 -0.38694595552412098 0 -0.45296938906458539 -0.38462863192829222 0 -0.4707456239378921 -0.38566350184706849 0 -0.46699574828329599 -0.3992805313235433 0 -0.45296938906458539 -0.38462863192829222 0 -0.4707456239378921 -0.38566350184706849 0 -0.45296938906458539 -0.38462863192829222 0 -0.4632887861563576 -0.37131336399380382 0 -0.45296938906458539 -0.38462863192829222 0 -0.4632887861563576 -0.37131336399380382 0 -0.45296938906458539 -0.38462863192829222 0 -0.4632887861563576 -0.37131336399380382 0 -0.45393071014682351 -0.37393450826071412 0 -0.45117345206255421 -0.38694595552412098 0 -0.46052417483882913 -0.40768223289755412 0 -0.46699574828329599 -0.3992805313235433 0 -0.45117345206255421 -0.38694595552412098 0 -0.46052417483882913 -0.40768223289755412 0 -0.46699574828329599 -0.3992805313235433 0 -0.45296938906458539 -0.38462863192829222 0 -0.44322140923969122 -0.3972065918647254 0 -0.45117345206255421 -0.38694595552412098 0 -0.46052417483882913 -0.40768223289755412 0 -0.44322140923969122 -0.3972065918647254 0 -0.46052417483882913 -0.40768223289755412 0 -0.44322140923969122 -0.3972065918647254 0 -0.46052417483882913 -0.40768223289755412 0 -0.44668749594878249 -0.41183210695762429 0 -0.44322140923969122 -0.3972065918647254 0 -0.44058436686504832 -0.38695111725465081 0 -0.42998320178334498 -0.38919176276493422 0 -0.44322140923969122 -0.3972065918647254 0 -0.45117345206255421 -0.38694595552412098 0 -0.45117345206255421 -0.38694595552412098 0 -0.45296938906458539 -0.38462863192829222 0 -0.44759859952646641 -0.37901831874876279 0 -0.45117345206255421 -0.38694595552412098 0 -0.44759859952646641 -0.37901831874876279 0 -0.45117345206255421 -0.38694595552412098 0 -0.44058436686504832 -0.38695111725465081 0 -0.44759859952646641 -0.37901831874876279 0 -0.45117345206255421 -0.38694595552412098 0 -0.45296938906458539 -0.38462863192829222 0 -0.44322140923969122 -0.3972065918647254 0 -0.45117345206255421 -0.38694595552412098 0 -0.44058436686504832 -0.38695111725465081 0 -0.43829928845863131 -0.38136782023291782 0 -0.44759859952646641 -0.37901831874876279 0 -0.43305143215737668 -0.3741671062425001 0 -0.44058436686504832 -0.38695111725465081 0 -0.43829928845863131 -0.38136782023291782 0 -0.44759859952646641 -0.37901831874876279 0 -0.45296938906458539 -0.38462863192829222 0 -0.44759859952646641 -0.37901831874876279 0 -0.45393071014682351 -0.37393450826071412 0 -0.45296938906458539 -0.38462863192829222 0 -0.44759859952646641 -0.37901831874876279 0 -0.47056466239647921 -0.44429109177928727 0 -0.47149697766464538 -0.42787167879528321 0 -0.45944454976877941 -0.42990820002862329 0 -0.45944454976877941 -0.42990820002862329 0 -0.45551362604701823 -0.41863565835620031 0 -0.44508362298861781 -0.42431105558384219 0 -0.45944454976877941 -0.42990820002862329 0 -0.46582828669008169 -0.41944469631335762 0 -0.45551362604701823 -0.41863565835620031 0 -0.47149697766464538 -0.42787167879528321 0 -0.45944454976877941 -0.42990820002862329 0 -0.46582828669008169 -0.41944469631335762 0 -0.47778632077977401 -0.41813328150579909 0 -0.46582828669008169 -0.41944469631335762 0 -0.46052417483882913 -0.40768223289755412 0 -0.46582828669008169 -0.41944469631335762 0 -0.46052417483882913 -0.40768223289755412 0 -0.46052417483882913 -0.40768223289755412 0 -0.45551362604701823 -0.41863565835620031 0 -0.44668749594878249 -0.41183210695762429 0 -0.46582828669008169 -0.41944469631335762 0 -0.46052417483882913 -0.40768223289755412 0 -0.45551362604701823 -0.41863565835620031 0 -0.45551362604701823 -0.41863565835620031 0 -0.44668749594878249 -0.41183210695762429 0 -0.44508362298861781 -0.42431105558384219 0 -0.44668749594878249 -0.41183210695762429 0 -0.44508362298861781 -0.42431105558384219 0 -0.42635663522758249 -0.41896745469700042 0 -0.44322140923969122 -0.3972065918647254 0 -0.44668749594878249 -0.41183210695762429 0 -0.42635663522758249 -0.41896745469700042 0 -0.44641972991597212 -0.44351138480770158 0 -0.45944454976877941 -0.42990820002862329 0 -0.44508362298861781 -0.42431105558384219 0 -0.44641972991597212 -0.44351138480770158 0 -0.44508362298861781 -0.42431105558384219 0 -0.43468603808943879 -0.43263081411211501 0 -0.44508362298861781 -0.42431105558384219 0 -0.43468603808943879 -0.43263081411211501 0 -0.42635663522758249 -0.41896745469700042 0 -0.43468603808943879 -0.43263081411211501 0 -0.42635663522758249 -0.41896745469700042 0 -0.42227479743546492 -0.442731677836116 0 -0.44322140923969122 -0.3972065918647254 0 -0.42635663522758249 -0.41896745469700042 0 -0.42635663522758249 -0.41896745469700042 0 -0.42965242720967067 -0.4021075075563284 0 -0.41904846258806377 -0.40306422089865362 0 -0.41904846258806377 -0.40306422089865362 0 -0.39651669753125679 -0.42211824239579832 0 -0.41119244700740182 -0.42526126170771988 0 -0.41904846258806377 -0.40306422089865362 0 -0.39651669753125679 -0.42211824239579832 0 -0.42635663522758249 -0.41896745469700042 0 -0.41119244700740182 -0.42526126170771988 0 -0.41904846258806377 -0.40306422089865362 0 -0.42635663522758249 -0.41896745469700042 0 -0.42227479743546492 -0.442731677836116 0 -0.4094918612154736 -0.44072831752927522 0 -0.42635663522758249 -0.41896745469700042 0 -0.41119244700740182 -0.42526126170771988 0 -0.4094918612154736 -0.44072831752927522 0 -0.42635663522758249 -0.41896745469700042 0 -0.4094918612154736 -0.44072831752927522 0 -0.41119244700740182 -0.42526126170771988 0 -0.39812986495495778 -0.44195197086453031 0 -0.4094918612154736 -0.44072831752927522 0 -0.42343107035509481 -0.38002811772054618 0 -0.4299832017
[...]
<PointData Scalars="" Vectors="displacement," Tensors="">
<DataArray type="Float64" Name="displacement" NumberOfComponents="3" format="ascii">
-0.034998116368344913 -1.9680855880863791e-07 0 -0.032173534042601315 -9.716669602594704e-05 0 -0.030271464426887627 -4.5564028019193087e-07 0 -0.034998116368344913 -1.9680855880863791e-07 0 -0.032173534042601315 -9.716669602594704e-05 0 -0.033180170738388727 -6.7253068977521897e-05 0 -0.034998116368344913 -1.9680855880863791e-07 0 -0.033180170738388727 -6.7253068977521897e-05 0 -0.034993335773388874 4.1612839198340805e-07 0 -0.032173534042601315 -9.716669602594704e-05 0 -0.030271464426887627 -4.5564028019193087e-07 0 -0.030615328464835057 -0.00017975430070392361 0 -0.032173534042601315 -9.716669602594704e-05 0 -0.031620404581470578 -0.00013231116366550083 0 -0.030615328464835057 -0.00017975430070392361 0 -0.032173534042601315 -9.716669602594704e-05 0 -0.031620404581470578 -0.00013231116366550083 0 -0.033180170738388727 -6.7253068977521897e-05 0 -0.03204335685574905 -8.7851937706287587e-05 0 -0.032928640545425512 -8.6365536370104721e-05 0 -0.032377130564860995 9.0973294772037913e-05 0 -0.033180170738388727 -6.7253068977521897e-05 0 -0.032823489627368724 1.513160946150854e-06 0 -0.034442207326750143 8.7504263617573528e-06 0 -0.033167438796162338 -1.2165868091961519e-05 0 -0.033783371889705073 -4.2188798890875291e-05 0 -0.034999969784086767 2.0125173084417241e-08 0 -0.035006888111594532 -6.5415603493212815e-06 0 -0.035000137149279208 -7.1416365987985513e-08 0 -0.033991286830611048 0.00096855211459719785 0 -0.032414607341763879 0.00083450748992300002 0 -0.033180170738388727 -6.7253068977521897e-05 0 -0.034993335773388874 4.1612839198340805e-07 0 -0.034688759201138689 -6.675525185274105e-06 0 -0.034993335773388874 4.1612839198340805e-07 0 -0.034688759201138689 -6.675525185274105e-06 0 -0.034475663783433551 1.5597100070675289e-06 0 -0.034998163027857881 1.0846751049278076e-06 0 -0.033991286830611048 0.00096855211459719785 0 -0.034688759201138689 -6.675525185274105e-06 0 -0.034442207326750143 8.7504263617573528e-06 0 -0.033783371889705073 -4.2188798890875291e-05 0 -0.033999850261627017 0.00089307564095435189 0 -0.033991286830611048 0.00096855211459719785 0 -0.035006888111594532 -6.5415603493212815e-06 0 -0.035000137149279208 -7.1416365987985513e-08 0 -0.035004390200682731 -7.2102961138430111e-05 0 -0.032465491506113282 0.0031730445299035441 0 -0.031616017682212672 0.0018890593705562216 0 -0.031282240991364771 0.0021494704354968843 0 -0.035000137149279208 -7.1416365987985513e-08 0 -0.035004390200682731 -7.2102961138430111e-05 0 -0.034913255948075213 -6.1485331417748739e-05 0 -0.033991286830611048 0.00096855211459719785 0 -0.033074284292248041 0.0010348300080539512 0 -0.032414607341763879 0.00083450748992300002 0 -0.031053721556572107 0.0012108833116331276 0 -0.031616017682212672 0.0018890593705562216 0 -0.031282240991364771 0.0021494704354968843 0 -0.030724033665948041 0.00048892049897626981 0 -0.031282240991364771 0.0021494704354968843 0 -0.030005926289886534 0.0010401281554084632 0 -0.030724033665948041 0.00048892049897626981 0 -0.033074284292248041 0.0010348300080539512 0 -0.032952021335943882 0.00049008504762641379 0 -0.033167438796162338 -1.2165868091961519e-05 0 -0.03325197536589513 -4.9607089890343949e-05 0 -0.032934282567633505 2.6291535754743728e-06 0 -0.033180170738388727 -6.7253068977521897e-05 0 -0.034688759201138689 -6.675525185274105e-06 0 -0.033783371889705073 -4.2188798890875291e-05 0 -0.033180170738388727 -6.7253068977521897e-05 0 -0.03325197536589513 -4.9607089890343949e-05 0 -0.033783371889705073 -4.2188798890875291e-05 0 -0.033167438796162338 -1.2165868091961519e-05 0 -0.03325197536589513 -4.9607089890343949e-05 0 -0.033783371889705073 -4.2188798890875291e-05 0 -0.034992655891509281 1.1247828002409763e-06 0 -0.035000006725227024 -3.5534562495852478e-09 0 -0.034999984786645046 8.7206421669727569e-09 0 -0.034573472727229625 1.7307924672133796e-05 0 -0.034999433381447641 2.3832311185394036e-07 0 -0.034913255948075213 -6.1485331417748739e-05 0 -0.035742267046964253 0.00019820648608640648 0 -0.034998927300426773 -5.7144544128374432e-07 0 -0.035000137149279208 -7.1416365987985513e-08 0 -0.034999433381447641 2.3832311185394036e-07 0 -0.034913255948075213 -6.1485331417748739e-05 0 -0.034913255948075213 -6.1485331417748739e-05 0 -0.034679754242533362 -0.00021230393893002005 0 -0.034883833089534522 -0.00025026039306965959 0 -0.035004390200682731 -7.2102961138430111e-05 0 -0.034913255948075213 -6.1485331417748739e-05 0 -0.034883833089534522 -0.00025026039306965959 0 -0.034573472727229625 1.7307924672133796e-05 0 -0.034913255948075213 -6.1485331417748739e-05 0 -0.034679754242533362 -0.00021230393893002005 0 -0.034573472727229625 1.7307924672133796e-05 0 -0.034679754242533362 -0.00021230393893002005 0 -0.034397466396368585 -0.00032299254724648866 0 -0.030005926289886534 0.0010401281554084632 0 -0.02886621378545616 -0.00030827160740342106 0 -0.028660705997512761 -0.00014894244678661169 0 -0.034679754242533362 -0.00021230393893002005 0 -0.034883833089534522 -0.00025026039306965959 0 -0.034598958627285022 -0.00047123565187067747 0 -0.034679754242533362 -0.00021230393893002005 0 -0.034598958627285022 -0.00047123565187067747 0 -0.034397466396368585 -0.00032299254724648866 0 -0.025988339135037127 0.0022301298057202331 0 -0.025284650361126457 0.0028121296243701745 0 -0.018116457978366741 0.0044667024649508039 0 -0.016815749984527065 0.005436853648100968 0 -0.017054971064794967 0.0045630755752475039 0 -0.022726162671281774 0.0030916574919087787 0 -0.031053721556572107 0.0012108833116331276 0 -0.030005926289886534 0.0010401281554084632 0 -0.02886621378545616 -0.00030827160740342106 0 -0.030724033665948041 0.00048892049897626981 0 -0.032952021335943882 0.00049008504762641379 0 -0.025988339135037127 0.0022301298057202331 0 -0.02540140192246991 0.00072320354934725687 0 -0.023534968649743231 0.0021696832966712175 0 -0.027341699759138399 0.0038529287226293303 0 -0.022009045822730392 0.0029373072513457308 0 -0.031053721556572107 0.0012108833116331276 0 -0.032531105355910743 0.00011410439866736227 0 -0.032502631281813535 8.9547303692201078e-06 0 -0.032389994772994514 5.2972274126971591e-05 0 -0.0145355755083258 0.0040836830010616094 0 -0.014274149102034575 0.0040252884164492806 0 -0.01431036362687311 0.0039348329879279331 0 -0.022009045822730392 0.0029373072513457308 0 -0.022726162671281774 0.0030916574919087787 0 -0.02442637171336675 0.003592419070392064 0 -0.022831863079200543 0.0048272906614838466 0 -0.018956043520521292 0.001128244572962668 0 -0.022726162671281774 0.0030916574919087787 0 -0.01679622845739203 0.0024586356855634088 0 -0.014289890848948083 0.0043651035561447548 0 -0.014274149102034575 0.0040252884164492806 0 -0.013980785412243756 0.0042910231811589278 0 -0.022726162671281774 0.0030916574919087787 0 -0.025988339135037127 0.0022301298057202331 0 -0.0145355755083258 0.0040836830010616094 0 -0.014289890848948083 0.0043651035561447548 0 -0.014274149102034575 0.0040252884164492806 0 -0.014078644381521963 0.0038994382778926744 0 -0.013980785412243756 0.0042910231811589278 0 -0.013781069736636136 0.0035442152359797217 0 -0.014274149102034575 0.0040252884164492806 0 -0.014078644381521963 0.0038994382778926744 0 -0.013980785412243756 0.0042910231811589278 0 -0.018116457978366741 0.0044667024649508039 0 -0.017546236161110187 0.0039447012021037505 0 -0.017054971064794967 0.0045630755752475039 0 -0.025988339135037127 0.0022301298057202331 0 -0.01679622845739203 0.0024586356855634088 0 -0.033180170738388727 -6.7253068977521897e-05 0 -0.03325197536589513 -4.9607089890343949e-05 0 -0.032823489627368724 1.513160946150854e-06 0 -0.032823489627368724 1.513160946150854e-06 0 -0.032623415260399295 4.2342403594527167e-06 0 -0.032353187400859656 7.9313871783541113e-05 0 -0.032823489627368724 1.513160946150854e-06 0 -0.032934282567633505 2.6291535754743728e-06 0 -0.032623415260399295 4.2342403594527167e-06 0 -0.03325197536589513 -4.9607089890343949e-05 0 -0.032823489627368724 1.513160946150854e-06 0 -0.032934282567633505 2.6291535754743728e-06 0 -0.033167438796162338 -1.2165868091961519e-05 0 -0.032934282567633505 2.6291535754743728e-06 0 -0.032876807506914088 1.8705445917844158e-05 0 -0.032911804424044892 0.0004581636258727328 0 -0.031053721556572107 0.0012108833116331276 0 -0.032502631281813535 8.9547303692201078e-06 0 -0.032623415260399295 4.2342403594527167e-06 0 -0.032389994772994514 5.2972274126971591e-05 0 -0.032934282567633505 2.6291535754743728e-06 0 -0.032502631281813535 8.9547303692201078e-06 0 -0.032623415260399295 4.2342403594527167e-06 0 -0.032623415260399295 4.2342403594527167e-06 0 -0.032389994772994514 5.2972274126971591e-05 0 -0.032353187400859656 7.9313871783541113e-05 0 -0.032389994772994514 5.2972274126971591e-05 0 -0.032353187400859656 7.9313871783541113e-05 0 -0.031833799206223111 0.00030728728027092485 0 -0.032531105355910743 0.00011410439866736227 0 -0.032389994772994514 5.2972274126971591e-05 0 -0.031833799206223111 0.00030728728027092485 0 -0.032377130564860995 9.0973294772037913e-05 0 -0.032823489627368724 1.513160946150854e-06 0 -0.032353187400859656 7.9313871783541113e-05 0 -0.032377130564860995 9.0973294772037913e-05 0 -0.032353187400859656 7.9313871783541113e-05 0 -0.032047598747091025 0.00017685696233996843 0 -0.032353187400859656 7.9313871783541113e-05 0 -0.032047598747091025 0.00017685696233996843 0 -0.031833799206223111 0.00030728728027092485 0 -0.032047598747091025 0.00017685696233996843 0 -0.031833799206223111 0.00030728728027092485 0 -0.031706643018736533 0.00022232510156039716 0 -0.022009045822730392 0.0029373072513457308 0 -0.027235038755996453 0.0021013512957507837 0 -0.021765863171812221 0.0043841299861276288 0 -0.01654550867383826 0.0044194135527601073 0 -0.016109163113502432 0.0021746542809303873 0 -0.016099243841687191 0.0022671587201183426 0 -0.019174359268014734 -0.0024736949025337194 0 -0.02468283324074623 -0.00099697717159177054 0 -0.016109163113502432 0.0021746542809303873 0 -0.023727123908192524 -0.0056743597160400288 0 -0.021765863171812221 0.0043841299861276288 0 -0.02468283324074623 -0.00099697717159177054 0 -0.016109163113502432 0.0021746542809303873 0 -0.031833799206223111 0.00030728728027092485 0 -0.031706643018736533 0.00022232510156039716 0 -0.030752311501497188 -0.0020112801456594375 0 -0.021765863171812221 0.0043841299861276288 0 -0.02468283324074623 -0.00099697717159177054 0 -0.030752311501497188 -0.0020112801456594375 0 -0.027235038755996453 0.0021013512957507837 0 -0.030612137577270424 -0.001712337437596809 0 -0.02468283324074623 -0.00099697717159177054 0 -0.030697039898296263 -0.0045750474745395037 0 -0.030752311501497188 -0.0020112801456594375 0 -0.013940869751977473 0.0031675911480500492 0 -0.01431036362687311 0.0039348329879279331 0 -0.013781069736636136 0.0035442152359797217 0 -0.014078644381521963 0.0038994382778926744 0 -0.01431036362687311 0.0039348329879279331 0 -0.013781069736636136 0.0035442152359797217 0 -0.014274149102034575 0.0040252884164492806 0 -0.014078644381521963 0.0038994382778926744 0 -0.01431036362687311 0.0039348329879279331 0 -0.013940869751977473 0.0031675911480500492 0 -0.01431036362687311 0.0039348329879279331 0 -0.014490997671653169 0.0024501021394292975 0 -0.015292857094258131 0.0074264727025063889 0 -0.021765863171812221 0.0043841299861276288 0 -0.01654550867383826 0.0044194135527601073 0 -0.01431036362687311 0.0039348329879279331 0 -0.01654550867383826 0.0044194135527601073 0 -0.016109163113502432 0.0021746542809303873 0 -0.015292857094258131 0.0074264727025063889 0 -0.01431036362687311 0.0039348329879279331 0 -0.01654550867383826 0.0044194135527601073 0 -0.022009045822730392 0.0029373072513457308 0 -0.014665758081408435 0.0037095240756013412 0 -0.016109163113502432 0.0021746542809303873 0 -0.014490997671653169 0.0024501021394292975 0 -0.015056402921026934 0.0018783518779629535 0 -0.014490997671653169 0.0024501021394292975 0 -0.01411613158989009 0.0020210796017680775 0 -0.015056402921026934 0.0018783518779629535 0 -0.01431036362687311 0.0039348329879279331 0 -0.016109163113502432 0.0021746542809303873 0 -0.014490997671653169 0.0024501021394292975 0 -0.014490997671653169 0.0024501021394292975 0 -0.01411613158989009 0.0020210796017680775 0 -0.013764680555349098 0.0025379421173492445 0 -0.013940869751977473 0.0031675911480500492 0 -0.014490997671653169 0.0024501021394292975 0 -0.013764680555349098 0.0025379421173492445 0 -0.01411613158989009 0.0020210796017680775 0 -0.013964333260403321 0.0016485476115730149 0 -0.013586693892512306 0.0018748884672782514 0 -0.01411613158989009 0.0020210796017680775 0 -0.013764680555349098 0.0025379421173492445 0 -0.013490367602737694 0.0022330580994221537 0 -0.01411613158989009 0.0020210796017680775 0 -0.01453744917225116 0.0017694289926439581 0 -0.013964333260403321 0.0016485476115730149 0 -0.01411613158989009 0.0020210796017680775 0 -0.01453744917225116 0.0017694289926439581 0 -0.015056402921026934 0.0018783518779629535 0 -0.01453744917225116 0.0017694289926439581 0 -0.015056402921026934 0.0018783518779629535 0 -0.014652761076902724 0.0017643498637107359 0 -0.01453744917225116 0.0017694289926439581 0 -0.014345557768438922 0.0016548092030184277 0 -0.014652761076902724 0.0017643498637107359 0 -0.014345557768438922 0.0016548092030184277 0 -0.013964333260403321 0.0016485476115730149 0 -0.014005291259321149 0.0014653718748514131 0 -0.01453744917225116 0.0017694289926439581 0 -0.014345557768438922 0.0016548092030184277 0 -0.013964333260403321 0.0016485476115730149 0 -0.013964333260403321 0.0016485476115730149 0 -0.01343449974295041 0.0016038716444726079 0 -0.013579255954385045 0.0014648286478467227 0 -0.013964333260403321 0.0016485476115730149 0 -0.013586693892512306 0.0018748884672782514 0 -0.01343449974295041 0.0016038716444726079 0 -0.02468283324074623 -0.00099697717159177054 0 -0.023727123908192524 -0.0056743597160400288 0 -0.030697039898296263 -0.0045750474745395037 0 -0.016109163113502432 0.0021746542809303873 0 -0.015056402921026934 0.0018783518779629535 0 -0.014681415404084771 0.0017403872098783676 0 -0.015056402921026934 0.0018783518779629535 0 -0.014681415404084771 0.0017403872098783676 0 -0.014652761076902724 0.0017643498637107359 0 -0.014345557768438922 0.0016548092030184277 0 -0.014652761076902724 0.0017643498637107359 0 -0.014471793761703955 0.0016173183313318124 0 -0.014345557768438922 0.0016548092030184277 0 -0.014471793761703955 0.0016173183313318124 0 -0.014005291259321149 0.0014653718748514131 0 -0.014681415404084771 0.0017403872098783676 0 -0.014652761076902724 0.0017643498637107359 0 -0.014471793761703955 0.0016173183313318124 0 -0.014681415404084771 0.0017403872098783676 0 -0.014471793761703955 0.0016173183313318124 0 -0.014684987465849862 0.0015537468714594484 0 -0.019174359268014734 -0.0024736949025337194 0 -0.023261482964658409 -0.0023470196879468875 0 -0.023727123908192524 -0.0056743597160400288 0 -0.030697039898296263 -0.0045750474745395037 0 -0.030296785037688404 -0.012779075615406714 0 -0.030619193536384936 -0.0033430030392742785 0 -0.023261482964658409 -0.0023470196879468875 0 -0.029254392197945549 -0.00032191956757366791 0 -0.028283340554372826 -0.00021619298434591799 0 -0.028623273307384036 -6.2349096198147861e-06 0 -0.028283340554372826 -0.00021619298434591799 0 -0.0292347062964745 -0.00021937311126944255 0 -0.029584203730935728 -0.00027603615369184193 0 -0.029254392197945549 -0.00032191956757366791 0 -0.028283340554372826 -0.00021619298434591799 0 -0.029584203730935728 -0.00027603615369184193 0 -0.028283340554372826 -0.00021619298434591799 0 -0.026710596681195586 -4.702162024091208e-07 0 -0.0292347062964745 -0.00021937311126944255 0 -0.026710596681195586 -4.702162024091208e-07 0 -0.030271464426887627 -4.5564028019193087e-07 0 -0.0292347062964745 -0.00021937311126944255 0 -0.030271464426887627 -4.5564028019193087e-07 0 -0.0292347062964745 -0.00021937311126944255 0 -0.030615328464835057 -0.00017975430070392361 0 -0.03204335685574905 -8.7851937706287587e-05 0 -0.030922866608362718 8.2403103641273044e-05 0 -0.031620404581470578 -0.00013231116366550083 0 -0.030615328464835057 -0.00017975430070392361 0 -0.030253058714249988 -0.00023712798518542522 0 -0.032377130564860995 9.0973294772037913e-05 0 -0.032047598747091025 0.00017685696233996843 0 -0.031706643018736533 0.00022232510156039716 0 -0.030619193536384936 -0.0033430030392742785 0 -0.030922866608362718 8.2403103641273044e-05 0 -0.029254392197945549 -0.00032191956757366791 0 -0.030253058714249988 -0.00023712798518542522 0 -0.029584203730935728 -0.00027603615369184193 0 -0.030697039898296263 -0.0045750474745395037 0 -0.031706643018736533 0.00022232510156039716 0 -0.030752311501497188 -0.0020112801456594375 0 -0.0292347062964745 -0.00021937311126944255 0 -0.030615328464835057 -0.00017975430070392361 0 -0.029584203730935728 -0.00027603615369184193 0 -0.030615328464835057 -0.00017975430070392361 0 -0.030253058714249988 -0.00023712798518542522 0 -0.029584203730935728 -0.00027603615369184193 0 -0.034852521488641763 2.4256558044531842e-05 0 -0.034898565227185679 1.5796553073537305e-05 0 -0.034880817095451551 2.1904135430338929e-05 0 -0.035134060726450818 0.00017195928720897252 0 -0.034827793079102366 8.5434149895352961e-05 0 -0.034852521488641763 2.4256558044531842e-05 0 -0.03486089422914599 2.7086704362695212e-05 0 -0.034880817095451551 2.1904135430338929e-05 0 -0.034718759364029406 0.00037301521109252137 0 -0.034594977933434932 0.00037243223835741493 0 -0.034613830944179247 0.00025720893692325879 0 -0.034594977933434932 0.00037243223835741493 0 -0.034613830944179247 0.00025720893692325879 0 -0.034470218337815994 0.00041237303747781366 0 -0.034875045324117518 -3.352574642783753e-05 0 -0.034824404348807188 -3.3884135026193849e-05 0 -0.034828389687853817 -2.1029113809019851e-05 0 -0.03479317522597284 0.00011872057976006488 0 -0.034862328230059386 -1.5450787246449304e-05 0 -0.034613830944179247 0.00025720893692325879 0 -0.034634361203770732 0.00020159818740413357 0 -0.034470218337815994 0.00041237303747781366 0 -0.034718759364029406 0.00037301521109252137 0 -0.034613830944179247 0.00025720893692325879 0 -0.034635503323259154 0.00020938989115618363 0 -0.034757233068287215 0.00018944785601198921 0 -0.03479317522597284 0.00011872057976006488 0 -0.034875045324117518 -3.352574642783753e-05 0 -0.034927748129906698 -2.2206444291300446e-05 0 -0.034900794086934431 -2.8934704860549205e-05 0 -0.03479317522597284 0.00011872057976006488 0 -0.034973565485897425 -3.3926836312401486e-05 0 -0.034875045324117518 -3.352574642783753e-05 0 -0.034900794086934431 -2.8934704860549205e-05 0 -0.03485933443603937 -3.3811854764767523e-05 0 -0.03479317522597284 0.00011872057976006488 0 -0.034909322571228328 4.1499807286066822e-05 0 -0.034718759364029406 0.00037301521109252137 0 -0.034635503323259154 0.00020938989115618363 0 -0.034831521747104681 0.00012639973306984232 0 -0.034635503323259154 0.00020938989115618363 0 -0.034831521747104681 0.00012639973306984232 0 -0.034822774085365597 4.9379143742835e-05 0 -0.034827793079102366 8.5434149895352961e-05 0 -0.034954828033001019 3.3097394013534359e-07 0 -0.034831521747104681 0.00012639973306984232 0 -0.034822774085365597 4.9379143742835e-05 0 -0.034960721599037001 9.4703869457225889e-06 0 -0.034909322571228328 4.1499807286066822e-05 0 -0.034999958444328065 2.0328339897109681e-08 0 -0.034822774085365597 4.9379143742835e-05 0 -0.034999840559360298 -6.3616946939809732e-08 0 -0.034960721599037001 9.4703869457225889e-06 0 -0.034998229845200089 1.0390793580109386e-05 0 -0.035000016897548968 2.1651644188143435e-09 0 -0.034999979733079105 -3.8992583342216789e-10 0 -0.034998229845200089 1.0390793580109386e-05 0 -0.034999979733079105 -3.8992583342216789e-10 0 -0.034992084559297448 1.0749612297737635e-05 0 -0.034999977020514252 1.8317432124947067e-08 0 -0.034973565485897425 -3.3926836312401486e-05 0 -0.034999902822193889 -1.2197527998430519e-08 0 -0.034927748129906698 -2.2206444291300446e-05 0 -0.0