<?xml version="1.0"?>
<VTKFile type="UnstructuredGrid" version="0.1" byte_order="LittleEndian">
<UnstructuredGrid>
<Piece NumberOfPoints="30881" NumberOfCells="10862">
<Points>
<DataArray type="Float64" NumberOfComponents="3" format="ascii">
-0.49999999999999828 -0.48677703703187492 0 -0.5 -0.5 0 -0.48129281494584059 -0.49338851851593718 0 -0.5 -0.5 0 -0.48129281494584059 -0.49338851851593718 0 -0.46258562989168328 -0.5 0 -0.49999999999999828 -0.48677703703187492 0 -0.48129281494584059 -0.49338851851593718 0 -0.49999999999999828 -0.48677703703187492 0 -0.4824545428279598 -0.47451624516148783 0 -0.48129281494584059 -0.49338851851593718 0 -0.49999999999999828 -0.48677703703187492 0 -0.4824545428279598 -0.47451624516148783 0 -0.5 -0.46599539173150673 0 -0.4824545428279598 -0.47451624516148783 0 -0.46853075243710779 -0.48354990242643758 0 -0.46411508256092049 -0.46598235294430129 0 -0.4824545428279598 -0.47451624516148783 0 -0.48129281494584059 -0.49338851851593718 0 -0.46853075243710779 -0.48354990242643758 0 -0.48129281494584059 -0.49338851851593718 0 -0.46258562989168328 -0.5 0 -0.48129281494584059 -0.49338851851593718 0 -0.46258562989168328 -0.5 0 -0.46853075243710779 -0.48354990242643758 0 -0.46258562989168328 -0.5 0 -0.46853075243710779 -0.48354990242643758 0 -0.45147378687733691 -0.48362213557840178 0 -0.46853075243710779 -0.48354990242643758 0 -0.45147378687733691 -0.48362213557840178 0 -0.46411508256092049 -0.46598235294430129 0 -0.4457251648104853 -0.47020164095208389 0 -0.45147378687733691 -0.48362213557840178 0 -0.46411508256092049 -0.46598235294430129 0 -0.4457251648104853 -0.47020164095208389 0 -0.45147378687733691 -0.48362213557840178 0 -0.43513446131126993 -0.48199891714758791 0 -0.45147378687733691 -0.48362213557840178 0 -0.43275163025255442 -0.5 0 -0.43513446131126993 -0.48199891714758791 0 -0.46258562989168328 -0.5 0 -0.45147378687733691 -0.48362213557840178 0 -0.43275163025255442 -0.5 0 -0.4467190029717853 -0.45478934699519452 0 -0.4422915115958943 -0.43555510214664611 0 -0.43246707723660932 -0.44794326854796312 0 -0.4457251648104853 -0.47020164095208389 0 -0.4467190029717853 -0.45478934699519452 0 -0.46411508256092049 -0.46598235294430129 0 -0.4457251648104853 -0.47020164095208389 0 -0.4467190029717853 -0.45478934699519452 0 -0.43016578207734568 -0.46313500011938619 0 -0.4467190029717853 -0.45478934699519452 0 -0.46411508256092049 -0.46598235294430129 0 -0.47114575579794699 -0.4403844242888923 0 -0.4467190029717853 -0.45478934699519452 0 -0.47114575579794699 -0.4403844242888923 0 -0.4422915115958943 -0.43555510214664611 0 -0.47114575579794699 -0.4403844242888923 0 -0.4422915115958943 -0.43555510214664611 0 -0.46411508256092049 -0.46598235294430129 0 -0.47114575579794699 -0.4403844242888923 0 -0.48354307623736548 -0.45841843211146538 0 -0.4824545428279598 -0.47451624516148783 0 -0.46411508256092049 -0.46598235294430129 0 -0.48354307623736548 -0.45841843211146538 0 -0.4824545428279598 -0.47451624516148783 0 -0.48354307623736548 -0.45841843211146538 0 -0.5 -0.46599539173150673 0 -0.48354307623736548 -0.45841843211146538 0 -0.5 -0.46599539173150673 0 -0.49999999999999972 -0.44521374643113848 0 -0.47114575579794699 -0.4403844242888923 0 -0.49999999999999972 -0.44521374643113848 0 -0.47114575579794699 -0.4403844242888923 0 -0.49999999999999972 -0.44521374643113848 0 -0.48704432221743971 -0.42935617662229603 0 -0.47114575579794699 -0.4403844242888923 0 -0.48354307623736548 -0.45841843211146538 0 -0.49999999999999972 -0.44521374643113848 0 -0.49999999999999972 -0.44521374643113848 0 -0.48704432221743971 -0.42935617662229603 0 -0.5 -0.41591957503128979 0 -0.48704432221743971 -0.42935617662229603 0 -0.5 -0.41591957503128979 0 -0.47703153307181151 -0.41590696073786332 0 -0.5 -0.41591957503128979 0 -0.47703153307181151 -0.41590696073786332 0 -0.48817838912021821 -0.4022119694541284 0 -0.47114575579794699 -0.4403844242888923 0 -0.48704432221743971 -0.42935617662229603 0 -0.47703153307181151 -0.41590696073786332 0 -0.5 -0.38662540363144121 0 -0.47568202340906118 -0.39039593841591919 0 -0.4947615751445838 -0.37332156409002909 0 -0.47568202340906118 -0.39039593841591919 0 -0.4947615751445838 -0.37332156409002909 0 -0.5 -0.38662540363144121 0 -0.48817838912021821 -0.4022119694541284 0 -0.47568202340906118 -0.39039593841591919 0 -0.5 -0.41591957503128979 0 -0.5 -0.38662540363144121 0 -0.48817838912021821 -0.4022119694541284 0 -0.47703153307181151 -0.41590696073786332 0 -0.48817838912021821 -0.4022119694541284 0 -0.47568202340906118 -0.39039593841591919 0 -0.47703153307181151 -0.41590696073786332 0 -0.47568202340906118 -0.39039593841591919 0 -0.45660247167353862 -0.40747031274180939 0 -0.47568202340906118 -0.39039593841591919 0 -0.48030931097003587 -0.37191064435083931 0 -0.46669490250066459 -0.37481721741951951 0 -0.47568202340906118 -0.39039593841591919 0 -0.4947615751445838 -0.37332156409002909 0 -0.48030931097003587 -0.37191064435083931 0 -0.45332061783919553 -0.38729481725706361 0 -0.46669490250066459 -0.37481721741951951 0 -0.45095991715087752 -0.36968037302039969 0 -0.47568202340906118 -0.39039593841591919 0 -0.45332061783919553 -0.38729481725706361 0 -0.46669490250066459 -0.37481721741951951 0 -0.47568202340906118 -0.39039593841591919 0 -0.45660247167353862 -0.40747031274180939 0 -0.47568202340906118 -0.39039593841591919 0 -0.45332061783919553 -0.38729481725706361 0 -0.45660247167353862 -0.40747031274180939 0 -0.44332653075004852 -0.401690115615219 0 -0.44646247228389868 -0.41654464256061052 0 -0.42870657106664078 -0.39987574649354879 0 -0.45332061783919553 -0.38729481725706361 0 -0.44332653075004852 -0.401690115615219 0 -0.43479631603355468 -0.39077639303142497 0 -0.45332061783919553 -0.38729481725706361 0 -0.44332653075004852 -0.401690115615219 0 -0.45660247167353862 -0.40747031274180939 0 -0.45332061783919553 -0.38729481725706361 0 -0.43421362475025049 -0.37527491429266319 0 -0.43479631603355468 -0.39077639303142497 0 -0.45332061783919553 -0.38729481725706361 0 -0.43421362475025049 -0.37527491429266319 0 -0.45095991715087752 -0.36968037302039969 0 -0.47114575579794699 -0.4403844242888923 0 -0.45663439814062529 -0.42533932462455271 0 -0.4422915115958943 -0.43555510214664611 0 -0.47114575579794699 -0.4403844242888923 0 -0.47703153307181151 -0.41590696073786332 0 -0.45663439814062529 -0.42533932462455271 0 -0.45663439814062529 -0.42533932462455271 0 -0.45660247167353862 -0.40747031274180939 0 -0.44646247228389868 -0.41654464256061052 0 -0.47703153307181151 -0.41590696073786332 0 -0.45663439814062529 -0.42533932462455271 0 -0.45660247167353862 -0.40747031274180939 0 -0.44332653075004852 -0.401690115615219 0 -0.45660247167353862 -0.40747031274180939 0 -0.44646247228389868 -0.41654464256061052 0 -0.45660247167353862 -0.40747031274180939 0 -0.44646247228389868 -0.41654464256061052 0 -0.44646247228389868 -0.41654464256061052 0 -0.4375229199380159 -0.42454468706769971 0 -0.45663439814062529 -0.42533932462455271 0 -0.4375229199380159 -0.42454468706769971 0 -0.4422915115958943 -0.43555510214664611 0 -0.45663439814062529 -0.42533932462455271 0 -0.44646247228389868 -0.41654464256061052 0 -0.4375229199380159 -0.42454468706769971 0 -0.4375229199380159 -0.42454468706769971 0 -0.4422915115958943 -0.43555510214664611 0 -0.43077617074680319 -0.43406335077952207 0 -0.43077617074680319 -0.43406335077952207 0 -0.42550232634077589 -0.42345940056268039 0 -0.41950844772475421 -0.43888456563633732 0 -0.4375229199380159 -0.42454468706769971 0 -0.43077617074680319 -0.43406335077952207 0 -0.42550232634077589 -0.42345940056268039 0 -0.44646247228389868 -0.41654464256061052 0 -0.41657232816672918 -0.41306671883907142 0 -0.42870657106664078 -0.39987574649354879 0 -0.44646247228389868 -0.41654464256061052 0 -0.4375229199380159 -0.42454468706769971 0 -0.42550232634077589 -0.42345940056268039 0 -0.44646247228389868 -0.41654464256061052 0 -0.42550232634077589 -0.42345940056268039 0 -0.41657232816672918 -0.41306671883907142 0 -0.44646247228389868 -0.41654464256061052 0 -0.41657232816672918 -0.41306671883907142 0 -0.42550232634077589 -0.42345940056268039 0 -0.41657232816672918 -0.41306671883907142 0 -0.41333489101611293 -0.42699700567040988 0 -0.41657232816672918 -0.41306671883907142 0 -0.41333489101611293 -0.42699700567040988 0 -0.39893236021425188 -0.42931692235905211 0 -0.41333489101611293 -0.42699700567040988 0 -0.39893236021425188 -0.42931692235905211 0 -0.41950844772475421 -0.43888456563633732 0 -0.42550232634077589 -0.42345940056268039 0 -0.41333489101611293 -0.42699700567040988 0 -0.41950844772475421 -0.43888456563633732 0 -0.43421362475025049 -0.37527491429266319 0 -0.42478231784314502 -0.38643128255249681 0 -0.41656514696884139 -0.37636588688318029 0 -0.43421362475025049 -0.37527491429266319 0 -0.42478231784314502 -0.38643128255249681 0 -0.43479631603355468 -0.39077639303142497 0 -0.42478231784314502 -0.38643128255249681 0 -0.43479631603355468 -0.39077639303142497 0 -0.42870657106664078 -0.39987574649354879 0 -0.44332653075004852 -0.401690115615219 0 -0.43479631603355468 -0.39077639303142497 0 -0.42870657106664078 -0.39987574649354879 0 -0.41657232816672918 -0.41306671883907142 0 -0.40962993039643741 -0.3898634720616666 0 -0.3946356370269814 -0.39577424904278191 0 -0.42478231784314502 -0.38643128255249681 0 -0.42870657106664078 -0.39987574649354879 0 -0.40962993039643741 -0.3898634720616666 0 -0.41657232816672918 -0.41306671883907142 0 -0.42870657106664078 -0.39987574649354879 0 -0.40962993039643741 -0.3898634720616666 0 -0.42478231784314502 -0.38643128255249681 0 -0.40962993039643741 -0.3898634720616666 0 -0.41656514696884139 -0.37636588688318029 0 -0.40962993039643741 -0.3898634720616666 0 -0.41656514696884139 -0.37636588688318029 0 -0.40465459864295228 -0.37650109000307358 0 -0.39431275766669582 -0.38061373190328529 0 -0.40465459864295228 -0.37650109000307358 0 -0.3968495855878465 -0.36923685638487008 0 -0.40962993039643741 -0.3898634720616666 0 -0.39431275766669582 -0.38061373190328529 0 -0.40465459864295228 -0.376501090003
[...]
<PointData Scalars="" Vectors="displacement," Tensors="">
<DataArray type="Float64" Name="displacement" NumberOfComponents="3" format="ascii">
-7.64963095936246e-07 0.05355025849883658 0 5.1013818298994393e-07 0.054996930401207761 0 -2.4853795349124683e-07 0.054956282513897302 0 5.1013818298994393e-07 0.054996930401207761 0 -2.4853795349124683e-07 0.054956282513897302 0 -2.5308089028394406e-07 0.055001351691367828 0 -1.7465125540899385e-07 0.05354660511712727 0 5.7601565163193896e-06 0.054235154296270814 0 2.1834754430255988e-07 0.053542110592425182 0 0.00029565669604376987 0.052716873378514134 0 0.00027973109034685003 0.053250379479154203 0 2.1834754430255988e-07 0.053542110592425182 0 0.00029565669604376987 0.052716873378514134 0 1.6137713081935409e-06 0.051260029006190352 0 0.00029565669604376987 0.052716873378514134 0 0.00017931388714084612 0.053808750236643832 0 0.00024912779819269556 0.053425909104238715 0 0.00029565669604376987 0.052716873378514134 0 0.00027973109034685003 0.053250379479154203 0 0.00017931388714084612 0.053808750236643832 0 5.7601565163193896e-06 0.054235154296270814 0 2.6008501591809342e-07 0.05499870456500789 0 0.00027973109034685003 0.053250379479154203 0 1.8836072742388779e-06 0.054996283116601631 0 0.00017931388714084612 0.053808750236643832 0 1.8836072742388779e-06 0.054996283116601631 0 0.00017931388714084612 0.053808750236643832 0 0.0001786538040334679 0.054299193450580818 0 0.00017931388714084612 0.053808750236643832 0 0.0001786538040334679 0.054299193450580818 0 0.00024912779819269556 0.053425909104238715 0 0.00027833111199306471 0.053877267975779408 0 0.0001786538040334679 0.054299193450580818 0 0.00024912779819269556 0.053425909104238715 0 0.00027833111199306471 0.053877267975779408 0 0.0001786538040334679 0.054299193450580818 0 0.00013906544800982546 0.054328507050034128 0 0.0001786538040334679 0.054299193450580818 0 -4.799932531373476e-07 0.054999220390287595 0 0.00013906544800982546 0.054328507050034128 0 1.8836072742388779e-06 0.054996283116601631 0 0.0001786538040334679 0.054299193450580818 0 -4.799932531373476e-07 0.054999220390287595 0 0.00034834487290526369 0.053364073794290659 0 0.0011151156846001997 0.052458618170881585 0 0.00075367987680148964 0.053167085550370648 0 0.00027833111199306471 0.053877267975779408 0 0.00034834487290526369 0.053364073794290659 0 0.00024912779819269556 0.053425909104238715 0 0.00027833111199306471 0.053877267975779408 0 0.00034834487290526369 0.053364073794290659 0 0.00043878929743850322 0.053683244983233 0 0.00034834487290526369 0.053364073794290659 0 0.00024912779819269556 0.053425909104238715 0 -0.00040958230629513012 0.053056505742142247 0 0.00034834487290526369 0.053364073794290659 0 -0.00040958230629513012 0.053056505742142247 0 0.0011151156846001997 0.052458618170881585 0 0.00023705069658528662 0.050282899122925426 0 0.00034386329331396114 0.051136605258281932 0 0.00024912779819269556 0.053425909104238715 0 -0.00040958230629513012 0.053056505742142247 0 0.00027375981298583918 0.051919679502072352 0 0.00029565669604376987 0.052716873378514134 0 0.00024912779819269556 0.053425909104238715 0 0.00027375981298583918 0.051919679502072352 0 0.00029565669604376987 0.052716873378514134 0 0.00027375981298583918 0.051919679502072352 0 1.6137713081935409e-06 0.051260029006190352 0 0.00027375981298583918 0.051919679502072352 0 1.6137713081935409e-06 0.051260029006190352 0 -3.0455066279734326e-06 0.048978749176070056 0 0.00023705069658528662 0.050282899122925426 0 5.9085112269560481e-07 0.048974863530756377 0 0.0012984310242732402 0.047457190067970112 0 3.6583413230598249e-07 0.048968183556656872 0 0.00053087213141103987 0.047212149149898519 0 -0.00040958230629513012 0.053056505742142247 0 0.00027375981298583918 0.051919679502072352 0 -3.0455066279734326e-06 0.048978749176070056 0 3.6583413230598249e-07 0.048968183556656872 0 0.00053087213141103987 0.047212149149898519 0 1.3727115303615841e-06 0.045753061024918891 0 0.00053087213141103987 0.047212149149898519 0 1.3727115303615841e-06 0.045753061024918891 0 5.1686883250724715e-05 0.046852507969888678 0 1.3727115303615841e-06 0.045753061024918891 0 5.1686883250724715e-05 0.046852507969888678 0 -0.00012846811477265139 0.045149213828455055 0 0.0012984310242732402 0.047457190067970112 0 0.00053087213141103987 0.047212149149898519 0 5.1686883250724715e-05 0.046852507969888678 0 -2.408377471869834e-06 0.042528597560199846 0 -0.0010302296671455698 0.045821717033083 0 -0.00037164717576224245 0.040827875298702146 0 5.8931148616694135e-05 0.04326586999750312 0 2.9466361931849822e-05 0.042883486015833978 0 -2.408377471869834e-06 0.042528597560199846 0 -0.00012846811477265139 0.045149213828455055 0 -0.0010302296671455698 0.045821717033083 0 1.3727115303615841e-06 0.045753061024918891 0 -2.408377471869834e-06 0.042528597560199846 0 -0.00012846811477265139 0.045149213828455055 0 5.1686883250724715e-05 0.046852507969888678 0 -0.00012846811477265139 0.045149213828455055 0 -0.0010302296671455698 0.045821717033083 0 5.1686883250724715e-05 0.046852507969888678 0 -0.0010302296671455698 0.045821717033083 0 -0.0010004891285522594 0.048989023999219582 0 -0.00037095034698929054 0.037446156474558949 0 -0.00019336434918073865 0.038275459102912433 0 -0.00026430430537472988 0.03758001341456832 0 -0.00037095034698929054 0.037446156474558949 0 -0.00037164717576224245 0.040827875298702146 0 -0.00019336434918073865 0.038275459102912433 0 0.00032358116259655962 0.038039136706445154 0 -0.00026430430537472988 0.03758001341456832 0 -0.00037157597629766751 0.038002485198705346 0 -0.00037095034698929054 0.037446156474558949 0 0.00032358116259655962 0.038039136706445154 0 -0.00026430430537472988 0.03758001341456832 0 5.8931148616694135e-05 0.04326586999750312 0 0.00044675411850580695 0.044556774026316096 0 -0.00037095034698929054 0.037446156474558949 0 0.00032358116259655962 0.038039136706445154 0 0.0017779256573409786 0.037849978109011792 0 0.0016185693839872852 0.038791638986646775 0 0.0028778425471662271 0.038526481814307123 0 0.001773376876666398 0.040057099249474988 0 0.00032358116259655962 0.038039136706445154 0 0.0016185693839872852 0.038791638986646775 0 0.00084180182007179659 0.03943008468615454 0 0.00032358116259655962 0.038039136706445154 0 0.0016185693839872852 0.038791638986646775 0 0.0017779256573409786 0.037849978109011792 0 0.00032358116259655962 0.038039136706445154 0 -0.00027371747797008694 0.039277623044449504 0 0.00084180182007179659 0.03943008468615454 0 0.00032358116259655962 0.038039136706445154 0 -0.00027371747797008694 0.039277623044449504 0 -0.00037157597629766751 0.038002485198705346 0 0.0012984310242732402 0.047457190067970112 0 0.00022503835433912369 0.049556999851404993 0 0.0011151156846001997 0.052458618170881585 0 0.0012984310242732402 0.047457190067970112 0 5.1686883250724715e-05 0.046852507969888678 0 0.00022503835433912369 0.049556999851404993 0 0.00022503835433912369 0.049556999851404993 0 -0.0010004891285522594 0.048989023999219582 0 -0.00061861432153818732 0.050876988084472503 0 5.1686883250724715e-05 0.046852507969888678 0 0.00022503835433912369 0.049556999851404993 0 -0.0010004891285522594 0.048989023999219582 0 0.0016185693839872852 0.038791638986646775 0 0.0017779256573409786 0.037849978109011792 0 0.0028778425471662271 0.038526481814307123 0 0.00044675411850580695 0.044556774026316096 0 0.00067957252192705824 0.045493618144726383 0 0.00067957252192705824 0.045493618144726383 0 0.0011552804692588697 0.046429703304758457 0 0.00022503835433912369 0.049556999851404993 0 0.00051491489734441221 0.052684421059573452 0 0.0011151156846001997 0.052458618170881585 0 0.00022503835433912369 0.049556999851404993 0 -0.00061861432153818732 0.050876988084472503 0 0.00051491489734441221 0.052684421059573452 0 0.00051491489734441221 0.052684421059573452 0 0.0011151156846001997 0.052458618170881585 0 0.0009038475294808558 0.052966456281743707 0 0.0009038475294808558 0.052966456281743707 0 0.0008616676925777317 0.052941453969610378 0 0.00091460202841741971 0.053141580071814097 0 0.00051491489734441221 0.052684421059573452 0 0.0009038475294808558 0.052966456281743707 0 0.0008616676925777317 0.052941453969610378 0 0.0028778425471662271 0.038526481814307123 0 0.0033796528990963216 0.041333533460187873 0 0.001773376876666398 0.040057099249474988 0 0.00037059950706302703 0.052594278293711695 0 0.00051491489734441221 0.052684421059573452 0 0.0008616676925777317 0.052941453969610378 0 0.00037059950706302703 0.052594278293711695 0 0.0008616676925777317 0.052941453969610378 0 0.0011446439394445852 0.053042695543033064 0 0.00067957252192705824 0.045493618144726383 0 0.001658610172147952 0.047126068353871814 0 0.0008616676925777317 0.052941453969610378 0 0.0011446439394445852 0.053042695543033064 0 0.0010605545432386891 0.052988269111997083 0 0.0011446439394445852 0.053042695543033064 0 0.0010605545432386891 0.052988269111997083 0 0.0012383000788395676 0.052759427313672377 0 0.0010605545432386891 0.052988269111997083 0 0.0012383000788395676 0.052759427313672377 0 0.00091460202841741971 0.053141580071814097 0 0.0008616676925777317 0.052941453969610378 0 0.0010605545432386891 0.052988269111997083 0 0.00091460202841741971 0.053141580071814097 0 -0.00027371747797008694 0.039277623044449504 0 0.00053695094176344675 0.04036719439648348 0 -0.00039975264753211237 0.041138625937504225 0 -0.00027371747797008694 0.039277623044449504 0 0.00053695094176344675 0.04036719439648348 0 0.00084180182007179659 0.03943008468615454 0 0.00053695094176344675 0.04036719439648348 0 0.00084180182007179659 0.03943008468615454 0 0.001773376876666398 0.040057099249474988 0 0.0016185693839872852 0.038791638986646775 0 0.00084180182007179659 0.03943008468615454 0 0.001773376876666398 0.040057099249474988 0 0.0033796528990963216 0.041333533460187873 0 0.00091580356889929895 0.04217621625267607 0 0.0016432078846229661 0.044300768159691431 0 0.00053695094176344675 0.04036719439648348 0 0.001773376876666398 0.040057099249474988 0 0.00091580356889929895 0.04217621625267607 0 0.0033796528990963216 0.041333533460187873 0 0.001773376876666398 0.040057099249474988 0 0.00091580356889929895 0.04217621625267607 0 0.00053695094176344675 0.04036719439648348 0 0.00091580356889929895 0.04217621625267607 0 -0.00039975264753211237 0.041138625937504225 0 0.00091580356889929895 0.04217621625267607 0 -0.00039975264753211237 0.041138625937504225 0 -0.00057730149775788732 0.042805711519595092 0 -0.00020678860990473694 0.044346682578654005 0 -0.00057730149775788732 0.042805711519595092 0 -0.0016083828308852423 0.043977818890006654 0 0.00091580356889929895 0.04217621625267607 0 -0.00020678860990473694 0.044346682578654005 0 -0.00057730149775788732 0.042805711519595092 0 0.00091580356889929895 0.04217621625267607 0 -0.00020678860990473694 0.044346682578654005 0 0.0016432078846229661 0.044300768159691431 0 0.0016432078846229661 0.044300768159691431 0 0.0036152679430367057 0.045436444494772306 0 0.0015857965983959068 0.047456874305485515 0 0.0016432078846229661 0.044300768159691431 0 -0.00035407570396846786 0.047275988467809095 0 0.0015857965983959068 0.047456874305485515 0 -0.00020678860990473694 0.044346682578654005 0 0.0016432078846229661 0.044300768159691431 0 -0.00035407570396846786 0.047275988467809095 0 -0.00020678860990473694 0.044346682578654005 0 -0.00035407570396846786 0.047275988467809095 0 -0.0015795932370985255 0.045686343935905885 0 0.0011446439394445852 0.053042695543033064 0 0.0012383000788395676 0.052759427313672377 0 0.0020785167972870952 0.052368491663001109 0 0.0033796528990963216 0.041333533460187873 0 0.0016432078846229661 0.044300768159691431 0 0.0036152679430367057 0.045436444494772306 0 0.001658610172147952 0.047126068353871814 0 0.0021598318835740569 0.048581165440654564 0 0.0020785167972870952 0.052368491663001109 0 0.0015047985851137202 0.05208352834266048 0 0.0019398966755626134 0.051080152723620056 0 0.0015047985851137202 0.05208352834266048 0 0.00099539885960384317 0.052274382151927846 0 0.00146410649692157 0.051480784869700084 0 0.0012383000788395676 0.052759427313672377 0 0.0015047985851137202 0.05208352834266048 0 0.00099539885960384317 0.052274382151927846 0 0.0012383000788395676 0.052759427313672377 0 0.0020785167972870952 0.052368491663001109 0 0.0015047985851137202 0.05208352834266048 0 0.00099539885960384317 0.052274382151927846 0 0.00077936242772587731 0.053061903681146778 0 0.00047384613313284225 0.052661168825254075 0 0.0012383000788395676 0.052759427313672377 0 0.00099539885960384317 0.052274382151927846 0 0.00077936242772587731 0.053061903681146778 0 0.00077936242772587731 0.053061903681146778 0 0.00047384613313284225 0.052661168825254075 0 0.00031278038956845299 0.053315111519467287 0 0.00099539885960384317 0.052274382151927846 0 0.00047384613313284225 0.052661168825254075 0 0.00054679309632605483 0.051962896199855294 0 0.00047384613313284225 0.052661168825254075 0 -2.6963608282551318e-05 0.052299004430980234 0 0.00054679309632605483 0.051962896199855294 0 -2.6963608282551318e-05 0.052299004430980234 0 -0.00071481726764690212 0.052877283105761577 0 6.7891413680791626e-05 0.052964385784940365 0 0.00047384613313284225 0.052661168825254075 0 -2.6963608282551318e-05 0.052299004430980234 0 6.7891413680791626e-05 0.052964385784940365 0 -1.6148885838146297e-05 0.054120969940575005 0 0.0001714274952244844 0.054562970156133823 0 -3.1770076518781575e-05 0.055052646815568991 0 2.3712486143956571e-09 0.054999037720222202 0 -5.8247651989933008e-08 0.055000637431260477 0 -3.1770076518781575e-05 0.055052646815568991 0 1.2226925906296376e-05 0.054995160837669199 0 -5.8247651989933008e-08 0.055000637431260477 0 -2.6963608282551318e-05 0.052299004430980234 0 -0.00071481726764690212 0.052877283105761577 0 -0.00078415935529994711 0.051878492286758227 0 -1.6148885838146297e-05 0.054120969940575005 0 -5.3144972566255434e-05 0.054160777007251214 0 -0.00071481726764690212 0.052877283105761577 0 6.7891413680791626e-05 0.052964385784940365 0 5.678739364235403e-07 0.053631877936000383 0 -3.1770076518781575e-05 0.055052646815568991 0 2.3712486143956571e-09 0.054999037720222202 0 -0.00017497637994361032 0.054579861960132148 0 -0.00071481726764690212 0.052877283105761577 0 5.678739364235403e-07 0.053631877936000383 0 -0.00017497637994361032 0.054579861960132148 0 0.00047384613313284225 0.052661168825254075 0 6.7891413680791626e-05 0.052964385784940365 0 0.00031278038956845299 0.053315111519467287 0 6.7891413680791626e-05 0.052964385784940365 0 5.678739364235403e-07 0.053631877936000383 0 0.00031278038956845299 0.053315111519467287 0 0.00031278038956845299 0.053315111519467287 0 0.00021121936237925853 0.05399740668462618 0 0.00051668210747979034 0.053512861926040767 0 5.678739364235403e-07 0.053631877936000383 0 0.00021121936237925853 0.05399740668462618 0 -0.00017497637994361032 0.054579861960132148 0 5.678739364235403e-07 0.053631877936000383 0 0.00031278038956845299 0.053315111519467287 0 0.00021121936237925853 0.05399740668462618 0 0.00021121936237925853 0.05399740668462618 0 -0.00017497637994361032 0.054579861960132148 0 2.2501177460620519e-05 0.054492806902370204 0 2.3712486143956571e-09 0.054999037720222202 0 -0.00017497637994361032 0.054579861960132148 0 -4.799932531373476e-07 0.054999220390287595 0 -0.00017497637994361032 0.054579861960132148 0 2.2501177460620519e-05 0.054492806902370204 0 -4.799932531373476e-07 0.054999220390287595 0 2.2501177460620519e-05 0.054492806902370204 0 -4.799932531373476e-07 0.054999220390287595 0 0.00013906544800982546 0.054328507050034128 0 0.00027833111199306471 0.053877267975779408 0 0.00013906544800982546 0.054328507050034128 0 0.00043878929743850322 0.053683244983233 0 0.00021121936237925853 0.05399740668462618 0 0.00013906544800982546 0.054328507050034128 0 0.00043878929743850322 0.053683244983233 0 0.00021121936237925853 0.05399740668462618 0 2.2501177460620519e-05 0.054492806902370204 0 0.00013906544800982546 0.054328507050034128 0 0.00034834487290526369 0.053364073794290659 0 0.00043878929743850322 0.053683244983233 0 0.00075367987680148964 0.053167085550370648 0 0.00043878929743850322 0.053683244983233 0 0.00071388475478321501 0.053339573078834232 0 0.00051668210747979034 0.053512861926040767 0 0.00043878929743850322 0.053683244983233 0 0.00075367987680148964 0.053167085550370648 0 0.00071388475478321501 0.053339573078834232 0 0.0011151156846001997 0.052458618170881585 0 0.0009038475294808558 0.052966456281743707 0 0.00075367987680148964 0.053167085550370648 0 0.0009038475294808558 0.052966456281743707 0 0.00075367987680148964 0.053167085550370648 0 0.00091460202841741971 0.053141580071814097 0 0.00075367987680148964 0.053167085550370648 0 0.00071388475478321501 0.053339573078834232 0 0.00091460202841741971 0.053141580071814097 0 0.0012383000788395676 0.052759427313672377 0 0.00077936242772587731 0.053061903681146778 0 0.00091460202841741971 0.053141580071814097 0 0.00077936242772587731 0.053061903681146778 0 0.00071388475478321501 0.053339573078834232 0 0.00091460202841741971 0.053141580071814097 0 0.00077936242772587731 0.053061903681146778 0 0.00071388475478321501 0.053339573078834232 0 0.00051668210747979034 0.053512861926040767 0 0.00077936242772587731 0.053061903681146778 0 0.00031278038956845299 0.053315111519467287 0 0.00051668210747979034 0.053512861926040767 0 0.00021121936237925853 0.05399740668462618 0 0.00043878929743850322 0.053683244983233 0 0.00051668210747979034 0.053512861926040767 0 0.00018004842453014599 0.031494000781129704 0 0.00025553787642705692 0.03239162902699514 0 -0.00025757042411876912 0.03217423802005933 0 0.00018004842453014599 0.031494000781129704 0 0.00054150866858526626 0.032293940489836415 0 0.00025553787642705692 0.03239162902699514 0 0.00018004842453014599 0.031494000781129704 0 -0.00025757042411876912 0.03217423802005933 0 -0.00029200425659571061 0.031227258796431207 0 0.00018004842453014599 0.031494000781129704 0 0.00054150866858526626 0.032293940489836415 0 0.00054795014967445432 0.031500450026237914 0 0.00054150866858526626 0.032293940489836415 0 0.00054795014967445432 0.031500450026237914 0 0.00067397574262206123 0.032649425434719243 0 0.00054795014967445432 0.031500450026237914 0 0.00017145528404805441 0.029269535490619947 0 -7.9591640819250722e-05 0.030292359628196316 0 0.00018004842453014599 0.031494000781129704 0 0.00054795014967445432 0.031500450026237914 0 -7.9591640819250722e-05 0.030292359628196316 0 0.00018004842453014599 0.031494000781129704 0 -7.9591640819250722e-05 0.030292359628196316 0 -0.00029200425659571061 0.031227258796431207 0 0.00017145528404805441 0.029269535490619947 0 5.8065942341934334e-07 0.029640211655446783 0 4.2910275418467074e-07 0.026416618424478622 0 0.00017145528404805441 0.029269535490619947 0 5.8065942341934334e-07 0.029640211655446783 0 0.00036888948105290195 0.031376192042725591 0 0.00054795014967445432 0.031500450026237914 0 0.00017145528404805441 0.029269535490619947 0 0.00036888948105290195 0.031376192042725591 0 0.00054795014967445432 0.031500450026237914 0 0.00036888948105290195 0.031376192042725591 0 0.0005150173256350544 0.033024282120203655 0 0.00036888948105290195 0.031376192042725591 0 8.7914299731317486e-07 0.032862047384138074 0 0.0005150173256350544 0.033024282120203655 0 5.8065942341934334e-07 0.029640211655446783 0 0.00036888948105290195 0.031376192042725591 0 8.7914299731317486e-07 0.032862047384138074 0 8.7914299731317486e-07 0.032862047384138074 0 0.0005150173256350544 0.033024282120203655 0 0.00011611394193361798 0.035066660656161333 0 0.0005150173256350544 0.033024282120203655 0 0.00067397574262206123 0.032649425434719243 0 0.00021756034421244893 0.033979301830491783 0 0.00054795014967445432 0.031500450026237914 0 0.0005150173256350544 0.033024282120203655 0 0.00067397574262206123 0.032649425434719243 0 0.00054150866858526626 0.032293940489836415 0 0.00067397574262206123 0.032649425434719243 0 0.00062803820742833604 0.032510775474878059 0 0.00067397574262206123 0.032649425434719243 0 0.00021756034421244893 0.033979301830491783