<?xml version="1.0"?>
<VTKFile type="UnstructuredGrid" version="0.1" byte_order="LittleEndian">
<UnstructuredGrid>
<Piece NumberOfPoints="30881" NumberOfCells="10862">
<Points>
<DataArray type="Float64" NumberOfComponents="3" format="ascii">
-0.49999999999999828 -0.48677703703187492 0 -0.5 -0.5 0 -0.48129281494584059 -0.49338851851593718 0 -0.5 -0.5 0 -0.48129281494584059 -0.49338851851593718 0 -0.46258562989168328 -0.5 0 -0.49999999999999828 -0.48677703703187492 0 -0.48129281494584059 -0.49338851851593718 0 -0.49999999999999828 -0.48677703703187492 0 -0.4824545428279598 -0.47451624516148783 0 -0.48129281494584059 -0.49338851851593718 0 -0.49999999999999828 -0.48677703703187492 0 -0.4824545428279598 -0.47451624516148783 0 -0.5 -0.46599539173150673 0 -0.4824545428279598 -0.47451624516148783 0 -0.46853075243710779 -0.48354990242643758 0 -0.46411508256092049 -0.46598235294430129 0 -0.4824545428279598 -0.47451624516148783 0 -0.48129281494584059 -0.49338851851593718 0 -0.46853075243710779 -0.48354990242643758 0 -0.48129281494584059 -0.49338851851593718 0 -0.46258562989168328 -0.5 0 -0.48129281494584059 -0.49338851851593718 0 -0.46258562989168328 -0.5 0 -0.46853075243710779 -0.48354990242643758 0 -0.46258562989168328 -0.5 0 -0.46853075243710779 -0.48354990242643758 0 -0.45147378687733691 -0.48362213557840178 0 -0.46853075243710779 -0.48354990242643758 0 -0.45147378687733691 -0.48362213557840178 0 -0.46411508256092049 -0.46598235294430129 0 -0.4457251648104853 -0.47020164095208389 0 -0.45147378687733691 -0.48362213557840178 0 -0.46411508256092049 -0.46598235294430129 0 -0.4457251648104853 -0.47020164095208389 0 -0.45147378687733691 -0.48362213557840178 0 -0.43513446131126993 -0.48199891714758791 0 -0.45147378687733691 -0.48362213557840178 0 -0.43275163025255442 -0.5 0 -0.43513446131126993 -0.48199891714758791 0 -0.46258562989168328 -0.5 0 -0.45147378687733691 -0.48362213557840178 0 -0.43275163025255442 -0.5 0 -0.4467190029717853 -0.45478934699519452 0 -0.4422915115958943 -0.43555510214664611 0 -0.43246707723660932 -0.44794326854796312 0 -0.4457251648104853 -0.47020164095208389 0 -0.4467190029717853 -0.45478934699519452 0 -0.46411508256092049 -0.46598235294430129 0 -0.4457251648104853 -0.47020164095208389 0 -0.4467190029717853 -0.45478934699519452 0 -0.43016578207734568 -0.46313500011938619 0 -0.4467190029717853 -0.45478934699519452 0 -0.46411508256092049 -0.46598235294430129 0 -0.47114575579794699 -0.4403844242888923 0 -0.4467190029717853 -0.45478934699519452 0 -0.47114575579794699 -0.4403844242888923 0 -0.4422915115958943 -0.43555510214664611 0 -0.47114575579794699 -0.4403844242888923 0 -0.4422915115958943 -0.43555510214664611 0 -0.46411508256092049 -0.46598235294430129 0 -0.47114575579794699 -0.4403844242888923 0 -0.48354307623736548 -0.45841843211146538 0 -0.4824545428279598 -0.47451624516148783 0 -0.46411508256092049 -0.46598235294430129 0 -0.48354307623736548 -0.45841843211146538 0 -0.4824545428279598 -0.47451624516148783 0 -0.48354307623736548 -0.45841843211146538 0 -0.5 -0.46599539173150673 0 -0.48354307623736548 -0.45841843211146538 0 -0.5 -0.46599539173150673 0 -0.49999999999999972 -0.44521374643113848 0 -0.47114575579794699 -0.4403844242888923 0 -0.49999999999999972 -0.44521374643113848 0 -0.47114575579794699 -0.4403844242888923 0 -0.49999999999999972 -0.44521374643113848 0 -0.48704432221743971 -0.42935617662229603 0 -0.47114575579794699 -0.4403844242888923 0 -0.48354307623736548 -0.45841843211146538 0 -0.49999999999999972 -0.44521374643113848 0 -0.49999999999999972 -0.44521374643113848 0 -0.48704432221743971 -0.42935617662229603 0 -0.5 -0.41591957503128979 0 -0.48704432221743971 -0.42935617662229603 0 -0.5 -0.41591957503128979 0 -0.47703153307181151 -0.41590696073786332 0 -0.5 -0.41591957503128979 0 -0.47703153307181151 -0.41590696073786332 0 -0.48817838912021821 -0.4022119694541284 0 -0.47114575579794699 -0.4403844242888923 0 -0.48704432221743971 -0.42935617662229603 0 -0.47703153307181151 -0.41590696073786332 0 -0.5 -0.38662540363144121 0 -0.47568202340906118 -0.39039593841591919 0 -0.4947615751445838 -0.37332156409002909 0 -0.47568202340906118 -0.39039593841591919 0 -0.4947615751445838 -0.37332156409002909 0 -0.5 -0.38662540363144121 0 -0.48817838912021821 -0.4022119694541284 0 -0.47568202340906118 -0.39039593841591919 0 -0.5 -0.41591957503128979 0 -0.5 -0.38662540363144121 0 -0.48817838912021821 -0.4022119694541284 0 -0.47703153307181151 -0.41590696073786332 0 -0.48817838912021821 -0.4022119694541284 0 -0.47568202340906118 -0.39039593841591919 0 -0.47703153307181151 -0.41590696073786332 0 -0.47568202340906118 -0.39039593841591919 0 -0.45660247167353862 -0.40747031274180939 0 -0.47568202340906118 -0.39039593841591919 0 -0.48030931097003587 -0.37191064435083931 0 -0.46669490250066459 -0.37481721741951951 0 -0.47568202340906118 -0.39039593841591919 0 -0.4947615751445838 -0.37332156409002909 0 -0.48030931097003587 -0.37191064435083931 0 -0.45332061783919553 -0.38729481725706361 0 -0.46669490250066459 -0.37481721741951951 0 -0.45095991715087752 -0.36968037302039969 0 -0.47568202340906118 -0.39039593841591919 0 -0.45332061783919553 -0.38729481725706361 0 -0.46669490250066459 -0.37481721741951951 0 -0.47568202340906118 -0.39039593841591919 0 -0.45660247167353862 -0.40747031274180939 0 -0.47568202340906118 -0.39039593841591919 0 -0.45332061783919553 -0.38729481725706361 0 -0.45660247167353862 -0.40747031274180939 0 -0.44332653075004852 -0.401690115615219 0 -0.44646247228389868 -0.41654464256061052 0 -0.42870657106664078 -0.39987574649354879 0 -0.45332061783919553 -0.38729481725706361 0 -0.44332653075004852 -0.401690115615219 0 -0.43479631603355468 -0.39077639303142497 0 -0.45332061783919553 -0.38729481725706361 0 -0.44332653075004852 -0.401690115615219 0 -0.45660247167353862 -0.40747031274180939 0 -0.45332061783919553 -0.38729481725706361 0 -0.43421362475025049 -0.37527491429266319 0 -0.43479631603355468 -0.39077639303142497 0 -0.45332061783919553 -0.38729481725706361 0 -0.43421362475025049 -0.37527491429266319 0 -0.45095991715087752 -0.36968037302039969 0 -0.47114575579794699 -0.4403844242888923 0 -0.45663439814062529 -0.42533932462455271 0 -0.4422915115958943 -0.43555510214664611 0 -0.47114575579794699 -0.4403844242888923 0 -0.47703153307181151 -0.41590696073786332 0 -0.45663439814062529 -0.42533932462455271 0 -0.45663439814062529 -0.42533932462455271 0 -0.45660247167353862 -0.40747031274180939 0 -0.44646247228389868 -0.41654464256061052 0 -0.47703153307181151 -0.41590696073786332 0 -0.45663439814062529 -0.42533932462455271 0 -0.45660247167353862 -0.40747031274180939 0 -0.44332653075004852 -0.401690115615219 0 -0.45660247167353862 -0.40747031274180939 0 -0.44646247228389868 -0.41654464256061052 0 -0.45660247167353862 -0.40747031274180939 0 -0.44646247228389868 -0.41654464256061052 0 -0.44646247228389868 -0.41654464256061052 0 -0.4375229199380159 -0.42454468706769971 0 -0.45663439814062529 -0.42533932462455271 0 -0.4375229199380159 -0.42454468706769971 0 -0.4422915115958943 -0.43555510214664611 0 -0.45663439814062529 -0.42533932462455271 0 -0.44646247228389868 -0.41654464256061052 0 -0.4375229199380159 -0.42454468706769971 0 -0.4375229199380159 -0.42454468706769971 0 -0.4422915115958943 -0.43555510214664611 0 -0.43077617074680319 -0.43406335077952207 0 -0.43077617074680319 -0.43406335077952207 0 -0.42550232634077589 -0.42345940056268039 0 -0.41950844772475421 -0.43888456563633732 0 -0.4375229199380159 -0.42454468706769971 0 -0.43077617074680319 -0.43406335077952207 0 -0.42550232634077589 -0.42345940056268039 0 -0.44646247228389868 -0.41654464256061052 0 -0.41657232816672918 -0.41306671883907142 0 -0.42870657106664078 -0.39987574649354879 0 -0.44646247228389868 -0.41654464256061052 0 -0.4375229199380159 -0.42454468706769971 0 -0.42550232634077589 -0.42345940056268039 0 -0.44646247228389868 -0.41654464256061052 0 -0.42550232634077589 -0.42345940056268039 0 -0.41657232816672918 -0.41306671883907142 0 -0.44646247228389868 -0.41654464256061052 0 -0.41657232816672918 -0.41306671883907142 0 -0.42550232634077589 -0.42345940056268039 0 -0.41657232816672918 -0.41306671883907142 0 -0.41333489101611293 -0.42699700567040988 0 -0.41657232816672918 -0.41306671883907142 0 -0.41333489101611293 -0.42699700567040988 0 -0.39893236021425188 -0.42931692235905211 0 -0.41333489101611293 -0.42699700567040988 0 -0.39893236021425188 -0.42931692235905211 0 -0.41950844772475421 -0.43888456563633732 0 -0.42550232634077589 -0.42345940056268039 0 -0.41333489101611293 -0.42699700567040988 0 -0.41950844772475421 -0.43888456563633732 0 -0.43421362475025049 -0.37527491429266319 0 -0.42478231784314502 -0.38643128255249681 0 -0.41656514696884139 -0.37636588688318029 0 -0.43421362475025049 -0.37527491429266319 0 -0.42478231784314502 -0.38643128255249681 0 -0.43479631603355468 -0.39077639303142497 0 -0.42478231784314502 -0.38643128255249681 0 -0.43479631603355468 -0.39077639303142497 0 -0.42870657106664078 -0.39987574649354879 0 -0.44332653075004852 -0.401690115615219 0 -0.43479631603355468 -0.39077639303142497 0 -0.42870657106664078 -0.39987574649354879 0 -0.41657232816672918 -0.41306671883907142 0 -0.40962993039643741 -0.3898634720616666 0 -0.3946356370269814 -0.39577424904278191 0 -0.42478231784314502 -0.38643128255249681 0 -0.42870657106664078 -0.39987574649354879 0 -0.40962993039643741 -0.3898634720616666 0 -0.41657232816672918 -0.41306671883907142 0 -0.42870657106664078 -0.39987574649354879 0 -0.40962993039643741 -0.3898634720616666 0 -0.42478231784314502 -0.38643128255249681 0 -0.40962993039643741 -0.3898634720616666 0 -0.41656514696884139 -0.37636588688318029 0 -0.40962993039643741 -0.3898634720616666 0 -0.41656514696884139 -0.37636588688318029 0 -0.40465459864295228 -0.37650109000307358 0 -0.39431275766669582 -0.38061373190328529 0 -0.40465459864295228 -0.37650109000307358 0 -0.3968495855878465 -0.36923685638487008 0 -0.40962993039643741 -0.3898634720616666 0 -0.39431275766669582 -0.38061373190328529 0 -0.40465459864295228 -0.376501090003
[...]
<PointData Scalars="" Vectors="displacement," Tensors="">
<DataArray type="Float64" Name="displacement" NumberOfComponents="3" format="ascii">
0.054999670283763222 -1.5186461046128562e-07 0 0.054998911089940893 3.0679781355390267e-07 0 0.053353566897123811 -5.1558966368502783e-08 0 0.054998911089940893 3.0679781355390267e-07 0 0.053353566897123811 -5.1558966368502783e-08 0 0.050886923609620466 -4.6078556031427868e-07 0 0.05499513411624133 7.9439369589829768e-07 0 0.052974890486942518 7.3618847361311108e-05 0 0.054996867786988077 9.6151374622788333e-07 0 0.053644670817346564 0.00039504924751598803 0 0.052836448386469788 0.00046743819869999659 0 0.054996867786988077 9.6151374622788333e-07 0 0.053644670817346564 0.00039504924751598803 0 0.054999186704350847 7.0179620163204173e-08 0 0.053644670817346564 0.00039504924751598803 0 0.052246862053473307 0.00033297183662437524 0 0.052696319161130191 0.00045491849143401068 0 0.053644670817346564 0.00039504924751598803 0 0.052836448386469788 0.00046743819869999659 0 0.052246862053473307 0.00033297183662437524 0 0.052974890486942518 7.3618847361311108e-05 0 0.050889430663085683 -5.2400122540594825e-07 0 0.052836448386469788 0.00046743819869999659 0 0.050883691616097924 1.7572309529652596e-06 0 0.052246862053473307 0.00033297183662437524 0 0.050883691616097924 1.7572309529652596e-06 0 0.052246862053473307 0.00033297183662437524 0 0.050897473325636239 0.00029594031255451023 0 0.052246862053473307 0.00033297183662437524 0 0.050897473325636239 0.00029594031255451023 0 0.052696319161130191 0.00045491849143401068 0 0.051424761705998086 0.0002507825636448153 0 0.050897473325636239 0.00029594031255451023 0 0.052696319161130191 0.00045491849143401068 0 0.051424761705998086 0.0002507825636448153 0 0.050897473325636239 0.00029594031255451023 0 0.049863760963808089 0.0001019963577457456 0 0.050897473325636239 0.00029594031255451023 0 0.047605315770000545 3.6919507664415636e-07 0 0.049863760963808089 0.0001019963577457456 0 0.050883691616097924 1.7572309529652596e-06 0 0.050897473325636239 0.00029594031255451023 0 0.047605315770000545 3.6919507664415636e-07 0 0.052321188931763921 0.00022034188341633649 0 0.053079119542104737 -3.6113379109399606e-05 0 0.052266489533665285 -0.00020911052788501349 0 0.051424761705998086 0.0002507825636448153 0 0.052321188931763921 0.00022034188341633649 0 0.052696319161130191 0.00045491849143401068 0 0.051424761705998086 0.0002507825636448153 0 0.052321188931763921 0.00022034188341633649 0 0.051327746867283454 -0.0001613098513344183 0 0.052321188931763921 0.00022034188341633649 0 0.052696319161130191 0.00045491849143401068 0 0.053394831731117934 0.00053500908395781349 0 0.052321188931763921 0.00022034188341633649 0 0.053394831731117934 0.00053500908395781349 0 0.053079119542104737 -3.6113379109399606e-05 0 0.05435577241596172 0.00020401257721128357 0 0.054093877170291627 5.7517747635892084e-05 0 0.052696319161130191 0.00045491849143401068 0 0.053394831731117934 0.00053500908395781349 0 0.053971829606881752 0.00033240193890975893 0 0.053644670817346564 0.00039504924751598803 0 0.052696319161130191 0.00045491849143401068 0 0.053971829606881752 0.00033240193890975893 0 0.053644670817346564 0.00039504924751598803 0 0.053971829606881752 0.00033240193890975893 0 0.054999186704350847 7.0179620163204173e-08 0 0.053971829606881752 0.00033240193890975893 0 0.054999186704350847 7.0179620163204173e-08 0 0.054997676028667154 4.5893328925476545e-07 0 0.05435577241596172 0.00020401257721128357 0 0.054998808621964872 3.7640380095163773e-07 0 0.054375593266862525 0.00013143000361576647 0 0.05499960660016863 5.6078477335655246e-08 0 0.054739392162889797 7.1294401852024705e-05 0 0.053394831731117934 0.00053500908395781349 0 0.053971829606881752 0.00033240193890975893 0 0.054997676028667154 4.5893328925476545e-07 0 0.05499960660016863 5.6078477335655246e-08 0 0.054739392162889797 7.1294401852024705e-05 0 0.054999499346264004 1.3831112348937413e-07 0 0.054739392162889797 7.1294401852024705e-05 0 0.054999499346264004 1.3831112348937413e-07 0 0.054580509538996347 0.00012127685076969403 0 0.054999499346264004 1.3831112348937413e-07 0 0.054580509538996347 0.00012127685076969403 0 0.054866250396531292 8.1608313412026307e-05 0 0.054375593266862525 0.00013143000361576647 0 0.054739392162889797 7.1294401852024705e-05 0 0.054580509538996347 0.00012127685076969403 0 0.054999526439093976 1.0925898985769272e-07 0 0.054871464572510881 9.317142434053891e-05 0 0.054786513195598442 7.2031158662921142e-05 0 0.053781690500026229 -0.00029044877776919373 0 0.054007182558948187 -0.00014661231519918361 0 0.054999526439093976 1.0925898985769272e-07 0 0.054866250396531292 8.1608313412026307e-05 0 0.054871464572510881 9.317142434053891e-05 0 0.054999499346264004 1.3831112348937413e-07 0 0.054999526439093976 1.0925898985769272e-07 0 0.054866250396531292 8.1608313412026307e-05 0 0.054580509538996347 0.00012127685076969403 0 0.054866250396531292 8.1608313412026307e-05 0 0.054871464572510881 9.317142434053891e-05 0 0.054580509538996347 0.00012127685076969403 0 0.054871464572510881 9.317142434053891e-05 0 0.054449402225819052 -2.2820961090523902e-06 0 0.052960861321678945 -0.00023898811403664987 0 0.054191787294628209 -0.00017329525011426384 0 0.053647999977035052 -0.00062037211785276802 0 0.052960861321678945 -0.00023898811403664987 0 0.054786513195598442 7.2031158662921142e-05 0 0.054191787294628209 -0.00017329525011426384 0 0.052771168199858151 -0.0012373265955554578 0 0.053647999977035052 -0.00062037211785276802 0 0.053420002900510799 -0.0011798265399367959 0 0.052960861321678945 -0.00023898811403664987 0 0.052771168199858151 -0.0012373265955554578 0 0.053647999977035052 -0.00062037211785276802 0 0.053781690500026229 -0.00029044877776919373 0 0.053371578055373722 -0.00063123490309988225 0 0.052960861321678945 -0.00023898811403664987 0 0.052771168199858151 -0.0012373265955554578 0 0.051904433761119487 -0.0011430023257293857 0 0.052081831729563287 -0.0016831647710549909 0 0.051624818897443234 -0.0016062756746019261 0 0.052091487299403869 -0.0021508537388631194 0 0.052771168199858151 -0.0012373265955554578 0 0.052081831729563287 -0.0016831647710549909 0 0.052320512288613952 -0.0019608756445561445 0 0.052771168199858151 -0.0012373265955554578 0 0.052081831729563287 -0.0016831647710549909 0 0.051904433761119487 -0.0011430023257293857 0 0.052771168199858151 -0.0012373265955554578 0 0.052726281310669872 -0.0019351140883725685 0 0.052320512288613952 -0.0019608756445561445 0 0.052771168199858151 -0.0012373265955554578 0 0.052726281310669872 -0.0019351140883725685 0 0.053420002900510799 -0.0011798265399367959 0 0.054375593266862525 0.00013143000361576647 0 0.053955798851065523 8.4837239670234872e-05 0 0.053079119542104737 -3.6113379109399606e-05 0 0.054375593266862525 0.00013143000361576647 0 0.054580509538996347 0.00012127685076969403 0 0.053955798851065523 8.4837239670234872e-05 0 0.053955798851065523 8.4837239670234872e-05 0 0.054449402225819052 -2.2820961090523902e-06 0 0.054007709284603557 -0.00013316063292652478 0 0.054580509538996347 0.00012127685076969403 0 0.053955798851065523 8.4837239670234872e-05 0 0.054449402225819052 -2.2820961090523902e-06 0 0.052081831729563287 -0.0016831647710549909 0 0.051904433761119487 -0.0011430023257293857 0 0.051624818897443234 -0.0016062756746019261 0 0.053371578055373722 -0.00063123490309988225 0 0.053159301533640957 -0.0008575759370061882 0 0.053159301533640957 -0.0008575759370061882 0 0.053269506115357856 -0.00071458554105929871 0 0.053955798851065523 8.4837239670234872e-05 0 0.0532729889340691 -0.00025734730470155907 0 0.053079119542104737 -3.6113379109399606e-05 0 0.053955798851065523 8.4837239670234872e-05 0 0.054007709284603557 -0.00013316063292652478 0 0.0532729889340691 -0.00025734730470155907 0 0.0532729889340691 -0.00025734730470155907 0 0.053079119542104737 -3.6113379109399606e-05 0 0.052820195591637746 -0.00034331645245164606 0 0.052820195591637746 -0.00034331645245164606 0 0.053011487469527718 -0.00049619883998262197 0 0.052388044036324889 -0.00063271967638000171 0 0.0532729889340691 -0.00025734730470155907 0 0.052820195591637746 -0.00034331645245164606 0 0.053011487469527718 -0.00049619883998262197 0 0.051624818897443234 -0.0016062756746019261 0 0.051953391192932186 -0.0023959549137147766 0 0.052091487299403869 -0.0021508537388631194 0 0.0534216838496318 -8.5891414900836542e-05 0 0.0532729889340691 -0.00025734730470155907 0 0.053011487469527718 -0.00049619883998262197 0 0.0534216838496318 -8.5891414900836542e-05 0 0.053011487469527718 -0.00049619883998262197 0 0.053043141114536105 -0.00072370434036520708 0 0.053159301533640957 -0.0008575759370061882 0 0.052733321530895293 -0.0012356023085553366 0 0.053011487469527718 -0.00049619883998262197 0 0.053043141114536105 -0.00072370434036520708 0 0.052671382334664354 -0.00082014136933513965 0 0.053043141114536105 -0.00072370434036520708 0 0.052671382334664354 -0.00082014136933513965 0 0.052392157593180375 -0.0012233753476441126 0 0.052671382334664354 -0.00082014136933513965 0 0.052392157593180375 -0.0012233753476441126 0 0.052388044036324889 -0.00063271967638000171 0 0.053011487469527718 -0.00049619883998262197 0 0.052671382334664354 -0.00082014136933513965 0 0.052388044036324889 -0.00063271967638000171 0 0.052726281310669872 -0.0019351140883725685 0 0.052222108645900621 -0.0022576202326408928 0 0.052141425260766094 -0.0025248420881072348 0 0.052726281310669872 -0.0019351140883725685 0 0.052222108645900621 -0.0022576202326408928 0 0.052320512288613952 -0.0019608756445561445 0 0.052222108645900621 -0.0022576202326408928 0 0.052320512288613952 -0.0019608756445561445 0 0.052091487299403869 -0.0021508537388631194 0 0.052081831729563287 -0.0016831647710549909 0 0.052320512288613952 -0.0019608756445561445 0 0.052091487299403869 -0.0021508537388631194 0 0.051953391192932186 -0.0023959549137147766 0 0.051990154134599093 -0.0024501494832129154 0 0.051957917157202348 -0.0022040770072295798 0 0.052222108645900621 -0.0022576202326408928 0 0.052091487299403869 -0.0021508537388631194 0 0.051990154134599093 -0.0024501494832129154 0 0.051953391192932186 -0.0023959549137147766 0 0.052091487299403869 -0.0021508537388631194 0 0.051990154134599093 -0.0024501494832129154 0 0.052222108645900621 -0.0022576202326408928 0 0.051990154134599093 -0.0024501494832129154 0 0.052141425260766094 -0.0025248420881072348 0 0.051990154134599093 -0.0024501494832129154 0 0.052141425260766094 -0.0025248420881072348 0 0.051751555805723735 -0.0025319997744207485 0 0.051571125873075656 -0.0022258571281310703 0 0.051751555805723735 -0.0025319997744207485 0 0.051243359342334385 -0.0023641991783829855 0 0.051990154134599093 -0.0024501494832129154 0 0.051571125873075656 -0.0022258571281310703 0 0.051751555805723735 -0.0025319997744207485 0 0.051990154134599093 -0.0024501494832129154 0 0.051571125873075656 -0.0022258571281310703 0 0.051957917157202348 -0.0022040770072295798 0 0.051957917157202348 -0.0022040770072295798 0 0.052213830839239916 -0.0019775324486640661 0 0.05185245891217069 -0.001516801432061938 0 0.051957917157202348 -0.0022040770072295798 0 0.051219379435275131 -0.0014455782893254589 0 0.05185245891217069 -0.001516801432061938 0 0.051571125873075656 -0.0022258571281310703 0 0.051957917157202348 -0.0022040770072295798 0 0.051219379435275131 -0.0014455782893254589 0 0.051571125873075656 -0.0022258571281310703 0 0.051219379435275131 -0.0014455782893254589 0 0.050904259580254053 -0.0018482141167833596 0 0.053043141114536105 -0.00072370434036520708 0 0.052392157593180375 -0.0012233753476441126 0 0.052526293874867243 -0.00149245655830541 0 0.051953391192932186 -0.0023959549137147766 0 0.051957917157202348 -0.0022040770072295798 0 0.052213830839239916 -0.0019775324486640661 0 0.052733321530895293 -0.0012356023085553366 0 0.052518579954069555 -0.0013969686650101365 0 0.052526293874867243 -0.00149245655830541 0 0.052272754203976063 -0.001538003738903208 0 0.052238110479074576 -0.0014136628640230358 0 0.052272754203976063 -0.001538003738903208 0 0.051786656103314808 -0.0016524142387433704 0 0.052085558055615447 -0.0016548983412259012 0 0.052392157593180375 -0.0012233753476441126 0 0.052272754203976063 -0.001538003738903208 0 0.051786656103314808 -0.0016524142387433704 0 0.052392157593180375 -0.0012233753476441126 0 0.052526293874867243 -0.00149245655830541 0 0.052272754203976063 -0.001538003738903208 0 0.051786656103314808 -0.0016524142387433704 0 0.051625492716420508 -0.0011150649171719805 0 0.050793087599590336 -0.0016914224666915499 0 0.052392157593180375 -0.0012233753476441126 0 0.051786656103314808 -0.0016524142387433704 0 0.051625492716420508 -0.0011150649171719805 0 0.051625492716420508 -0.0011150649171719805 0 0.050793087599590336 -0.0016914224666915499 0 0.050298647415639615 -0.0012479825648104984 0 0.051786656103314808 -0.0016524142387433704 0 0.050793087599590336 -0.0016914224666915499 0 0.05104352022341252 -0.0020433458051956565 0 0.050793087599590336 -0.0016914224666915499 0 0.049960132773889311 -0.0021131859076989994 0 0.05104352022341252 -0.0020433458051956565 0 0.049960132773889311 -0.0021131859076989994 0 0.048796168453642021 -0.0018816339207851113 0 0.049769583001417421 -0.0016871863283139978 0 0.050793087599590336 -0.0016914224666915499 0 0.049960132773889311 -0.0021131859076989994 0 0.049769583001417421 -0.0016871863283139978 0 0.043049048851184719 0.00016286577936509863 0 0.041193798683424092 -0.00086447236995640701 0 0.043190012120558174 -1.8441838081768103e-05 0 0.044322392583518326 -1.5385178406727283e-06 0 0.041040579356525164 3.5114724871978466e-07 0 0.043190012120558174 -1.8441838081768103e-05 0 0.04120564331384774 -7.5591215419116141e-05 0 0.041040579356525164 3.5114724871978466e-07 0 0.049960132773889311 -0.0021131859076989994 0 0.048796168453642021 -0.0018816339207851113 0 0.04915415511427744 -0.0025555051817447343 0 0.043049048851184719 0.00016286577936509863 0 0.043684786084794522 0.00071951462160373429 0 0.048796168453642021 -0.0018816339207851113 0 0.049769583001417421 -0.0016871863283139978 0 0.049083153850040931 -0.0012490675295223788 0 0.043190012120558174 -1.8441838081768103e-05 0 0.044322392583518326 -1.5385178406727283e-06 0 0.047068437463209156 -0.00027152624110443873 0 0.048796168453642021 -0.0018816339207851113 0 0.049083153850040931 -0.0012490675295223788 0 0.047068437463209156 -0.00027152624110443873 0 0.050793087599590336 -0.0016914224666915499 0 0.049769583001417421 -0.0016871863283139978 0 0.050298647415639615 -0.0012479825648104984 0 0.049769583001417421 -0.0016871863283139978 0 0.049083153850040931 -0.0012490675295223788 0 0.050298647415639615 -0.0012479825648104984 0 0.050298647415639615 -0.0012479825648104984 0 0.049880606425522875 -0.00041963241538857968 0 0.05105368139017194 -0.00069019352463680695 0 0.049083153850040931 -0.0012490675295223788 0 0.049880606425522875 -0.00041963241538857968 0 0.047068437463209156 -0.00027152624110443873 0 0.049083153850040931 -0.0012490675295223788 0 0.050298647415639615 -0.0012479825648104984 0 0.049880606425522875 -0.00041963241538857968 0 0.049880606425522875 -0.00041963241538857968 0 0.047068437463209156 -0.00027152624110443873 0 0.048526559401545127 -0.00010444117583813414 0 0.044322392583518326 -1.5385178406727283e-06 0 0.047068437463209156 -0.00027152624110443873 0 0.047605315770000545 3.6919507664415636e-07 0 0.047068437463209156 -0.00027152624110443873 0 0.048526559401545127 -0.00010444117583813414 0 0.047605315770000545 3.6919507664415636e-07 0 0.048526559401545127 -0.00010444117583813414 0 0.047605315770000545 3.6919507664415636e-07 0 0.049863760963808089 0.0001019963577457456 0 0.051424761705998086 0.0002507825636448153 0 0.049863760963808089 0.0001019963577457456 0 0.051327746867283454 -0.0001613098513344183 0 0.049880606425522875 -0.00041963241538857968 0 0.049863760963808089 0.0001019963577457456 0 0.051327746867283454 -0.0001613098513344183 0 0.049880606425522875 -0.00041963241538857968 0 0.048526559401545127 -0.00010444117583813414 0 0.049863760963808089 0.0001019963577457456 0 0.052321188931763921 0.00022034188341633649 0 0.051327746867283454 -0.0001613098513344183 0 0.052266489533665285 -0.00020911052788501349 0 0.051327746867283454 -0.0001613098513344183 0 0.051786070775853975 -0.00055344790662940056 0 0.05105368139017194 -0.00069019352463680695 0 0.051327746867283454 -0.0001613098513344183 0 0.052266489533665285 -0.00020911052788501349 0 0.051786070775853975 -0.00055344790662940056 0 0.053079119542104737 -3.6113379109399606e-05 0 0.052820195591637746 -0.00034331645245164606 0 0.052266489533665285 -0.00020911052788501349 0 0.052820195591637746 -0.00034331645245164606 0 0.052266489533665285 -0.00020911052788501349 0 0.052388044036324889 -0.00063271967638000171 0 0.052266489533665285 -0.00020911052788501349 0 0.051786070775853975 -0.00055344790662940056 0 0.052388044036324889 -0.00063271967638000171 0 0.052392157593180375 -0.0012233753476441126 0 0.051625492716420508 -0.0011150649171719805 0 0.052388044036324889 -0.00063271967638000171 0 0.051625492716420508 -0.0011150649171719805 0 0.051786070775853975 -0.00055344790662940056 0 0.052388044036324889 -0.00063271967638000171 0 0.051625492716420508 -0.0011150649171719805 0 0.051786070775853975 -0.00055344790662940056 0 0.05105368139017194 -0.00069019352463680695 0 0.051625492716420508 -0.0011150649171719805 0 0.050298647415639615 -0.0012479825648104984 0 0.05105368139017194 -0.00069019352463680695 0 0.049880606425522875 -0.00041963241538857968 0 0.051327746867283454 -0.0001613098513344183 0 0.05105368139017194 -0.00069019352463680695 0 0.054826158444809078 5.014692984875289e-05 0 0.054836504087119105 1.0694604294810746e-05 0 0.054822525488775725 3.7444720937488597e-05 0 0.054826158444809078 5.014692984875289e-05 0 0.054865769807097099 -1.5273830024451369e-05 0 0.054836504087119105 1.0694604294810746e-05 0 0.054826158444809078 5.014692984875289e-05 0 0.054822525488775725 3.7444720937488597e-05 0 0.054785286011142603 8.9165874948603563e-05 0 0.054826158444809078 5.014692984875289e-05 0 0.054865769807097099 -1.5273830024451369e-05 0 0.054909548919230534 -1.732461598450358e-05 0 0.054865769807097099 -1.5273830024451369e-05 0 0.054909548919230534 -1.732461598450358e-05 0 0.054916150238082884 -9.2342302865038473e-05 0 0.054909548919230534 -1.732461598450358e-05 0 0.054888164037371005 -3.4104266657657751e-05 0 0.054790738541094286 7.0838384537003207e-05 0 0.054826158444809078 5.014692984875289e-05 0 0.054909548919230534 -1.732461598450358e-05 0 0.054790738541094286 7.0838384537003207e-05 0 0.054826158444809078 5.014692984875289e-05 0 0.054790738541094286 7.0838384537003207e-05 0 0.054785286011142603 8.9165874948603563e-05 0 0.054888164037371005 -3.4104266657657751e-05 0 0.054999998513912768 2.204092755152613e-08 0 0.054999454925519269 -3.2516225396437613e-07 0 0.054888164037371005 -3.4104266657657751e-05 0 0.054999998513912768 2.204092755152613e-08 0 0.054970438784261257 -4.0975928573346206e-05 0 0.054909548919230534 -1.732461598450358e-05 0 0.054888164037371005 -3.4104266657657751e-05 0 0.054970438784261257 -4.0975928573346206e-05 0 0.054909548919230534 -1.732461598450358e-05 0 0.054970438784261257 -4.0975928573346206e-05 0 0.054961185402609199 -9.5117422506424071e-05 0 0.054970438784261257 -4.0975928573346206e-05 0 0.05499995301427249 -6.1108258907460413e-08 0 0.054961185402609199 -9.5117422506424071e-05 0 0.054999998513912768 2.204092755152613e-08 0 0.054970438784261257 -4.0975928573346206e-05 0 0.05499995301427249 -6.1108258907460413e-08 0 0.05499995301427249 -6.1108258907460413e-08 0 0.054961185402609199 -9.5117422506424071e-05 0 0.054955340052212552 -0.00013222564953890257 0 0.054961185402609199 -9.5117422506424071e-05 0 0.054916150238082884 -9.2342302865038473e-05 0 0.054895247012373333 -0.00027311276012557945 0 0.054909548919230534 -1.732461598450358e-05 0 0.054961185402609199 -9.5117422506424071e-05 0 0.054916150238082884 -9.2342302865038473e-05 0 0.054865769807097099 -1.5273830024451369e-05 0 0.054916150238