<?xml version="1.0"?>
<VTKFile type="UnstructuredGrid" version="0.1" byte_order="LittleEndian">
<UnstructuredGrid>
<Piece NumberOfPoints="30622" NumberOfCells="10726">
<Points>
<DataArray type="Float64" NumberOfComponents="3" format="ascii">
-0.5 -0.5 0 -0.48175857830073798 -0.47803511362356338 0 -0.47645264824916389 -0.50000000000000089 0 -0.5 -0.5 0 -0.48175857830073798 -0.47803511362356338 0 -0.5 -0.44756378430225269 0 -0.48175857830073798 -0.47803511362356338 0 -0.4620596478456987 -0.48345727270434657 0 -0.47028059540882722 -0.46100677613749669 0 -0.48175857830073798 -0.47803511362356338 0 -0.47645264824916389 -0.50000000000000089 0 -0.4620596478456987 -0.48345727270434657 0 -0.47645264824916389 -0.50000000000000089 0 -0.4620596478456987 -0.48345727270434657 0 -0.47645264824916389 -0.50000000000000089 0 -0.4620596478456987 -0.48345727270434657 0 -0.44490311097661051 -0.500000000000002 0 -0.4620596478456987 -0.48345727270434657 0 -0.44766664744223322 -0.46876681043497243 0 -0.47028059540882722 -0.46100677613749669 0 -0.4620596478456987 -0.48345727270434657 0 -0.44766664744223322 -0.46876681043497243 0 -0.44766664744223322 -0.46876681043497243 0 -0.44628487920942178 -0.48438340521748718 0 -0.42810179168749762 -0.47873960737587079 0 -0.44766664744223322 -0.46876681043497243 0 -0.44628487920942178 -0.48438340521748718 0 -0.4620596478456987 -0.48345727270434657 0 -0.44766664744223322 -0.46876681043497243 0 -0.44628487920942178 -0.48438340521748718 0 -0.4620596478456987 -0.48345727270434657 0 -0.44490311097661051 -0.500000000000002 0 -0.44628487920942178 -0.48438340521748718 0 -0.44490311097661051 -0.500000000000002 0 -0.44628487920942178 -0.48438340521748718 0 -0.43472143876009411 -0.49078075314833952 0 -0.44490311097661051 -0.500000000000002 0 -0.44628487920942178 -0.48438340521748718 0 -0.44624479447212723 -0.43339096025329182 0 -0.43660761020815209 -0.45747921475174802 0 -0.4360821827968876 -0.44154577011071272 0 -0.44938053938059808 -0.44939658953474509 0 -0.44624479447212723 -0.43339096025329182 0 -0.43660761020815209 -0.45747921475174802 0 -0.44938053938059808 -0.44939658953474509 0 -0.45109443131896332 -0.43002636863451787 0 -0.44624479447212723 -0.43339096025329182 0 -0.44938053938059808 -0.44939658953474509 0 -0.45109443131896332 -0.43002636863451787 0 -0.44624479447212723 -0.43339096025329182 0 -0.43660761020815209 -0.45747921475174802 0 -0.44766664744223322 -0.46876681043497243 0 -0.44938053938059808 -0.44939658953474509 0 -0.43660761020815209 -0.45747921475174802 0 -0.44766664744223322 -0.46876681043497243 0 -0.44938053938059808 -0.44939658953474509 0 -0.44766664744223322 -0.46876681043497243 0 -0.43660761020815209 -0.45747921475174802 0 -0.44766664744223322 -0.46876681043497243 0 -0.44938053938059808 -0.44939658953474509 0 -0.47028059540882722 -0.46100677613749669 0 -0.44938053938059808 -0.44939658953474509 0 -0.46876063957734859 -0.44424178834734979 0 -0.47028059540882722 -0.46100677613749669 0 -0.44938053938059808 -0.44939658953474509 0 -0.46876063957734859 -0.44424178834734979 0 -0.45930605182455247 -0.43745027374088419 0 -0.44938053938059808 -0.44939658953474509 0 -0.45930605182455247 -0.43745027374088419 0 -0.45109443131896332 -0.43002636863451787 0 -0.46876063957734859 -0.44424178834734979 0 -0.5 -0.44756378430225269 0 -0.46798859702130041 -0.42613634844692427 0 -0.46876063957734859 -0.44424178834734979 0 -0.47028059540882722 -0.46100677613749669 0 -0.5 -0.44756378430225269 0 -0.48175857830073798 -0.47803511362356338 0 -0.47028059540882722 -0.46100677613749669 0 -0.5 -0.44756378430225269 0 -0.5 -0.44756378430225269 0 -0.47629260694278741 -0.40349661143207272 0 -0.46798859702130041 -0.42613634844692427 0 -0.5 -0.44756378430225269 0 -0.50000000000000022 -0.37886567910958968 0 -0.47629260694278741 -0.40349661143207272 0 -0.50000000000000022 -0.37886567910958968 0 -0.47629260694278741 -0.40349661143207272 0 -0.47980805615581318 -0.37784851377904871 0 -0.47629260694278741 -0.40349661143207272 0 -0.47980805615581318 -0.37784851377904871 0 -0.46551916300008062 -0.38521445125638071 0 -0.46551916300008062 -0.38521445125638071 0 -0.44819628301138992 -0.38764414753211601 0 -0.4488839627098743 -0.36568658865118597 0 -0.46551916300008062 -0.38521445125638071 0 -0.44819628301138992 -0.38764414753211601 0 -0.45588197873610392 -0.40930270575483629 0 -0.46551916300008062 -0.38521445125638071 0 -0.45588197873610392 -0.40930270575483629 0 -0.47629260694278741 -0.40349661143207272 0 -0.46551916300008062 -0.38521445125638071 0 -0.45588197873610392 -0.40930270575483629 0 -0.43830082697747452 -0.39965478629343199 0 -0.44819628301138992 -0.38764414753211601 0 -0.45588197873610392 -0.40930270575483629 0 -0.44819628301138992 -0.38764414753211601 0 -0.43239548363341612 -0.37836220570474521 0 -0.4488839627098743 -0.36568658865118597 0 -0.43830082697747452 -0.39965478629343199 0 -0.44819628301138992 -0.38764414753211601 0 -0.43239548363341612 -0.37836220570474521 0 -0.45930605182455247 -0.43745027374088419 0 -0.46798859702130041 -0.42613634844692427 0 -0.45109443131896332 -0.43002636863451787 0 -0.46876063957734859 -0.44424178834734979 0 -0.45930605182455247 -0.43745027374088419 0 -0.46798859702130041 -0.42613634844692427 0 -0.47629260694278741 -0.40349661143207272 0 -0.46798859702130041 -0.42613634844692427 0 -0.45588197873610392 -0.40930270575483629 0 -0.46798859702130041 -0.42613634844692427 0 -0.45588197873610392 -0.40930270575483629 0 -0.45109443131896332 -0.43002636863451787 0 -0.43830082697747452 -0.39965478629343199 0 -0.45588197873610392 -0.40930270575483629 0 -0.44432381636642571 -0.41865047822066542 0 -0.45588197873610392 -0.40930270575483629 0 -0.44432381636642571 -0.41865047822066542 0 -0.44624479447212723 -0.43339096025329182 0 -0.45588197873610392 -0.40930270575483629 0 -0.44624479447212723 -0.43339096025329182 0 -0.45588197873610392 -0.40930270575483629 0 -0.45109443131896332 -0.43002636863451787 0 -0.44624479447212723 -0.43339096025329182 0 -0.44432381636642571 -0.41865047822066542 0 -0.44080997004790018 -0.42776525689649247 0 -0.43300524912834248 -0.42828697152029188 0 -0.44432381636642571 -0.41865047822066542 0 -0.44080997004790018 -0.42776525689649247 0 -0.44624479447212723 -0.43339096025329182 0 -0.44624479447212723 -0.43339096025329182 0 -0.43660622108023422 -0.4339599580125314 0 -0.4360821827968876 -0.44154577011071272 0 -0.44080997004790018 -0.42776525689649247 0 -0.44624479447212723 -0.43339096025329182 0 -0.43660622108023422 -0.4339599580125314 0 -0.43660622108023422 -0.4339599580125314 0 -0.43300524912834248 -0.42828697152029188 0 -0.42829735379245731 -0.43861823111234799 0 -0.44080997004790018 -0.42776525689649247 0 -0.43660622108023422 -0.4339599580125314 0 -0.43300524912834248 -0.42828697152029188 0 -0.42324625945110439 -0.42894035692386751 0 -0.42829735379245731 -0.43861823111234799 0 -0.41897456685961898 -0.43948174718108168 0 -0.42324625945110439 -0.42894035692386751 0 -0.43300524912834248 -0.42828697152029188 0 -0.42829735379245731 -0.43861823111234799 0 -0.42324625945110439 -0.42894035692386751 0 -0.43300524912834248 -0.42828697152029188 0 -0.429045484891729 -0.41574537586483817 0 -0.44432381636642571 -0.41865047822066542 0 -0.43300524912834248 -0.42828697152029188 0 -0.429045484891729 -0.41574537586483817 0 -0.43830082697747452 -0.39965478629343199 0 -0.44432381636642571 -0.41865047822066542 0 -0.429045484891729 -0.41574537586483817 0 -0.42324625945110439 -0.42894035692386751 0 -0.429045484891729 -0.41574537586483817 0 -0.41729212567564888 -0.41710398630485268 0 -0.429045484891729 -0.41574537586483817 0 -0.41729212567564888 -0.41710398630485268 0 -0.41801221074565698 -0.39808699031092531 0 -0.41729212567564888 -0.41710398630485268 0 -0.41801221074565698 -0.39808699031092531 0 -0.40198014848332908 -0.41267016467912188 0 -0.41729212567564888 -0.41710398630485268 0 -0.41417652480642497 -0.43007704374551131 0 -0.40198014848332908 -0.41267016467912188 0 -0.41417652480642497 -0.43007704374551131 0 -0.40198014848332908 -0.41267016467912188 0 -0.40842495570485349 -0.43768544597637382 0 -0.41417652480642497 -0.43007704374551131 0 -0.41271068110096493 -0.43768251977421557 0 -0.40842495570485349 -0.43768544597637382 0 -0.41417652480642497 -0.43007704374551131 0 -0.41897456685961898 -0.43948174718108168 0 -0.41271068110096493 -0.43768251977421557 0 -0.42324625945110439 -0.42894035692386751 0 -0.41417652480642497 -0.43007704374551131 0 -0.41897456685961898 -0.43948174718108168 0 -0.42324625945110439 -0.42894035692386751 0 -0.41729212567564888 -0.41710398630485268 0 -0.41417652480642497 -0.43007704374551131 0 -0.43830082697747452 -0.39965478629343199 0 -0.43239548363341612 -0.37836220570474521 0 -0.41801221074565698 -0.39808699031092531 0 -0.43830082697747452 -0.39965478629343199 0 -0.429045484891729 -0.41574537586483817 0 -0.41801221074565698 -0.39808699031092531 0 -0.41801221074565698 -0.39808699031092531 0 -0.39553534126180467 -0.38765488338186987 0 -0.4114837764365713 -0.37264776659748722 0 -0.43239548363341612 -0.37836220570474521 0 -0.41801221074565698 -0.39808699031092531 0 -0.4114837764365713 -0.37264776659748722 0 -0.39553534126180467 -0.38765488338186987 0 -0.38909053404028032 -0.36263960208461798 0 -0.39553534126180467 -0.38765488338186987 0 -0.37617113698211418 -0.39781486166417812 0 -0.40198014848332908 -0.41267016467912188 0 -0.39553534126180467 -0.38765488338186987 0 -0.40198014848332908 -0.41267016467912188 0 -0.41801221074565698 -0.39808699031092531 0 -0.39553534126180467 -0.38765488338186987 0 -0.40198014848332908 -0.41267016467912188 0 -0.39553534126180467 -0.38765488338186987 0 -0.37993774591511659 -0.37833552289366762 0 -0.38909053404028032 -0.36263960208461798 0 -0.39553534126180467 -0.38765488338186987 0 -0.37617113698211418 -0.39781486166417812 0 -0.37993774591511659 -0.37833552289366762 0 -0.39382743442433288 -0.4281084315970522 0 -0.38673115121171781 -0.44405990790877248 0 -0.40842495570485349 -0.43768544597637382 0 -0.40198014848332908 -0.41267016467912188 0 -0.4084249557
[...]
<PointData Scalars="" Vectors="displacement," Tensors="">
<DataArray type="Float64" Name="displacement" NumberOfComponents="3" format="ascii">
1.8238388750514643e-07 -0.035000170763013469 0 -6.7942372589634663e-05 -0.033347647200653571 0 7.2610203601653757e-07 -0.034994974212259541 0 1.8238388750514643e-07 -0.035000170763013469 0 -6.7942372589634663e-05 -0.033347647200653571 0 -1.6438966074162599e-06 -0.031328591324338385 0 -6.7942372589634663e-05 -0.033347647200653571 0 5.9662615974749708e-05 -0.032716642870934842 0 -0.00025180005969472165 -0.032119585216579566 0 -6.7942372589634663e-05 -0.033347647200653571 0 7.2610203601653757e-07 -0.034994974212259541 0 5.9662615974749708e-05 -0.032716642870934842 0 4.7251043895390965e-07 -0.034705390461971262 0 -2.9201066532724324e-05 -0.033912932362686228 0 -6.5578385296973495e-09 -0.03500001191442853 0 -7.9822704381915797e-06 -0.034992862238114854 0 -1.9366985180227494e-09 -0.034999954183541196 0 5.9662615974749708e-05 -0.032716642870934842 0 -0.00011618544534566185 -0.031823200700910818 0 -0.00025180005969472165 -0.032119585216579566 0 -2.9201066532724324e-05 -0.033912932362686228 0 -0.00012781678523550137 -0.033213905330805933 0 -1.0804039514124195e-05 -0.034960665722009773 0 -4.0018936964560313e-06 -0.034979879197078644 0 -3.8998651659691551e-06 -0.034973214788845172 0 -0.00012781678523550137 -0.033213905330805933 0 -1.82072901025724e-05 -0.034923167624137864 0 -7.9822704381915797e-06 -0.034992862238114854 0 -2.4154206579016025e-05 -0.034971596881762913 0 -8.8677844351462e-06 -0.034984583012026199 0 -7.9822704381915797e-06 -0.034992862238114854 0 -1.9366985180227494e-09 -0.034999954183541196 0 -8.8677844351462e-06 -0.034984583012026199 0 -4.5079971894995208e-09 -0.034999960174382019 0 -4.0018936964560313e-06 -0.034979879197078644 0 -2.0276946039032392e-06 -0.03498818398060443 0 2.5918607765503474e-09 -0.034999981131829186 0 -1.82072901025724e-05 -0.034923167624137864 0 0.00066213100793305877 -0.027553237105816027 0 -0.0020365334966572259 -0.028268140676985878 0 -0.00018423497944392668 -0.028444497072469731 0 -0.0005180692807851265 -0.030952425625619378 0 -0.00030451454516078688 -0.030965916473791211 0 -0.00061664315951314623 -0.031123825306607889 0 -0.0005180692807851265 -0.030952425625619378 0 -0.00027588854731987753 -0.03082552769445901 0 -0.00030451454516078688 -0.030965916473791211 0 -0.00048640781761706336 -0.031094020091513127 0 -0.00030505600027667219 -0.030929576090258995 0 1.6566029871928113e-05 -0.029007721045205104 0 -0.00051413155552640854 -0.031649890361892058 0 -0.00074728877538535546 -0.031001191681973898 0 -0.0005180692807851265 -0.030952425625619378 0 -0.00061664315951314623 -0.031123825306607889 0 -0.00012781678523550137 -0.033213905330805933 0 -0.00048640781761706336 -0.031094020091513127 0 -0.00012781678523550137 -0.033213905330805933 0 -0.00051413155552640854 -0.031649890361892058 0 -0.00011618544534566185 -0.031823200700910818 0 -0.00033925174394048603 -0.031395802910708474 0 -0.00025180005969472165 -0.032119585216579566 0 -0.00033925174394048603 -0.031395802910708474 0 -0.00024728795167239427 -0.031306114077318516 0 -0.00025180005969472165 -0.032119585216579566 0 -0.00033925174394048603 -0.031395802910708474 0 -0.00024728795167239427 -0.031306114077318516 0 -0.00030114513032470199 -0.031002560019994473 0 -0.00033925174394048603 -0.031395802910708474 0 -0.00030114513032470199 -0.031002560019994473 0 -0.00027588854731987753 -0.03082552769445901 0 -0.00024728795167239427 -0.031306114077318516 0 -1.6438966074162599e-06 -0.031328591324338385 0 -0.00025444271163481186 -0.030442312652330793 0 -0.00024728795167239427 -0.031306114077318516 0 -0.00025180005969472165 -0.032119585216579566 0 -1.6438966074162599e-06 -0.031328591324338385 0 -6.7942372589634663e-05 -0.033347647200653571 0 -0.00025180005969472165 -0.032119585216579566 0 -1.6438966074162599e-06 -0.031328591324338385 0 -1.6438966074162599e-06 -0.031328591324338385 0 -0.00014601530198633201 -0.029114115641913307 0 -0.00025444271163481186 -0.030442312652330793 0 -1.6438966074162599e-06 -0.031328591324338385 0 2.1746061980381031e-06 -0.026525712115514986 0 -0.00014601530198633201 -0.029114115641913307 0 2.1746061980381031e-06 -0.026525712115514986 0 -0.00014601530198633201 -0.029114115641913307 0 0.00043364016000989965 -0.027846187956156936 0 -0.00014601530198633201 -0.029114115641913307 0 0.00043364016000989965 -0.027846187956156936 0 0.00031286998147896902 -0.028920566571387678 0 0.0015230827296036176 -0.026682788132551184 0 0.0014537830401384678 -0.026811039339981257 0 0.0010944767921125473 -0.026130916573101282 0 0.0015230827296036176 -0.026682788132551184 0 0.0014537830401384678 -0.026811039339981257 0 0.0013767645530576387 -0.027089848870746933 0 0.00085478874075369221 -0.027805721197144501 0 0.00060447489578660508 -0.028648178416299599 0 -0.00014601530198633201 -0.029114115641913307 0 0.00031286998147896902 -0.028920566571387678 0 -0.00014683707048681344 -0.030166826879135845 0 0.0014450198592294915 -0.027359509848077751 0 0.0014537830401384678 -0.026811039339981257 0 0.0013767645530576387 -0.027089848870746933 0 0.0014537830401384678 -0.026811039339981257 0 0.0013151987002885937 -0.026681849090873854 0 0.0010944767921125473 -0.026130916573101282 0 0.0014450198592294915 -0.027359509848077751 0 0.0014537830401384678 -0.026811039339981257 0 0.0013151987002885937 -0.026681849090873854 0 -0.00030114513032470199 -0.031002560019994473 0 -0.00025444271163481186 -0.030442312652330793 0 -0.00027588854731987753 -0.03082552769445901 0 -0.00024728795167239427 -0.031306114077318516 0 -0.00030114513032470199 -0.031002560019994473 0 -0.00025444271163481186 -0.030442312652330793 0 -0.00014601530198633201 -0.029114115641913307 0 -0.00025444271163481186 -0.030442312652330793 0 -0.00014683707048681344 -0.030166826879135845 0 -0.00025444271163481186 -0.030442312652330793 0 -0.00014683707048681344 -0.030166826879135845 0 -0.00027588854731987753 -0.03082552769445901 0 0.0014450198592294915 -0.027359509848077751 0 0.0013767645530576387 -0.027089848870746933 0 0.0011871678577218276 -0.027601259722380277 0 0.0013767645530576387 -0.027089848870746933 0 0.0011871678577218276 -0.027601259722380277 0 0.00066213100793305877 -0.027553237105816027 0 0.00060447489578660508 -0.028648178416299599 0 1.6566029871928113e-05 -0.029007721045205104 0 -0.00014683707048681344 -0.030166826879135845 0 -0.00027588854731987753 -0.03082552769445901 0 -0.00030451454516078688 -0.030965916473791211 0 0.0011871678577218276 -0.027601259722380277 0 0.00088513452085379151 -0.027922027915273373 0 0.00093592634816935122 -0.028507504711593558 0 0.0011871678577218276 -0.027601259722380277 0 0.00088513452085379151 -0.027922027915273373 0 0.00066213100793305877 -0.027553237105816027 0 0.00066213100793305877 -0.027553237105816027 0 0.00054429087031724656 -0.028330546647752444 0 -0.00018423497944392668 -0.028444497072469731 0 0.00088513452085379151 -0.027922027915273373 0 0.00066213100793305877 -0.027553237105816027 0 0.00054429087031724656 -0.028330546647752444 0 0.00054429087031724656 -0.028330546647752444 0 0.00093592634816935122 -0.028507504711593558 0 0.00026562533027817245 -0.029348879785074479 0 0.00088513452085379151 -0.027922027915273373 0 0.00054429087031724656 -0.028330546647752444 0 0.00093592634816935122 -0.028507504711593558 0 0.0010032798867409905 -0.029414401145793894 0 0.00026562533027817245 -0.029348879785074479 0 0.00030303495485686479 -0.030808182513939644 0 0.0010032798867409905 -0.029414401145793894 0 0.00093592634816935122 -0.028507504711593558 0 0.00026562533027817245 -0.029348879785074479 0 0.0010032798867409905 -0.029414401145793894 0 0.00093592634816935122 -0.028507504711593558 0 0.0013297630195137928 -0.028308012843462065 0 0.0011871678577218276 -0.027601259722380277 0 0.00093592634816935122 -0.028507504711593558 0 0.0013297630195137928 -0.028308012843462065 0 0.0014450198592294915 -0.027359509848077751 0 0.0011871678577218276 -0.027601259722380277 0 0.0013297630195137928 -0.028308012843462065 0 0.0010032798867409905 -0.029414401145793894 0 0.0013297630195137928 -0.028308012843462065 0 0.0013190922955233248 -0.028897731291264581 0 0.0013297630195137928 -0.028308012843462065 0 0.0013190922955233248 -0.028897731291264581 0 0.0013823995582009823 -0.027756603359622243 0 0.0013190922955233248 -0.028897731291264581 0 0.0013823995582009823 -0.027756603359622243 0 0.0013797718946454275 -0.02852475872840449 0 0.0013190922955233248 -0.028897731291264581 0 0.00099774602222630357 -0.030212732126876564 0 0.0013797718946454275 -0.02852475872840449 0 0.00099774602222630357 -0.030212732126876564 0 0.0013797718946454275 -0.02852475872840449 0 0.00079957362589417995 -0.031336780335939105 0 0.00099774602222630357 -0.030212732126876564 0 0.00064342943385384537 -0.031005608465367932 0 0.00079957362589417995 -0.031336780335939105 0 0.00099774602222630357 -0.030212732126876564 0 0.00030303495485686479 -0.030808182513939644 0 0.00064342943385384537 -0.031005608465367932 0 0.0010032798867409905 -0.029414401145793894 0 0.00099774602222630357 -0.030212732126876564 0 0.00030303495485686479 -0.030808182513939644 0 0.0010032798867409905 -0.029414401145793894 0 0.0013190922955233248 -0.028897731291264581 0 0.00099774602222630357 -0.030212732126876564 0 0.0014450198592294915 -0.027359509848077751 0 0.0013151987002885937 -0.026681849090873854 0 0.0013823995582009823 -0.027756603359622243 0 0.0014450198592294915 -0.027359509848077751 0 0.0013297630195137928 -0.028308012843462065 0 0.0013823995582009823 -0.027756603359622243 0 0.0013823995582009823 -0.027756603359622243 0 0.0012517351801939909 -0.027171818017909171 0 0.0012134885302979845 -0.026640288571654843 0 0.0013151987002885937 -0.026681849090873854 0 0.0013823995582009823 -0.027756603359622243 0 0.0012134885302979845 -0.026640288571654843 0 0.0011732796731525089 -0.026990217609072876 0 0.0012218894413466887 -0.026725007233696561 0 0.0011039671211997039 -0.026768142757506823 0 0.0010572547775818874 -0.026902862091118484 0 0.00095245965294689697 -0.026764958888936957 0 0.0011732796731525089 -0.026990217609072876 0 0.00093998768440712883 -0.027646360811867644 0 0.0013823995582009823 -0.027756603359622243 0 0.0012517351801939909 -0.027171818017909171 0 0.0013797718946454275 -0.02852475872840449 0 0.0011039671211997039 -0.026768142757506823 0 0.001151047676925638 -0.026832002480943366 0 0.0012585330991450817 -0.026682724568871975 0 0.0011039671211997039 -0.026768142757506823 0 0.0010572547775818874 -0.026902862091118484 0 0.001151047676925638 -0.026832002480943366 0 0.0008446543508912835 -0.026829052733288592 0 0.00071804519850659685 -0.02689078456456738 0 0.00078056106793412548 -0.026750248570156173 0 0.00093998768440712883 -0.027646360811867644 0 0.0011016641094629106 -0.029238294362224367 0 0.0008446543508912835 -0.026829052733288592 0 0.00095245965294689697 -0.026764958888936957 0 0.00078056106793412548 -0.026750248570156173 0 0.0008446543508912835 -0.026829052733288592 0 0.00095245965294689697 -0.026764958888936957 0 0.0009122412142593397 -0.026919157882336439 0 0.0010572547775818874 -0.026902862091118484 0 0.00095245965294689697 -0.026764958888936957 0 0.0009122412142593397 -0.026919157882336439 0 0.0008446543508912835 -0.026829052733288592 0 0.0009122412142593397 -0.026919157882336439 0 0.00071804519850659685 -0.02689078456456738 0 0.00071499145774468731 -0.033813826211163633 0 0.00011511090009096084 -0.033447557374602893 0 -6.4544219759138361e-05 -0.034325709150162233 0 0.00068514482788208705 -0.030291327896690402 0 0.0005889908901108758 -0.030846461402734733 0 0.00071499145774468731 -0.033813826211163633 0 -6.4544219759138361e-05 -0.034325709150162233 0 0.00013724853499960535 -0.034653944356459805 0 0.00071499145774468731 -0.033813826211163633 0 0.00041738267195879606 -0.032744873195194181 0 0.00011511090009096084 -0.033447557374602893 0 0.00071499145774468731 -0.033813826211163633 0 0.00041738267195879606 -0.032744873195194181 0 0.00079957362589417995 -0.031336780335939105 0 0.00068514482788208705 -0.030291327896690402 0 0.0011016641094629106 -0.029238294362224367 0 0.00041738267195879606 -0.032744873195194181 0 0.00079957362589417995 -0.031336780335939105 0 0.00045834107933115148 -0.032050589204719981 0 0.00011511090009096084 -0.033447557374602893 0 -7.7172546439480469e-05 -0.033999539085876614 0 0.0001166357553774524 -0.032876507690410679 0 0.00041738267195879606 -0.032744873195194181 0 0.00011511090009096084 -0.033447557374602893 0 0.0001166357553774524 -0.032876507690410679 0 -6.4544219759138361e-05 -0.034325709150162233 0 -6.9369330471882409e-08 -0.034999307433388173 0 -2.0005457395168057e-07 -0.034999611041111073 0 -6.4544219759138361e-05 -0.034325709150162233 0 -6.9369330471882409e-08 -0.034999307433388173 0 -7.7172546439480469e-05 -0.033999539085876614 0 -6.9369330471882409e-08 -0.034999307433388173 0 -7.7172546439480469e-05 -0.033999539085876614 0 -4.8875149297056444e-07 -0.03499709967037621 0 0.00011511090009096084 -0.033447557374602893 0 -6.4544219759138361e-05 -0.034325709150162233 0 -7.7172546439480469e-05 -0.033999539085876614 0 -7.7172546439480469e-05 -0.033999539085876614 0 5.2291332045521353e-05 -0.033263458724706312 0 0.0001166357553774524 -0.032876507690410679 0 -7.7172546439480469e-05 -0.033999539085876614 0 -4.8875149297056444e-07 -0.03499709967037621 0 5.2291332045521353e-05 -0.033263458724706312 0 1.220085007197522e-11 -0.034999982399688948 0 -2.0276946039032392e-06 -0.03498818398060443 0 -3.8998651659691551e-06 -0.034973214788845172 0 -4.0018936964560313e-06 -0.034979879197078644 0 -2.0276946039032392e-06 -0.03498818398060443 0 -3.8998651659691551e-06 -0.034973214788845172 0 -4.5079971894995208e-09 -0.034999960174382019 0 1.220085007197522e-11 -0.034999982399688948 0 -2.0276946039032392e-06 -0.03498818398060443 0 2.3894037879944043e-07 -0.03499943921010415 0 0.00013886237731044714 -0.034326398443043284 0 0.00013886237731044714 -0.034326398443043284 0 -0.00051413155552640854 -0.031649890361892058 0 5.2291332045521353e-05 -0.033263458724706312 0 0.00021961023902926854 -0.032274740767736114 0 0.0001731299783119155 -0.032572115387491211 0 -1.0804039514124195e-05 -0.034960665722009773 0 -3.8998651659691551e-06 -0.034973214788845172 0 -1.680151854070085e-05 -0.034942318123130416 0 -0.0020365334966572259 -0.028268140676985878 0 0.00026562533027817245 -0.029348879785074479 0 0.00030303495485686479 -0.030808182513939644 0 -0.00051413155552640854 -0.031649890361892058 0 -1.8760374565338546e-06 -0.030491431714502294 0 0.00021961023902926854 -0.032274740767736114 0 0.0001731299783119155 -0.032572115387491211 0 0.00030303495485686479 -0.030808182513939644 0 -0.0020365334966572259 -0.028268140676985878 0 -0.00018423497944392668 -0.028444497072469731 0 0.00026562533027817245 -0.029348879785074479 0 0.00054429087031724656 -0.028330546647752444 0 -0.00018423497944392668 -0.028444497072469731 0 0.00026562533027817245 -0.029348879785074479 0 0.00021961023902926854 -0.032274740767736114 0 0.00030303495485686479 -0.030808182513939644 0 0.00030535255393334602 -0.03191627753224343 0 0.00030303495485686479 -0.030808182513939644 0 0.0004574396368464764 -0.031382226475275228 0 0.00030535255393334602 -0.03191627753224343 0 0.00030303495485686479 -0.030808182513939644 0 0.00064342943385384537 -0.031005608465367932 0 0.0004574396368464764 -0.031382226475275228 0 0.0004574396368464764 -0.031382226475275228 0 0.00079957362589417995 -0.031336780335939105 0 0.00045834107933115148 -0.032050589204719981 0 0.00064342943385384537 -0.031005608465367932 0 0.0004574396368464764 -0.031382226475275228 0 0.00079957362589417995 -0.031336780335939105 0 0.00041738267195879606 -0.032744873195194181 0 0.00030535255393334602 -0.03191627753224343 0 0.00045834107933115148 -0.032050589204719981 0 0.0004574396368464764 -0.031382226475275228 0 0.00030535255393334602 -0.03191627753224343 0 0.00045834107933115148 -0.032050589204719981 0 5.2291332045521353e-05 -0.033263458724706312 0 0.00021961023902926854 -0.032274740767736114 0 0.0001166357553774524 -0.032876507690410679 0 0.00041738267195879606 -0.032744873195194181 0 0.00030535255393334602 -0.03191627753224343 0 0.0001166357553774524 -0.032876507690410679 0 0.00021961023902926854 -0.032274740767736114 0 0.00030535255393334602 -0.03191627753224343 0 0.0001166357553774524 -0.032876507690410679 0 0.00015430935785292553 -0.017807161759251434 0 0.00025837961900453815 -0.017776350091745365 0 0.00016450932033354104 -0.017928510525222544 0 0.002211231625850994 -0.024400046560344245 0 0.0019998933143627897 -0.023239731968012753 0 0.00099176744620101381 -0.024258632051113498 0 0.0014373474751553767 -0.021342140274073333 0 0.0011244966655488626 -0.02062619926095648 0 0.00025837961900453815 -0.017776350091745365 0 0.00047253041352802663 -0.018136938772558009 0 0.00016450932033354104 -0.017928510525222544 0 0.00016450932033354104 -0.017928510525222544 0 -9.257175888488224e-05 -0.018175486346662263 0 7.7019292281898773e-05 -0.017855716449861433 0 0.00047253041352802663 -0.018136938772558009 0 0.00016450932033354104 -0.017928510525222544 0 -9.257175888488224e-05 -0.018175486346662263 0 0.00015430935785292553 -0.017807161759251434 0 0.00016450932033354104 -0.017928510525222544 0 7.7019292281898773e-05 -0.017855716449861433 0 -9.257175888488224e-05 -0.018175486346662263 0 -9.4413753555373965e-08 -0.018297536495433701 0 0.00023734822503700901 -0.016646888741100003 0 -9.257175888488224e-05 -0.018175486346662263 0 -9.4413753555373965e-08 -0.018297536495433701 0 0.00064192300203456921 -0.020372550687412675 0 -9.4413753555373965e-08 -0.018297536495433701 0 0.00064192300203456921 -0.020372550687412675 0 1.4665424715435384e-06 -0.020353346421787766 0 0.0011244966655488626 -0.02062619926095648 0 0.00075563211925259337 -0.020367058569705936 0 0.00047253041352802663 -0.018136938772558009 0 -9.257175888488224e-05 -0.018175486346662263 0 0.00064192300203456921 -0.020372550687412675 0 0.0019998933143627897 -0.023239731968012753 0 0.00064192300203456921 -0.020372550687412675 0 0.00067651651849044323 -0.022788176508710657 0 0.00064192300203456921 -0.020372550687412675 0 0.00018899557381294013 -0.022041514273774349 0 0.00067651651849044323 -0.022788176508710657 0 0.00064192300203456921 -0.020372550687412675 0 1.4665424715435384e-06 -0.020353346421787766 0 0.00018899557381294013 -0.022041514273774349 0 1.4665424715435384e-06 -0.020353346421787766 0 0.00018899557381294013 -0.022041514273774349 0 -1.4680421102495181e-07 -0.022409351071843879 0 0.00018899557381294013 -0.022041514273774349 0 0.00037006906846765857 -0.023712581662741882 0 0.00012129529006259567 -0.023481078847891201 0 0.00018899557381294013 -0.022041514273774349 0 0.00037006906846765857 -0.023712581662741882 0 0.00067651651849044323 -0.022788176508710657 0 0.00037006906846765857 -0.023712581662741882 0 0.00067651651849044323 -0.022788176508710657 0 0.00099176744620101381 -0.024258632051113498 0 0.0019998933143627897 -0.023239731968012753 0 0.00067651651849044323 -0.022788176508710657 0 0.00099176744620101381 -0.024258632051113498 0 0.00037006906846765857 -0.023712581662741882 0 0.00099176744620101381 -0.024258632051113498 0 0.00050778218778035672 -0.024781713695496772 0 0.00099176744620101381 -0.024258632051113498 0 0.00050778218778035672 -0.024781713695496772 0 0.00069188939014618511 -0.024905956827398167 0 0.00050778218778035672 -0.024781713695496772 0 0.00027314209863752489 -0.024661744808334149 0 0.00074100629101433622 -0.025369049230273256 0 0.00027314209863752489 -0.024661744808334149 0 0.00061354391296738922 -0.025541253664994795 0 0.00074100629101433622 -0.025369049230273256 0 0.00012651284459186008 -0.025093033555737908 0 0.00027314209863752489 -0.024661744808334149 0 0.00012129529006259567 -0.023481078847891201 0 0.00012651284459186008 -0.025093033555737908 0 0.00027314209863752489 -0.024661744808334149 0 0.00061354391296738922 -0.025541253664994795 0 0.00037006906846765857 -0.023712581662741882 0 0.00050778218778035672 -0.024781713695496772