<?xml version="1.0"?>
<VTKFile type="UnstructuredGrid" version="0.1" byte_order="LittleEndian">
<UnstructuredGrid>
<Piece NumberOfPoints="30622" NumberOfCells="10726">
<Points>
<DataArray type="Float64" NumberOfComponents="3" format="ascii">
-0.5 -0.5 0 -0.48175857830073798 -0.47803511362356338 0 -0.47645264824916389 -0.50000000000000089 0 -0.5 -0.5 0 -0.48175857830073798 -0.47803511362356338 0 -0.5 -0.44756378430225269 0 -0.48175857830073798 -0.47803511362356338 0 -0.4620596478456987 -0.48345727270434657 0 -0.47028059540882722 -0.46100677613749669 0 -0.48175857830073798 -0.47803511362356338 0 -0.47645264824916389 -0.50000000000000089 0 -0.4620596478456987 -0.48345727270434657 0 -0.47645264824916389 -0.50000000000000089 0 -0.4620596478456987 -0.48345727270434657 0 -0.47645264824916389 -0.50000000000000089 0 -0.4620596478456987 -0.48345727270434657 0 -0.44490311097661051 -0.500000000000002 0 -0.4620596478456987 -0.48345727270434657 0 -0.44766664744223322 -0.46876681043497243 0 -0.47028059540882722 -0.46100677613749669 0 -0.4620596478456987 -0.48345727270434657 0 -0.44766664744223322 -0.46876681043497243 0 -0.44766664744223322 -0.46876681043497243 0 -0.44628487920942178 -0.48438340521748718 0 -0.42810179168749762 -0.47873960737587079 0 -0.44766664744223322 -0.46876681043497243 0 -0.44628487920942178 -0.48438340521748718 0 -0.4620596478456987 -0.48345727270434657 0 -0.44766664744223322 -0.46876681043497243 0 -0.44628487920942178 -0.48438340521748718 0 -0.4620596478456987 -0.48345727270434657 0 -0.44490311097661051 -0.500000000000002 0 -0.44628487920942178 -0.48438340521748718 0 -0.44490311097661051 -0.500000000000002 0 -0.44628487920942178 -0.48438340521748718 0 -0.43472143876009411 -0.49078075314833952 0 -0.44490311097661051 -0.500000000000002 0 -0.44628487920942178 -0.48438340521748718 0 -0.44624479447212723 -0.43339096025329182 0 -0.43660761020815209 -0.45747921475174802 0 -0.4360821827968876 -0.44154577011071272 0 -0.44938053938059808 -0.44939658953474509 0 -0.44624479447212723 -0.43339096025329182 0 -0.43660761020815209 -0.45747921475174802 0 -0.44938053938059808 -0.44939658953474509 0 -0.45109443131896332 -0.43002636863451787 0 -0.44624479447212723 -0.43339096025329182 0 -0.44938053938059808 -0.44939658953474509 0 -0.45109443131896332 -0.43002636863451787 0 -0.44624479447212723 -0.43339096025329182 0 -0.43660761020815209 -0.45747921475174802 0 -0.44766664744223322 -0.46876681043497243 0 -0.44938053938059808 -0.44939658953474509 0 -0.43660761020815209 -0.45747921475174802 0 -0.44766664744223322 -0.46876681043497243 0 -0.44938053938059808 -0.44939658953474509 0 -0.44766664744223322 -0.46876681043497243 0 -0.43660761020815209 -0.45747921475174802 0 -0.44766664744223322 -0.46876681043497243 0 -0.44938053938059808 -0.44939658953474509 0 -0.47028059540882722 -0.46100677613749669 0 -0.44938053938059808 -0.44939658953474509 0 -0.46876063957734859 -0.44424178834734979 0 -0.47028059540882722 -0.46100677613749669 0 -0.44938053938059808 -0.44939658953474509 0 -0.46876063957734859 -0.44424178834734979 0 -0.45930605182455247 -0.43745027374088419 0 -0.44938053938059808 -0.44939658953474509 0 -0.45930605182455247 -0.43745027374088419 0 -0.45109443131896332 -0.43002636863451787 0 -0.46876063957734859 -0.44424178834734979 0 -0.5 -0.44756378430225269 0 -0.46798859702130041 -0.42613634844692427 0 -0.46876063957734859 -0.44424178834734979 0 -0.47028059540882722 -0.46100677613749669 0 -0.5 -0.44756378430225269 0 -0.48175857830073798 -0.47803511362356338 0 -0.47028059540882722 -0.46100677613749669 0 -0.5 -0.44756378430225269 0 -0.5 -0.44756378430225269 0 -0.47629260694278741 -0.40349661143207272 0 -0.46798859702130041 -0.42613634844692427 0 -0.5 -0.44756378430225269 0 -0.50000000000000022 -0.37886567910958968 0 -0.47629260694278741 -0.40349661143207272 0 -0.50000000000000022 -0.37886567910958968 0 -0.47629260694278741 -0.40349661143207272 0 -0.47980805615581318 -0.37784851377904871 0 -0.47629260694278741 -0.40349661143207272 0 -0.47980805615581318 -0.37784851377904871 0 -0.46551916300008062 -0.38521445125638071 0 -0.46551916300008062 -0.38521445125638071 0 -0.44819628301138992 -0.38764414753211601 0 -0.4488839627098743 -0.36568658865118597 0 -0.46551916300008062 -0.38521445125638071 0 -0.44819628301138992 -0.38764414753211601 0 -0.45588197873610392 -0.40930270575483629 0 -0.46551916300008062 -0.38521445125638071 0 -0.45588197873610392 -0.40930270575483629 0 -0.47629260694278741 -0.40349661143207272 0 -0.46551916300008062 -0.38521445125638071 0 -0.45588197873610392 -0.40930270575483629 0 -0.43830082697747452 -0.39965478629343199 0 -0.44819628301138992 -0.38764414753211601 0 -0.45588197873610392 -0.40930270575483629 0 -0.44819628301138992 -0.38764414753211601 0 -0.43239548363341612 -0.37836220570474521 0 -0.4488839627098743 -0.36568658865118597 0 -0.43830082697747452 -0.39965478629343199 0 -0.44819628301138992 -0.38764414753211601 0 -0.43239548363341612 -0.37836220570474521 0 -0.45930605182455247 -0.43745027374088419 0 -0.46798859702130041 -0.42613634844692427 0 -0.45109443131896332 -0.43002636863451787 0 -0.46876063957734859 -0.44424178834734979 0 -0.45930605182455247 -0.43745027374088419 0 -0.46798859702130041 -0.42613634844692427 0 -0.47629260694278741 -0.40349661143207272 0 -0.46798859702130041 -0.42613634844692427 0 -0.45588197873610392 -0.40930270575483629 0 -0.46798859702130041 -0.42613634844692427 0 -0.45588197873610392 -0.40930270575483629 0 -0.45109443131896332 -0.43002636863451787 0 -0.43830082697747452 -0.39965478629343199 0 -0.45588197873610392 -0.40930270575483629 0 -0.44432381636642571 -0.41865047822066542 0 -0.45588197873610392 -0.40930270575483629 0 -0.44432381636642571 -0.41865047822066542 0 -0.44624479447212723 -0.43339096025329182 0 -0.45588197873610392 -0.40930270575483629 0 -0.44624479447212723 -0.43339096025329182 0 -0.45588197873610392 -0.40930270575483629 0 -0.45109443131896332 -0.43002636863451787 0 -0.44624479447212723 -0.43339096025329182 0 -0.44432381636642571 -0.41865047822066542 0 -0.44080997004790018 -0.42776525689649247 0 -0.43300524912834248 -0.42828697152029188 0 -0.44432381636642571 -0.41865047822066542 0 -0.44080997004790018 -0.42776525689649247 0 -0.44624479447212723 -0.43339096025329182 0 -0.44624479447212723 -0.43339096025329182 0 -0.43660622108023422 -0.4339599580125314 0 -0.4360821827968876 -0.44154577011071272 0 -0.44080997004790018 -0.42776525689649247 0 -0.44624479447212723 -0.43339096025329182 0 -0.43660622108023422 -0.4339599580125314 0 -0.43660622108023422 -0.4339599580125314 0 -0.43300524912834248 -0.42828697152029188 0 -0.42829735379245731 -0.43861823111234799 0 -0.44080997004790018 -0.42776525689649247 0 -0.43660622108023422 -0.4339599580125314 0 -0.43300524912834248 -0.42828697152029188 0 -0.42324625945110439 -0.42894035692386751 0 -0.42829735379245731 -0.43861823111234799 0 -0.41897456685961898 -0.43948174718108168 0 -0.42324625945110439 -0.42894035692386751 0 -0.43300524912834248 -0.42828697152029188 0 -0.42829735379245731 -0.43861823111234799 0 -0.42324625945110439 -0.42894035692386751 0 -0.43300524912834248 -0.42828697152029188 0 -0.429045484891729 -0.41574537586483817 0 -0.44432381636642571 -0.41865047822066542 0 -0.43300524912834248 -0.42828697152029188 0 -0.429045484891729 -0.41574537586483817 0 -0.43830082697747452 -0.39965478629343199 0 -0.44432381636642571 -0.41865047822066542 0 -0.429045484891729 -0.41574537586483817 0 -0.42324625945110439 -0.42894035692386751 0 -0.429045484891729 -0.41574537586483817 0 -0.41729212567564888 -0.41710398630485268 0 -0.429045484891729 -0.41574537586483817 0 -0.41729212567564888 -0.41710398630485268 0 -0.41801221074565698 -0.39808699031092531 0 -0.41729212567564888 -0.41710398630485268 0 -0.41801221074565698 -0.39808699031092531 0 -0.40198014848332908 -0.41267016467912188 0 -0.41729212567564888 -0.41710398630485268 0 -0.41417652480642497 -0.43007704374551131 0 -0.40198014848332908 -0.41267016467912188 0 -0.41417652480642497 -0.43007704374551131 0 -0.40198014848332908 -0.41267016467912188 0 -0.40842495570485349 -0.43768544597637382 0 -0.41417652480642497 -0.43007704374551131 0 -0.41271068110096493 -0.43768251977421557 0 -0.40842495570485349 -0.43768544597637382 0 -0.41417652480642497 -0.43007704374551131 0 -0.41897456685961898 -0.43948174718108168 0 -0.41271068110096493 -0.43768251977421557 0 -0.42324625945110439 -0.42894035692386751 0 -0.41417652480642497 -0.43007704374551131 0 -0.41897456685961898 -0.43948174718108168 0 -0.42324625945110439 -0.42894035692386751 0 -0.41729212567564888 -0.41710398630485268 0 -0.41417652480642497 -0.43007704374551131 0 -0.43830082697747452 -0.39965478629343199 0 -0.43239548363341612 -0.37836220570474521 0 -0.41801221074565698 -0.39808699031092531 0 -0.43830082697747452 -0.39965478629343199 0 -0.429045484891729 -0.41574537586483817 0 -0.41801221074565698 -0.39808699031092531 0 -0.41801221074565698 -0.39808699031092531 0 -0.39553534126180467 -0.38765488338186987 0 -0.4114837764365713 -0.37264776659748722 0 -0.43239548363341612 -0.37836220570474521 0 -0.41801221074565698 -0.39808699031092531 0 -0.4114837764365713 -0.37264776659748722 0 -0.39553534126180467 -0.38765488338186987 0 -0.38909053404028032 -0.36263960208461798 0 -0.39553534126180467 -0.38765488338186987 0 -0.37617113698211418 -0.39781486166417812 0 -0.40198014848332908 -0.41267016467912188 0 -0.39553534126180467 -0.38765488338186987 0 -0.40198014848332908 -0.41267016467912188 0 -0.41801221074565698 -0.39808699031092531 0 -0.39553534126180467 -0.38765488338186987 0 -0.40198014848332908 -0.41267016467912188 0 -0.39553534126180467 -0.38765488338186987 0 -0.37993774591511659 -0.37833552289366762 0 -0.38909053404028032 -0.36263960208461798 0 -0.39553534126180467 -0.38765488338186987 0 -0.37617113698211418 -0.39781486166417812 0 -0.37993774591511659 -0.37833552289366762 0 -0.39382743442433288 -0.4281084315970522 0 -0.38673115121171781 -0.44405990790877248 0 -0.40842495570485349 -0.43768544597637382 0 -0.40198014848332908 -0.41267016467912188 0 -0.4084249557
[...]
<PointData Scalars="" Vectors="displacement," Tensors="">
<DataArray type="Float64" Name="displacement" NumberOfComponents="3" format="ascii">
-0.034999691911951444 -0.034996312085839032 0 -0.033676048430707511 -0.034969810560778802 0 -0.034998705394064279 -0.033360059503338979 0 -0.034999691911951444 -0.034996312085839032 0 -0.033676048430707511 -0.034969810560778802 0 -0.031330069936648261 -0.034999738040336702 0 -0.033676048430707511 -0.034969810560778802 0 -0.033966255270860009 -0.036106572892131913 0 -0.03230856659858683 -0.035979523568205635 0 -0.033676048430707511 -0.034969810560778802 0 -0.034998705394064279 -0.033360059503338979 0 -0.033966255270860009 -0.036106572892131913 0 -0.03498898069944003 -0.033594272173505947 0 -0.035012305258290015 -0.034151816147466721 0 -0.034999968281072956 -0.033351580166422735 0 -0.036111720847163804 -0.032347331946845449 0 -0.034999979736305982 -0.031143386392929136 0 -0.033966255270860009 -0.036106572892131913 0 -0.032868835751038904 -0.037443508341826574 0 -0.03230856659858683 -0.035979523568205635 0 -0.035012305258290015 -0.034151816147466721 0 -0.034813749201582041 -0.03451684020514692 0 -0.036901291078222903 -0.031242770021583256 0 -0.035991492633296082 -0.031168236014907438 0 -0.036342792279181746 -0.03004739883550173 0 -0.034813749201582041 -0.03451684020514692 0 -0.036274655109856571 -0.031369346866781243 0 -0.036111720847163804 -0.032347331946845449 0 -0.037043164628781974 -0.031405536334522796 0 -0.036040897339794147 -0.031285988966888598 0 -0.036111720847163804 -0.032347331946845449 0 -0.034999979736305982 -0.031143386392929136 0 -0.036040897339794147 -0.031285988966888598 0 -0.034999946697581906 -0.031142997415673786 0 -0.035991492633296082 -0.031168236014907438 0 -0.035596723284362045 -0.030441019438811355 0 -0.035000099195575146 -0.03114323642453689 0 -0.036274655109856571 -0.031369346866781243 0 -0.032528951391855201 -0.030045231646202559 0 -0.033733046329574315 -0.030721433440399883 0 -0.033114611572167531 -0.030637074706226071 0 -0.031798905423578307 -0.037388478118377595 0 -0.030438908728488742 -0.037739215009554815 0 -0.032499992952500806 -0.038414870862183662 0 -0.031798905423578307 -0.037388478118377595 0 -0.030174320293553505 -0.037414612200630477 0 -0.030438908728488742 -0.037739215009554815 0 -0.031338411262128864 -0.037517901458779611 0 -0.030425034510392079 -0.037394922596984348 0 -0.031276852887804518 -0.03424897785003294 0 -0.034428121132389869 -0.031916298887142404 0 -0.033465769799765482 -0.037469234558571235 0 -0.031798905423578307 -0.037388478118377595 0 -0.032499992952500806 -0.038414870862183662 0 -0.034813749201582041 -0.03451684020514692 0 -0.031338411262128864 -0.037517901458779611 0 -0.034813749201582041 -0.03451684020514692 0 -0.034428121132389869 -0.031916298887142404 0 -0.032868835751038904 -0.037443508341826574 0 -0.031482320787523922 -0.037466411485911379 0 -0.03230856659858683 -0.035979523568205635 0 -0.031482320787523922 -0.037466411485911379 0 -0.031124801046041265 -0.036261540737519658 0 -0.03230856659858683 -0.035979523568205635 0 -0.031482320787523922 -0.037466411485911379 0 -0.031124801046041265 -0.036261540737519658 0 -0.030666674133673199 -0.036879490007942627 0 -0.031482320787523922 -0.037466411485911379 0 -0.030666674133673199 -0.036879490007942627 0 -0.030174320293553505 -0.037414612200630477 0 -0.031124801046041265 -0.036261540737519658 0 -0.031330069936648261 -0.034999738040336702 0 -0.02987925086699407 -0.036368528058011058 0 -0.031124801046041265 -0.036261540737519658 0 -0.03230856659858683 -0.035979523568205635 0 -0.031330069936648261 -0.034999738040336702 0 -0.033676048430707511 -0.034969810560778802 0 -0.03230856659858683 -0.035979523568205635 0 -0.031330069936648261 -0.034999738040336702 0 -0.031330069936648261 -0.034999738040336702 0 -0.02821459545039396 -0.035827597512493356 0 -0.02987925086699407 -0.036368528058011058 0 -0.031330069936648261 -0.034999738040336702 0 -0.026520397204697298 -0.034996592396607858 0 -0.02821459545039396 -0.035827597512493356 0 -0.026520397204697298 -0.034996592396607858 0 -0.02821459545039396 -0.035827597512493356 0 -0.026402902630235054 -0.03501681449907397 0 -0.02821459545039396 -0.035827597512493356 0 -0.026402902630235054 -0.03501681449907397 0 -0.026930680512964735 -0.036300812333512664 0 -0.026210616123098981 -0.031539698808799317 0 -0.026731495451065755 -0.031883527807066679 0 -0.025103098659983596 -0.032890194462597569 0 -0.026210616123098981 -0.031539698808799317 0 -0.026731495451065755 -0.031883527807066679 0 -0.029071267915140052 -0.030200144725063573 0 -0.026734423122885466 -0.033949318706461187 0 -0.028983164049622701 -0.033707774252588536 0 -0.02821459545039396 -0.035827597512493356 0 -0.026930680512964735 -0.036300812333512664 0 -0.028662234911006272 -0.03715340378012718 0 -0.028131199845015848 -0.031812968461346583 0 -0.026731495451065755 -0.031883527807066679 0 -0.029071267915140052 -0.030200144725063573 0 -0.026731495451065755 -0.031883527807066679 0 -0.026035951868426534 -0.032877609262893133 0 -0.025103098659983596 -0.032890194462597569 0 -0.028131199845015848 -0.031812968461346583 0 -0.026731495451065755 -0.031883527807066679 0 -0.026035951868426534 -0.032877609262893133 0 -0.030666674133673199 -0.036879490007942627 0 -0.02987925086699407 -0.036368528058011058 0 -0.030174320293553505 -0.037414612200630477 0 -0.031124801046041265 -0.036261540737519658 0 -0.030666674133673199 -0.036879490007942627 0 -0.02987925086699407 -0.036368528058011058 0 -0.02821459545039396 -0.035827597512493356 0 -0.02987925086699407 -0.036368528058011058 0 -0.028662234911006272 -0.03715340378012718 0 -0.02987925086699407 -0.036368528058011058 0 -0.028662234911006272 -0.03715340378012718 0 -0.030174320293553505 -0.037414612200630477 0 -0.028131199845015848 -0.031812968461346583 0 -0.029071267915140052 -0.030200144725063573 0 -0.030533752549860151 -0.030684483541225372 0 -0.029071267915140052 -0.030200144725063573 0 -0.030533752549860151 -0.030684483541225372 0 -0.032528951391855201 -0.030045231646202559 0 -0.028983164049622701 -0.033707774252588536 0 -0.031276852887804518 -0.03424897785003294 0 -0.028662234911006272 -0.03715340378012718 0 -0.030174320293553505 -0.037414612200630477 0 -0.030438908728488742 -0.037739215009554815 0 -0.030533752549860151 -0.030684483541225372 0 -0.031813872917854147 -0.030606173974711805 0 -0.032027796021042471 -0.031015195187149409 0 -0.030533752549860151 -0.030684483541225372 0 -0.031813872917854147 -0.030606173974711805 0 -0.032528951391855201 -0.030045231646202559 0 -0.032528951391855201 -0.030045231646202559 0 -0.032576220554602443 -0.030699326284371983 0 -0.033114611572167531 -0.030637074706226071 0 -0.031813872917854147 -0.030606173974711805 0 -0.032528951391855201 -0.030045231646202559 0 -0.032576220554602443 -0.030699326284371983 0 -0.032576220554602443 -0.030699326284371983 0 -0.032027796021042471 -0.031015195187149409 0 -0.033258354659708091 -0.030868071053115335 0 -0.031813872917854147 -0.030606173974711805 0 -0.032576220554602443 -0.030699326284371983 0 -0.032027796021042471 -0.031015195187149409 0 -0.032364437538772807 -0.031387074591853206 0 -0.033258354659708091 -0.030868071053115335 0 -0.033733354550699104 -0.030899852706239482 0 -0.032364437538772807 -0.031387074591853206 0 -0.032027796021042471 -0.031015195187149409 0 -0.033258354659708091 -0.030868071053115335 0 -0.032364437538772807 -0.031387074591853206 0 -0.032027796021042471 -0.031015195187149409 0 -0.0303613018441449 -0.031700705358633507 0 -0.030533752549860151 -0.030684483541225372 0 -0.032027796021042471 -0.031015195187149409 0 -0.0303613018441449 -0.031700705358633507 0 -0.028131199845015848 -0.031812968461346583 0 -0.030533752549860151 -0.030684483541225372 0 -0.0303613018441449 -0.031700705358633507 0 -0.032364437538772807 -0.031387074591853206 0 -0.0303613018441449 -0.031700705358633507 0 -0.03065108479444836 -0.032434258432290558 0 -0.0303613018441449 -0.031700705358633507 0 -0.03065108479444836 -0.032434258432290558 0 -0.027992490944384253 -0.033148312923003263 0 -0.03065108479444836 -0.032434258432290558 0 -0.027992490944384253 -0.033148312923003263 0 -0.029847217454905987 -0.034619256543112806 0 -0.03065108479444836 -0.032434258432290558 0 -0.032787629757679647 -0.031759052641461637 0 -0.029847217454905987 -0.034619256543112806 0 -0.032787629757679647 -0.031759052641461637 0 -0.029847217454905987 -0.034619256543112806 0 -0.034233150699069015 -0.031571833409640045 0 -0.032787629757679647 -0.031759052641461637 0 -0.033901749817112373 -0.031333062691762753 0 -0.034233150699069015 -0.031571833409640045 0 -0.032787629757679647 -0.031759052641461637 0 -0.033733354550699104 -0.030899852706239482 0 -0.033901749817112373 -0.031333062691762753 0 -0.032364437538772807 -0.031387074591853206 0 -0.032787629757679647 -0.031759052641461637 0 -0.033733354550699104 -0.030899852706239482 0 -0.032364437538772807 -0.031387074591853206 0 -0.03065108479444836 -0.032434258432290558 0 -0.032787629757679647 -0.031759052641461637 0 -0.028131199845015848 -0.031812968461346583 0 -0.026035951868426534 -0.032877609262893133 0 -0.027992490944384253 -0.033148312923003263 0 -0.028131199845015848 -0.031812968461346583 0 -0.0303613018441449 -0.031700705358633507 0 -0.027992490944384253 -0.033148312923003263 0 -0.027992490944384253 -0.033148312923003263 0 -0.026759214468368289 -0.035129034811727987 0 -0.025544534409787285 -0.03404635064586567 0 -0.026035951868426534 -0.032877609262893133 0 -0.027992490944384253 -0.033148312923003263 0 -0.025544534409787285 -0.03404635064586567 0 -0.025660696599326863 -0.034743249150549514 0 -0.02508286455103239 -0.034620843903672191 0 -0.024482844126378054 -0.034447990211031954 0 -0.024137330507342313 -0.033598127985989101 0 -0.023403984237604723 -0.034785812670394774 0 -0.025660696599326863 -0.034743249150549514 0 -0.02660072859250771 -0.034769209578044982 0 -0.027992490944384253 -0.033148312923003263 0 -0.026759214468368289 -0.035129034811727987 0 -0.029847217454905987 -0.034619256543112806 0 -0.024482844126378054 -0.034447990211031954 0 -0.024690776185259385 -0.034020117719629199 0 -0.024972901813845292 -0.034570673354486645 0 -0.024482844126378054 -0.034447990211031954 0 -0.024137330507342313 -0.033598127985989101 0 -0.024690776185259385 -0.034020117719629199 0 -0.022562551620551523 -0.034381956563561133 0 -0.021627831031568436 -0.034000429007857047 0 -0.022080617209710659 -0.035152214948183311 0 -0.02660072859250771 -0.034769209578044982 0 -0.02779211856332953 -0.032040798816603204 0 -0.022562551620551523 -0.034381956563561133 0 -0.023403984237604723 -0.034785812670394774 0 -0.022080617209710659 -0.035152214948183311 0 -0.022562551620551523 -0.034381956563561133 0 -0.023403984237604723 -0.034785812670394774 0 -0.023026142417263609 -0.033568278925525788 0 -0.024137330507342313 -0.033598127985989101 0 -0.023403984237604723 -0.034785812670394774 0 -0.023026142417263609 -0.033568278925525788 0 -0.022562551620551523 -0.034381956563561133 0 -0.023026142417263609 -0.033568278925525788 0 -0.021627831031568436 -0.034000429007857047 0 -0.036399101157796293 -0.02868652663177514 0 -0.035508677106841094 -0.029218054799606277 0 -0.035465727815196274 -0.02780115416076084 0 -0.029073188471349935 -0.031468142354498227 0 -0.029018088124313272 -0.02937720742234752 0 -0.036399101157796293 -0.02868652663177514 0 -0.035465727815196274 -0.02780115416076084 0 -0.035973862158346616 -0.026418078310404686 0 -0.036399101157796293 -0.02868652663177514 0 -0.035404152631160639 -0.029991541629316824 0 -0.035508677106841094 -0.029218054799606277 0 -0.036399101157796293 -0.02868652663177514 0 -0.035404152631160639 -0.029991541629316824 0 -0.034233150699069015 -0.031571833409640045 0 -0.029073188471349935 -0.031468142354498227 0 -0.02779211856332953 -0.032040798816603204 0 -0.035404152631160639 -0.029991541629316824 0 -0.034233150699069015 -0.031571833409640045 0 -0.034909696674767517 -0.030606612530773066 0 -0.035508677106841094 -0.029218054799606277 0 -0.035416808226340836 -0.028976601130079809 0 -0.035357700804382067 -0.029782288079831024 0 -0.035404152631160639 -0.029991541629316824 0 -0.035508677106841094 -0.029218054799606277 0 -0.035357700804382067 -0.029782288079831024 0 -0.035465727815196274 -0.02780115416076084 0 -0.034999268104124279 -0.027483473100932392 0 -0.034999293334521772 -0.025593201357856834 0 -0.035465727815196274 -0.02780115416076084 0 -0.034999268104124279 -0.027483473100932392 0 -0.035416808226340836 -0.028976601130079809 0 -0.034999268104124279 -0.027483473100932392 0 -0.035416808226340836 -0.028976601130079809 0 -0.034999753590469973 -0.029370932498132257 0 -0.035508677106841094 -0.029218054799606277 0 -0.035465727815196274 -0.02780115416076084 0 -0.035416808226340836 -0.028976601130079809 0 -0.035416808226340836 -0.028976601130079809 0 -0.035509547178975441 -0.02964292982428525 0 -0.035357700804382067 -0.029782288079831024 0 -0.035416808226340836 -0.028976601130079809 0 -0.034999753590469973 -0.029370932498132257 0 -0.035509547178975441 -0.02964292982428525 0 -0.034999981827525291 -0.029371975598955501 0 -0.035596723284362045 -0.030441019438811355 0 -0.036342792279181746 -0.03004739883550173 0 -0.035991492633296082 -0.031168236014907438 0 -0.035596723284362045 -0.030441019438811355 0 -0.036342792279181746 -0.03004739883550173 0 -0.034999946697581906 -0.031142997415673786 0 -0.034999981827525291 -0.029371975598955501 0 -0.035596723284362045 -0.030441019438811355 0 -0.034999938271745391 -0.02937182080530024 0 -0.036175638782032005 -0.02969078926232779 0 -0.036175638782032005 -0.02969078926232779 0 -0.034428121132389869 -0.031916298887142404 0 -0.035509547178975441 -0.02964292982428525 0 -0.035177976263884664 -0.029965201433571606 0 -0.035173774045270209 -0.029230163040830696 0 -0.036901291078222903 -0.031242770021583256 0 -0.036342792279181746 -0.03004739883550173 0 -0.037542295006228028 -0.030594056950953012 0 -0.033733046329574315 -0.030721433440399883 0 -0.033258354659708091 -0.030868071053115335 0 -0.033733354550699104 -0.030899852706239482 0 -0.034428121132389869 -0.031916298887142404 0 -0.033966539690850575 -0.030220961417556085 0 -0.035177976263884664 -0.029965201433571606 0 -0.035173774045270209 -0.029230163040830696 0 -0.033733354550699104 -0.030899852706239482 0 -0.033733046329574315 -0.030721433440399883 0 -0.033114611572167531 -0.030637074706226071 0 -0.033258354659708091 -0.030868071053115335 0 -0.032576220554602443 -0.030699326284371983 0 -0.033114611572167531 -0.030637074706226071 0 -0.033258354659708091 -0.030868071053115335 0 -0.035177976263884664 -0.029965201433571606 0 -0.033733354550699104 -0.030899852706239482 0 -0.034888862955206948 -0.030545493433114104 0 -0.033733354550699104 -0.030899852706239482 0 -0.034366597860635187 -0.030992844226437249 0 -0.034888862955206948 -0.030545493433114104 0 -0.033733354550699104 -0.030899852706239482 0 -0.033901749817112373 -0.031333062691762753 0 -0.034366597860635187 -0.030992844226437249 0 -0.034366597860635187 -0.030992844226437249 0 -0.034233150699069015 -0.031571833409640045 0 -0.034909696674767517 -0.030606612530773066 0 -0.033901749817112373 -0.031333062691762753 0 -0.034366597860635187 -0.030992844226437249 0 -0.034233150699069015 -0.031571833409640045 0 -0.035404152631160639 -0.029991541629316824 0 -0.034888862955206948 -0.030545493433114104 0 -0.034909696674767517 -0.030606612530773066 0 -0.034366597860635187 -0.030992844226437249 0 -0.034888862955206948 -0.030545493433114104 0 -0.034909696674767517 -0.030606612530773066 0 -0.035509547178975441 -0.02964292982428525 0 -0.035177976263884664 -0.029965201433571606 0 -0.035357700804382067 -0.029782288079831024 0 -0.035404152631160639 -0.029991541629316824 0 -0.034888862955206948 -0.030545493433114104 0 -0.035357700804382067 -0.029782288079831024 0 -0.035177976263884664 -0.029965201433571606 0 -0.034888862955206948 -0.030545493433114104 0 -0.035357700804382067 -0.029782288079831024 0 -0.017777701334190411 -0.037678098403378428 0 -0.018486833340908941 -0.037879350346318216 0 -0.018307336815800067 -0.037254473907330228 0 -0.0221666717828914 -0.034128374623899442 0 -0.021853241021113932 -0.034744671153333906 0 -0.021655070882751235 -0.034270857966138553 0 -0.020364448590709485 -0.036612312507066279 0 -0.020590583260772875 -0.035683823800170537 0 -0.018486833340908941 -0.037879350346318216 0 -0.019338426824413672 -0.037035305853752559 0 -0.018307336815800067 -0.037254473907330228 0 -0.018307336815800067 -0.037254473907330228 0 -0.0181005183384047 -0.036288960436342638 0 -0.017552939494801925 -0.037018140943045827 0 -0.019338426824413672 -0.037035305853752559 0 -0.018307336815800067 -0.037254473907330228 0 -0.0181005183384047 -0.036288960436342638 0 -0.017777701334190411 -0.037678098403378428 0 -0.018307336815800067 -0.037254473907330228 0 -0.017552939494801925 -0.037018140943045827 0 -0.0181005183384047 -0.036288960436342638 0 -0.018297353694921137 -0.034999543991790727 0 -0.016830287661214315 -0.035825297579759767 0 -0.0181005183384047 -0.036288960436342638 0 -0.018297353694921137 -0.034999543991790727 0 -0.020473261590227287 -0.035458107727437065 0 -0.018297353694921137 -0.034999543991790727 0 -0.020473261590227287 -0.035458107727437065 0 -0.020354308531968738 -0.034999405546885597 0 -0.020590583260772875 -0.035683823800170537 0 -0.020545801346219025 -0.035474344961453033 0 -0.019338426824413672 -0.037035305853752559 0 -0.0181005183384047 -0.036288960436342638 0 -0.020473261590227287 -0.035458107727437065 0 -0.021853241021113932 -0.034744671153333906 0 -0.020473261590227287 -0.035458107727437065 0 -0.021405745051145165 -0.034924776521422 0 -0.020473261590227287 -0.035458107727437065 0 -0.021569556477072507 -0.035111078692503253 0 -0.021405745051145165 -0.034924776521422 0 -0.020473261590227287 -0.035458107727437065 0 -0.020354308531968738 -0.034999405546885597 0 -0.021569556477072507 -0.035111078692503253 0 -0.020354308531968738 -0.034999405546885597 0 -0.021569556477072507 -0.035111078692503253 0 -0.022409105512998771 -0.034999015009267095 0 -0.021569556477072507 -0.035111078692503253 0 -0.021964795018761762 -0.034580518485914612 0 -0.02268728949835536 -0.034790420840192252 0 -0.021569556477072507 -0.035111078692503253 0 -0.021964795018761762 -0.034580518485914612 0 -0.021405745051145165 -0.034924776521422 0 -0.021964795018761762 -0.034580518485914612 0 -0.021405745051145165 -0.034924776521422 0 -0.021655070882751235 -0.034270857966138553 0 -0.021853241021113932 -0.034744671153333906 0 -0.021405745051145165 -0.034924776521422 0 -0.021655070882751235 -0.034270857966138553 0 -0.021964795018761762 -0.034580518485914612 0 -0.021655070882751235 -0.034270857966138553 0 -0.022005354057592887 -0.03389284204540452 0 -0.021655070882751235 -0.034270857966138553 0 -0.022005354057592887 -0.03389284204540452 0 -0.02127943158872489 -0.033577253366758951 0 -0.022005354057592887 -0.03389284204540452 0 -0.022803883287087854 -0.034083069736319832 0 -0.023261890071138738 -0.033625962942808743 0 -0.022803883287087854 -0.034083069736319832 0 -0.024043236710057366 -0.033473636528333101 0 -0.023261890071138738 -0.033625962942808743 0 -0.023704242501180479 -0.033997633407699158 0 -0.022803883287087854 -0.034083069736319832 0 -0.02268728949835536 -0.034790420840192252 0 -0.023704242501180479 -0.033997633407699158 0 -0.022803883287087854 -0.034083069736319832 0 -0.024043236710057366 -0.033473636528333101 0 -0.021964795018761762 -0.034580518485914612 0 -0.022005354057592887 -0.03389284204540452 0 -0.022803883287087854 -0.034083069736319832 0 -0.021964795018761762 -0.034580518485914612 0 -0.022803883287087854 -0.034083069736319832 0 -0.02268728949835536 -0.034790420840192252 0 -0.021569556477072507 -0.035111078692503253 0 -0.02268728949835536 -0.034790420840192252 0 -0.022409105512998771 -0.034999015009267095 0 -0.02268728949835536 -0.034790420840192252 0 -0.022409105512998771 -0.034999015009267095 0 -0.023637515661458525 -0.034977842228590829 0 -0.022409105512998771 -0.034999015009267095 0 -0.0236