<?xml version="1.0"?>
<VTKFile type="UnstructuredGrid" version="0.1" byte_order="LittleEndian">
<UnstructuredGrid>
<Piece NumberOfPoints="30622" NumberOfCells="10726">
<Points>
<DataArray type="Float64" NumberOfComponents="3" format="ascii">
-0.5 -0.5 0 -0.48175857830073798 -0.47803511362356338 0 -0.47645264824916389 -0.50000000000000089 0 -0.5 -0.5 0 -0.48175857830073798 -0.47803511362356338 0 -0.5 -0.44756378430225269 0 -0.48175857830073798 -0.47803511362356338 0 -0.4620596478456987 -0.48345727270434657 0 -0.47028059540882722 -0.46100677613749669 0 -0.48175857830073798 -0.47803511362356338 0 -0.47645264824916389 -0.50000000000000089 0 -0.4620596478456987 -0.48345727270434657 0 -0.47645264824916389 -0.50000000000000089 0 -0.4620596478456987 -0.48345727270434657 0 -0.47645264824916389 -0.50000000000000089 0 -0.4620596478456987 -0.48345727270434657 0 -0.44490311097661051 -0.500000000000002 0 -0.4620596478456987 -0.48345727270434657 0 -0.44766664744223322 -0.46876681043497243 0 -0.47028059540882722 -0.46100677613749669 0 -0.4620596478456987 -0.48345727270434657 0 -0.44766664744223322 -0.46876681043497243 0 -0.44766664744223322 -0.46876681043497243 0 -0.44628487920942178 -0.48438340521748718 0 -0.42810179168749762 -0.47873960737587079 0 -0.44766664744223322 -0.46876681043497243 0 -0.44628487920942178 -0.48438340521748718 0 -0.4620596478456987 -0.48345727270434657 0 -0.44766664744223322 -0.46876681043497243 0 -0.44628487920942178 -0.48438340521748718 0 -0.4620596478456987 -0.48345727270434657 0 -0.44490311097661051 -0.500000000000002 0 -0.44628487920942178 -0.48438340521748718 0 -0.44490311097661051 -0.500000000000002 0 -0.44628487920942178 -0.48438340521748718 0 -0.43472143876009411 -0.49078075314833952 0 -0.44490311097661051 -0.500000000000002 0 -0.44628487920942178 -0.48438340521748718 0 -0.44624479447212723 -0.43339096025329182 0 -0.43660761020815209 -0.45747921475174802 0 -0.4360821827968876 -0.44154577011071272 0 -0.44938053938059808 -0.44939658953474509 0 -0.44624479447212723 -0.43339096025329182 0 -0.43660761020815209 -0.45747921475174802 0 -0.44938053938059808 -0.44939658953474509 0 -0.45109443131896332 -0.43002636863451787 0 -0.44624479447212723 -0.43339096025329182 0 -0.44938053938059808 -0.44939658953474509 0 -0.45109443131896332 -0.43002636863451787 0 -0.44624479447212723 -0.43339096025329182 0 -0.43660761020815209 -0.45747921475174802 0 -0.44766664744223322 -0.46876681043497243 0 -0.44938053938059808 -0.44939658953474509 0 -0.43660761020815209 -0.45747921475174802 0 -0.44766664744223322 -0.46876681043497243 0 -0.44938053938059808 -0.44939658953474509 0 -0.44766664744223322 -0.46876681043497243 0 -0.43660761020815209 -0.45747921475174802 0 -0.44766664744223322 -0.46876681043497243 0 -0.44938053938059808 -0.44939658953474509 0 -0.47028059540882722 -0.46100677613749669 0 -0.44938053938059808 -0.44939658953474509 0 -0.46876063957734859 -0.44424178834734979 0 -0.47028059540882722 -0.46100677613749669 0 -0.44938053938059808 -0.44939658953474509 0 -0.46876063957734859 -0.44424178834734979 0 -0.45930605182455247 -0.43745027374088419 0 -0.44938053938059808 -0.44939658953474509 0 -0.45930605182455247 -0.43745027374088419 0 -0.45109443131896332 -0.43002636863451787 0 -0.46876063957734859 -0.44424178834734979 0 -0.5 -0.44756378430225269 0 -0.46798859702130041 -0.42613634844692427 0 -0.46876063957734859 -0.44424178834734979 0 -0.47028059540882722 -0.46100677613749669 0 -0.5 -0.44756378430225269 0 -0.48175857830073798 -0.47803511362356338 0 -0.47028059540882722 -0.46100677613749669 0 -0.5 -0.44756378430225269 0 -0.5 -0.44756378430225269 0 -0.47629260694278741 -0.40349661143207272 0 -0.46798859702130041 -0.42613634844692427 0 -0.5 -0.44756378430225269 0 -0.50000000000000022 -0.37886567910958968 0 -0.47629260694278741 -0.40349661143207272 0 -0.50000000000000022 -0.37886567910958968 0 -0.47629260694278741 -0.40349661143207272 0 -0.47980805615581318 -0.37784851377904871 0 -0.47629260694278741 -0.40349661143207272 0 -0.47980805615581318 -0.37784851377904871 0 -0.46551916300008062 -0.38521445125638071 0 -0.46551916300008062 -0.38521445125638071 0 -0.44819628301138992 -0.38764414753211601 0 -0.4488839627098743 -0.36568658865118597 0 -0.46551916300008062 -0.38521445125638071 0 -0.44819628301138992 -0.38764414753211601 0 -0.45588197873610392 -0.40930270575483629 0 -0.46551916300008062 -0.38521445125638071 0 -0.45588197873610392 -0.40930270575483629 0 -0.47629260694278741 -0.40349661143207272 0 -0.46551916300008062 -0.38521445125638071 0 -0.45588197873610392 -0.40930270575483629 0 -0.43830082697747452 -0.39965478629343199 0 -0.44819628301138992 -0.38764414753211601 0 -0.45588197873610392 -0.40930270575483629 0 -0.44819628301138992 -0.38764414753211601 0 -0.43239548363341612 -0.37836220570474521 0 -0.4488839627098743 -0.36568658865118597 0 -0.43830082697747452 -0.39965478629343199 0 -0.44819628301138992 -0.38764414753211601 0 -0.43239548363341612 -0.37836220570474521 0 -0.45930605182455247 -0.43745027374088419 0 -0.46798859702130041 -0.42613634844692427 0 -0.45109443131896332 -0.43002636863451787 0 -0.46876063957734859 -0.44424178834734979 0 -0.45930605182455247 -0.43745027374088419 0 -0.46798859702130041 -0.42613634844692427 0 -0.47629260694278741 -0.40349661143207272 0 -0.46798859702130041 -0.42613634844692427 0 -0.45588197873610392 -0.40930270575483629 0 -0.46798859702130041 -0.42613634844692427 0 -0.45588197873610392 -0.40930270575483629 0 -0.45109443131896332 -0.43002636863451787 0 -0.43830082697747452 -0.39965478629343199 0 -0.45588197873610392 -0.40930270575483629 0 -0.44432381636642571 -0.41865047822066542 0 -0.45588197873610392 -0.40930270575483629 0 -0.44432381636642571 -0.41865047822066542 0 -0.44624479447212723 -0.43339096025329182 0 -0.45588197873610392 -0.40930270575483629 0 -0.44624479447212723 -0.43339096025329182 0 -0.45588197873610392 -0.40930270575483629 0 -0.45109443131896332 -0.43002636863451787 0 -0.44624479447212723 -0.43339096025329182 0 -0.44432381636642571 -0.41865047822066542 0 -0.44080997004790018 -0.42776525689649247 0 -0.43300524912834248 -0.42828697152029188 0 -0.44432381636642571 -0.41865047822066542 0 -0.44080997004790018 -0.42776525689649247 0 -0.44624479447212723 -0.43339096025329182 0 -0.44624479447212723 -0.43339096025329182 0 -0.43660622108023422 -0.4339599580125314 0 -0.4360821827968876 -0.44154577011071272 0 -0.44080997004790018 -0.42776525689649247 0 -0.44624479447212723 -0.43339096025329182 0 -0.43660622108023422 -0.4339599580125314 0 -0.43660622108023422 -0.4339599580125314 0 -0.43300524912834248 -0.42828697152029188 0 -0.42829735379245731 -0.43861823111234799 0 -0.44080997004790018 -0.42776525689649247 0 -0.43660622108023422 -0.4339599580125314 0 -0.43300524912834248 -0.42828697152029188 0 -0.42324625945110439 -0.42894035692386751 0 -0.42829735379245731 -0.43861823111234799 0 -0.41897456685961898 -0.43948174718108168 0 -0.42324625945110439 -0.42894035692386751 0 -0.43300524912834248 -0.42828697152029188 0 -0.42829735379245731 -0.43861823111234799 0 -0.42324625945110439 -0.42894035692386751 0 -0.43300524912834248 -0.42828697152029188 0 -0.429045484891729 -0.41574537586483817 0 -0.44432381636642571 -0.41865047822066542 0 -0.43300524912834248 -0.42828697152029188 0 -0.429045484891729 -0.41574537586483817 0 -0.43830082697747452 -0.39965478629343199 0 -0.44432381636642571 -0.41865047822066542 0 -0.429045484891729 -0.41574537586483817 0 -0.42324625945110439 -0.42894035692386751 0 -0.429045484891729 -0.41574537586483817 0 -0.41729212567564888 -0.41710398630485268 0 -0.429045484891729 -0.41574537586483817 0 -0.41729212567564888 -0.41710398630485268 0 -0.41801221074565698 -0.39808699031092531 0 -0.41729212567564888 -0.41710398630485268 0 -0.41801221074565698 -0.39808699031092531 0 -0.40198014848332908 -0.41267016467912188 0 -0.41729212567564888 -0.41710398630485268 0 -0.41417652480642497 -0.43007704374551131 0 -0.40198014848332908 -0.41267016467912188 0 -0.41417652480642497 -0.43007704374551131 0 -0.40198014848332908 -0.41267016467912188 0 -0.40842495570485349 -0.43768544597637382 0 -0.41417652480642497 -0.43007704374551131 0 -0.41271068110096493 -0.43768251977421557 0 -0.40842495570485349 -0.43768544597637382 0 -0.41417652480642497 -0.43007704374551131 0 -0.41897456685961898 -0.43948174718108168 0 -0.41271068110096493 -0.43768251977421557 0 -0.42324625945110439 -0.42894035692386751 0 -0.41417652480642497 -0.43007704374551131 0 -0.41897456685961898 -0.43948174718108168 0 -0.42324625945110439 -0.42894035692386751 0 -0.41729212567564888 -0.41710398630485268 0 -0.41417652480642497 -0.43007704374551131 0 -0.43830082697747452 -0.39965478629343199 0 -0.43239548363341612 -0.37836220570474521 0 -0.41801221074565698 -0.39808699031092531 0 -0.43830082697747452 -0.39965478629343199 0 -0.429045484891729 -0.41574537586483817 0 -0.41801221074565698 -0.39808699031092531 0 -0.41801221074565698 -0.39808699031092531 0 -0.39553534126180467 -0.38765488338186987 0 -0.4114837764365713 -0.37264776659748722 0 -0.43239548363341612 -0.37836220570474521 0 -0.41801221074565698 -0.39808699031092531 0 -0.4114837764365713 -0.37264776659748722 0 -0.39553534126180467 -0.38765488338186987 0 -0.38909053404028032 -0.36263960208461798 0 -0.39553534126180467 -0.38765488338186987 0 -0.37617113698211418 -0.39781486166417812 0 -0.40198014848332908 -0.41267016467912188 0 -0.39553534126180467 -0.38765488338186987 0 -0.40198014848332908 -0.41267016467912188 0 -0.41801221074565698 -0.39808699031092531 0 -0.39553534126180467 -0.38765488338186987 0 -0.40198014848332908 -0.41267016467912188 0 -0.39553534126180467 -0.38765488338186987 0 -0.37993774591511659 -0.37833552289366762 0 -0.38909053404028032 -0.36263960208461798 0 -0.39553534126180467 -0.38765488338186987 0 -0.37617113698211418 -0.39781486166417812 0 -0.37993774591511659 -0.37833552289366762 0 -0.39382743442433288 -0.4281084315970522 0 -0.38673115121171781 -0.44405990790877248 0 -0.40842495570485349 -0.43768544597637382 0 -0.40198014848332908 -0.41267016467912188 0 -0.4084249557
[...]
<PointData Scalars="" Vectors="displacement," Tensors="">
<DataArray type="Float64" Name="displacement" NumberOfComponents="3" format="ascii">
-0.034997164241931472 -6.0141644118481253e-07 0 -0.034690602221883381 -7.6240223991489489e-05 0 -0.033356585028009096 8.3809945375553295e-07 0 -0.034997164241931472 -6.0141644118481253e-07 0 -0.034690602221883381 -7.6240223991489489e-05 0 -0.035000773120565175 -1.2523473599669707e-07 0 -0.034690602221883381 -7.6240223991489489e-05 0 -0.034435757371988229 0.00038281794439666138 0 -0.0348450452365077 7.0164581090030519e-05 0 -0.034690602221883381 -7.6240223991489489e-05 0 -0.033356585028009096 8.3809945375553295e-07 0 -0.034435757371988229 0.00038281794439666138 0 -0.033238416005687575 -4.0199374792276152e-05 0 -0.033357301556633343 0.00013018330369266522 0 -0.033347863982397127 -1.6500111864723053e-08 0 -0.032115042281204695 -0.00011487299825739011 0 -0.031147049656713627 2.2537601402707751e-08 0 -0.034435757371988229 0.00038281794439666138 0 -0.034689713998511049 0.00036347772710051875 0 -0.0348450452365077 7.0164581090030519e-05 0 -0.033357301556633343 0.00013018330369266522 0 -0.032799811209315445 0.00026307749217001917 0 -0.030453064146095346 6.8651618138377124e-06 0 -0.030371957745010832 9.9117295657179925e-06 0 -0.030475703385647809 8.2417648428550075e-06 0 -0.032799811209315445 0.00026307749217001917 0 -0.030983204949717836 0.00011396227999436415 0 -0.032115042281204695 -0.00011487299825739011 0 -0.032309866862387716 0.00017895248752222202 0 -0.031953767612634007 0.00020584825487123012 0 -0.032115042281204695 -0.00011487299825739011 0 -0.031147049656713627 2.2537601402707751e-08 0 -0.031953767612634007 0.00020584825487123012 0 -0.031139708210442762 -1.3013240390970691e-08 0 -0.030371957745010832 9.9117295657179925e-06 0 -0.030331788674844026 -0.00010905899922104584 0 -0.031143440149283139 4.9016858626122734e-08 0 -0.030983204949717836 0.00011396227999436415 0 -0.028798143604022962 -0.00098291517193039159 0 -0.027545731078802291 -0.00046109809182105983 0 -0.028312515926174946 -0.00045213029649222256 0 -0.034102398211522715 -1.1984980179916874e-05 0 -0.034812561427361194 0.00013356148133726167 0 -0.033703019399628754 0.00058443135075934589 0 -0.034102398211522715 -1.1984980179916874e-05 0 -0.03488498207627852 2.360502216334147e-05 0 -0.034812561427361194 0.00013356148133726167 0 -0.034698455766089487 7.5433136650699783e-05 0 -0.03475455879634478 4.214737685159303e-05 0 -0.031934748315277026 -0.00042359108133796947 0 -0.029922473771740742 -1.0484438863535265e-06 0 -0.033155559482341834 5.9457304129757751e-05 0 -0.034102398211522715 -1.1984980179916874e-05 0 -0.033703019399628754 0.00058443135075934589 0 -0.032799811209315445 0.00026307749217001917 0 -0.034698455766089487 7.5433136650699783e-05 0 -0.032799811209315445 0.00026307749217001917 0 -0.029922473771740742 -1.0484438863535265e-06 0 -0.034689713998511049 0.00036347772710051875 0 -0.034892911363875082 0.00018145678851233602 0 -0.0348450452365077 7.0164581090030519e-05 0 -0.034892911363875082 0.00018145678851233602 0 -0.034921345104155468 2.185071330692662e-05 0 -0.0348450452365077 7.0164581090030519e-05 0 -0.034892911363875082 0.00018145678851233602 0 -0.034921345104155468 2.185071330692662e-05 0 -0.034914311612135839 4.1707116018580552e-05 0 -0.034892911363875082 0.00018145678851233602 0 -0.034914311612135839 4.1707116018580552e-05 0 -0.03488498207627852 2.360502216334147e-05 0 -0.034921345104155468 2.185071330692662e-05 0 -0.035000773120565175 -1.2523473599669707e-07 0 -0.034961123324756198 -6.9272251616158529e-05 0 -0.034921345104155468 2.185071330692662e-05 0 -0.0348450452365077 7.0164581090030519e-05 0 -0.035000773120565175 -1.2523473599669707e-07 0 -0.034690602221883381 -7.6240223991489489e-05 0 -0.0348450452365077 7.0164581090030519e-05 0 -0.035000773120565175 -1.2523473599669707e-07 0 -0.035000773120565175 -1.2523473599669707e-07 0 -0.034989471549683709 -0.00017858942056260652 0 -0.034961123324756198 -6.9272251616158529e-05 0 -0.035000773120565175 -1.2523473599669707e-07 0 -0.034998191968135452 1.723419477954971e-07 0 -0.034989471549683709 -0.00017858942056260652 0 -0.034998191968135452 1.723419477954971e-07 0 -0.034989471549683709 -0.00017858942056260652 0 -0.034587607179612213 -0.00038053029972403451 0 -0.034989471549683709 -0.00017858942056260652 0 -0.034587607179612213 -0.00038053029972403451 0 -0.034790378830951763 -0.00052196286818672992 0 -0.032142249766863362 -0.0010707865455458984 0 -0.031879185654097579 -0.00045918127542275277 0 -0.033013156490510766 -0.00013970188130581353 0 -0.032142249766863362 -0.0010707865455458984 0 -0.031879185654097579 -0.00045918127542275277 0 -0.030576804432073352 -0.0012001660622209219 0 -0.033405127987955377 -0.00076342933622664368 0 -0.032715929211442306 -0.00066025292663505499 0 -0.034989471549683709 -0.00017858942056260652 0 -0.034790378830951763 -0.00052196286818672992 0 -0.035007975370404003 -0.00017240583779745431 0 -0.031118199446026645 -0.00021021171425335503 0 -0.031879185654097579 -0.00045918127542275277 0 -0.030576804432073352 -0.0012001660622209219 0 -0.031879185654097579 -0.00045918127542275277 0 -0.03227694614483316 0.00023727080438601684 0 -0.033013156490510766 -0.00013970188130581353 0 -0.031118199446026645 -0.00021021171425335503 0 -0.031879185654097579 -0.00045918127542275277 0 -0.03227694614483316 0.00023727080438601684 0 -0.034914311612135839 4.1707116018580552e-05 0 -0.034961123324756198 -6.9272251616158529e-05 0 -0.03488498207627852 2.360502216334147e-05 0 -0.034921345104155468 2.185071330692662e-05 0 -0.034914311612135839 4.1707116018580552e-05 0 -0.034961123324756198 -6.9272251616158529e-05 0 -0.034989471549683709 -0.00017858942056260652 0 -0.034961123324756198 -6.9272251616158529e-05 0 -0.035007975370404003 -0.00017240583779745431 0 -0.034961123324756198 -6.9272251616158529e-05 0 -0.035007975370404003 -0.00017240583779745431 0 -0.03488498207627852 2.360502216334147e-05 0 -0.031118199446026645 -0.00021021171425335503 0 -0.030576804432073352 -0.0012001660622209219 0 -0.029852178147635088 -0.00071661172404168774 0 -0.030576804432073352 -0.0012001660622209219 0 -0.029852178147635088 -0.00071661172404168774 0 -0.028798143604022962 -0.00098291517193039159 0 -0.032715929211442306 -0.00066025292663505499 0 -0.031934748315277026 -0.00042359108133796947 0 -0.035007975370404003 -0.00017240583779745431 0 -0.03488498207627852 2.360502216334147e-05 0 -0.034812561427361194 0.00013356148133726167 0 -0.029852178147635088 -0.00071661172404168774 0 -0.029183448889739356 -0.00062911214113331644 0 -0.029099463408918228 -0.00025020290417909714 0 -0.029852178147635088 -0.00071661172404168774 0 -0.029183448889739356 -0.00062911214113331644 0 -0.028798143604022962 -0.00098291517193039159 0 -0.028798143604022962 -0.00098291517193039159 0 -0.028746113215665975 -0.00045666779626113083 0 -0.028312515926174946 -0.00045213029649222256 0 -0.029183448889739356 -0.00062911214113331644 0 -0.028798143604022962 -0.00098291517193039159 0 -0.028746113215665975 -0.00045666779626113083 0 -0.028746113215665975 -0.00045666779626113083 0 -0.029099463408918228 -0.00025020290417909714 0 -0.028367482680399989 -8.7198813218787626e-05 0 -0.029183448889739356 -0.00062911214113331644 0 -0.028746113215665975 -0.00045666779626113083 0 -0.029099463408918228 -0.00025020290417909714 0 -0.028968215536255237 0.00019506045759740671 0 -0.028367482680399989 -8.7198813218787626e-05 0 -0.028169086498455388 0.00032754138997148353 0 -0.028968215536255237 0.00019506045759740671 0 -0.029099463408918228 -0.00025020290417909714 0 -0.028367482680399989 -8.7198813218787626e-05 0 -0.028968215536255237 0.00019506045759740671 0 -0.029099463408918228 -0.00025020290417909714 0 -0.029986767119274275 4.4513451466340033e-05 0 -0.029852178147635088 -0.00071661172404168774 0 -0.029099463408918228 -0.00025020290417909714 0 -0.029986767119274275 4.4513451466340033e-05 0 -0.031118199446026645 -0.00021021171425335503 0 -0.029852178147635088 -0.00071661172404168774 0 -0.029986767119274275 4.4513451466340033e-05 0 -0.028968215536255237 0.00019506045759740671 0 -0.029986767119274275 4.4513451466340033e-05 0 -0.029849048708150125 0.00060088743545549537 0 -0.029986767119274275 4.4513451466340033e-05 0 -0.029849048708150125 0.00060088743545549537 0 -0.031176667712212499 0.00070080051470050467 0 -0.029849048708150125 0.00060088743545549537 0 -0.031176667712212499 0.00070080051470050467 0 -0.030229603808838858 0.0016073534545256449 0 -0.029849048708150125 0.00060088743545549537 0 -0.028781045715525162 0.00058586879842322068 0 -0.030229603808838858 0.0016073534545256449 0 -0.028781045715525162 0.00058586879842322068 0 -0.030229603808838858 0.0016073534545256449 0 -0.028090943150368666 0.00073464241349255452 0 -0.028781045715525162 0.00058586879842322068 0 -0.028196391106573352 0.00056335472458936872 0 -0.028090943150368666 0.00073464241349255452 0 -0.028781045715525162 0.00058586879842322068 0 -0.028169086498455388 0.00032754138997148353 0 -0.028196391106573352 0.00056335472458936872 0 -0.028968215536255237 0.00019506045759740671 0 -0.028781045715525162 0.00058586879842322068 0 -0.028169086498455388 0.00032754138997148353 0 -0.028968215536255237 0.00019506045759740671 0 -0.029849048708150125 0.00060088743545549537 0 -0.028781045715525162 0.00058586879842322068 0 -0.031118199446026645 -0.00021021171425335503 0 -0.03227694614483316 0.00023727080438601684 0 -0.031176667712212499 0.00070080051470050467 0 -0.031118199446026645 -0.00021021171425335503 0 -0.029986767119274275 4.4513451466340033e-05 0 -0.031176667712212499 0.00070080051470050467 0 -0.031176667712212499 0.00070080051470050467 0 -0.031745054795585176 0.001671368009463662 0 -0.032414765959252176 0.00096553898862734194 0 -0.03227694614483316 0.00023727080438601684 0 -0.031176667712212499 0.00070080051470050467 0 -0.032414765959252176 0.00096553898862734194 0 -0.031414767575429423 0.0014513217946547858 0 -0.032424525287003306 0.0015370817954494563 0 -0.031075948434886418 0.0012183918213676459 0 -0.030639857501069467 0.0018337909859341883 0 -0.030378817682106353 0.0013051263350901245 0 -0.031414767575429423 0.0014513217946547858 0 -0.030306031542495452 0.0014467920561403488 0 -0.031176667712212499 0.00070080051470050467 0 -0.031745054795585176 0.001671368009463662 0 -0.030229603808838858 0.0016073534545256449 0 -0.031075948434886418 0.0012183918213676459 0 -0.031578781895878733 0.0018275550869304462 0 -0.032509605010597339 0.0015224724689681885 0 -0.031075948434886418 0.0012183918213676459 0 -0.030639857501069467 0.0018337909859341883 0 -0.031578781895878733 0.0018275550869304462 0 -0.030166520110999961 0.0015278059122129412 0 -0.030045429546818898 0.0016677557166349167 0 -0.030039010873272903 0.0013389867279784903 0 -0.030306031542495452 0.0014467920561403488 0 -0.029150154532595746 0.00081780532522234505 0 -0.030166520110999961 0.0015278059122129412 0 -0.030378817682106353 0.0013051263350901245 0 -0.030039010873272903 0.0013389867279784903 0 -0.030166520110999961 0.0015278059122129412 0 -0.030378817682106353 0.0013051263350901245 0 -0.030241688082688404 0.0017864259905899617 0 -0.030639857501069467 0.0018337909859341883 0 -0.030378817682106353 0.0013051263350901245 0 -0.030241688082688404 0.0017864259905899617 0 -0.030166520110999961 0.0015278059122129412 0 -0.030241688082688404 0.0017864259905899617 0 -0.030045429546818898 0.0016677557166349167 0 -0.027295512386358394 0.00011342581404106611 0 -0.027389156455574316 0.00011276521804960823 0 -0.027048795582791753 -0.0001014138243651924 0 -0.028680171586430891 0.00089273422116423033 0 -0.028549674846373919 0.00090659157954753561 0 -0.027295512386358394 0.00011342581404106611 0 -0.027048795582791753 -0.0001014138243651924 0 -0.026596785962954238 -9.0396282351790243e-05 0 -0.027295512386358394 0.00011342581404106611 0 -0.027562184164449641 0.00034698140235942773 0 -0.027389156455574316 0.00011276521804960823 0 -0.027295512386358394 0.00011342581404106611 0 -0.027562184164449641 0.00034698140235942773 0 -0.028090943150368666 0.00073464241349255452 0 -0.028680171586430891 0.00089273422116423033 0 -0.029150154532595746 0.00081780532522234505 0 -0.027562184164449641 0.00034698140235942773 0 -0.028090943150368666 0.00073464241349255452 0 -0.027757740342904874 0.00046606126086361265 0 -0.027389156455574316 0.00011276521804960823 0 -0.027693061596372519 -3.7915754311535785e-05 0 -0.02753864028692992 0.00024088024449650335 0 -0.027562184164449641 0.00034698140235942773 0 -0.027389156455574316 0.00011276521804960823 0 -0.02753864028692992 0.00024088024449650335 0 -0.027048795582791753 -0.0001014138243651924 0 -0.027482633036078286 -5.7427226225844099e-07 0 -0.025592995084237982 -7.5095635412796535e-07 0 -0.027048795582791753 -0.0001014138243651924 0 -0.027482633036078286 -5.7427226225844099e-07 0 -0.027693061596372519 -3.7915754311535785e-05 0 -0.027482633036078286 -5.7427226225844099e-07 0 -0.027693061596372519 -3.7915754311535785e-05 0 -0.029368152200949509 1.3412853883925925e-06 0 -0.027389156455574316 0.00011276521804960823 0 -0.027048795582791753 -0.0001014138243651924 0 -0.027693061596372519 -3.7915754311535785e-05 0 -0.027693061596372519 -3.7915754311535785e-05 0 -0.027797076182736542 0.00052476449730495291 0 -0.02753864028692992 0.00024088024449650335 0 -0.027693061596372519 -3.7915754311535785e-05 0 -0.029368152200949509 1.3412853883925925e-06 0 -0.027797076182736542 0.00052476449730495291 0 -0.029375231421948207 2.4810972430191196e-08 0 -0.030331788674844026 -0.00010905899922104584 0 -0.030475703385647809 8.2417648428550075e-06 0 -0.030371957745010832 9.9117295657179925e-06 0 -0.030331788674844026 -0.00010905899922104584 0 -0.030475703385647809 8.2417648428550075e-06 0 -0.031139708210442762 -1.3013240390970691e-08 0 -0.029375231421948207 2.4810972430191196e-08 0 -0.030331788674844026 -0.00010905899922104584 0 -0.029371965022273315 -3.2978003103988279e-09 0 -0.028993733330835325 0.00026425132118810082 0 -0.028993733330835325 0.00026425132118810082 0 -0.029922473771740742 -1.0484438863535265e-06 0 -0.027797076182736542 0.00052476449730495291 0 -0.027628174641218965 0.00032119014900975615 0 -0.027631700146791893 0.00023261367002018276 0 -0.030453064146095346 6.8651618138377124e-06 0 -0.030475703385647809 8.2417648428550075e-06 0 -0.030447658253285884 3.5293795812625798e-06 0 -0.027545731078802291 -0.00046109809182105983 0 -0.028367482680399989 -8.7198813218787626e-05 0 -0.028169086498455388 0.00032754138997148353 0 -0.029922473771740742 -1.0484438863535265e-06 0 -0.027398925195247326 6.0815083067801078e-05 0 -0.027628174641218965 0.00032119014900975615 0 -0.027631700146791893 0.00023261367002018276 0 -0.028169086498455388 0.00032754138997148353 0 -0.027545731078802291 -0.00046109809182105983 0 -0.028312515926174946 -0.00045213029649222256 0 -0.028367482680399989 -8.7198813218787626e-05 0 -0.028746113215665975 -0.00045666779626113083 0 -0.028312515926174946 -0.00045213029649222256 0 -0.028367482680399989 -8.7198813218787626e-05 0 -0.027628174641218965 0.00032119014900975615 0 -0.028169086498455388 0.00032754138997148353 0 -0.027733532709854899 0.00040990079298144222 0 -0.028169086498455388 0.00032754138997148353 0 -0.027963980773012355 0.00049249620820823259 0 -0.027733532709854899 0.00040990079298144222 0 -0.028169086498455388 0.00032754138997148353 0 -0.028196391106573352 0.00056335472458936872 0 -0.027963980773012355 0.00049249620820823259 0 -0.027963980773012355 0.00049249620820823259 0 -0.028090943150368666 0.00073464241349255452 0 -0.027757740342904874 0.00046606126086361265 0 -0.028196391106573352 0.00056335472458936872 0 -0.027963980773012355 0.00049249620820823259 0 -0.028090943150368666 0.00073464241349255452 0 -0.027562184164449641 0.00034698140235942773 0 -0.027733532709854899 0.00040990079298144222 0 -0.027757740342904874 0.00046606126086361265 0 -0.027963980773012355 0.00049249620820823259 0 -0.027733532709854899 0.00040990079298144222 0 -0.027757740342904874 0.00046606126086361265 0 -0.027797076182736542 0.00052476449730495291 0 -0.027628174641218965 0.00032119014900975615 0 -0.02753864028692992 0.00024088024449650335 0 -0.027562184164449641 0.00034698140235942773 0 -0.027733532709854899 0.00040990079298144222 0 -0.02753864028692992 0.00024088024449650335 0 -0.027628174641218965 0.00032119014900975615 0 -0.027733532709854899 0.00040990079298144222 0 -0.02753864028692992 0.00024088024449650335 0 -0.03481400113405729 -0.00031859573839074928 0 -0.035073908534989713 -0.00038719865685128008 0 -0.034941381674435709 -0.00016912207839418316 0 -0.035012252637958242 0.00066755839116401552 0 -0.034788813600649844 0.0001202856149862529 0 -0.034288689262548321 0.00042246818687071666 0 -0.035322607214634066 0.00014523302160530661 0 -0.03487722246209838 -1.1492222352959654e-05 0 -0.035073908534989713 -0.00038719865685128008 0 -0.035011986824905708 -9.0038045914056879e-05 0 -0.034941381674435709 -0.00016912207839418316 0 -0.034941381674435709 -0.00016912207839418316 0 -0.034942400427078059 -1.8663560583320914e-05 0 -0.034813905335538603 -0.00014108651455883956 0 -0.035011986824905708 -9.0038045914056879e-05 0 -0.034941381674435709 -0.00016912207839418316 0 -0.034942400427078059 -1.8663560583320914e-05 0 -0.03481400113405729 -0.00031859573839074928 0 -0.034941381674435709 -0.00016912207839418316 0 -0.034813905335538603 -0.00014108651455883956 0 -0.034942400427078059 -1.8663560583320914e-05 0 -0.034999920499145486 1.5881957870685302e-08 0 -0.034911884049011951 3.5709237412783104e-05 0 -0.034942400427078059 -1.8663560583320914e-05 0 -0.034999920499145486 1.5881957870685302e-08 0 -0.034903900433748837 -2.4058306038255836e-05 0 -0.034999920499145486 1.5881957870685302e-08 0 -0.034903900433748837 -2.4058306038255836e-05 0 -0.034999767738553372 -7.8036966995270008e-08 0 -0.03487722246209838 -1.1492222352959654e-05 0 -0.034900165696871814 -2.8672042244309805e-05 0 -0.035011986824905708 -9.0038045914056879e-05 0 -0.034942400427078059 -1.8663560583320914e-05 0 -0.034903900433748837 -2.4058306038255836e-05 0 -0.034788813600649844 0.0001202856149862529 0 -0.034903900433748837 -2.4058306038255836e-05 0 -0.034606628117378663 7.9427493228315866e-05 0 -0.034903900433748837 -2.4058306038255836e-05 0 -0.034703790559604285 -2.9041881843347089e-05 0 -0.034606628117378663 7.9427493228315866e-05 0 -0.034903900433748837 -2.4058306038255836e-05 0 -0.034999767738553372 -7.8036966995270008e-08 0 -0.034703790559604285 -2.9041881843347089e-05 0 -0.034999767738553372 -7.8036966995270008e-08 0 -0.034703790559604285 -2.9041881843347089e-05 0 -0.034999257038679572 -1.0531829255714768e-07 0 -0.034703790559604285 -2.9041881843347089e-05 0 -0.034295506960095284 0.00012381896227625226 0 -0.034466684646312112 -4.2642643426656894e-05 0 -0.034703790559604285 -2.9041881843347089e-05 0 -0.034295506960095284 0.00012381896227625226 0 -0.034606628117378663 7.9427493228315866e-05 0 -0.034295506960095284 0.00012381896227625226 0 -0.034606628117378663 7.9427493228315866e-05 0 -0.034288689262548321 0.00042246818687071666 0 -0.034788813600649844 0.0001202856149862529 0 -0.034606628117378663 7.9427493228315866e-05 0 -0.034288689262548321 0.00042246818687071666 0 -0.034295506960095284 0.00012381896227625226 0 -0.034288689262548321 0.00042246818687071666 0 -0.033742511204107817 0.00055828593791296263 0 -0.034288689262548321 0.00042246818687071666 0 -0.033742511204107817 0.00055828593791296263 0 -0.033322213151859348 0.001110365003786448 0 -0.033742511204107817 0.00055828593791296263 0 -0.034027972391475952 0.0001021141497756158 0 -0.033565978415680923 0.00045765326003022037 0 -0.034027972391475952 0.0001021141497756158 0 -0.033590220148744333 3.602764729213617e-05 0 -0.033565978415680923 0.00045765326003022037 0 -0.034048546346945013 -0.00022017100284230288 0 -0.034027972391475952 0.0001021141497756158 0 -0.034466684646312112 -4.2642643426656894e-05 0 -0.034048546346945013 -0.00022017100284230288 0 -0.034027972391475952 0.0001021141497756158 0 -0.033590220148744333 3.602764729213617e-05 0 -0