<?xml version="1.0"?>
<VTKFile type="UnstructuredGrid" version="0.1" byte_order="LittleEndian">
<UnstructuredGrid>
<Piece NumberOfPoints="30578" NumberOfCells="10723">
<Points>
<DataArray type="Float64" NumberOfComponents="3" format="ascii">
-0.5 -0.5 0 -0.47439485679867832 -0.48072581506667478 0 -0.5 -0.44765434486020428 0 -0.5 -0.5 0 -0.47439485679867832 -0.48072581506667478 0 -0.43702443379937372 -0.49999999999999922 0 -0.47439485679867832 -0.48072581506667478 0 -0.45530669598391149 -0.47718009944797551 0 -0.43702443379937372 -0.49999999999999922 0 -0.47439485679867832 -0.48072581506667478 0 -0.45530669598391149 -0.47718009944797551 0 -0.4597353119515426 -0.45943449384344293 0 -0.45530669598391149 -0.47718009944797551 0 -0.44381084376742141 -0.47114793899167112 0 -0.4597353119515426 -0.45943449384344293 0 -0.45530669598391149 -0.47718009944797551 0 -0.44381084376742141 -0.47114793899167112 0 -0.43702443379937372 -0.49999999999999922 0 -0.44381084376742141 -0.47114793899167112 0 -0.43702443379937372 -0.49999999999999922 0 -0.45059725373546922 -0.44229587798334291 0 -0.4339166039271336 -0.43498117536117131 0 -0.43309128002320102 -0.45351235807576151 0 -0.44381084376742141 -0.47114793899167112 0 -0.45059725373546922 -0.44229587798334291 0 -0.4597353119515426 -0.45943449384344293 0 -0.44381084376742141 -0.47114793899167112 0 -0.45059725373546922 -0.44229587798334291 0 -0.43309128002320102 -0.45351235807576151 0 -0.44381084376742141 -0.47114793899167112 0 -0.45059725373546922 -0.44229587798334291 0 -0.4597353119515426 -0.45943449384344293 0 -0.47505511338101108 -0.44868394208069429 0 -0.46517432262153441 -0.43649963461163338 0 -0.45059725373546922 -0.44229587798334291 0 -0.4597353119515426 -0.45943449384344293 0 -0.46517432262153441 -0.43649963461163338 0 -0.47505511338101108 -0.44868394208069429 0 -0.47820614292347569 -0.42776699273468149 0 -0.46517432262153441 -0.43649963461163338 0 -0.47505511338101108 -0.44868394208069429 0 -0.47820614292347569 -0.42776699273468149 0 -0.47439485679867832 -0.48072581506667478 0 -0.47505511338101108 -0.44868394208069429 0 -0.5 -0.44765434486020428 0 -0.47439485679867832 -0.48072581506667478 0 -0.4597353119515426 -0.45943449384344293 0 -0.47505511338101108 -0.44868394208069429 0 -0.47505511338101108 -0.44868394208069429 0 -0.5 -0.44765434486020428 0 -0.47820614292347569 -0.42776699273468149 0 -0.5 -0.44765434486020428 0 -0.49656450065014057 -0.42151023988558672 0 -0.47820614292347569 -0.42776699273468149 0 -0.5 -0.44765434486020428 0 -0.49656450065014057 -0.42151023988558672 0 -0.50000000000000089 -0.37904661106745707 0 -0.49656450065014057 -0.42151023988558672 0 -0.48135717246594062 -0.40685004338866881 0 -0.47820614292347569 -0.42776699273468149 0 -0.49656450065014057 -0.42151023988558672 0 -0.48135717246594062 -0.40685004338866881 0 -0.48135717246594062 -0.40685004338866881 0 -0.47820614292347569 -0.42776699273468149 0 -0.48135717246594062 -0.40685004338866881 0 -0.47820614292347569 -0.42776699273468149 0 -0.45738366370351707 -0.41344381697501481 0 -0.49656450065014057 -0.42151023988558672 0 -0.48135717246594062 -0.40685004338866881 0 -0.50000000000000089 -0.37904661106745707 0 -0.50000000000000089 -0.37904661106745707 0 -0.48466894952205442 -0.38486603086372417 0 -0.48717439863114548 -0.36823452950912272 0 -0.48135717246594062 -0.40685004338866881 0 -0.50000000000000089 -0.37904661106745707 0 -0.48466894952205442 -0.38486603086372417 0 -0.48466894952205442 -0.38486603086372417 0 -0.48717439863114548 -0.36823452950912272 0 -0.50000000000000089 -0.37904661106745707 0 -0.48466894952205442 -0.38486603086372417 0 -0.48135717246594062 -0.40685004338866881 0 -0.48466894952205442 -0.38486603086372417 0 -0.46593083509403682 -0.39197871725165279 0 -0.48135717246594062 -0.40685004338866881 0 -0.48466894952205442 -0.38486603086372417 0 -0.48135717246594062 -0.40685004338866881 0 -0.46593083509403682 -0.39197871725165279 0 -0.48466894952205442 -0.38486603086372417 0 -0.47195833844942919 -0.37959069520904498 0 -0.46593083509403682 -0.39197871725165279 0 -0.48466894952205442 -0.38486603086372417 0 -0.46593083509403682 -0.39197871725165279 0 -0.48466894952205442 -0.38486603086372417 0 -0.47195833844942919 -0.37959069520904498 0 -0.48717439863114548 -0.36823452950912272 0 -0.46593083509403682 -0.39197871725165279 0 -0.44890944387521442 -0.39029302340116001 0 -0.45132291774153199 -0.37789636588759368 0 -0.47195833844942919 -0.37959069520904498 0 -0.46593083509403682 -0.39197871725165279 0 -0.45132291774153199 -0.37789636588759368 0 -0.46593083509403682 -0.39197871725165279 0 -0.45132291774153199 -0.37789636588759368 0 -0.48135717246594062 -0.40685004338866881 0 -0.46593083509403682 -0.39197871725165279 0 -0.45738366370351707 -0.41344381697501481 0 -0.46593083509403682 -0.39197871725165279 0 -0.44275815558040038 -0.40077469311046232 0 -0.45738366370351707 -0.41344381697501481 0 -0.46593083509403682 -0.39197871725165279 0 -0.44275815558040038 -0.40077469311046232 0 -0.46593083509403682 -0.39197871725165279 0 -0.44275815558040038 -0.40077469311046232 0 -0.44890944387521442 -0.39029302340116001 0 -0.44275815558040038 -0.40077469311046232 0 -0.44064580868350911 -0.39542861624611658 0 -0.44890944387521442 -0.39029302340116001 0 -0.44225344557501872 -0.38376649822575309 0 -0.45132291774153199 -0.37789636588759368 0 -0.43671500038902772 -0.36381401452353412 0 -0.44890944387521442 -0.39029302340116001 0 -0.44225344557501872 -0.38376649822575309 0 -0.45132291774153199 -0.37789636588759368 0 -0.44064580868350911 -0.39542861624611658 0 -0.44225344557501872 -0.38376649822575309 0 -0.43040194378266172 -0.3881600185019185 0 -0.44064580868350911 -0.39542861624611658 0 -0.44890944387521442 -0.39029302340116001 0 -0.44225344557501872 -0.38376649822575309 0 -0.47820614292347569 -0.42776699273468149 0 -0.46517432262153441 -0.43649963461163338 0 -0.45738366370351707 -0.41344381697501481 0 -0.45059725373546922 -0.44229587798334291 0 -0.45738366370351707 -0.41344381697501481 0 -0.45059725373546922 -0.44229587798334291 0 -0.46517432262153441 -0.43649963461163338 0 -0.45738366370351707 -0.41344381697501481 0 -0.44275815558040038 -0.40077469311046232 0 -0.45738366370351707 -0.41344381697501481 0 -0.44164244492799948 -0.42121090558557039 0 -0.45059725373546922 -0.44229587798334291 0 -0.45738366370351707 -0.41344381697501481 0 -0.44164244492799948 -0.42121090558557039 0 -0.45059725373546922 -0.44229587798334291 0 -0.44164244492799948 -0.42121090558557039 0 -0.4339166039271336 -0.43498117536117131 0 -0.4339166039271336 -0.43498117536117131 0 -0.42355654769347711 -0.414558964497861 0 -0.41671115160429401 -0.44095791049380378 0 -0.44164244492799948 -0.42121090558557039 0 -0.4339166039271336 -0.43498117536117131 0 -0.42355654769347711 -0.414558964497861 0 -0.44275815558040038 -0.40077469311046232 0 -0.44164244492799948 -0.42121090558557039 0 -0.42355654769347711 -0.414558964497861 0 -0.42355654769347711 -0.414558964497861 0 -0.41056920252370888 -0.3963363404412637 0 -0.40050668374064252 -0.41734442193795029 0 -0.42355654769347711 -0.414558964497861 0 -0.41671115160429401 -0.44095791049380378 0 -0.42355654769347711 -0.414558964497861 0 -0.40050668374064252 -0.41734442193795029 0 -0.41671115160429401 -0.44095791049380378 0 -0.44225344557501872 -0.38376649822575309 0 -0.43040194378266172 -0.3881600185019185 0 -0.43671500038902772 -0.36381401452353412 0 -0.43040194378266172 -0.3881600185019185 0 -0.43671500038902772 -0.36381401452353412 0 -0.44064580868350911 -0.39542861624611658 0 -0.42355654769347711 -0.414558964497861 0 -0.43040194378266172 -0.3881600185019185 0 -0.42355654769347711 -0.414558964497861 0 -0.43040194378266172 -0.3881600185019185 0 -0.44275815558040038 -0.40077469311046232 0 -0.44064580868350911 -0.39542861624611658 0 -0.42355654769347711 -0.414558964497861 0 -0.44064580868350911 -0.39542861624611658 0 -0.43040194378266172 -0.3881600185019185 0 -0.42355654769347711 -0.414558964497861 0 -0.43040194378266172 -0.3881600185019185 0 -0.41056920252370888 -0.3963363404412637 0 -0.43040194378266172 -0.3881600185019185 0 -0.4079689369259607 -0.37224253963894771 0 -0.43040194378266172 -0.3881600185019185 0 -0.41056920252370888 -0.3963363404412637 0 -0.4079689369259607 -0.37224253963894771 0 -0.41056920252370888 -0.3963363404412637 0 -0.39195929229331972 -0.37982250283040359 0 -0.4079689369259607 -0.37224253963894771 0 -0.41056920252370888 -0.3963363404412637 0 -0.39195929229331972 -0.37982250283040359 0 -0.39357845321732049 -0.39746174547711199 0 -0.41056920252370888 -0.3963363404412637 0 -0.39357845321732049 -0.39746174547711199 0 -0.40050668374064252 -0.41734442193795029 0 -0.39357845321732049 -0.39746174547711199 0 -0.38114412328536468 -0.40833987260765031 0 -0.36544727141479139 -0.39026932065168712 0 -0.39195929229331972 -0.37982250283040359 0 -0.37549160074202448 -0.3732971907138336 0 -0.36544727141479139 -0.39026932065168712 0 -0.39195929229331972 -0.37982250283040359 0 -0.39357845321732049 -0.39746174547711199 0 -0.36544727141479139 -0.39026932065168712 0 -0.40050668374064252 -0.41734442193795029 0 -0.3944977858259317 -0.43926335073686201 0 -0.41671115160429401 -0.44095791049380378 0 -0.40050668374064252 -0.41734442193795029 0 -0.38028594703985957 -0.42392304976487449 0 -0.3944977858259317 -0.43926335073686201 0 -0.39357845321732049 -0.39746174547711199 0 -0.40050668374064252 -0.41734442193795029 0 -0.38114412328536468 -0.40833987260765031 0 -0.40050668374064252 -0.41734442193795029 0 -0.38114412328536468 -0.40833987260765031 0 -0.38028594703985957 -0.42392304976487449 0 -0.38114412328536468 -0.40833987260765031 0 -0.38028594703985957 -0.42392304976487449 0 -0.36590226101420908 -0.41270082520662749 0 -0.38028594703985957 -0.42392304976487449 0 -0.3944977858259317 -0.43926335073686201 0 -0.3723601590800425 -0.44005613486137668 0 -0.3944977858259317 -0.43926335073686201 0 -0.38265619596279349 -0.45813348326120767 0 -0.3723601590800425 -0.44005613486137668 0 -0.40093272222703252 -0.45142790024540502 0 -0.3944977858
[...]
<PointData Scalars="" Vectors="displacement," Tensors="">
<DataArray type="Float64" Name="displacement" NumberOfComponents="3" format="ascii">
-0.044996919729608106 -0.044996821928656415 0 -0.044048879398361489 -0.043638343318636003 0 -0.040294409652928541 -0.044996952108426198 0 -0.044996919729608106 -0.044996821928656415 0 -0.044048879398361489 -0.043638343318636003 0 -0.044996559787064676 -0.039342324164695006 0 -0.044048879398361489 -0.043638343318636003 0 -0.044047270874507605 -0.042451786930700376 0 -0.044996559787064676 -0.039342324164695006 0 -0.044048879398361489 -0.043638343318636003 0 -0.044047270874507605 -0.042451786930700376 0 -0.042895744133556464 -0.043290072350865752 0 -0.044047270874507605 -0.042451786930700376 0 -0.043762161269918477 -0.042671452704895814 0 -0.042895744133556464 -0.043290072350865752 0 -0.044047270874507605 -0.042451786930700376 0 -0.043762161269918477 -0.042671452704895814 0 -0.044996559787064676 -0.039342324164695006 0 -0.044825009081852649 -0.0411881313044727 0 -0.044999390095294023 -0.039332774850732992 0 -0.044493644399539116 -0.04055692755653037 0 -0.044306421089607924 -0.041109645050685595 0 -0.045194975076638354 -0.040562915645214227 0 -0.043762161269918477 -0.042671452704895814 0 -0.042599771192519668 -0.043216124213858849 0 -0.042895744133556464 -0.043290072350865752 0 -0.046157857058348899 -0.039910937683733806 0 -0.044493644399539116 -0.04055692755653037 0 -0.045194975076638354 -0.040562915645214227 0 -0.044825009081852649 -0.0411881313044727 0 -0.04368520382777976 -0.041893851062352667 0 -0.042895744133556464 -0.043290072350865752 0 -0.041734893895850174 -0.044465001930041971 0 -0.042582710482843053 -0.043391244629869853 0 -0.042599771192519668 -0.043216124213858849 0 -0.042895744133556464 -0.043290072350865752 0 -0.042582710482843053 -0.043391244629869853 0 -0.041734893895850174 -0.044465001930041971 0 -0.042963075993918687 -0.043882081681615948 0 -0.042582710482843053 -0.043391244629869853 0 -0.04141000047397328 -0.044517043442481995 0 -0.041262535467966828 -0.044671690792824653 0 -0.044048879398361489 -0.043638343318636003 0 -0.041734893895850174 -0.044465001930041971 0 -0.040294409652928541 -0.044996952108426198 0 -0.044048879398361489 -0.043638343318636003 0 -0.042895744133556464 -0.043290072350865752 0 -0.041734893895850174 -0.044465001930041971 0 -0.041734893895850174 -0.044465001930041971 0 -0.040294409652928541 -0.044996952108426198 0 -0.03912101112185478 -0.045561646703968589 0 -0.040294409652928541 -0.044996952108426198 0 -0.038046810999256782 -0.045205529244630338 0 -0.03912101112185478 -0.045561646703968589 0 -0.040294409652928541 -0.044996952108426198 0 -0.038046810999256782 -0.045205529244630338 0 -0.034112803588077105 -0.045000834520429654 0 -0.038046810999256782 -0.045205529244630338 0 -0.037993788053556042 -0.045581405689862811 0 -0.03912101112185478 -0.045561646703968589 0 -0.037273974803179309 -0.045906041012989583 0 -0.039692923611783955 -0.044867349075245859 0 -0.039692923611783955 -0.044867349075245859 0 -0.041262535467966828 -0.044671690792824653 0 -0.043973299137899553 -0.043734723456766204 0 -0.042963075993918687 -0.043882081681615948 0 -0.0436672508432547 -0.042272089196157658 0 -0.038046810999256782 -0.045205529244630338 0 -0.036697673215738941 -0.046640727166308647 0 -0.034112803588077105 -0.045000834520429654 0 -0.034113411180951063 -0.044999605818841382 0 -0.034474690069037341 -0.046126467242650085 0 -0.033035783075642082 -0.045835099129940694 0 -0.036697673215738941 -0.046640727166308647 0 -0.034112803588077105 -0.045000834520429654 0 -0.034668364717941255 -0.046369267825192746 0 -0.035134454450409539 -0.045569333522899824 0 -0.032947328984812729 -0.045795352824376134 0 -0.034114486706845734 -0.045000661686035288 0 -0.035134454450409539 -0.045569333522899824 0 -0.038969881238936493 -0.044565348321456762 0 -0.037915201520843322 -0.044410654413809508 0 -0.038269301302884536 -0.04528796567982047 0 -0.039692923611783955 -0.044867349075245859 0 -0.035134454450409539 -0.045569333522899824 0 -0.039692923611783955 -0.044867349075245859 0 -0.040317083404828348 -0.04392647115814946 0 -0.034045638083245178 -0.045821318118839237 0 -0.033752106104953709 -0.046528082066271514 0 -0.03468521860030721 -0.046774509673462826 0 -0.035134454450409539 -0.045569333522899824 0 -0.040317083404828348 -0.04392647115814946 0 -0.034045638083245178 -0.045821318118839237 0 -0.033752106104953709 -0.046528082066271514 0 -0.033035783075642082 -0.045835099129940694 0 -0.04271724725427916 -0.040815358410468676 0 -0.042899149677620728 -0.041622862653437627 0 -0.041833583121824613 -0.041528836038016721 0 -0.033752106104953709 -0.046528082066271514 0 -0.03468521860030721 -0.046774509673462826 0 -0.033687046115563821 -0.047753301327876405 0 -0.040317083404828348 -0.04392647115814946 0 -0.037615760633270837 -0.04480905057372065 0 -0.043973299137899553 -0.043734723456766204 0 -0.044542580622327362 -0.042753875057363437 0 -0.0436672508432547 -0.042272089196157658 0 -0.044542580622327362 -0.042753875057363437 0 -0.043796700372816522 -0.041841313002001689 0 -0.0436672508432547 -0.042272089196157658 0 -0.040317083404828348 -0.04392647115814946 0 -0.044415426463263852 -0.041311363709879249 0 -0.04271724725427916 -0.040815358410468676 0 -0.043796700372816522 -0.041841313002001689 0 -0.042899149677620728 -0.041622862653437627 0 -0.043796700372816522 -0.041841313002001689 0 -0.043563213909746615 -0.042005591495735545 0 -0.042899149677620728 -0.041622862653437627 0 -0.042352311731042584 -0.042144267945765701 0 -0.041833583121824613 -0.041528836038016721 0 -0.040476338967036153 -0.042733523752287207 0 -0.042899149677620728 -0.041622862653437627 0 -0.042352311731042584 -0.042144267945765701 0 -0.041833583121824613 -0.041528836038016721 0 -0.043563213909746615 -0.042005591495735545 0 -0.042352311731042584 -0.042144267945765701 0 -0.042777249882519588 -0.04321529644228763 0 -0.043563213909746615 -0.042005591495735545 0 -0.042899149677620728 -0.041622862653437627 0 -0.042352311731042584 -0.042144267945765701 0 -0.042963075993918687 -0.043882081681615948 0 -0.042582710482843053 -0.043391244629869853 0 -0.0436672508432547 -0.042272089196157658 0 -0.04368520382777976 -0.041893851062352667 0 -0.04378929692831509 -0.042255800711947594 0 -0.042599771192519668 -0.043216124213858849 0 -0.042582710482843053 -0.043391244629869853 0 -0.0436672508432547 -0.042272089196157658 0 -0.043796700372816522 -0.041841313002001689 0 -0.0436672508432547 -0.042272089196157658 0 -0.043900041796872791 -0.041485022042127527 0 -0.044493644399539116 -0.04055692755653037 0 -0.0436672508432547 -0.042272089196157658 0 -0.043900041796872791 -0.041485022042127527 0 -0.044493644399539116 -0.04055692755653037 0 -0.043900041796872791 -0.041485022042127527 0 -0.044306421089607924 -0.041109645050685595 0 -0.044306421089607924 -0.041109645050685595 0 -0.043856232270099674 -0.04162294000271434 0 -0.044520291253380993 -0.041307979023501674 0 -0.043900041796872791 -0.041485022042127527 0 -0.044306421089607924 -0.041109645050685595 0 -0.043856232270099674 -0.04162294000271434 0 -0.043796700372816522 -0.041841313002001689 0 -0.043900041796872791 -0.041485022042127527 0 -0.043856232270099674 -0.04162294000271434 0 -0.046439424112150872 -0.03399613893000486 0 -0.046302519253137858 -0.034049697798916867 0 -0.046483134172233605 -0.034072286965008532 0 -0.045513447214350633 -0.03772056108508013 0 -0.04542303799152022 -0.037812103895832186 0 -0.046439424112150872 -0.03399613893000486 0 -0.046483134172233605 -0.034072286965008532 0 -0.046526384699728814 -0.034078907283584405 0 -0.042352311731042584 -0.042144267945765701 0 -0.042777249882519588 -0.04321529644228763 0 -0.040476338967036153 -0.042733523752287207 0 -0.043017336216559079 -0.038765259872119213 0 -0.035309668991462664 -0.044540790136017992 0 -0.043563213909746615 -0.042005591495735545 0 -0.043856232270099674 -0.04162294000271434 0 -0.043595301518313825 -0.041949001037218402 0 -0.045513447214350633 -0.03772056108508013 0 -0.043017336216559079 -0.038765259872119213 0 -0.043796700372816522 -0.041841313002001689 0 -0.043563213909746615 -0.042005591495735545 0 -0.043856232270099674 -0.04162294000271434 0 -0.042680579089797374 -0.042334635061828413 0 -0.043017336216559079 -0.038765259872119213 0 -0.046439424112150872 -0.03399613893000486 0 -0.046197617021085588 -0.033917434474736781 0 -0.046302519253137858 -0.034049697798916867 0 -0.043017336216559079 -0.038765259872119213 0 -0.041238788959416302 -0.036453201909682695 0 -0.046197617021085588 -0.033917434474736781 0 -0.046302519253137858 -0.034049697798916867 0 -0.046003955171587237 -0.0341119963440926 0 -0.046302519253137858 -0.034049697798916867 0 -0.046140315588300083 -0.034187324718659658 0 -0.046003955171587237 -0.0341119963440926 0 -0.046302519253137858 -0.034049697798916867 0 -0.046140315588300083 -0.034187324718659658 0 -0.046339162303286087 -0.034106289810995706 0 -0.046302519253137858 -0.034049697798916867 0 -0.046339162303286087 -0.034106289810995706 0 -0.046483134172233605 -0.034072286965008532 0 -0.046339162303286087 -0.034106289810995706 0 -0.046486811291978583 -0.034070749431134868 0 -0.046286104886960729 -0.034136793193063376 0 -0.046140315588300083 -0.034187324718659658 0 -0.046081519714127966 -0.034278018917234428 0 -0.046286104886960729 -0.034136793193063376 0 -0.046140315588300083 -0.034187324718659658 0 -0.046339162303286087 -0.034106289810995706 0 -0.046286104886960729 -0.034136793193063376 0 -0.046483134172233605 -0.034072286965008532 0 -0.04653631201140003 -0.034082752788322117 0 -0.046526384699728814 -0.034078907283584405 0 -0.046483134172233605 -0.034072286965008532 0 -0.046570597728279914 -0.034054806760399223 0 -0.04653631201140003 -0.034082752788322117 0 -0.046339162303286087 -0.034106289810995706 0 -0.046483134172233605 -0.034072286965008532 0 -0.046486811291978583 -0.034070749431134868 0 -0.046483134172233605 -0.034072286965008532 0 -0.046486811291978583 -0.034070749431134868 0 -0.046570597728279914 -0.034054806760399223 0 -0.046486811291978583 -0.034070749431134868 0 -0.046570597728279914 -0.034054806760399223 0 -0.046625432978536538 -0.034019460533367588 0 -0.046570597728279914 -0.034054806760399223 0 -0.04653631201140003 -0.034082752788322117 0 -0.046571708208383467 -0.034017116274187346 0 -0.04653631201140003 -0.034082752788322117 0 -0.046492717546247786 -0.034062907566894611 0 -0.046571708208383467 -0.034017116274187346 0 -0.046516437148059843 -0.034093101492469392 0 -0.04653631201140003 -0.034082752788322117 0 -0.046492717546247786 -0.034062907566894611 0 -0.046516437148059843 -0.034093101492469392 0 -0.04653631201140003 -0.034082752788322117 0 -0.046526384699728814 -0.034078907283584405 0 -0.0468130047037114 -0.033884704775713412 0 -0.046356976770659676 -0.036890581068197932 0 -0.046960073944515214 -0.034521281228401993 0 -0.046611461772521734 -0.035149341993298985 0 -0.046944197435488506 -0.035980438793855526 0 -0.046516437148059843 -0.034093101492469392 0 -0.046492717546247786 -0.034062907566894611 0 -0.04649662160521565 -0.034123162753086744 0 -0.046960073944515214 -0.034521281228401993 0 -0.046704968316156732 -0.034514213606457754 0 -0.046611461772521734 -0.035149341993298985 0 -0.046704968316156732 -0.034514213606457754 0 -0.045943451669741897 -0.034902191321490514 0 -0.046040121002219554 -0.033026988626819964 0 -0.046704968316156732 -0.034514213606457754 0 -0.045943451669741897 -0.034902191321490514 0 -0.046611461772521734 -0.035149341993298985 0 -0.044999689874113527 -0.033750756674406829 0 -0.045943451669741897 -0.034902191321490514 0 -0.044999932418405685 -0.036124929431238781 0 -0.044999689874113527 -0.033750756674406829 0 -0.045943451669741897 -0.034902191321490514 0 -0.046040121002219554 -0.033026988626819964 0 -0.045943451669741897 -0.034902191321490514 0 -0.044999932418405685 -0.036124929431238781 0 -0.046060436505237723 -0.035968720525698168 0 -0.045000016304508957 -0.036126159725029743 0 -0.046064675325227386 -0.036470086126679846 0 -0.046060436505237723 -0.035968720525698168 0 -0.046611461772521734 -0.035149341993298985 0 -0.046944197435488506 -0.035980438793855526 0 -0.045943451669741897 -0.034902191321490514 0 -0.046060436505237723 -0.035968720525698168 0 -0.046611461772521734 -0.035149341993298985 0 -0.046064675325227386 -0.036470086126679846 0 -0.046356976770659676 -0.036890581068197932 0 -0.046223252986497654 -0.040435378232520081 0 -0.046356976770659676 -0.036890581068197932 0 -0.045746924023708613 -0.038317522044628932 0 -0.046367246629591546 -0.039605726570204711 0 -0.047274833899514715 -0.037502792812242995 0 -0.045970672184360517 -0.036972157408773715 0 -0.045746924023708613 -0.038317522044628932 0 -0.047274833899514715 -0.037502792812242995 0 -0.045970672184360517 -0.036972157408773715 0 -0.045746924023708613 -0.038317522044628932 0 -0.044999334337240703 -0.037730082140950388 0 -0.045000020491765623 -0.036126598507792602 0 -0.045970672184360517 -0.036972157408773715 0 -0.044999334337240703 -0.037730082140950388 0 -0.045746924023708613 -0.038317522044628932 0 -0.044999334337240703 -0.037730082140950388 0 -0.045000434227189447 -0.039331914874648141 0 -0.045746924023708613 -0.038317522044628932 0 -0.045000434227189447 -0.039331914874648141 0 -0.046367246629591546 -0.039605726570204711 0 -0.046157857058348899 -0.039910937683733806 0 -0.045000434227189447 -0.039331914874648141 0 -0.046367246629591546 -0.039605726570204711 0 -0.046367246629591546 -0.039605726570204711 0 -0.045443603560273271 -0.040733104762355046 0 -0.045194975076638354 -0.040562915645214227 0 -0.046157857058348899 -0.039910937683733806 0 -0.046367246629591546 -0.039605726570204711 0 -0.045194975076638354 -0.040562915645214227 0 -0.044306421089607924 -0.041109645050685595 0 -0.045194975076638354 -0.040562915645214227 0 -0.044520291253380993 -0.041307979023501674 0 -0.045443603560273271 -0.040733104762355046 0 -0.045194975076638354 -0.040562915645214227 0 -0.044520291253380993 -0.041307979023501674 0 -0.045443603560273271 -0.040733104762355046 0 -0.044520291253380993 -0.041307979023501674 0 -0.045975297144876928 -0.041416545196915379 0 -0.04542303799152022 -0.037812103895832186 0 -0.046356976770659676 -0.036890581068197932 0 -0.046516437148059843 -0.034093101492469392 0 -0.046526384699728814 -0.034078907283584405 0 -0.04649662160521565 -0.034123162753086744 0 -0.046367246629591546 -0.039605726570204711 0 -0.045443603560273271 -0.040733104762355046 0 -0.045975297144876928 -0.041416545196915379 0 -0.023449203454399679 -0.047002322598503891 0 -0.02316615536938078 -0.048441231358184789 0 -0.022348173272171725 -0.0471651264942494 0 -0.024711415938470718 -0.04814637110152821 0 -0.023449203454399679 -0.047002322598503891 0 -0.02316615536938078 -0.048441231358184789 0 -0.02628267761252253 -0.047526911667973189 0 -0.025991672967800694 -0.04723761157539777 0 -0.024571776666869258 -0.047417487312340738 0 -0.025051453730763916 -0.047896167820290554 0 -0.024043383737282167 -0.04717248273200822 0 -0.025991672967800694 -0.04723761157539777 0 -0.02468606492481433 -0.046347634568683273 0 -0.02640155748394692 -0.046691472422945794 0 -0.025991672967800694 -0.04723761157539777 0 -0.024571776666869258 -0.047417487312340738 0 -0.02468606492481433 -0.046347634568683273 0 -0.024043383737282167 -0.04717248273200822 0 -0.02237535478928936 -0.046253668865137765 0 -0.024571776666869258 -0.047417487312340738 0 -0.02468606492481433 -0.046347634568683273 0 -0.022606498191077948 -0.046550515355531792 0 -0.023361772776092162 -0.045845155640374578 0 -0.02468606492481433 -0.046347634568683273 0 -0.022606498191077948 -0.046550515355531792 0 -0.023361772776092162 -0.045845155640374578 0 -0.022506314454055012 -0.044999592504851194 0 -0.024828006122139343 -0.044999766454152906 0 -0.023361772776092162 -0.045845155640374578 0 -0.022506314454055012 -0.044999592504851194 0 -0.022316493963677124 -0.045630480412824179 0 -0.023361772776092162 -0.045845155640374578 0 -0.024828006122139343 -0.044999766454152906 0 -0.02468606492481433 -0.046347634568683273 0 -0.024828006122139343 -0.044999766454152906 0 -0.02468606492481433 -0.046347634568683273 0 -0.026093115063991174 -0.04583109423226147 0 -0.02468606492481433 -0.046347634568683273 0 -0.02640155748394692 -0.046691472422945794 0 -0.026093115063991174 -0.04583109423226147 0 -0.02640155748394692 -0.046691472422945794 0 -0.026093115063991174 -0.04583109423226147 0 -0.02742366111777552 -0.046182417806628275 0 -0.024828006122139343 -0.044999766454152906 0 -0.026093115063991174 -0.04583109423226147 0 -0.027149165439092748 -0.044999724531191367 0 -0.026093115063991174 -0.04583109423226147 0 -0.027149165439092748 -0.044999724531191367 0 -0.02742366111777552 -0.046182417806628275 0 -0.027149165439092748 -0.044999724531191367 0 -0.02742366111777552 -0.046182417806628275 0 -0.029470638730430303 -0.044999615438256313 0 -0.02640155748394692 -0.046691472422945794 0 -0.02742366111777552 -0.046182417806628275 0 -0.027299945746459064 -0.047158042045508157 0 -0.02742366111777552 -0.046182417806628275 0 -0.027299945746459064 -0.047158042045508157 0 -0.028879601710767019 -0.046544463734067058 0 -0.025991672967800694 -0.04723761157539777 0 -0.02640155748394692 -0.046691472422945794 0 -0.027299945746459064 -0.047158042045508157 0 -0.025991672967800694 -0.04723761157539777 0 -0.027299945746459064 -0.047158042045508157 0 -0.027219995481289012 -0.047158719388691234 0 -0.02628267761252253 -0.047526911667973189 0 -0.025991672967800694 -0.04723761157539777 0 -0.027219995481289012 -0.047158719388691234 0 -0.027299945746459064 -0.047158042045508157 0 -0.027219995481289012 -0.047158719388691234 0 -0.027480584348574952 -0.047075671082840935 0 -0.027480584348574952 -0.047075671082840935 0 -0.027698116620381186 -0.047302017883149479 0 -0.026418964822972343 -0.046486362294213199 0 -0.027299945746459064 -0.047158042045508157 0 -0.027480584348574952 -0.047075671082840935 0 -0.027698116620381186 -0.047302017883149479 0 -0.028767954146467583 -0.047409844001132413 0 -0.028494559559252397 -0.047951621050941737 0 -0.029904752210375855 -0.047982908155937948 0 -0.030845379589158839 -0.048391763857579116 0 -0.0306115053444245 -0.047474729196787246 0 -0.030845379589158839 -0.048391763857579116 0 -0.0306115053444245 -0.047474729196787246 0 -0.03143921282448503 -0.047938802403178729 0 -0.029904752210375855 -0.047982908155937948 0 -0.030845379589158839 -0.048391763857579116 0 -0.03048613588915474 -0.048873305755170245 0 -0.027299945746459064 -0.047158042045508157 0 -0.027698116620381186 -0.047302017883149479 0 -0.028879601710767019 -0.046544463734067058 0 -0.029904752210375855 -0.047982908155937948 0 -0.0306115053444245 -0.047474729196787246 0 -0.028879601710767019 -0.046544463734067058 0 -0.028767954146467583 -0.047409844001132413 0 -0.028860216350995557 -0.046547996556725584 0 -0.02742366111777552 -0.046182417806628275 0 -0.028879601710767019 -0.046544463734067058 0 -0.029470638730430303 -0.044999615438256313 0 -0.028879601710767019 -0.046544463734067058 0 -0.029470638730430303 -0.044999615438256313 0 -0.030758565365054138 -0.046210697883630386 0 -0.029470638730430303 -0.044999615438256313 0 -0.030758565365054138 -0.046210697883630386 0 -0.031792666337992999 -0.044999751045526365 0 -0.0306115053444245 -0.047474729196787246 0 -0.030758565365054138 -0.046210697883630386 0 -0.031654086639616372 -0.047129744916760301 0 -0.0306115053444245 -0.047474729196787246 0 -0.028879601710767019 -0.046544463734067058 0 -0.030758565365054138 -0.046210697883630386 0 -0.030758565365054138 -0.046210697883630386 0 -0.03203079647170249 -0.046238014948813098 0 -0.031654086639616372 -0.047129744916760301 0 -0.03203079647170249 -0.046238014948813098 0 -0.03280080098726923 -0.04687962091532738 0 -0.031654086639616372 -0.047129744916760301 0 -0.03203079647170249 -0.046238014948813098 0 -0.031792666337992999 -0.044999751045526365 0 -0.033035783075642082 -0.045835099129940694 0 -0.030758565365054138 -0.046210697883630386 0 -0.03203079647170249 -0.046238014948813098 0 -0.03179266633799