<?xml version="1.0"?>
<VTKFile type="UnstructuredGrid" version="0.1" byte_order="LittleEndian">
<UnstructuredGrid>
<Piece NumberOfPoints="30578" NumberOfCells="10723">
<Points>
<DataArray type="Float64" NumberOfComponents="3" format="ascii">
-0.5 -0.5 0 -0.47439485679867832 -0.48072581506667478 0 -0.5 -0.44765434486020428 0 -0.5 -0.5 0 -0.47439485679867832 -0.48072581506667478 0 -0.43702443379937372 -0.49999999999999922 0 -0.47439485679867832 -0.48072581506667478 0 -0.45530669598391149 -0.47718009944797551 0 -0.43702443379937372 -0.49999999999999922 0 -0.47439485679867832 -0.48072581506667478 0 -0.45530669598391149 -0.47718009944797551 0 -0.4597353119515426 -0.45943449384344293 0 -0.45530669598391149 -0.47718009944797551 0 -0.44381084376742141 -0.47114793899167112 0 -0.4597353119515426 -0.45943449384344293 0 -0.45530669598391149 -0.47718009944797551 0 -0.44381084376742141 -0.47114793899167112 0 -0.43702443379937372 -0.49999999999999922 0 -0.44381084376742141 -0.47114793899167112 0 -0.43702443379937372 -0.49999999999999922 0 -0.45059725373546922 -0.44229587798334291 0 -0.4339166039271336 -0.43498117536117131 0 -0.43309128002320102 -0.45351235807576151 0 -0.44381084376742141 -0.47114793899167112 0 -0.45059725373546922 -0.44229587798334291 0 -0.4597353119515426 -0.45943449384344293 0 -0.44381084376742141 -0.47114793899167112 0 -0.45059725373546922 -0.44229587798334291 0 -0.43309128002320102 -0.45351235807576151 0 -0.44381084376742141 -0.47114793899167112 0 -0.45059725373546922 -0.44229587798334291 0 -0.4597353119515426 -0.45943449384344293 0 -0.47505511338101108 -0.44868394208069429 0 -0.46517432262153441 -0.43649963461163338 0 -0.45059725373546922 -0.44229587798334291 0 -0.4597353119515426 -0.45943449384344293 0 -0.46517432262153441 -0.43649963461163338 0 -0.47505511338101108 -0.44868394208069429 0 -0.47820614292347569 -0.42776699273468149 0 -0.46517432262153441 -0.43649963461163338 0 -0.47505511338101108 -0.44868394208069429 0 -0.47820614292347569 -0.42776699273468149 0 -0.47439485679867832 -0.48072581506667478 0 -0.47505511338101108 -0.44868394208069429 0 -0.5 -0.44765434486020428 0 -0.47439485679867832 -0.48072581506667478 0 -0.4597353119515426 -0.45943449384344293 0 -0.47505511338101108 -0.44868394208069429 0 -0.47505511338101108 -0.44868394208069429 0 -0.5 -0.44765434486020428 0 -0.47820614292347569 -0.42776699273468149 0 -0.5 -0.44765434486020428 0 -0.49656450065014057 -0.42151023988558672 0 -0.47820614292347569 -0.42776699273468149 0 -0.5 -0.44765434486020428 0 -0.49656450065014057 -0.42151023988558672 0 -0.50000000000000089 -0.37904661106745707 0 -0.49656450065014057 -0.42151023988558672 0 -0.48135717246594062 -0.40685004338866881 0 -0.47820614292347569 -0.42776699273468149 0 -0.49656450065014057 -0.42151023988558672 0 -0.48135717246594062 -0.40685004338866881 0 -0.48135717246594062 -0.40685004338866881 0 -0.47820614292347569 -0.42776699273468149 0 -0.48135717246594062 -0.40685004338866881 0 -0.47820614292347569 -0.42776699273468149 0 -0.45738366370351707 -0.41344381697501481 0 -0.49656450065014057 -0.42151023988558672 0 -0.48135717246594062 -0.40685004338866881 0 -0.50000000000000089 -0.37904661106745707 0 -0.50000000000000089 -0.37904661106745707 0 -0.48466894952205442 -0.38486603086372417 0 -0.48717439863114548 -0.36823452950912272 0 -0.48135717246594062 -0.40685004338866881 0 -0.50000000000000089 -0.37904661106745707 0 -0.48466894952205442 -0.38486603086372417 0 -0.48466894952205442 -0.38486603086372417 0 -0.48717439863114548 -0.36823452950912272 0 -0.50000000000000089 -0.37904661106745707 0 -0.48466894952205442 -0.38486603086372417 0 -0.48135717246594062 -0.40685004338866881 0 -0.48466894952205442 -0.38486603086372417 0 -0.46593083509403682 -0.39197871725165279 0 -0.48135717246594062 -0.40685004338866881 0 -0.48466894952205442 -0.38486603086372417 0 -0.48135717246594062 -0.40685004338866881 0 -0.46593083509403682 -0.39197871725165279 0 -0.48466894952205442 -0.38486603086372417 0 -0.47195833844942919 -0.37959069520904498 0 -0.46593083509403682 -0.39197871725165279 0 -0.48466894952205442 -0.38486603086372417 0 -0.46593083509403682 -0.39197871725165279 0 -0.48466894952205442 -0.38486603086372417 0 -0.47195833844942919 -0.37959069520904498 0 -0.48717439863114548 -0.36823452950912272 0 -0.46593083509403682 -0.39197871725165279 0 -0.44890944387521442 -0.39029302340116001 0 -0.45132291774153199 -0.37789636588759368 0 -0.47195833844942919 -0.37959069520904498 0 -0.46593083509403682 -0.39197871725165279 0 -0.45132291774153199 -0.37789636588759368 0 -0.46593083509403682 -0.39197871725165279 0 -0.45132291774153199 -0.37789636588759368 0 -0.48135717246594062 -0.40685004338866881 0 -0.46593083509403682 -0.39197871725165279 0 -0.45738366370351707 -0.41344381697501481 0 -0.46593083509403682 -0.39197871725165279 0 -0.44275815558040038 -0.40077469311046232 0 -0.45738366370351707 -0.41344381697501481 0 -0.46593083509403682 -0.39197871725165279 0 -0.44275815558040038 -0.40077469311046232 0 -0.46593083509403682 -0.39197871725165279 0 -0.44275815558040038 -0.40077469311046232 0 -0.44890944387521442 -0.39029302340116001 0 -0.44275815558040038 -0.40077469311046232 0 -0.44064580868350911 -0.39542861624611658 0 -0.44890944387521442 -0.39029302340116001 0 -0.44225344557501872 -0.38376649822575309 0 -0.45132291774153199 -0.37789636588759368 0 -0.43671500038902772 -0.36381401452353412 0 -0.44890944387521442 -0.39029302340116001 0 -0.44225344557501872 -0.38376649822575309 0 -0.45132291774153199 -0.37789636588759368 0 -0.44064580868350911 -0.39542861624611658 0 -0.44225344557501872 -0.38376649822575309 0 -0.43040194378266172 -0.3881600185019185 0 -0.44064580868350911 -0.39542861624611658 0 -0.44890944387521442 -0.39029302340116001 0 -0.44225344557501872 -0.38376649822575309 0 -0.47820614292347569 -0.42776699273468149 0 -0.46517432262153441 -0.43649963461163338 0 -0.45738366370351707 -0.41344381697501481 0 -0.45059725373546922 -0.44229587798334291 0 -0.45738366370351707 -0.41344381697501481 0 -0.45059725373546922 -0.44229587798334291 0 -0.46517432262153441 -0.43649963461163338 0 -0.45738366370351707 -0.41344381697501481 0 -0.44275815558040038 -0.40077469311046232 0 -0.45738366370351707 -0.41344381697501481 0 -0.44164244492799948 -0.42121090558557039 0 -0.45059725373546922 -0.44229587798334291 0 -0.45738366370351707 -0.41344381697501481 0 -0.44164244492799948 -0.42121090558557039 0 -0.45059725373546922 -0.44229587798334291 0 -0.44164244492799948 -0.42121090558557039 0 -0.4339166039271336 -0.43498117536117131 0 -0.4339166039271336 -0.43498117536117131 0 -0.42355654769347711 -0.414558964497861 0 -0.41671115160429401 -0.44095791049380378 0 -0.44164244492799948 -0.42121090558557039 0 -0.4339166039271336 -0.43498117536117131 0 -0.42355654769347711 -0.414558964497861 0 -0.44275815558040038 -0.40077469311046232 0 -0.44164244492799948 -0.42121090558557039 0 -0.42355654769347711 -0.414558964497861 0 -0.42355654769347711 -0.414558964497861 0 -0.41056920252370888 -0.3963363404412637 0 -0.40050668374064252 -0.41734442193795029 0 -0.42355654769347711 -0.414558964497861 0 -0.41671115160429401 -0.44095791049380378 0 -0.42355654769347711 -0.414558964497861 0 -0.40050668374064252 -0.41734442193795029 0 -0.41671115160429401 -0.44095791049380378 0 -0.44225344557501872 -0.38376649822575309 0 -0.43040194378266172 -0.3881600185019185 0 -0.43671500038902772 -0.36381401452353412 0 -0.43040194378266172 -0.3881600185019185 0 -0.43671500038902772 -0.36381401452353412 0 -0.44064580868350911 -0.39542861624611658 0 -0.42355654769347711 -0.414558964497861 0 -0.43040194378266172 -0.3881600185019185 0 -0.42355654769347711 -0.414558964497861 0 -0.43040194378266172 -0.3881600185019185 0 -0.44275815558040038 -0.40077469311046232 0 -0.44064580868350911 -0.39542861624611658 0 -0.42355654769347711 -0.414558964497861 0 -0.44064580868350911 -0.39542861624611658 0 -0.43040194378266172 -0.3881600185019185 0 -0.42355654769347711 -0.414558964497861 0 -0.43040194378266172 -0.3881600185019185 0 -0.41056920252370888 -0.3963363404412637 0 -0.43040194378266172 -0.3881600185019185 0 -0.4079689369259607 -0.37224253963894771 0 -0.43040194378266172 -0.3881600185019185 0 -0.41056920252370888 -0.3963363404412637 0 -0.4079689369259607 -0.37224253963894771 0 -0.41056920252370888 -0.3963363404412637 0 -0.39195929229331972 -0.37982250283040359 0 -0.4079689369259607 -0.37224253963894771 0 -0.41056920252370888 -0.3963363404412637 0 -0.39195929229331972 -0.37982250283040359 0 -0.39357845321732049 -0.39746174547711199 0 -0.41056920252370888 -0.3963363404412637 0 -0.39357845321732049 -0.39746174547711199 0 -0.40050668374064252 -0.41734442193795029 0 -0.39357845321732049 -0.39746174547711199 0 -0.38114412328536468 -0.40833987260765031 0 -0.36544727141479139 -0.39026932065168712 0 -0.39195929229331972 -0.37982250283040359 0 -0.37549160074202448 -0.3732971907138336 0 -0.36544727141479139 -0.39026932065168712 0 -0.39195929229331972 -0.37982250283040359 0 -0.39357845321732049 -0.39746174547711199 0 -0.36544727141479139 -0.39026932065168712 0 -0.40050668374064252 -0.41734442193795029 0 -0.3944977858259317 -0.43926335073686201 0 -0.41671115160429401 -0.44095791049380378 0 -0.40050668374064252 -0.41734442193795029 0 -0.38028594703985957 -0.42392304976487449 0 -0.3944977858259317 -0.43926335073686201 0 -0.39357845321732049 -0.39746174547711199 0 -0.40050668374064252 -0.41734442193795029 0 -0.38114412328536468 -0.40833987260765031 0 -0.40050668374064252 -0.41734442193795029 0 -0.38114412328536468 -0.40833987260765031 0 -0.38028594703985957 -0.42392304976487449 0 -0.38114412328536468 -0.40833987260765031 0 -0.38028594703985957 -0.42392304976487449 0 -0.36590226101420908 -0.41270082520662749 0 -0.38028594703985957 -0.42392304976487449 0 -0.3944977858259317 -0.43926335073686201 0 -0.3723601590800425 -0.44005613486137668 0 -0.3944977858259317 -0.43926335073686201 0 -0.38265619596279349 -0.45813348326120767 0 -0.3723601590800425 -0.44005613486137668 0 -0.40093272222703252 -0.45142790024540502 0 -0.3944977858
[...]
<PointData Scalars="" Vectors="displacement," Tensors="">
<DataArray type="Float64" Name="displacement" NumberOfComponents="3" format="ascii">
-0.0049996510927402234 -0.0049996516555961754 0 -0.0048963628429945826 -0.0048508447874025494 0 -0.0044772015339245939 -0.0049996843670106882 0 -0.0049996510927402234 -0.0049996516555961754 0 -0.0048963628429945826 -0.0048508447874025494 0 -0.0049996165020920304 -0.0043713469733283683 0 -0.0048963628429945826 -0.0048508447874025494 0 -0.0048961395946914583 -0.0047111449113700016 0 -0.0049996165020920304 -0.0043713469733283683 0 -0.0048963628429945826 -0.0048508447874025494 0 -0.0048961395946914583 -0.0047111449113700016 0 -0.004779340547926429 -0.0048025717375775479 0 -0.0048961395946914583 -0.0047111449113700016 0 -0.0048637473545894887 -0.0047261111881771916 0 -0.004779340547926429 -0.0048025717375775479 0 -0.0048961395946914583 -0.0047111449113700016 0 -0.0048637473545894887 -0.0047261111881771916 0 -0.0049996165020920304 -0.0043713469733283683 0 -0.0049936524842586986 -0.0045553219891747102 0 -0.0049999298798172626 -0.0043703008729185731 0 -0.0050851920606039694 -0.0044781941040878681 0 -0.0050960697356285537 -0.0044702568211799796 0 -0.0051155736054832686 -0.0044311872821142665 0 -0.0048637473545894887 -0.0047261111881771916 0 -0.0047927271930349302 -0.004751695763869474 0 -0.004779340547926429 -0.0048025717375775479 0 -0.0051513113197019537 -0.004409563372815767 0 -0.0050851920606039694 -0.0044781941040878681 0 -0.0051155736054832686 -0.0044311872821142665 0 -0.0049936524842586986 -0.0045553219891747102 0 -0.0049575655529313385 -0.0046171350062258745 0 -0.004779340547926429 -0.0048025717375775479 0 -0.0046582905888771725 -0.0049618623549558608 0 -0.00482014924313659 -0.0048288349643456178 0 -0.0047927271930349302 -0.004751695763869474 0 -0.004779340547926429 -0.0048025717375775479 0 -0.00482014924313659 -0.0048288349643456178 0 -0.0046582905888771725 -0.0049618623549558608 0 -0.0049217334940656471 -0.004967324465989003 0 -0.00482014924313659 -0.0048288349643456178 0 -0.0046270332546171347 -0.0049740317887028151 0 -0.0046685755056173218 -0.0050156025224099869 0 -0.0048963628429945826 -0.0048508447874025494 0 -0.0046582905888771725 -0.0049618623549558608 0 -0.0044772015339245939 -0.0049996843670106882 0 -0.0048963628429945826 -0.0048508447874025494 0 -0.004779340547926429 -0.0048025717375775479 0 -0.0046582905888771725 -0.0049618623549558608 0 -0.0046582905888771725 -0.0049618623549558608 0 -0.0044772015339245939 -0.0049996843670106882 0 -0.0043486014885250604 -0.0050739758016855345 0 -0.0044772015339245939 -0.0049996843670106882 0 -0.0042272768566353541 -0.0050236405697853537 0 -0.0043486014885250604 -0.0050739758016855345 0 -0.0044772015339245939 -0.0049996843670106882 0 -0.0042272768566353541 -0.0050236405697853537 0 -0.0037902879930158595 -0.0050000865031873069 0 -0.0042272768566353541 -0.0050236405697853537 0 -0.0042147045164789036 -0.0050738604550429776 0 -0.0043486014885250604 -0.0050739758016855345 0 -0.0041155508327551564 -0.0051116287440853324 0 -0.004521110675627057 -0.0050097956184841112 0 -0.004521110675627057 -0.0050097956184841112 0 -0.0046685755056173218 -0.0050156025224099869 0 -0.0051767211396767593 -0.0049768001801328392 0 -0.0049217334940656471 -0.004967324465989003 0 -0.005107141565582749 -0.0046674607617109599 0 -0.0042272768566353541 -0.0050236405697853537 0 -0.0040779626065206975 -0.0051828427643560724 0 -0.0037902879930158595 -0.0050000865031873069 0 -0.0037904340266921607 -0.0049999842503964604 0 -0.0038433949851762652 -0.0051457934245137298 0 -0.0036754423536843215 -0.0051176851343287767 0 -0.0040779626065206975 -0.0051828427643560724 0 -0.0037902879930158595 -0.0050000865031873069 0 -0.0038523263917852632 -0.0051524816717948242 0 -0.0039383127037844346 -0.005077026618449193 0 -0.0036634872410342238 -0.0051141642312811913 0 -0.0037904995000511556 -0.0050000674605608737 0 -0.0039383127037844346 -0.005077026618449193 0 -0.0044673767460098011 -0.0049671530372850407 0 -0.0043379220118678194 -0.0049480486364492432 0 -0.0043819259757532595 -0.0050557805147240118 0 -0.004521110675627057 -0.0050097956184841112 0 -0.0039383127037844346 -0.005077026618449193 0 -0.004521110675627057 -0.0050097956184841112 0 -0.0047327052243101801 -0.0048971070956433721 0 -0.0038184762269442419 -0.0051356097288694962 0 -0.0037718229622819535 -0.0052455028920508889 0 -0.0038846861618570998 -0.0052962692211570668 0 -0.0039383127037844346 -0.005077026618449193 0 -0.0047327052243101801 -0.0048971070956433721 0 -0.0038184762269442419 -0.0051356097288694962 0 -0.0037718229622819535 -0.0052455028920508889 0 -0.0036754423536843215 -0.0051176851343287767 0 -0.0051759020613204717 -0.0044206171463633372 0 -0.005169736886480104 -0.0045033057340938092 0 -0.0050906552875812552 -0.0044874537526148591 0 -0.0037718229622819535 -0.0052455028920508889 0 -0.0038846861618570998 -0.0052962692211570668 0 -0.0037556142241613024 -0.0054255970058357597 0 -0.0047327052243101801 -0.0048971070956433721 0 -0.0044052466595734426 -0.004973479638220802 0 -0.0051767211396767593 -0.0049768001801328392 0 -0.0053357535567911622 -0.0047739671497609541 0 -0.005107141565582749 -0.0046674607617109599 0 -0.0053357535567911622 -0.0047739671497609541 0 -0.0052114047140180905 -0.0045360423510008704 0 -0.005107141565582749 -0.0046674607617109599 0 -0.0047327052243101801 -0.0048971070956433721 0 -0.0053177158490556754 -0.0044601301022726197 0 -0.0051759020613204717 -0.0044206171463633372 0 -0.0052114047140180905 -0.0045360423510008704 0 -0.005169736886480104 -0.0045033057340938092 0 -0.0052114047140180905 -0.0045360423510008704 0 -0.0052120944425702717 -0.004537905545657429 0 -0.005169736886480104 -0.0045033057340938092 0 -0.0051288722383127936 -0.0045409008180713889 0 -0.0050906552875812552 -0.0044874537526148591 0 -0.0049837427244842853 -0.0045840188689191584 0 -0.005169736886480104 -0.0045033057340938092 0 -0.0051288722383127936 -0.0045409008180713889 0 -0.0050906552875812552 -0.0044874537526148591 0 -0.0052120944425702717 -0.004537905545657429 0 -0.0051288722383127936 -0.0045409008180713889 0 -0.0051598553008884874 -0.0046212027172552114 0 -0.0052120944425702717 -0.004537905545657429 0 -0.005169736886480104 -0.0045033057340938092 0 -0.0051288722383127936 -0.0045409008180713889 0 -0.0049217334940656471 -0.004967324465989003 0 -0.00482014924313659 -0.0048288349643456178 0 -0.005107141565582749 -0.0046674607617109599 0 -0.0049575655529313385 -0.0046171350062258745 0 -0.0051121539880975191 -0.0046673649064820225 0 -0.0047927271930349302 -0.004751695763869474 0 -0.00482014924313659 -0.0048288349643456178 0 -0.005107141565582749 -0.0046674607617109599 0 -0.0052114047140180905 -0.0045360423510008704 0 -0.005107141565582749 -0.0046674607617109599 0 -0.0051083324194553508 -0.0045231771664670526 0 -0.0050851920606039694 -0.0044781941040878681 0 -0.005107141565582749 -0.0046674607617109599 0 -0.0051083324194553508 -0.0045231771664670526 0 -0.0050851920606039694 -0.0044781941040878681 0 -0.0051083324194553508 -0.0045231771664670526 0 -0.0050960697356285537 -0.0044702568211799796 0 -0.0050960697356285537 -0.0044702568211799796 0 -0.0051409709680093098 -0.0044557495095354348 0 -0.0050962562077698677 -0.0044373050893716176 0 -0.0051083324194553508 -0.0045231771664670526 0 -0.0050960697356285537 -0.0044702568211799796 0 -0.0051409709680093098 -0.0044557495095354348 0 -0.0052114047140180905 -0.0045360423510008704 0 -0.0051083324194553508 -0.0045231771664670526 0 -0.0051409709680093098 -0.0044557495095354348 0 -0.0054949215330908959 -0.0037532126858435492 0 -0.0055621914433822651 -0.0037042514130376965 0 -0.005486925673488934 -0.0036641050756789674 0 -0.0053406003911133119 -0.004093540558027472 0 -0.0052472396500376599 -0.0040867910915913094 0 -0.0054949215330908959 -0.0037532126858435492 0 -0.005486925673488934 -0.0036641050756789674 0 -0.0054009716906518648 -0.0037273558522337917 0 -0.0051288722383127936 -0.0045409008180713889 0 -0.0051598553008884874 -0.0046212027172552114 0 -0.0049837427244842853 -0.0045840188689191584 0 -0.0053005962526923162 -0.004240448228432241 0 -0.0042033750619963122 -0.0049553735510268204 0 -0.0052120944425702717 -0.004537905545657429 0 -0.0051409709680093098 -0.0044557495095354348 0 -0.0052441859832267762 -0.0044923159636876308 0 -0.0053406003911133119 -0.004093540558027472 0 -0.0053005962526923162 -0.004240448228432241 0 -0.0052114047140180905 -0.0045360423510008704 0 -0.0052120944425702717 -0.004537905545657429 0 -0.0051409709680093098 -0.0044557495095354348 0 -0.0051524251662501165 -0.0045832808780661158 0 -0.0053005962526923162 -0.004240448228432241 0 -0.0054949215330908959 -0.0037532126858435492 0 -0.0055906200829204371 -0.0037833081997291377 0 -0.0055621914433822651 -0.0037042514130376965 0 -0.0053005962526923162 -0.004240448228432241 0 -0.0051630430103396727 -0.0041596891273255323 0 -0.0055906200829204371 -0.0037833081997291377 0 -0.0055621914433822651 -0.0037042514130376965 0 -0.0056519851571280606 -0.0036964279992319857 0 -0.0055621914433822651 -0.0037042514130376965 0 -0.0056259115913636429 -0.0036304892155100796 0 -0.0056519851571280606 -0.0036964279992319857 0 -0.0055621914433822651 -0.0037042514130376965 0 -0.0056259115913636429 -0.0036304892155100796 0 -0.0055592433767809313 -0.0036356128516831865 0 -0.0055621914433822651 -0.0037042514130376965 0 -0.0055592433767809313 -0.0036356128516831865 0 -0.005486925673488934 -0.0036641050756789674 0 -0.0055592433767809313 -0.0036356128516831865 0 -0.0055220842887478442 -0.0035832111911653481 0 -0.0055836563021218087 -0.0035040944720510022 0 -0.0056259115913636429 -0.0036304892155100796 0 -0.0056517725064929815 -0.003559229729831177 0 -0.0055836563021218087 -0.0035040944720510022 0 -0.0056259115913636429 -0.0036304892155100796 0 -0.0055592433767809313 -0.0036356128516831865 0 -0.0055836563021218087 -0.0035040944720510022 0 -0.005486925673488934 -0.0036641050756789674 0 -0.0054089604456835976 -0.0036428898803280685 0 -0.0054009716906518648 -0.0037273558522337917 0 -0.005486925673488934 -0.0036641050756789674 0 -0.0054671999113342692 -0.0035859301050194417 0 -0.0054089604456835976 -0.0036428898803280685 0 -0.0055592433767809313 -0.0036356128516831865 0 -0.005486925673488934 -0.0036641050756789674 0 -0.0055220842887478442 -0.0035832111911653481 0 -0.005486925673488934 -0.0036641050756789674 0 -0.0055220842887478442 -0.0035832111911653481 0 -0.0054671999113342692 -0.0035859301050194417 0 -0.0055220842887478442 -0.0035832111911653481 0 -0.0054671999113342692 -0.0035859301050194417 0 -0.0055143795703511507 -0.0035236387813841539 0 -0.0054671999113342692 -0.0035859301050194417 0 -0.0054089604456835976 -0.0036428898803280685 0 -0.0054088238579713824 -0.003562561730656453 0 -0.0054089604456835976 -0.0036428898803280685 0 -0.0053424637988292662 -0.003599640187792168 0 -0.0054088238579713824 -0.003562561730656453 0 -0.0053639542022053078 -0.0036684161067704318 0 -0.0054089604456835976 -0.0036428898803280685 0 -0.0053424637988292662 -0.003599640187792168 0 -0.0053639542022053078 -0.0036684161067704318 0 -0.0054089604456835976 -0.0036428898803280685 0 -0.0054009716906518648 -0.0037273558522337917 0 -0.005361311694538024 -0.0036590231109209174 0 -0.0052141538050986171 -0.0040490174012015592 0 -0.0053513247581914274 -0.0038010573805639428 0 -0.0052230574569083364 -0.0039136223670823414 0 -0.0052807717410136203 -0.004059670912616966 0 -0.0053639542022053078 -0.0036684161067704318 0 -0.0053424637988292662 -0.003599640187792168 0 -0.0053032823074266209 -0.0037043383441714029 0 -0.0053513247581914274 -0.0038010573805639428 0 -0.005229713958838555 -0.0038093155049481612 0 -0.0052230574569083364 -0.0039136223670823414 0 -0.005229713958838555 -0.0038093155049481612 0 -0.0051195284739379331 -0.0038741920739635786 0 -0.0051347932392415349 -0.0036625802733406569 0 -0.005229713958838555 -0.0038093155049481612 0 -0.0051195284739379331 -0.0038741920739635786 0 -0.0052230574569083364 -0.0039136223670823414 0 -0.0049999863628482034 -0.0037500535509311463 0 -0.0051195284739379331 -0.0038741920739635786 0 -0.004999984810784645 -0.0040139352971812828 0 -0.0049999863628482034 -0.0037500535509311463 0 -0.0051195284739379331 -0.0038741920739635786 0 -0.0051347932392415349 -0.0036625802733406569 0 -0.0051195284739379331 -0.0038741920739635786 0 -0.004999984810784645 -0.0040139352971812828 0 -0.0051377288051625072 -0.0040263276958205562 0 -0.0050000133172454419 -0.004014024144851195 0 -0.0051332590095557367 -0.0040615472069083607 0 -0.0051377288051625072 -0.0040263276958205562 0 -0.0052230574569083364 -0.0039136223670823414 0 -0.0052807717410136203 -0.004059670912616966 0 -0.0051195284739379331 -0.0038741920739635786 0 -0.0051377288051625072 -0.0040263276958205562 0 -0.0052230574569083364 -0.0039136223670823414 0 -0.0051332590095557367 -0.0040615472069083607 0 -0.0052141538050986171 -0.0040490174012015592 0 -0.0051463690286141523 -0.0044299272971916595 0 -0.0052141538050986171 -0.0040490174012015592 0 -0.0050922645721759091 -0.0042373755015288842 0 -0.0051640206750054266 -0.0043516694053618767 0 -0.0052515992420359425 -0.0041494581493270195 0 -0.0051153516428445985 -0.0040967868893148508 0 -0.0050922645721759091 -0.0042373755015288842 0 -0.0052515992420359425 -0.0041494581493270195 0 -0.0051153516428445985 -0.0040967868893148508 0 -0.0050922645721759091 -0.0042373755015288842 0 -0.0049999429965973015 -0.0041922040420539538 0 -0.0049999985432183126 -0.0040140605786463685 0 -0.0051153516428445985 -0.0040967868893148508 0 -0.0049999429965973015 -0.0041922040420539538 0 -0.0050922645721759091 -0.0042373755015288842 0 -0.0049999429965973015 -0.0041922040420539538 0 -0.0050000350943854993 -0.0043701835534311105 0 -0.0050922645721759091 -0.0042373755015288842 0 -0.0050000350943854993 -0.0043701835534311105 0 -0.0051640206750054266 -0.0043516694053618767 0 -0.0051513113197019537 -0.004409563372815767 0 -0.0050000350943854993 -0.0043701835534311105 0 -0.0051640206750054266 -0.0043516694053618767 0 -0.0051640206750054266 -0.0043516694053618767 0 -0.0051236796387616476 -0.0044166143243683127 0 -0.0051155736054832686 -0.0044311872821142665 0 -0.0051513113197019537 -0.004409563372815767 0 -0.0051640206750054266 -0.0043516694053618767 0 -0.0051155736054832686 -0.0044311872821142665 0 -0.0050960697356285537 -0.0044702568211799796 0 -0.0051155736054832686 -0.0044311872821142665 0 -0.0050962562077698677 -0.0044373050893716176 0 -0.0051236796387616476 -0.0044166143243683127 0 -0.0051155736054832686 -0.0044311872821142665 0 -0.0050962562077698677 -0.0044373050893716176 0 -0.0051236796387616476 -0.0044166143243683127 0 -0.0050962562077698677 -0.0044373050893716176 0 -0.0051444979763237897 -0.0044412879519983824 0 -0.0052472396500376599 -0.0040867910915913094 0 -0.0052141538050986171 -0.0040490174012015592 0 -0.0053639542022053078 -0.0036684161067704318 0 -0.0054009716906518648 -0.0037273558522337917 0 -0.0053032823074266209 -0.0037043383441714029 0 -0.0051640206750054266 -0.0043516694053618767 0 -0.0051236796387616476 -0.0044166143243683127 0 -0.0051444979763237897 -0.0044412879519983824 0 -0.002454625540486591 -0.0052283201329162022 0 -0.0024304353074083638 -0.0053115812328902246 0 -0.0023906008878413791 -0.0052359565578790112 0 -0.0025099290780238939 -0.0052970458197037018 0 -0.002454625540486591 -0.0052283201329162022 0 -0.0024304353074083638 -0.0053115812328902246 0 -0.0028235976615169573 -0.0054493437701056977 0 -0.0028248464968997156 -0.0053463872865279474 0 -0.0026599694141019549 -0.0053458009584166745 0 -0.002619667164900045 -0.0053582027898865132 0 -0.0025631931948016562 -0.0052886419193999175 0 -0.0028248464968997156 -0.0053463872865279474 0 -0.0027088788205515708 -0.0051845167755461639 0 -0.0029050544943936187 -0.0052441626619479783 0 -0.0028248464968997156 -0.0053463872865279474 0 -0.0026599694141019549 -0.0053458009584166745 0 -0.0027088788205515708 -0.0051845167755461639 0 -0.0025631931948016562 -0.0052886419193999175 0 -0.0024336813316298634 -0.0051662036116242611 0 -0.0026599694141019549 -0.0053458009584166745 0 -0.0027088788205515708 -0.0051845167755461639 0 -0.0024803875775574083 -0.0051986622280208675 0 -0.0025755670381850488 -0.005112595505033425 0 -0.0027088788205515708 -0.0051845167755461639 0 -0.0024803875775574083 -0.0051986622280208675 0 -0.0025755670381850488 -0.005112595505033425 0 -0.0025006598422908817 -0.004999973207824953 0 -0.0027586291076694531 -0.004999991611021052 0 -0.0025755670381850488 -0.005112595505033425 0 -0.0025006598422908817 -0.004999973207824953 0 -0.0024655800628406652 -0.005082612424458335 0 -0.0025755670381850488 -0.005112595505033425 0 -0.0027586291076694531 -0.004999991611021052 0 -0.0027088788205515708 -0.0051845167755461639 0 -0.0027586291076694531 -0.004999991611021052 0 -0.0027088788205515708 -0.0051845167755461639 0 -0.0028865605993743434 -0.005112749454030268 0 -0.0027088788205515708 -0.0051845167755461639 0 -0.0029050544943936187 -0.0052441626619479783 0 -0.0028865605993743434 -0.005112749454030268 0 -0.0029050544943936187 -0.0052441626619479783 0 -0.0028865605993743434 -0.005112749454030268 0 -0.0030394970594885087 -0.0051620423756535494 0 -0.0027586291076694531 -0.004999991611021052 0 -0.0028865605993743434 -0.005112749454030268 0 -0.0030165602747498797 -0.0049999875588799701 0 -0.0028865605993743434 -0.005112749454030268 0 -0.0030165602747498797 -0.0049999875588799701 0 -0.0030394970594885087 -0.0051620423756535494 0 -0.0030165602747498797 -0.0049999875588799701 0 -0.0030394970594885087 -0.0051620423756535494 0 -0.0032745138965522033 -0.0049999817112635963 0 -0.0029050544943936187 -0.0052441626619479783 0 -0.0030394970594885087 -0.0051620423756535494 0 -0.0030186002154394599 -0.0053321941787652588 0 -0.0030394970594885087 -0.0051620423756535494 0 -0.0030186002154394599 -0.0053321941787652588 0 -0.0032068092649696492 -0.0052107028829295049 0 -0.0028248464968997156 -0.0053463872865279474 0 -0.0029050544943936187 -0.0052441626619479783 0 -0.0030186002154394599 -0.0053321941787652588 0 -0.0028248464968997156 -0.0053463872865279474 0 -0.0030186002154394599 -0.0053321941787652588 0 -0.0029668640810030099 -0.0054298801976149762 0 -0.0028235976615169573 -0.0054493437701056977 0 -0.0028248464968997156 -0.0053463872865279474 0 -0.0029668640810030099 -0.0054298801976149762 0 -0.0030186002154394599 -0.0053321941787652588 0 -0.0029668640810030099 -0.0054298801976149762 0 -0.0030560989727382889 -0.0054217277737537142 0 -0.0030560989727382889 -0.0054217277737537142 0 -0.0031335387883647974 -0.0053733021676202943 0 -0.0030508206720394142 -0.0054479736216939733 0 -0.0030186002154394599 -0.0053321941787652588 0 -0.0030560989727382889 -0.0054217277737537142 0 -0.0031335387883647974 -0.0053733021676202943 0 -0.0031942606866617656 -0.0053829036541694231 0 -0.0031719102682655652 -0.0055539062363218414 0 -0.0032587186773935764 -0.0054259550890849838 0 -0.003389255512449041 -0.0055062713450532239 0 -0.00337847964949862 -0.0053470762008193898 0 -0.003389255512449041 -0.0055062713450532239 0 -0.00337847964949862 -0.0053470762008193898 0 -0.0034834880695591183 -0.0054305192829310197 0 -0.0032587186773935764 -0.0054259550890849838 0 -0.003389255512449041 -0.0055062713450532239 0 -0.0032880638141572602 -0.0056139354916961894 0 -0.0030186002154394599 -0.0053321941787652588 0 -0.0031335387883647974 -0.0053733021676202943 0 -0.0032068092649696492 -0.0052107028829295049 0 -0.0032587186773935764 -0.0054259550890849838 0 -0.00337847964949862 -0.0053470762008193898 0 -0.0032068092649696492 -0.0052107028829295049 0 -0.0031942606866617656 -0.0053829036541694231 0 -0.003203780565609206 -0.0052200841998495846 0 -0.0030394970594885087 -0.0051620423756535494 0 -0.0032068092649696492 -0.0052107028829295049 0 -0.0032745138965522033 -0.0049999817112635963 0 -0.0032068092649696492 -0.0052107028829295049 0 -0.0032745138965522033 -0.0049999817112635963 0 -0.0034102881028100513 -0.005169254992883357 0 -0.0032745138965522033 -0.0049999817112635963 0 -0.0034102881028100513 -0.005169254992883357 0