<?xml version="1.0"?>
<VTKFile type="UnstructuredGrid" version="0.1" byte_order="LittleEndian">
<UnstructuredGrid>
<Piece NumberOfPoints="30578" NumberOfCells="10723">
<Points>
<DataArray type="Float64" NumberOfComponents="3" format="ascii">
-0.5 -0.5 0 -0.47439485679867832 -0.48072581506667478 0 -0.5 -0.44765434486020428 0 -0.5 -0.5 0 -0.47439485679867832 -0.48072581506667478 0 -0.43702443379937372 -0.49999999999999922 0 -0.47439485679867832 -0.48072581506667478 0 -0.45530669598391149 -0.47718009944797551 0 -0.43702443379937372 -0.49999999999999922 0 -0.47439485679867832 -0.48072581506667478 0 -0.45530669598391149 -0.47718009944797551 0 -0.4597353119515426 -0.45943449384344293 0 -0.45530669598391149 -0.47718009944797551 0 -0.44381084376742141 -0.47114793899167112 0 -0.4597353119515426 -0.45943449384344293 0 -0.45530669598391149 -0.47718009944797551 0 -0.44381084376742141 -0.47114793899167112 0 -0.43702443379937372 -0.49999999999999922 0 -0.44381084376742141 -0.47114793899167112 0 -0.43702443379937372 -0.49999999999999922 0 -0.45059725373546922 -0.44229587798334291 0 -0.4339166039271336 -0.43498117536117131 0 -0.43309128002320102 -0.45351235807576151 0 -0.44381084376742141 -0.47114793899167112 0 -0.45059725373546922 -0.44229587798334291 0 -0.4597353119515426 -0.45943449384344293 0 -0.44381084376742141 -0.47114793899167112 0 -0.45059725373546922 -0.44229587798334291 0 -0.43309128002320102 -0.45351235807576151 0 -0.44381084376742141 -0.47114793899167112 0 -0.45059725373546922 -0.44229587798334291 0 -0.4597353119515426 -0.45943449384344293 0 -0.47505511338101108 -0.44868394208069429 0 -0.46517432262153441 -0.43649963461163338 0 -0.45059725373546922 -0.44229587798334291 0 -0.4597353119515426 -0.45943449384344293 0 -0.46517432262153441 -0.43649963461163338 0 -0.47505511338101108 -0.44868394208069429 0 -0.47820614292347569 -0.42776699273468149 0 -0.46517432262153441 -0.43649963461163338 0 -0.47505511338101108 -0.44868394208069429 0 -0.47820614292347569 -0.42776699273468149 0 -0.47439485679867832 -0.48072581506667478 0 -0.47505511338101108 -0.44868394208069429 0 -0.5 -0.44765434486020428 0 -0.47439485679867832 -0.48072581506667478 0 -0.4597353119515426 -0.45943449384344293 0 -0.47505511338101108 -0.44868394208069429 0 -0.47505511338101108 -0.44868394208069429 0 -0.5 -0.44765434486020428 0 -0.47820614292347569 -0.42776699273468149 0 -0.5 -0.44765434486020428 0 -0.49656450065014057 -0.42151023988558672 0 -0.47820614292347569 -0.42776699273468149 0 -0.5 -0.44765434486020428 0 -0.49656450065014057 -0.42151023988558672 0 -0.50000000000000089 -0.37904661106745707 0 -0.49656450065014057 -0.42151023988558672 0 -0.48135717246594062 -0.40685004338866881 0 -0.47820614292347569 -0.42776699273468149 0 -0.49656450065014057 -0.42151023988558672 0 -0.48135717246594062 -0.40685004338866881 0 -0.48135717246594062 -0.40685004338866881 0 -0.47820614292347569 -0.42776699273468149 0 -0.48135717246594062 -0.40685004338866881 0 -0.47820614292347569 -0.42776699273468149 0 -0.45738366370351707 -0.41344381697501481 0 -0.49656450065014057 -0.42151023988558672 0 -0.48135717246594062 -0.40685004338866881 0 -0.50000000000000089 -0.37904661106745707 0 -0.50000000000000089 -0.37904661106745707 0 -0.48466894952205442 -0.38486603086372417 0 -0.48717439863114548 -0.36823452950912272 0 -0.48135717246594062 -0.40685004338866881 0 -0.50000000000000089 -0.37904661106745707 0 -0.48466894952205442 -0.38486603086372417 0 -0.48466894952205442 -0.38486603086372417 0 -0.48717439863114548 -0.36823452950912272 0 -0.50000000000000089 -0.37904661106745707 0 -0.48466894952205442 -0.38486603086372417 0 -0.48135717246594062 -0.40685004338866881 0 -0.48466894952205442 -0.38486603086372417 0 -0.46593083509403682 -0.39197871725165279 0 -0.48135717246594062 -0.40685004338866881 0 -0.48466894952205442 -0.38486603086372417 0 -0.48135717246594062 -0.40685004338866881 0 -0.46593083509403682 -0.39197871725165279 0 -0.48466894952205442 -0.38486603086372417 0 -0.47195833844942919 -0.37959069520904498 0 -0.46593083509403682 -0.39197871725165279 0 -0.48466894952205442 -0.38486603086372417 0 -0.46593083509403682 -0.39197871725165279 0 -0.48466894952205442 -0.38486603086372417 0 -0.47195833844942919 -0.37959069520904498 0 -0.48717439863114548 -0.36823452950912272 0 -0.46593083509403682 -0.39197871725165279 0 -0.44890944387521442 -0.39029302340116001 0 -0.45132291774153199 -0.37789636588759368 0 -0.47195833844942919 -0.37959069520904498 0 -0.46593083509403682 -0.39197871725165279 0 -0.45132291774153199 -0.37789636588759368 0 -0.46593083509403682 -0.39197871725165279 0 -0.45132291774153199 -0.37789636588759368 0 -0.48135717246594062 -0.40685004338866881 0 -0.46593083509403682 -0.39197871725165279 0 -0.45738366370351707 -0.41344381697501481 0 -0.46593083509403682 -0.39197871725165279 0 -0.44275815558040038 -0.40077469311046232 0 -0.45738366370351707 -0.41344381697501481 0 -0.46593083509403682 -0.39197871725165279 0 -0.44275815558040038 -0.40077469311046232 0 -0.46593083509403682 -0.39197871725165279 0 -0.44275815558040038 -0.40077469311046232 0 -0.44890944387521442 -0.39029302340116001 0 -0.44275815558040038 -0.40077469311046232 0 -0.44064580868350911 -0.39542861624611658 0 -0.44890944387521442 -0.39029302340116001 0 -0.44225344557501872 -0.38376649822575309 0 -0.45132291774153199 -0.37789636588759368 0 -0.43671500038902772 -0.36381401452353412 0 -0.44890944387521442 -0.39029302340116001 0 -0.44225344557501872 -0.38376649822575309 0 -0.45132291774153199 -0.37789636588759368 0 -0.44064580868350911 -0.39542861624611658 0 -0.44225344557501872 -0.38376649822575309 0 -0.43040194378266172 -0.3881600185019185 0 -0.44064580868350911 -0.39542861624611658 0 -0.44890944387521442 -0.39029302340116001 0 -0.44225344557501872 -0.38376649822575309 0 -0.47820614292347569 -0.42776699273468149 0 -0.46517432262153441 -0.43649963461163338 0 -0.45738366370351707 -0.41344381697501481 0 -0.45059725373546922 -0.44229587798334291 0 -0.45738366370351707 -0.41344381697501481 0 -0.45059725373546922 -0.44229587798334291 0 -0.46517432262153441 -0.43649963461163338 0 -0.45738366370351707 -0.41344381697501481 0 -0.44275815558040038 -0.40077469311046232 0 -0.45738366370351707 -0.41344381697501481 0 -0.44164244492799948 -0.42121090558557039 0 -0.45059725373546922 -0.44229587798334291 0 -0.45738366370351707 -0.41344381697501481 0 -0.44164244492799948 -0.42121090558557039 0 -0.45059725373546922 -0.44229587798334291 0 -0.44164244492799948 -0.42121090558557039 0 -0.4339166039271336 -0.43498117536117131 0 -0.4339166039271336 -0.43498117536117131 0 -0.42355654769347711 -0.414558964497861 0 -0.41671115160429401 -0.44095791049380378 0 -0.44164244492799948 -0.42121090558557039 0 -0.4339166039271336 -0.43498117536117131 0 -0.42355654769347711 -0.414558964497861 0 -0.44275815558040038 -0.40077469311046232 0 -0.44164244492799948 -0.42121090558557039 0 -0.42355654769347711 -0.414558964497861 0 -0.42355654769347711 -0.414558964497861 0 -0.41056920252370888 -0.3963363404412637 0 -0.40050668374064252 -0.41734442193795029 0 -0.42355654769347711 -0.414558964497861 0 -0.41671115160429401 -0.44095791049380378 0 -0.42355654769347711 -0.414558964497861 0 -0.40050668374064252 -0.41734442193795029 0 -0.41671115160429401 -0.44095791049380378 0 -0.44225344557501872 -0.38376649822575309 0 -0.43040194378266172 -0.3881600185019185 0 -0.43671500038902772 -0.36381401452353412 0 -0.43040194378266172 -0.3881600185019185 0 -0.43671500038902772 -0.36381401452353412 0 -0.44064580868350911 -0.39542861624611658 0 -0.42355654769347711 -0.414558964497861 0 -0.43040194378266172 -0.3881600185019185 0 -0.42355654769347711 -0.414558964497861 0 -0.43040194378266172 -0.3881600185019185 0 -0.44275815558040038 -0.40077469311046232 0 -0.44064580868350911 -0.39542861624611658 0 -0.42355654769347711 -0.414558964497861 0 -0.44064580868350911 -0.39542861624611658 0 -0.43040194378266172 -0.3881600185019185 0 -0.42355654769347711 -0.414558964497861 0 -0.43040194378266172 -0.3881600185019185 0 -0.41056920252370888 -0.3963363404412637 0 -0.43040194378266172 -0.3881600185019185 0 -0.4079689369259607 -0.37224253963894771 0 -0.43040194378266172 -0.3881600185019185 0 -0.41056920252370888 -0.3963363404412637 0 -0.4079689369259607 -0.37224253963894771 0 -0.41056920252370888 -0.3963363404412637 0 -0.39195929229331972 -0.37982250283040359 0 -0.4079689369259607 -0.37224253963894771 0 -0.41056920252370888 -0.3963363404412637 0 -0.39195929229331972 -0.37982250283040359 0 -0.39357845321732049 -0.39746174547711199 0 -0.41056920252370888 -0.3963363404412637 0 -0.39357845321732049 -0.39746174547711199 0 -0.40050668374064252 -0.41734442193795029 0 -0.39357845321732049 -0.39746174547711199 0 -0.38114412328536468 -0.40833987260765031 0 -0.36544727141479139 -0.39026932065168712 0 -0.39195929229331972 -0.37982250283040359 0 -0.37549160074202448 -0.3732971907138336 0 -0.36544727141479139 -0.39026932065168712 0 -0.39195929229331972 -0.37982250283040359 0 -0.39357845321732049 -0.39746174547711199 0 -0.36544727141479139 -0.39026932065168712 0 -0.40050668374064252 -0.41734442193795029 0 -0.3944977858259317 -0.43926335073686201 0 -0.41671115160429401 -0.44095791049380378 0 -0.40050668374064252 -0.41734442193795029 0 -0.38028594703985957 -0.42392304976487449 0 -0.3944977858259317 -0.43926335073686201 0 -0.39357845321732049 -0.39746174547711199 0 -0.40050668374064252 -0.41734442193795029 0 -0.38114412328536468 -0.40833987260765031 0 -0.40050668374064252 -0.41734442193795029 0 -0.38114412328536468 -0.40833987260765031 0 -0.38028594703985957 -0.42392304976487449 0 -0.38114412328536468 -0.40833987260765031 0 -0.38028594703985957 -0.42392304976487449 0 -0.36590226101420908 -0.41270082520662749 0 -0.38028594703985957 -0.42392304976487449 0 -0.3944977858259317 -0.43926335073686201 0 -0.3723601590800425 -0.44005613486137668 0 -0.3944977858259317 -0.43926335073686201 0 -0.38265619596279349 -0.45813348326120767 0 -0.3723601590800425 -0.44005613486137668 0 -0.40093272222703252 -0.45142790024540502 0 -0.3944977858
[...]
<PointData Scalars="" Vectors="displacement," Tensors="">
<DataArray type="Float64" Name="displacement" NumberOfComponents="3" format="ascii">
-8.9290230846318204e-07 -0.054996636790047806 0 -0.00033849422343740752 -0.053808989188995134 0 3.8791720011038121e-07 -0.049244808052364183 0 -8.9290230846318204e-07 -0.054996636790047806 0 -0.00033849422343740752 -0.053808989188995134 0 -5.0347379335138944e-07 -0.05499757983103408 0 -0.00033849422343740752 -0.053808989188995134 0 -0.00022714771495292924 -0.054017717147431095 0 -5.0347379335138944e-07 -0.05499757983103408 0 -0.00033849422343740752 -0.053808989188995134 0 -0.00022714771495292924 -0.054017717147431095 0 -7.4460485984494118e-06 -0.053236514459138712 0 -0.00022714771495292924 -0.054017717147431095 0 -0.000217033932695977 -0.054104528164918106 0 -7.4460485984494118e-06 -0.053236514459138712 0 -0.00022714771495292924 -0.054017717147431095 0 -0.000217033932695977 -0.054104528164918106 0 -5.0347379335138944e-07 -0.05499757983103408 0 2.1613087880544196e-05 -0.054237535560928286 0 -1.1567564897939796e-07 -0.054999748146205521 0 0.0011044952886336546 -0.053617684680253297 0 0.0014156323674255789 -0.054235053208598998 0 0.00074378276375627894 -0.054416580711443563 0 -0.000217033932695977 -0.054104528164918106 0 0.00076104993857801107 -0.053447976013642991 0 -7.4460485984494118e-06 -0.053236514459138712 0 0.00024493594944033879 -0.054331687052406423 0 0.0011044952886336546 -0.053617684680253297 0 0.00074378276375627894 -0.054416580711443563 0 2.1613087880544196e-05 -0.054237535560928286 0 0.00096651476460176745 -0.053532211632324418 0 -7.4460485984494118e-06 -0.053236514459138712 0 0.00023177223990659829 -0.051553353652628489 0 0.0010902702879924148 -0.052498805876578403 0 0.00076104993857801107 -0.053447976013642991 0 -7.4460485984494118e-06 -0.053236514459138712 0 0.0010902702879924148 -0.052498805876578403 0 0.00023177223990659829 -0.051553353652628489 0 0.0016081357930551126 -0.051693409360399706 0 0.0010902702879924148 -0.052498805876578403 0 1.7695890214752211e-05 -0.05132319211537343 0 0.0010011063332913102 -0.050808549386639368 0 -0.00033849422343740752 -0.053808989188995134 0 0.00023177223990659829 -0.051553353652628489 0 3.8791720011038121e-07 -0.049244808052364183 0 -0.00033849422343740752 -0.053808989188995134 0 -7.4460485984494118e-06 -0.053236514459138712 0 0.00023177223990659829 -0.051553353652628489 0 0.00023177223990659829 -0.051553353652628489 0 3.8791720011038121e-07 -0.049244808052364183 0 0.00013286935027936075 -0.049404844952215393 0 3.8791720011038121e-07 -0.049244808052364183 0 9.9835919522630099e-05 -0.046544339533846159 0 0.00013286935027936075 -0.049404844952215393 0 3.8791720011038121e-07 -0.049244808052364183 0 9.9835919522630099e-05 -0.046544339533846159 0 1.3833953938917947e-06 -0.041698659125627813 0 9.9835919522630099e-05 -0.046544339533846159 0 0.0025664804378387109 -0.04880134569510778 0 0.00013286935027936075 -0.049404844952215393 0 7.5824876371570304e-06 -0.046124424877439028 0 0.0015882940980407494 -0.047724234601068664 0 0.0015882940980407494 -0.047724234601068664 0 0.0010011063332913102 -0.050808549386639368 0 0.0027146103002657239 -0.051563856922095995 0 0.0016081357930551126 -0.051693409360399706 0 0.0023732631824121171 -0.052935010520409859 0 9.9835919522630099e-05 -0.046544339533846159 0 -7.6442955662462344e-05 -0.044691725999181572 0 1.3833953938917947e-06 -0.041698659125627813 0 3.8216067960037901e-06 -0.041690246171940275 0 0.0013839410839631848 -0.039227480624978994 0 3.664298247088e-05 -0.038910793263162803 0 -7.6442955662462344e-05 -0.044691725999181572 0 1.3833953938917947e-06 -0.041698659125627813 0 0.00024793364574284563 -0.043297950537041323 0 0.0012335189754559637 -0.041097971654707417 0 0.00028973419723040924 -0.038989534348742777 0 3.2649704446659566e-07 -0.041695378200550602 0 0.0012335189754559637 -0.041097971654707417 0 0.0011381875081178526 -0.045041066601749426 0 0.0023687412760880666 -0.044828362770921566 0 0.0019734504515337139 -0.045901004107839288 0 0.0015882940980407494 -0.047724234601068664 0 0.0012335189754559637 -0.041097971654707417 0 0.0015882940980407494 -0.047724234601068664 0 0.0024537922725746835 -0.04692447174971956 0 0.0013338172235431358 -0.038624591168976277 0 0.00095320431805597623 -0.037663710164546935 0 0.0016832981198498067 -0.037361628787088506 0 0.0012335189754559637 -0.041097971654707417 0 0.0024537922725746835 -0.04692447174971956 0 0.0013338172235431358 -0.038624591168976277 0 0.00095320431805597623 -0.037663710164546935 0 3.664298247088e-05 -0.038910793263162803 0 0.0031257490166478746 -0.052904019568404834 0 0.0031851346610477344 -0.05338105350494024 0 0.0033838837275707088 -0.053308904293635488 0 0.00095320431805597623 -0.037663710164546935 0 0.0016832981198498067 -0.037361628787088506 0 0.00073181664437319666 -0.036628090774584669 0 0.0024537922725746835 -0.04692447174971956 0 0.0021116763966092709 -0.04494779402820475 0 0.0027146103002657239 -0.051563856922095995 0 0.0034624158283503527 -0.052426586141787322 0 0.0023732631824121171 -0.052935010520409859 0 0.0034624158283503527 -0.052426586141787322 0 0.0029382029416751007 -0.05359288394639318 0 0.0023732631824121171 -0.052935010520409859 0 0.0024537922725746835 -0.04692447174971956 0 0.0027612978455711533 -0.055696577888767536 0 0.0031257490166478746 -0.052904019568404834 0 0.0029382029416751007 -0.05359288394639318 0 0.0031851346610477344 -0.05338105350494024 0 0.0029382029416751007 -0.05359288394639318 0 0.0031307352099976373 -0.053627004411340259 0 0.0031851346610477344 -0.05338105350494024 0 0.0032884680177226442 -0.053478894642450682 0 0.0033838837275707088 -0.053308904293635488 0 0.0034878411920221558 -0.053441364129138177 0 0.0031851346610477344 -0.05338105350494024 0 0.0032884680177226442 -0.053478894642450682 0 0.0033838837275707088 -0.053308904293635488 0 0.0031307352099976373 -0.053627004411340259 0 0.0032884680177226442 -0.053478894642450682 0 0.0032309178202167715 -0.053617985652456915 0 0.0031307352099976373 -0.053627004411340259 0 0.0031851346610477344 -0.05338105350494024 0 0.0032884680177226442 -0.053478894642450682 0 0.0016081357930551126 -0.051693409360399706 0 0.0010902702879924148 -0.052498805876578403 0 0.0023732631824121171 -0.052935010520409859 0 0.00096651476460176745 -0.053532211632324418 0 0.0023202050149458563 -0.052983205522016415 0 0.00076104993857801107 -0.053447976013642991 0 0.0010902702879924148 -0.052498805876578403 0 0.0023732631824121171 -0.052935010520409859 0 0.0029382029416751007 -0.05359288394639318 0 0.0023732631824121171 -0.052935010520409859 0 0.0020073148790899103 -0.053788684381857452 0 0.0011044952886336546 -0.053617684680253297 0 0.0023732631824121171 -0.052935010520409859 0 0.0020073148790899103 -0.053788684381857452 0 0.0011044952886336546 -0.053617684680253297 0 0.0020073148790899103 -0.053788684381857452 0 0.0014156323674255789 -0.054235053208598998 0 0.0014156323674255789 -0.054235053208598998 0 0.002280451733452427 -0.054567787547952447 0 0.0011667734664265923 -0.054936422139913774 0 0.0020073148790899103 -0.053788684381857452 0 0.0014156323674255789 -0.054235053208598998 0 0.002280451733452427 -0.054567787547952447 0 0.0029382029416751007 -0.05359288394639318 0 0.0020073148790899103 -0.053788684381857452 0 0.002280451733452427 -0.054567787547952447 0 -0.00017442343813324631 -0.051913716838025988 0 9.0961752786900004e-06 -0.052041638690028258 0 -0.00021032892561673086 -0.052178496828758893 0 0.0008942431946014262 -0.05354939190141976 0 0.00033122083931158428 -0.053356177508556729 0 -0.00017442343813324631 -0.051913716838025988 0 -0.00021032892561673086 -0.052178496828758893 0 -0.0004993229646907927 -0.051998242812636174 0 0.0032884680177226442 -0.053478894642450682 0 0.0032309178202167715 -0.053617985652456915 0 0.0034878411920221558 -0.053441364129138177 0 0.0022804487860338873 -0.050779083409090944 0 0.00095320623197584257 -0.043897242011925339 0 0.0031307352099976373 -0.053627004411340259 0 0.002280451733452427 -0.054567787547952447 0 0.0034780737851057581 -0.05411301105561192 0 0.0008942431946014262 -0.05354939190141976 0 0.0022804487860338873 -0.050779083409090944 0 0.0029382029416751007 -0.05359288394639318 0 0.0031307352099976373 -0.053627004411340259 0 0.002280451733452427 -0.054567787547952447 0 0.0037349395065416342 -0.054077663920880155 0 0.0022804487860338873 -0.050779083409090944 0 -0.00017442343813324631 -0.051913716838025988 0 0.00010153235309406906 -0.051834257587036796 0 9.0961752786900004e-06 -0.052041638690028258 0 0.0022804487860338873 -0.050779083409090944 0 0.00085459653274942379 -0.047808775441693811 0 0.00010153235309406906 -0.051834257587036796 0 9.0961752786900004e-06 -0.052041638690028258 0 0.00022331652373706868 -0.052032471472386113 0 9.0961752786900004e-06 -0.052041638690028258 0 0.00014730951338860133 -0.052199677969121103 0 0.00022331652373706868 -0.052032471472386113 0 9.0961752786900004e-06 -0.052041638690028258 0 0.00014730951338860133 -0.052199677969121103 0 -1.1569736181727428e-05 -0.05222569502744915 0 9.0961752786900004e-06 -0.052041638690028258 0 -1.1569736181727428e-05 -0.05222569502744915 0 -0.00021032892561673086 -0.052178496828758893 0 -1.1569736181727428e-05 -0.05222569502744915 0 -0.00011777574404884744 -0.052387960588022878 0 1.6076930357409818e-05 -0.052467487737775924 0 0.00014730951338860133 -0.052199677969121103 0 0.00020100603814272947 -0.052348962046917497 0 1.6076930357409818e-05 -0.052467487737775924 0 0.00014730951338860133 -0.052199677969121103 0 -1.1569736181727428e-05 -0.05222569502744915 0 1.6076930357409818e-05 -0.052467487737775924 0 -0.00021032892561673086 -0.052178496828758893 0 -0.00047943390970722478 -0.052271561248163893 0 -0.0004993229646907927 -0.051998242812636174 0 -0.00021032892561673086 -0.052178496828758893 0 -0.00027707063538536696 -0.052445995545171376 0 -0.00047943390970722478 -0.052271561248163893 0 -1.1569736181727428e-05 -0.05222569502744915 0 -0.00021032892561673086 -0.052178496828758893 0 -0.00011777574404884744 -0.052387960588022878 0 -0.00021032892561673086 -0.052178496828758893 0 -0.00011777574404884744 -0.052387960588022878 0 -0.00027707063538536696 -0.052445995545171376 0 -0.00011777574404884744 -0.052387960588022878 0 -0.00027707063538536696 -0.052445995545171376 0 -0.00016177180545249488 -0.052577303009028888 0 -0.00027707063538536696 -0.052445995545171376 0 -0.00047943390970722478 -0.052271561248163893 0 -0.00047191281807254379 -0.052613940874043669 0 -0.00047943390970722478 -0.052271561248163893 0 -0.00076924418159699502 -0.052442364461236811 0 -0.00047191281807254379 -0.052613940874043669 0 -0.0006474705208365754 -0.052198374256332322 0 -0.00047943390970722478 -0.052271561248163893 0 -0.00076924418159699502 -0.052442364461236811 0 -0.0006474705208365754 -0.052198374256332322 0 -0.00047943390970722478 -0.052271561248163893 0 -0.0004993229646907927 -0.051998242812636174 0 -0.00070490899033170463 -0.053380086508531238 0 1.5805093215356676e-05 -0.054157972209698368 0 -0.00049154172626435461 -0.054615490495081534 0 -4.2906695847899116e-05 -0.054903319253366153 0 -0.00015951542426880465 -0.055182728237703163 0 -0.0006474705208365754 -0.052198374256332322 0 -0.00076924418159699502 -0.052442364461236811 0 -0.00084528013481869019 -0.05209688936344524 0 -0.00049154172626435461 -0.054615490495081534 0 1.2311507658073412e-05 -0.054720570514459485 0 -4.2906695847899116e-05 -0.054903319253366153 0 1.2311507658073412e-05 -0.054720570514459485 0 1.7207435705179753e-05 -0.054903777519834072 0 -2.3870901199240863e-05 -0.054938870213396142 0 1.2311507658073412e-05 -0.054720570514459485 0 1.7207435705179753e-05 -0.054903777519834072 0 -4.2906695847899116e-05 -0.054903319253366153 0 -5.9668866659088678e-08 -0.054999829181121271 0 1.7207435705179753e-05 -0.054903777519834072 0 1.4705869919133663e-07 -0.054999902188673774 0 -5.9668866659088678e-08 -0.054999829181121271 0 1.7207435705179753e-05 -0.054903777519834072 0 -2.3870901199240863e-05 -0.054938870213396142 0 1.7207435705179753e-05 -0.054903777519834072 0 1.4705869919133663e-07 -0.054999902188673774 0 2.1548571791727682e-05 -0.055020426843518981 0 5.1889415542439885e-08 -0.055000004825207498 0 1.1764710922749619e-05 -0.055025386447958013 0 2.1548571791727682e-05 -0.055020426843518981 0 -4.2906695847899116e-05 -0.054903319253366153 0 -0.00015951542426880465 -0.055182728237703163 0 1.7207435705179753e-05 -0.054903777519834072 0 2.1548571791727682e-05 -0.055020426843518981 0 -4.2906695847899116e-05 -0.054903319253366153 0 1.1764710922749619e-05 -0.055025386447958013 0 1.5805093215356676e-05 -0.054157972209698368 0 0.00032113678827126334 -0.055075713474000067 0 1.5805093215356676e-05 -0.054157972209698368 0 7.6498515121716548e-05 -0.054912228151613222 0 0.00020638307321940835 -0.05471999264061525 0 0.00026183418745389541 -0.054982825384807803 0 8.078943088137942e-05 -0.055015018065547316 0 7.6498515121716548e-05 -0.054912228151613222 0 0.00026183418745389541 -0.054982825384807803 0 8.078943088137942e-05 -0.055015018065547316 0 7.6498515121716548e-05 -0.054912228151613222 0 8.5616253318795522e-08 -0.055000002919128113 0 7.4209569409649719e-09 -0.055000077768319257 0 8.078943088137942e-05 -0.055015018065547316 0 8.5616253318795522e-08 -0.055000002919128113 0 7.6498515121716548e-05 -0.054912228151613222 0 8.5616253318795522e-08 -0.055000002919128113 0 -2.3983898284165897e-07 -0.054999354524112851 0 7.6498515121716548e-05 -0.054912228151613222 0 -2.3983898284165897e-07 -0.054999354524112851 0 0.00020638307321940835 -0.05471999264061525 0 0.00024493594944033879 -0.054331687052406423 0 -2.3983898284165897e-07 -0.054999354524112851 0 0.00020638307321940835 -0.05471999264061525 0 0.00020638307321940835 -0.05471999264061525 0 0.00059782003141625815 -0.054796927527584527 0 0.00074378276375627894 -0.054416580711443563 0 0.00024493594944033879 -0.054331687052406423 0 0.00020638307321940835 -0.05471999264061525 0 0.00074378276375627894 -0.054416580711443563 0 0.0014156323674255789 -0.054235053208598998 0 0.00074378276375627894 -0.054416580711443563 0 0.0011667734664265923 -0.054936422139913774 0 0.00059782003141625815 -0.054796927527584527 0 0.00074378276375627894 -0.054416580711443563 0 0.0011667734664265923 -0.054936422139913774 0 0.00059782003141625815 -0.054796927527584527 0 0.0011667734664265923 -0.054936422139913774 0 0.00035019277013641063 -0.055141657876580916 0 0.00033122083931158428 -0.053356177508556729 0 1.5805093215356676e-05 -0.054157972209698368 0 -0.0006474705208365754 -0.052198374256332322 0 -0.0004993229646907927 -0.051998242812636174 0 -0.00084528013481869019 -0.05209688936344524 0 0.00020638307321940835 -0.05471999264061525 0 0.00059782003141625815 -0.054796927527584527 0 0.00035019277013641063 -0.055141657876580916 0 0.00040421908854028967 -0.026096084414174416 0 0.00038374080120053645 -0.025829411992447666 0 0.00025026110541748572 -0.02606742027240342 0 0.000616269052502808 -0.025898043428690894 0 0.00040421908854028967 -0.026096084414174416 0 0.00038374080120053645 -0.025829411992447666 0 -0.00037913642527989943 -0.032384700720985413 0 -0.00041482102705502533 -0.032265317373825493 0 0.00010798856539181863 -0.031953674499340945 0 0.00018303281224940851 -0.028913804324630425 0 0.00021902128067305819 -0.029041508672812712 0 -0.00041482102705502533 -0.032265317373825493 0 -0.00028611715761680254 -0.030878819371770092 0 -0.00045281189878160997 -0.032381198936486957 0 -0.00041482102705502533 -0.032265317373825493 0 0.00010798856539181863 -0.031953674499340945 0 -0.00028611715761680254 -0.030878819371770092 0 0.00021902128067305819 -0.029041508672812712 0 0.00028857637452245257 -0.027976839480593103 0 0.00010798856539181863 -0.031953674499340945 0 -0.00028611715761680254 -0.030878819371770092 0 0.00069540669178110709 -0.029985336673963699 0 -2.6765783062497612e-05 -0.029289434995738342 0 -0.00028611715761680254 -0.030878819371770092 0 0.00069540669178110709 -0.029985336673963699 0 -2.6765783062497612e-05 -0.029289434995738342 0 2.7705879849105036e-07 -0.027507471492727077 0 -8.3766536069281531e-07 -0.030345287694386824 0 -2.6765783062497612e-05 -0.029289434995738342 0 2.7705879849105036e-07 -0.027507471492727077 0 0.00020674998984764531 -0.028006102969422877 0 -2.6765783062497612e-05 -0.029289434995738342 0 -8.3766536069281531e-07 -0.030345287694386824 0 -0.00028611715761680254 -0.030878819371770092 0 -8.3766536069281531e-07 -0.030345287694386824 0 -0.00028611715761680254 -0.030878819371770092 0 -0.00027545651972113081 -0.032058068784540122 0 -0.00028611715761680254 -0.030878819371770092 0 -0.00045281189878160997 -0.032381198936486957 0 -0.00027545651972113081 -0.032058068784540122 0 -0.00045281189878160997 -0.032381198936486957 0 -0.00027545651972113081 -0.032058068784540122 0 -0.0002108108245995003 -0.033553753618100306 0 -8.3766536069281531e-07 -0.030345287694386824 0 -0.00027545651972113081 -0.032058068784540122 0 -5.265408216799969e-07 -0.033182557425471035 0 -0.00027545651972113081 -0.032058068784540122 0 -5.265408216799969e-07 -0.033182557425471035 0 -0.0002108108245995003 -0.033553753618100306 0 -5.265408216799969e-07 -0.033182557425471035 0 -0.0002108108245995003 -0.033553753618100306 0 1.4660952197814277e-07 -0.036019240158942291 0 -0.00045281189878160997 -0.032381198936486957 0 -0.0002108108245995003 -0.033553753618100306 0 -0.00033828749082542799 -0.032814958193457491 0 -0.0002108108245995003 -0.033553753618100306 0 -0.00033828749082542799 -0.032814958193457491 0 0.00014200040874559952 -0.034951300507820686 0 -0.00041482102705502533 -0.032265317373825493 0 -0.00045281189878160997 -0.032381198936486957 0 -0.00033828749082542799 -0.032814958193457491 0 -0.00041482102705502533 -0.032265317373825493 0 -0.00033828749082542799 -0.032814958193457491 0 -0.00025451979244164863 -0.03238234103329022 0 -0.00037913642527989943 -0.032384700720985413 0 -0.00041482102705502533 -0.032265317373825493 0 -0.00025451979244164863 -0.03238234103329022 0 -0.00033828749082542799 -0.032814958193457491 0 -0.00025451979244164863 -0.03238234103329022 0 0.00011843531016448002 -0.032353900170944742 0 0.00011843531016448002 -0.032353900170944742 0 0.00051765985407464668 -0.03271667313728812 0 0.00023386360201605106 -0.032110548930702962 0 -0.00033828749082542799 -0.032814958193457491 0 0.00011843531016448002 -0.032353900170944742 0 0.00051765985407464668 -0.03271667313728812 0 0.00029980458386064541 -0.034635868208952716 0 0.00017285332500524195 -0.034438429196668209 0 0.00018274205997886197 -0.03656197939424103 0 -5.2725129387751626e-05 -0.036617779299932783 0 -0.00024249540444472284 -0.036382386945062892 0 -5.2725129387751626e-05 -0.036617779299932783 0 -0.00024249540444472284 -0.036382386945062892 0 -0.00015674807422041466 -0.036573709700991247 0 0.00018274205997886197 -0.03656197939424103 0 -5.2725129387751626e-05 -0.036617779299932783 0 4.7970411493416805e-05 -0.036666455970372387 0 -0.00033828749082542799 -0.032814958193457491 0 0.00051765985407464668 -0.03271667313728812 0 0.00014200040874559952 -0.034951300507820686 0 0.00018274205997886197 -0.03656197939424103 0 -0.00024249540444472284 -0.036382386945062892 0 0.00014200040874559952 -0.034951300507820686 0 0.00029980458386064541 -0.034635868208952716 0 0.00019309296837810444 -0.034920571162468092 0 -0.0002108108245995003 -0.033553753618100306 0 0.00014200040874559952 -0.034951300507820686 0 1.4660952197814277e-07 -0.036019240158942291 0 0.00014200040874559952 -0.034951300507820686 0 1.4660952197814277e-07 -0.036019240158942291 0 -0.00020660842188898696 -0.036618691453349062 0 1.4660952197814277e-07 -0.036019240158942291 0 -0.00020660842188898696 -0.036618691453349062 0 -1.6045982164138014e-06 -0.038857259863106015 0 -0.00024249540444472284 -0.036382386945062892 0 -0.00020660842188898696 -0.036618691453349062 0 -0.00017993078353522495 -0.036844872839361574 0 -0.00024249540444472284 -0.036382386945062892 0 0.00014200040874559952 -0.034951300507820686 0 -0.00020660842188898696 -0.036618691453349062 0 -0.00020660842