<?xml version="1.0"?>
<VTKFile type="UnstructuredGrid" version="0.1" byte_order="LittleEndian">
<UnstructuredGrid>
<Piece NumberOfPoints="30578" NumberOfCells="10723">
<Points>
<DataArray type="Float64" NumberOfComponents="3" format="ascii">
-0.5 -0.5 0 -0.47439485679867832 -0.48072581506667478 0 -0.5 -0.44765434486020428 0 -0.5 -0.5 0 -0.47439485679867832 -0.48072581506667478 0 -0.43702443379937372 -0.49999999999999922 0 -0.47439485679867832 -0.48072581506667478 0 -0.45530669598391149 -0.47718009944797551 0 -0.43702443379937372 -0.49999999999999922 0 -0.47439485679867832 -0.48072581506667478 0 -0.45530669598391149 -0.47718009944797551 0 -0.4597353119515426 -0.45943449384344293 0 -0.45530669598391149 -0.47718009944797551 0 -0.44381084376742141 -0.47114793899167112 0 -0.4597353119515426 -0.45943449384344293 0 -0.45530669598391149 -0.47718009944797551 0 -0.44381084376742141 -0.47114793899167112 0 -0.43702443379937372 -0.49999999999999922 0 -0.44381084376742141 -0.47114793899167112 0 -0.43702443379937372 -0.49999999999999922 0 -0.45059725373546922 -0.44229587798334291 0 -0.4339166039271336 -0.43498117536117131 0 -0.43309128002320102 -0.45351235807576151 0 -0.44381084376742141 -0.47114793899167112 0 -0.45059725373546922 -0.44229587798334291 0 -0.4597353119515426 -0.45943449384344293 0 -0.44381084376742141 -0.47114793899167112 0 -0.45059725373546922 -0.44229587798334291 0 -0.43309128002320102 -0.45351235807576151 0 -0.44381084376742141 -0.47114793899167112 0 -0.45059725373546922 -0.44229587798334291 0 -0.4597353119515426 -0.45943449384344293 0 -0.47505511338101108 -0.44868394208069429 0 -0.46517432262153441 -0.43649963461163338 0 -0.45059725373546922 -0.44229587798334291 0 -0.4597353119515426 -0.45943449384344293 0 -0.46517432262153441 -0.43649963461163338 0 -0.47505511338101108 -0.44868394208069429 0 -0.47820614292347569 -0.42776699273468149 0 -0.46517432262153441 -0.43649963461163338 0 -0.47505511338101108 -0.44868394208069429 0 -0.47820614292347569 -0.42776699273468149 0 -0.47439485679867832 -0.48072581506667478 0 -0.47505511338101108 -0.44868394208069429 0 -0.5 -0.44765434486020428 0 -0.47439485679867832 -0.48072581506667478 0 -0.4597353119515426 -0.45943449384344293 0 -0.47505511338101108 -0.44868394208069429 0 -0.47505511338101108 -0.44868394208069429 0 -0.5 -0.44765434486020428 0 -0.47820614292347569 -0.42776699273468149 0 -0.5 -0.44765434486020428 0 -0.49656450065014057 -0.42151023988558672 0 -0.47820614292347569 -0.42776699273468149 0 -0.5 -0.44765434486020428 0 -0.49656450065014057 -0.42151023988558672 0 -0.50000000000000089 -0.37904661106745707 0 -0.49656450065014057 -0.42151023988558672 0 -0.48135717246594062 -0.40685004338866881 0 -0.47820614292347569 -0.42776699273468149 0 -0.49656450065014057 -0.42151023988558672 0 -0.48135717246594062 -0.40685004338866881 0 -0.48135717246594062 -0.40685004338866881 0 -0.47820614292347569 -0.42776699273468149 0 -0.48135717246594062 -0.40685004338866881 0 -0.47820614292347569 -0.42776699273468149 0 -0.45738366370351707 -0.41344381697501481 0 -0.49656450065014057 -0.42151023988558672 0 -0.48135717246594062 -0.40685004338866881 0 -0.50000000000000089 -0.37904661106745707 0 -0.50000000000000089 -0.37904661106745707 0 -0.48466894952205442 -0.38486603086372417 0 -0.48717439863114548 -0.36823452950912272 0 -0.48135717246594062 -0.40685004338866881 0 -0.50000000000000089 -0.37904661106745707 0 -0.48466894952205442 -0.38486603086372417 0 -0.48466894952205442 -0.38486603086372417 0 -0.48717439863114548 -0.36823452950912272 0 -0.50000000000000089 -0.37904661106745707 0 -0.48466894952205442 -0.38486603086372417 0 -0.48135717246594062 -0.40685004338866881 0 -0.48466894952205442 -0.38486603086372417 0 -0.46593083509403682 -0.39197871725165279 0 -0.48135717246594062 -0.40685004338866881 0 -0.48466894952205442 -0.38486603086372417 0 -0.48135717246594062 -0.40685004338866881 0 -0.46593083509403682 -0.39197871725165279 0 -0.48466894952205442 -0.38486603086372417 0 -0.47195833844942919 -0.37959069520904498 0 -0.46593083509403682 -0.39197871725165279 0 -0.48466894952205442 -0.38486603086372417 0 -0.46593083509403682 -0.39197871725165279 0 -0.48466894952205442 -0.38486603086372417 0 -0.47195833844942919 -0.37959069520904498 0 -0.48717439863114548 -0.36823452950912272 0 -0.46593083509403682 -0.39197871725165279 0 -0.44890944387521442 -0.39029302340116001 0 -0.45132291774153199 -0.37789636588759368 0 -0.47195833844942919 -0.37959069520904498 0 -0.46593083509403682 -0.39197871725165279 0 -0.45132291774153199 -0.37789636588759368 0 -0.46593083509403682 -0.39197871725165279 0 -0.45132291774153199 -0.37789636588759368 0 -0.48135717246594062 -0.40685004338866881 0 -0.46593083509403682 -0.39197871725165279 0 -0.45738366370351707 -0.41344381697501481 0 -0.46593083509403682 -0.39197871725165279 0 -0.44275815558040038 -0.40077469311046232 0 -0.45738366370351707 -0.41344381697501481 0 -0.46593083509403682 -0.39197871725165279 0 -0.44275815558040038 -0.40077469311046232 0 -0.46593083509403682 -0.39197871725165279 0 -0.44275815558040038 -0.40077469311046232 0 -0.44890944387521442 -0.39029302340116001 0 -0.44275815558040038 -0.40077469311046232 0 -0.44064580868350911 -0.39542861624611658 0 -0.44890944387521442 -0.39029302340116001 0 -0.44225344557501872 -0.38376649822575309 0 -0.45132291774153199 -0.37789636588759368 0 -0.43671500038902772 -0.36381401452353412 0 -0.44890944387521442 -0.39029302340116001 0 -0.44225344557501872 -0.38376649822575309 0 -0.45132291774153199 -0.37789636588759368 0 -0.44064580868350911 -0.39542861624611658 0 -0.44225344557501872 -0.38376649822575309 0 -0.43040194378266172 -0.3881600185019185 0 -0.44064580868350911 -0.39542861624611658 0 -0.44890944387521442 -0.39029302340116001 0 -0.44225344557501872 -0.38376649822575309 0 -0.47820614292347569 -0.42776699273468149 0 -0.46517432262153441 -0.43649963461163338 0 -0.45738366370351707 -0.41344381697501481 0 -0.45059725373546922 -0.44229587798334291 0 -0.45738366370351707 -0.41344381697501481 0 -0.45059725373546922 -0.44229587798334291 0 -0.46517432262153441 -0.43649963461163338 0 -0.45738366370351707 -0.41344381697501481 0 -0.44275815558040038 -0.40077469311046232 0 -0.45738366370351707 -0.41344381697501481 0 -0.44164244492799948 -0.42121090558557039 0 -0.45059725373546922 -0.44229587798334291 0 -0.45738366370351707 -0.41344381697501481 0 -0.44164244492799948 -0.42121090558557039 0 -0.45059725373546922 -0.44229587798334291 0 -0.44164244492799948 -0.42121090558557039 0 -0.4339166039271336 -0.43498117536117131 0 -0.4339166039271336 -0.43498117536117131 0 -0.42355654769347711 -0.414558964497861 0 -0.41671115160429401 -0.44095791049380378 0 -0.44164244492799948 -0.42121090558557039 0 -0.4339166039271336 -0.43498117536117131 0 -0.42355654769347711 -0.414558964497861 0 -0.44275815558040038 -0.40077469311046232 0 -0.44164244492799948 -0.42121090558557039 0 -0.42355654769347711 -0.414558964497861 0 -0.42355654769347711 -0.414558964497861 0 -0.41056920252370888 -0.3963363404412637 0 -0.40050668374064252 -0.41734442193795029 0 -0.42355654769347711 -0.414558964497861 0 -0.41671115160429401 -0.44095791049380378 0 -0.42355654769347711 -0.414558964497861 0 -0.40050668374064252 -0.41734442193795029 0 -0.41671115160429401 -0.44095791049380378 0 -0.44225344557501872 -0.38376649822575309 0 -0.43040194378266172 -0.3881600185019185 0 -0.43671500038902772 -0.36381401452353412 0 -0.43040194378266172 -0.3881600185019185 0 -0.43671500038902772 -0.36381401452353412 0 -0.44064580868350911 -0.39542861624611658 0 -0.42355654769347711 -0.414558964497861 0 -0.43040194378266172 -0.3881600185019185 0 -0.42355654769347711 -0.414558964497861 0 -0.43040194378266172 -0.3881600185019185 0 -0.44275815558040038 -0.40077469311046232 0 -0.44064580868350911 -0.39542861624611658 0 -0.42355654769347711 -0.414558964497861 0 -0.44064580868350911 -0.39542861624611658 0 -0.43040194378266172 -0.3881600185019185 0 -0.42355654769347711 -0.414558964497861 0 -0.43040194378266172 -0.3881600185019185 0 -0.41056920252370888 -0.3963363404412637 0 -0.43040194378266172 -0.3881600185019185 0 -0.4079689369259607 -0.37224253963894771 0 -0.43040194378266172 -0.3881600185019185 0 -0.41056920252370888 -0.3963363404412637 0 -0.4079689369259607 -0.37224253963894771 0 -0.41056920252370888 -0.3963363404412637 0 -0.39195929229331972 -0.37982250283040359 0 -0.4079689369259607 -0.37224253963894771 0 -0.41056920252370888 -0.3963363404412637 0 -0.39195929229331972 -0.37982250283040359 0 -0.39357845321732049 -0.39746174547711199 0 -0.41056920252370888 -0.3963363404412637 0 -0.39357845321732049 -0.39746174547711199 0 -0.40050668374064252 -0.41734442193795029 0 -0.39357845321732049 -0.39746174547711199 0 -0.38114412328536468 -0.40833987260765031 0 -0.36544727141479139 -0.39026932065168712 0 -0.39195929229331972 -0.37982250283040359 0 -0.37549160074202448 -0.3732971907138336 0 -0.36544727141479139 -0.39026932065168712 0 -0.39195929229331972 -0.37982250283040359 0 -0.39357845321732049 -0.39746174547711199 0 -0.36544727141479139 -0.39026932065168712 0 -0.40050668374064252 -0.41734442193795029 0 -0.3944977858259317 -0.43926335073686201 0 -0.41671115160429401 -0.44095791049380378 0 -0.40050668374064252 -0.41734442193795029 0 -0.38028594703985957 -0.42392304976487449 0 -0.3944977858259317 -0.43926335073686201 0 -0.39357845321732049 -0.39746174547711199 0 -0.40050668374064252 -0.41734442193795029 0 -0.38114412328536468 -0.40833987260765031 0 -0.40050668374064252 -0.41734442193795029 0 -0.38114412328536468 -0.40833987260765031 0 -0.38028594703985957 -0.42392304976487449 0 -0.38114412328536468 -0.40833987260765031 0 -0.38028594703985957 -0.42392304976487449 0 -0.36590226101420908 -0.41270082520662749 0 -0.38028594703985957 -0.42392304976487449 0 -0.3944977858259317 -0.43926335073686201 0 -0.3723601590800425 -0.44005613486137668 0 -0.3944977858259317 -0.43926335073686201 0 -0.38265619596279349 -0.45813348326120767 0 -0.3723601590800425 -0.44005613486137668 0 -0.40093272222703252 -0.45142790024540502 0 -0.3944977858
[...]
<PointData Scalars="" Vectors="displacement," Tensors="">
<DataArray type="Float64" Name="displacement" NumberOfComponents="3" format="ascii">
0.014998953291215105 0.014998954977753177 0 0.014689097943548978 0.014552552242294518 0 0.013431604635165312 0.014999053155547476 0 0.014998953291215105 0.014998954977753177 0 0.014689097943548978 0.014552552242294518 0 0.014998849511484811 0.013114040974245829 0 0.014689097943548978 0.014552552242294518 0 0.014688426883344454 0.014133454306009454 0 0.014998849511484811 0.013114040974245829 0 0.014689097943548978 0.014552552242294518 0 0.014688426883344454 0.014133454306009454 0 0.014338040135878777 0.014407759121143329 0 0.014688426883344454 0.014133454306009454 0 0.014591252163713759 0.014178349707822543 0 0.014338040135878777 0.014407759121143329 0 0.014688426883344454 0.014133454306009454 0 0.014591252163713759 0.014178349707822543 0 0.014998849511484811 0.013114040974245829 0 0.014981014371530469 0.013666061111498862 0 0.014999789669183892 0.013110902656757848 0 0.015255700841376578 0.013434823950552168 0 0.015288323414358254 0.013411023114500481 0 0.015346829440283451 0.013293770910253216 0 0.014591252163713759 0.014178349707822543 0 0.014378226922517518 0.014255143051409021 0 0.014338040135878777 0.014407759121143329 0 0.015454026320545617 0.013228868090599602 0 0.015255700841376578 0.013434823950552168 0 0.015346829440283451 0.013293770910253216 0 0.014981014371530469 0.013666061111498862 0 0.01487277801181632 0.013851554748778278 0 0.014338040135878777 0.014407759121143329 0 0.01397489088347943 0.014885641083436199 0 0.014460504881101045 0.014486603797005709 0 0.014378226922517518 0.014255143051409021 0 0.014338040135878777 0.014407759121143329 0 0.014460504881101045 0.014486603797005709 0 0.01397489088347943 0.014885641083436199 0 0.014765286440657851 0.014902108153281409 0 0.014460504881101045 0.014486603797005709 0 0.013881128255968765 0.014922157345974995 0 0.014005766123241246 0.01504688558665314 0 0.014689097943548978 0.014552552242294518 0 0.01397489088347943 0.014885641083436199 0 0.013431604635165312 0.014999053155547476 0 0.014689097943548978 0.014552552242294518 0 0.014338040135878777 0.014407759121143329 0 0.01397489088347943 0.014885641083436199 0 0.01397489088347943 0.014885641083436199 0 0.013431604635165312 0.014999053155547476 0 0.01304580152865775 0.015221956195290303 0 0.013431604635165312 0.014999053155547476 0 0.012681829369826952 0.015070923768112938 0 0.01304580152865775 0.015221956195290303 0 0.013431604635165312 0.014999053155547476 0 0.012681829369826952 0.015070923768112938 0 0.011370863949711003 0.015000259497816186 0 0.012681829369826952 0.015070923768112938 0 0.01264408998093587 0.015221604771428959 0 0.01304580152865775 0.015221956195290303 0 0.01234664697887403 0.015334876899409829 0 0.013563372643747625 0.015029473628719496 0 0.013563372643747625 0.015029473628719496 0 0.014005766123241246 0.01504688558665314 0 0.015530239430772572 0.014930539438367828 0 0.014765286440657851 0.014902108153281409 0 0.015321534496911602 0.014002585450499712 0 0.012681829369826952 0.015070923768112938 0 0.012233887766418079 0.015548530119629157 0 0.011370863949711003 0.015000259497816186 0 0.011371302865225089 0.014999953041925473 0 0.01153028350153322 0.015437423158591888 0 0.011026619054213387 0.015353217024483305 0 0.012233887766418079 0.015548530119629157 0 0.011370863949711003 0.015000259497816186 0 0.011556979614777698 0.01545744635251645 0 0.011815150480423578 0.015231208084829697 0 0.010990803781314912 0.015342642429675766 0 0.011371498496480144 0.015000202284776576 0 0.011815150480423578 0.015231208084829697 0 0.013402314463376587 0.014901657639113159 0 0.013013934124752578 0.014844342073130028 0 0.01314595170035566 0.015167553129232564 0 0.013563372643747625 0.015029473628719496 0 0.011815150480423578 0.015231208084829697 0 0.013563372643747625 0.015029473628719496 0 0.01419840085086993 0.014691707208109105 0 0.01145605084882466 0.01540701381395046 0 0.011316061620973671 0.015736824032672979 0 0.011654699454800131 0.01588913899660041 0 0.011815150480423578 0.015231208084829697 0 0.01419840085086993 0.014691707208109105 0 0.01145605084882466 0.01540701381395046 0 0.011316061620973671 0.015736824032672979 0 0.011026619054213387 0.015353217024483305 0 0.015527968235048468 0.01326274082693484 0 0.015509516103070217 0.013510423049565515 0 0.015272556211553736 0.013462937965930019 0 0.011316061620973671 0.015736824032672979 0 0.011654699454800131 0.01588913899660041 0 0.011267508717714463 0.016277098872789646 0 0.01419840085086993 0.014691707208109105 0 0.013216289086193447 0.014920677549183473 0 0.015530239430772572 0.014930539438367828 0 0.016007294277004636 0.014322085019302416 0 0.015321534496911602 0.014002585450499712 0 0.016007294277004636 0.014322085019302416 0 0.01563432059893111 0.013608460644793664 0 0.015321534496911602 0.014002585450499712 0 0.01419840085086993 0.014691707208109105 0 0.015953231548142061 0.013380788530021977 0 0.015527968235048468 0.01326274082693484 0 0.01563432059893111 0.013608460644793664 0 0.015509516103070217 0.013510423049565515 0 0.01563432059893111 0.013608460644793664 0 0.01563645050650694 0.013614052744080306 0 0.015509516103070217 0.013510423049565515 0 0.015387075983818799 0.013623086734873941 0 0.015272556211553736 0.013462937965930019 0 0.014952157502935387 0.013752352558566572 0 0.015509516103070217 0.013510423049565515 0 0.015387075983818799 0.013623086734873941 0 0.015272556211553736 0.013462937965930019 0 0.01563645050650694 0.013614052744080306 0 0.015387075983818799 0.013623086734873941 0 0.015479931493853039 0.013863748375914689 0 0.01563645050650694 0.013614052744080306 0 0.015509516103070217 0.013510423049565515 0 0.015387075983818799 0.013623086734873941 0 0.014765286440657851 0.014902108153281409 0 0.014460504881101045 0.014486603797005709 0 0.015321534496911602 0.014002585450499712 0 0.01487277801181632 0.013851554748778278 0 0.015336563806695869 0.014002288388846254 0 0.014378226922517518 0.014255143051409021 0 0.014460504881101045 0.014486603797005709 0 0.015321534496911602 0.014002585450499712 0 0.01563432059893111 0.013608460644793664 0 0.015321534496911602 0.014002585450499712 0 0.015325114011822199 0.013569801354717624 0 0.015255700841376578 0.013434823950552168 0 0.015321534496911602 0.014002585450499712 0 0.015325114011822199 0.013569801354717624 0 0.015255700841376578 0.013434823950552168 0 0.015325114011822199 0.013569801354717624 0 0.015288323414358254 0.013411023114500481 0 0.015288323414358254 0.013411023114500481 0 0.015423021792326647 0.01336755446165027 0 0.015288869503503394 0.013312170633828415 0 0.015325114011822199 0.013569801354717624 0 0.015288323414358254 0.013411023114500481 0 0.015423021792326647 0.01336755446165027 0 0.01563432059893111 0.013608460644793664 0 0.015325114011822199 0.013569801354717624 0 0.015423021792326647 0.01336755446165027 0 0.016483689127124848 0.011273044180653396 0 0.016685962961384269 0.011125819622314632 0 0.016459635472289617 0.011005108487495269 0 0.016020698534676695 0.012287120151695502 0 0.015740731607135905 0.01226752305694454 0 0.016483689127124848 0.011273044180653396 0 0.016459635472289617 0.011005108487495269 0 0.016200915183977146 0.011195353251323982 0 0.015387075983818799 0.013623086734873941 0 0.015479931493853039 0.013863748375914689 0 0.014952157502935387 0.013752352558566572 0 0.015904385636229472 0.012730157387184297 0 0.012613938778816761 0.014869875698142129 0 0.01563645050650694 0.013614052744080306 0 0.015423021792326647 0.01336755446165027 0 0.015732744342049104 0.013477309161828774 0 0.016020698534676695 0.012287120151695502 0 0.015904385636229472 0.012730157387184297 0 0.01563432059893111 0.013608460644793664 0 0.01563645050650694 0.013614052744080306 0 0.015423021792326647 0.01336755446165027 0 0.015459453835459566 0.013750111674743295 0 0.015904385636229472 0.012730157387184297 0 0.016483689127124848 0.011273044180653396 0 0.016771439266782533 0.011363389338574965 0 0.016685962961384269 0.011125819622314632 0 0.015904385636229472 0.012730157387184297 0 0.015493623786393726 0.012493144214898238 0 0.016771439266782533 0.011363389338574965 0 0.016685962961384269 0.011125819622314632 0 0.016955798952779461 0.011102330821543868 0 0.016685962961384269 0.011125819622314632 0 0.016877406388274389 0.010904228768940642 0 0.016955798952779461 0.011102330821543868 0 0.016685962961384269 0.011125819622314632 0 0.016877406388274389 0.010904228768940642 0 0.016677095169027458 0.010919526583090075 0 0.016685962961384269 0.011125819622314632 0 0.016677095169027458 0.010919526583090075 0 0.016459635472289617 0.011005108487495269 0 0.016677095169027458 0.010919526583090075 0 0.01656539749760472 0.010761991223224415 0 0.016750420895952529 0.010524803255994735 0 0.016877406388274389 0.010904228768940642 0 0.016955077469298609 0.010690269972756626 0 0.016750420895952529 0.010524803255994735 0 0.016877406388274389 0.010904228768940642 0 0.016677095169027458 0.010919526583090075 0 0.016750420895952529 0.010524803255994735 0 0.016459635472289617 0.011005108487495269 0 0.016224944386913714 0.010941235265627833 0 0.016200915183977146 0.011195353251323982 0 0.016459635472289617 0.011005108487495269 0 0.016400295929828831 0.010769914328645715 0 0.016224944386913714 0.010941235265627833 0 0.016677095169027458 0.010919526583090075 0 0.016459635472289617 0.011005108487495269 0 0.01656539749760472 0.010761991223224415 0 0.016459635472289617 0.011005108487495269 0 0.01656539749760472 0.010761991223224415 0 0.016400295929828831 0.010769914328645715 0 0.01656539749760472 0.010761991223224415 0 0.016400295929828831 0.010769914328645715 0 0.01654217729640849 0.010582818170568978 0 0.016400295929828831 0.010769914328645715 0 0.016224944386913714 0.010941235265627833 0 0.016224536750951056 0.010699235325347372 0 0.016224944386913714 0.010941235265627833 0 0.016024517840172749 0.010811004279347553 0 0.016224536750951056 0.010699235325347372 0 0.016089414709185051 0.011018006024905568 0 0.016224944386913714 0.010941235265627833 0 0.016024517840172749 0.010811004279347553 0 0.016089414709185051 0.011018006024905568 0 0.016224944386913714 0.010941235265627833 0 0.016200915183977146 0.011195353251323982 0 0.016081242580993586 0.010984708009499201 0 0.015642109458656062 0.012150989215803338 0 0.016051840936298661 0.011405133217233758 0 0.015669157217141169 0.011741429194559809 0 0.015841740237597345 0.012178257780472913 0 0.016089414709185051 0.011018006024905568 0 0.016024517840172749 0.010811004279347553 0 0.01590685116080184 0.011126032139164166 0 0.016051840936298661 0.011405133217233758 0 0.015689431004295814 0.011429378917646203 0 0.015669157217141169 0.011741429194559809 0 0.015689431004295814 0.011429378917646203 0 0.015358762243725862 0.011623090324954656 0 0.015404345082132018 0.010988042555112289 0 0.015689431004295814 0.011429378917646203 0 0.015358762243725862 0.011623090324954656 0 0.015669157217141169 0.011741429194559809 0 0.014999958852821217 0.011250161452186149 0 0.015358762243725862 0.011623090324954656 0 0.014999955237496195 0.012041806687337255 0 0.014999958852821217 0.011250161452186149 0 0.015358762243725862 0.011623090324954656 0 0.015404345082132018 0.010988042555112289 0 0.015358762243725862 0.011623090324954656 0 0.014999955237496195 0.012041806687337255 0 0.015413411759870035 0.012078999428587431 0 0.01500004015939323 0.012042072474809592 0 0.015399696661751538 0.012184592976108107 0 0.015413411759870035 0.012078999428587431 0 0.015669157217141169 0.011741429194559809 0 0.015841740237597345 0.012178257780472913 0 0.015358762243725862 0.011623090324954656 0 0.015413411759870035 0.012078999428587431 0 0.015669157217141169 0.011741429194559809 0 0.015399696661751538 0.012184592976108107 0 0.015642109458656062 0.012150989215803338 0 0.015439585352824725 0.013288613343548802 0 0.015642109458656062 0.012150989215803338 0 0.015276828426656628 0.012712171157096256 0 0.015492151399599868 0.013055135738534741 0 0.015754908030304413 0.012448409731908002 0 0.015346090659520074 0.012290365548965378 0 0.015276828426656628 0.012712171157096256 0 0.015754908030304413 0.012448409731908002 0 0.015346090659520074 0.012290365548965378 0 0.015276828426656628 0.012712171157096256 0 0.014999829001597622 0.012576612148395491 0 0.014999995645635927 0.012042181703913803 0 0.015346090659520074 0.012290365548965378 0 0.014999829001597622 0.012576612148395491 0 0.015276828426656628 0.012712171157096256 0 0.014999829001597622 0.012576612148395491 0 0.015000105279737134 0.013110550894314878 0 0.015276828426656628 0.012712171157096256 0 0.015000105279737134 0.013110550894314878 0 0.015492151399599868 0.013055135738534741 0 0.015454026320545617 0.013228868090599602 0 0.015000105279737134 0.013110550894314878 0 0.015492151399599868 0.013055135738534741 0 0.015492151399599868 0.013055135738534741 0 0.015371138166523524 0.013250048222348232 0 0.015346829440283451 0.013293770910253216 0 0.015454026320545617 0.013228868090599602 0 0.015492151399599868 0.013055135738534741 0 0.015346829440283451 0.013293770910253216 0 0.015288323414358254 0.013411023114500481 0 0.015346829440283451 0.013293770910253216 0 0.015288869503503394 0.013312170633828415 0 0.015371138166523524 0.013250048222348232 0 0.015346829440283451 0.013293770910253216 0 0.015288869503503394 0.013312170633828415 0 0.015371138166523524 0.013250048222348232 0 0.015288869503503394 0.013312170633828415 0 0.015433597853780437 0.013324098016592345 0 0.015740731607135905 0.01226752305694454 0 0.015642109458656062 0.012150989215803338 0 0.016089414709185051 0.011018006024905568 0 0.016200915183977146 0.011195353251323982 0 0.01590685116080184 0.011126032139164166 0 0.015492151399599868 0.013055135738534741 0 0.015371138166523524 0.013250048222348232 0 0.015433597853780437 0.013324098016592345 0 0.0073751678340857043 0.015698137021528669 0 0.0072995011198696029 0.015959770303080999 0 0.0071754584020903827 0.015721777846502381 0 0.0075487123173896362 0.015914346753934407 0 0.0073751678340857043 0.015698137021528669 0 0.0072995011198696029 0.015959770303080999 0 0.0084675244722333832 0.016358385515596565 0 0.0084729729241712227 0.016044496636483902 0 0.0079768986358830507 0.016041703211869523 0 0.0078692656446497297 0.016092813200428494 0 0.0076934255541457374 0.015874552255472081 0 0.0084729729241712227 0.016044496636483902 0 0.0081254884697689825 0.015555098219253707 0 0.0087154549685689049 0.015735086543993332 0 0.0084729729241712227 0.016044496636483902 0 0.0079768986358830507 0.016041703211869523 0 0.0081254884697689825 0.015555098219253707 0 0.0076934255541457374 0.015874552255472081 0 0.0073026087986851262 0.015501874386976242 0 0.0079768986358830507 0.016041703211869523 0 0.0081254884697689825 0.015555098219253707 0 0.0074396989659465049 0.015597225175087321 0 0.0077259103687224483 0.015338595613194327 0 0.0081254884697689825 0.015555098219253707 0 0.0074396989659465049 0.015597225175087321 0 0.0077259103687224483 0.015338595613194327 0 0.0075019783177867868 0.014999921250524999 0 0.0082758862613062679 0.014999975046761021 0 0.0077259103687224483 0.015338595613194327 0 0.0075019783177867868 0.014999921250524999 0 0.0073961693192182067 0.015248418563930397 0 0.0077259103687224483 0.015338595613194327 0 0.0082758862613062679 0.014999975046761021 0 0.0081254884697689825 0.015555098219253707 0 0.0082758862613062679 0.014999975046761021 0 0.0081254884697689825 0.015555098219253707 0 0.008659828961781595 0.015338955344329577 0 0.0081254884697689825 0.015555098219253707 0 0.0087154549685689049 0.015735086543993332 0 0.008659828961781595 0.015338955344329577 0 0.0087154549685689049 0.015735086543993332 0 0.008659828961781595 0.015338955344329577 0 0.0091197753862505716 0.01548707465006381 0 0.0082758862613062679 0.014999975046761021 0 0.008659828961781595 0.015338955344329577 0 0.0090496823644336168 0.014999963160409914 0 0.008659828961781595 0.015338955344329577 0 0.0090496823644336168 0.014999963160409914 0 0.0091197753862505716 0.01548707465006381 0 0.0090496823644336168 0.014999963160409914 0 0.0091197753862505716 0.01548707465006381 0 0.0098235445167009407 0.014999945917417802 0 0.0087154549685689049 0.015735086543993332 0 0.0091197753862505716 0.01548707465006381 0 0.0090586420211308145 0.016001314439233749 0 0.0091197753862505716 0.01548707465006381 0 0.0090586420211308145 0.016001314439233749 0 0.0096229405561423231 0.015633039073914754 0 0.0084729729241712227 0.016044496636483902 0 0.0087154549685689049 0.015735086543993332 0 0.0090586420211308145 0.016001314439233749 0 0.0084729729241712227 0.016044496636483902 0 0.0090586420211308145 0.016001314439233749 0 0.0089018939545525005 0.01630073804433119 0 0.0084675244722333832 0.016358385515596565 0 0.0084729729241712227 0.016044496636483902 0 0.0089018939545525005 0.01630073804433119 0 0.0090586420211308145 0.016001314439233749 0 0.0089018939545525005 0.01630073804433119 0 0.0091748668071596103 0.016276378957044927 0 0.0091748668071596103 0.016276378957044927 0 0.0094093360663789066 0.016126385247037564 0 0.0091671706534533336 0.016360907003118614 0 0.0090586420211308145 0.016001314439233749 0 0.0091748668071596103 0.016276378957044927 0 0.0094093360663789066 0.016126385247037564 0 0.0095878621121512943 0.016152681491341914 0 0.0095231717618875934 0.016669686169604604 0 0.0097775650123261872 0.016277992573616354 0 0.01016895280524208 0.016519077676864453 0 0.010136600727825193 0.016041459563962007 0 0.01016895280524208 0.016519077676864453 0 0.010136600727825193 0.016041459563962007 0 0.010451502233524149 0.016291806721662118 0 0.0097775650123261872 0.016277992573616354 0 0.01016895280524208 0.016519077676864453 0 0.0098650934348730648 0.016842415044387122 0 0.0090586420211308145 0.016001314439233749 0 0.0094093360663789066 0.016126385247037564 0 0.0096229405561423231 0.015633039073914754 0 0.0097775650123261872 0.016277992573616354 0 0.010136600727825193 0.016041459563962007 0 0.0096229405561423231 0.015633039073914754 0 0.0095878621121512943 0.016152681491341914 0 0.0096143734285203553 0.015661554772424927 0 0.0091197753862505716 0.01548707465006381 0 0.0096229405561423231 0.015633039073914754 0 0.0098235445167009407 0.014999945917417802 0 0.0096229405561423231 0.015633039073914754 0 0.0098235445167009407 0.014999945917417802 0 0.010231637566998577 0.015508327761545182 0 0.0098235445167009407 0.014999945917417802 0 0.010231637566998577 0.015508327761545182 0 0.010597504143422606 0.01499997636666512 0 0.010136600727825193 0.016041459563962007 0 0.010231637566998577 0.015508327761545182 0 0.010534195606343355 0.015923221321402371 0 0.010136600727825193 0.016041459563962007 0 0.0096229405561423231 0.015633039073914754 0 0.010231637566998577 0.015508327761545182 0 0.010231637566998577 0.015508327761545182 0 0.010672292367546344 0.015531957814538958 0 0.010534195606343355 0.015923221321402371 0 0.010672292367546344 0.015531957814538958 0 0.010956734556088078 0.015858183357489508 0 0.010534195606343355 0.015923221321402371 0 0.010672292367546344 0.015531957814538958 0 0.010597504143422606 0.01499997636666512 0 0.011026619054213387 0.015353217024483305 0 0.010231637566998577 0.015508327761545182 0 0.010672292367546344 0.015531957814538958 0 0.010597504143422606 0.01499997636666512 0 0.011371302865225089 0.014999953041925473 0 0.010597504143422606 0.01499997636666512 0 0.011026619054213387 0.015353217024483305 0 0.011316061620973671 0.015736824032672979 0 0.011026619054213387 0.015353217024483305 0 0.010956734556088078 0.015858183357489508 0 0.010672292367546344 0.015531957814538958 0 0.011026619054213387 0.015353217024483305 0 0.010956734556088078 0.015858183357489508 0 0.011267508717714463 0.016277098872789646 0 0.010956734556088078 0.015858183357489508 0 0.010831290607176448 0.016259205952190769 0 0.011316061620973671 0.015736824032672979 0 0.011267508717714463 0.016277098872789646 0 0.010956734556088078 0.015858183357489508 0 0.010956734556088078 0.015858183357489