<?xml version="1.0"?>
<VTKFile type="UnstructuredGrid" version="0.1" byte_order="LittleEndian">
<UnstructuredGrid>
<Piece NumberOfPoints="30578" NumberOfCells="10723">
<Points>
<DataArray type="Float64" NumberOfComponents="3" format="ascii">
-0.5 -0.5 0 -0.47439485679867832 -0.48072581506667478 0 -0.5 -0.44765434486020428 0 -0.5 -0.5 0 -0.47439485679867832 -0.48072581506667478 0 -0.43702443379937372 -0.49999999999999922 0 -0.47439485679867832 -0.48072581506667478 0 -0.45530669598391149 -0.47718009944797551 0 -0.43702443379937372 -0.49999999999999922 0 -0.47439485679867832 -0.48072581506667478 0 -0.45530669598391149 -0.47718009944797551 0 -0.4597353119515426 -0.45943449384344293 0 -0.45530669598391149 -0.47718009944797551 0 -0.44381084376742141 -0.47114793899167112 0 -0.4597353119515426 -0.45943449384344293 0 -0.45530669598391149 -0.47718009944797551 0 -0.44381084376742141 -0.47114793899167112 0 -0.43702443379937372 -0.49999999999999922 0 -0.44381084376742141 -0.47114793899167112 0 -0.43702443379937372 -0.49999999999999922 0 -0.45059725373546922 -0.44229587798334291 0 -0.4339166039271336 -0.43498117536117131 0 -0.43309128002320102 -0.45351235807576151 0 -0.44381084376742141 -0.47114793899167112 0 -0.45059725373546922 -0.44229587798334291 0 -0.4597353119515426 -0.45943449384344293 0 -0.44381084376742141 -0.47114793899167112 0 -0.45059725373546922 -0.44229587798334291 0 -0.43309128002320102 -0.45351235807576151 0 -0.44381084376742141 -0.47114793899167112 0 -0.45059725373546922 -0.44229587798334291 0 -0.4597353119515426 -0.45943449384344293 0 -0.47505511338101108 -0.44868394208069429 0 -0.46517432262153441 -0.43649963461163338 0 -0.45059725373546922 -0.44229587798334291 0 -0.4597353119515426 -0.45943449384344293 0 -0.46517432262153441 -0.43649963461163338 0 -0.47505511338101108 -0.44868394208069429 0 -0.47820614292347569 -0.42776699273468149 0 -0.46517432262153441 -0.43649963461163338 0 -0.47505511338101108 -0.44868394208069429 0 -0.47820614292347569 -0.42776699273468149 0 -0.47439485679867832 -0.48072581506667478 0 -0.47505511338101108 -0.44868394208069429 0 -0.5 -0.44765434486020428 0 -0.47439485679867832 -0.48072581506667478 0 -0.4597353119515426 -0.45943449384344293 0 -0.47505511338101108 -0.44868394208069429 0 -0.47505511338101108 -0.44868394208069429 0 -0.5 -0.44765434486020428 0 -0.47820614292347569 -0.42776699273468149 0 -0.5 -0.44765434486020428 0 -0.49656450065014057 -0.42151023988558672 0 -0.47820614292347569 -0.42776699273468149 0 -0.5 -0.44765434486020428 0 -0.49656450065014057 -0.42151023988558672 0 -0.50000000000000089 -0.37904661106745707 0 -0.49656450065014057 -0.42151023988558672 0 -0.48135717246594062 -0.40685004338866881 0 -0.47820614292347569 -0.42776699273468149 0 -0.49656450065014057 -0.42151023988558672 0 -0.48135717246594062 -0.40685004338866881 0 -0.48135717246594062 -0.40685004338866881 0 -0.47820614292347569 -0.42776699273468149 0 -0.48135717246594062 -0.40685004338866881 0 -0.47820614292347569 -0.42776699273468149 0 -0.45738366370351707 -0.41344381697501481 0 -0.49656450065014057 -0.42151023988558672 0 -0.48135717246594062 -0.40685004338866881 0 -0.50000000000000089 -0.37904661106745707 0 -0.50000000000000089 -0.37904661106745707 0 -0.48466894952205442 -0.38486603086372417 0 -0.48717439863114548 -0.36823452950912272 0 -0.48135717246594062 -0.40685004338866881 0 -0.50000000000000089 -0.37904661106745707 0 -0.48466894952205442 -0.38486603086372417 0 -0.48466894952205442 -0.38486603086372417 0 -0.48717439863114548 -0.36823452950912272 0 -0.50000000000000089 -0.37904661106745707 0 -0.48466894952205442 -0.38486603086372417 0 -0.48135717246594062 -0.40685004338866881 0 -0.48466894952205442 -0.38486603086372417 0 -0.46593083509403682 -0.39197871725165279 0 -0.48135717246594062 -0.40685004338866881 0 -0.48466894952205442 -0.38486603086372417 0 -0.48135717246594062 -0.40685004338866881 0 -0.46593083509403682 -0.39197871725165279 0 -0.48466894952205442 -0.38486603086372417 0 -0.47195833844942919 -0.37959069520904498 0 -0.46593083509403682 -0.39197871725165279 0 -0.48466894952205442 -0.38486603086372417 0 -0.46593083509403682 -0.39197871725165279 0 -0.48466894952205442 -0.38486603086372417 0 -0.47195833844942919 -0.37959069520904498 0 -0.48717439863114548 -0.36823452950912272 0 -0.46593083509403682 -0.39197871725165279 0 -0.44890944387521442 -0.39029302340116001 0 -0.45132291774153199 -0.37789636588759368 0 -0.47195833844942919 -0.37959069520904498 0 -0.46593083509403682 -0.39197871725165279 0 -0.45132291774153199 -0.37789636588759368 0 -0.46593083509403682 -0.39197871725165279 0 -0.45132291774153199 -0.37789636588759368 0 -0.48135717246594062 -0.40685004338866881 0 -0.46593083509403682 -0.39197871725165279 0 -0.45738366370351707 -0.41344381697501481 0 -0.46593083509403682 -0.39197871725165279 0 -0.44275815558040038 -0.40077469311046232 0 -0.45738366370351707 -0.41344381697501481 0 -0.46593083509403682 -0.39197871725165279 0 -0.44275815558040038 -0.40077469311046232 0 -0.46593083509403682 -0.39197871725165279 0 -0.44275815558040038 -0.40077469311046232 0 -0.44890944387521442 -0.39029302340116001 0 -0.44275815558040038 -0.40077469311046232 0 -0.44064580868350911 -0.39542861624611658 0 -0.44890944387521442 -0.39029302340116001 0 -0.44225344557501872 -0.38376649822575309 0 -0.45132291774153199 -0.37789636588759368 0 -0.43671500038902772 -0.36381401452353412 0 -0.44890944387521442 -0.39029302340116001 0 -0.44225344557501872 -0.38376649822575309 0 -0.45132291774153199 -0.37789636588759368 0 -0.44064580868350911 -0.39542861624611658 0 -0.44225344557501872 -0.38376649822575309 0 -0.43040194378266172 -0.3881600185019185 0 -0.44064580868350911 -0.39542861624611658 0 -0.44890944387521442 -0.39029302340116001 0 -0.44225344557501872 -0.38376649822575309 0 -0.47820614292347569 -0.42776699273468149 0 -0.46517432262153441 -0.43649963461163338 0 -0.45738366370351707 -0.41344381697501481 0 -0.45059725373546922 -0.44229587798334291 0 -0.45738366370351707 -0.41344381697501481 0 -0.45059725373546922 -0.44229587798334291 0 -0.46517432262153441 -0.43649963461163338 0 -0.45738366370351707 -0.41344381697501481 0 -0.44275815558040038 -0.40077469311046232 0 -0.45738366370351707 -0.41344381697501481 0 -0.44164244492799948 -0.42121090558557039 0 -0.45059725373546922 -0.44229587798334291 0 -0.45738366370351707 -0.41344381697501481 0 -0.44164244492799948 -0.42121090558557039 0 -0.45059725373546922 -0.44229587798334291 0 -0.44164244492799948 -0.42121090558557039 0 -0.4339166039271336 -0.43498117536117131 0 -0.4339166039271336 -0.43498117536117131 0 -0.42355654769347711 -0.414558964497861 0 -0.41671115160429401 -0.44095791049380378 0 -0.44164244492799948 -0.42121090558557039 0 -0.4339166039271336 -0.43498117536117131 0 -0.42355654769347711 -0.414558964497861 0 -0.44275815558040038 -0.40077469311046232 0 -0.44164244492799948 -0.42121090558557039 0 -0.42355654769347711 -0.414558964497861 0 -0.42355654769347711 -0.414558964497861 0 -0.41056920252370888 -0.3963363404412637 0 -0.40050668374064252 -0.41734442193795029 0 -0.42355654769347711 -0.414558964497861 0 -0.41671115160429401 -0.44095791049380378 0 -0.42355654769347711 -0.414558964497861 0 -0.40050668374064252 -0.41734442193795029 0 -0.41671115160429401 -0.44095791049380378 0 -0.44225344557501872 -0.38376649822575309 0 -0.43040194378266172 -0.3881600185019185 0 -0.43671500038902772 -0.36381401452353412 0 -0.43040194378266172 -0.3881600185019185 0 -0.43671500038902772 -0.36381401452353412 0 -0.44064580868350911 -0.39542861624611658 0 -0.42355654769347711 -0.414558964497861 0 -0.43040194378266172 -0.3881600185019185 0 -0.42355654769347711 -0.414558964497861 0 -0.43040194378266172 -0.3881600185019185 0 -0.44275815558040038 -0.40077469311046232 0 -0.44064580868350911 -0.39542861624611658 0 -0.42355654769347711 -0.414558964497861 0 -0.44064580868350911 -0.39542861624611658 0 -0.43040194378266172 -0.3881600185019185 0 -0.42355654769347711 -0.414558964497861 0 -0.43040194378266172 -0.3881600185019185 0 -0.41056920252370888 -0.3963363404412637 0 -0.43040194378266172 -0.3881600185019185 0 -0.4079689369259607 -0.37224253963894771 0 -0.43040194378266172 -0.3881600185019185 0 -0.41056920252370888 -0.3963363404412637 0 -0.4079689369259607 -0.37224253963894771 0 -0.41056920252370888 -0.3963363404412637 0 -0.39195929229331972 -0.37982250283040359 0 -0.4079689369259607 -0.37224253963894771 0 -0.41056920252370888 -0.3963363404412637 0 -0.39195929229331972 -0.37982250283040359 0 -0.39357845321732049 -0.39746174547711199 0 -0.41056920252370888 -0.3963363404412637 0 -0.39357845321732049 -0.39746174547711199 0 -0.40050668374064252 -0.41734442193795029 0 -0.39357845321732049 -0.39746174547711199 0 -0.38114412328536468 -0.40833987260765031 0 -0.36544727141479139 -0.39026932065168712 0 -0.39195929229331972 -0.37982250283040359 0 -0.37549160074202448 -0.3732971907138336 0 -0.36544727141479139 -0.39026932065168712 0 -0.39195929229331972 -0.37982250283040359 0 -0.39357845321732049 -0.39746174547711199 0 -0.36544727141479139 -0.39026932065168712 0 -0.40050668374064252 -0.41734442193795029 0 -0.3944977858259317 -0.43926335073686201 0 -0.41671115160429401 -0.44095791049380378 0 -0.40050668374064252 -0.41734442193795029 0 -0.38028594703985957 -0.42392304976487449 0 -0.3944977858259317 -0.43926335073686201 0 -0.39357845321732049 -0.39746174547711199 0 -0.40050668374064252 -0.41734442193795029 0 -0.38114412328536468 -0.40833987260765031 0 -0.40050668374064252 -0.41734442193795029 0 -0.38114412328536468 -0.40833987260765031 0 -0.38028594703985957 -0.42392304976487449 0 -0.38114412328536468 -0.40833987260765031 0 -0.38028594703985957 -0.42392304976487449 0 -0.36590226101420908 -0.41270082520662749 0 -0.38028594703985957 -0.42392304976487449 0 -0.3944977858259317 -0.43926335073686201 0 -0.3723601590800425 -0.44005613486137668 0 -0.3944977858259317 -0.43926335073686201 0 -0.38265619596279349 -0.45813348326120767 0 -0.3723601590800425 -0.44005613486137668 0 -0.40093272222703252 -0.45142790024540502 0 -0.3944977858
[...]
<PointData Scalars="" Vectors="displacement," Tensors="">
<DataArray type="Float64" Name="displacement" NumberOfComponents="3" format="ascii">
-7.305564396231182e-07 -0.044997248282757356 0 -0.00027694981405505684 -0.044025536602690721 0 3.1738686453432502e-07 -0.040291206588260013 0 -7.305564396231182e-07 -0.044997248282757356 0 -0.00027694981405505684 -0.044025536602690721 0 -4.119331019895891e-07 -0.044998019861771196 0 -0.00027694981405505684 -0.044025536602690721 0 -0.00018584812518798854 -0.044196314032234063 0 -4.119331019895891e-07 -0.044998019861771196 0 -0.00027694981405505684 -0.044025536602690721 0 -0.00018584812518798854 -0.044196314032234063 0 -6.0921998279857001e-06 -0.043557148192855465 0 -0.00018584812518798854 -0.044196314032234063 0 -0.00017757321227912856 -0.044267341240560039 0 -6.0921998279857001e-06 -0.043557148192855465 0 -0.00018584812518798854 -0.044196314032234063 0 -0.00017757321227912856 -0.044267341240560039 0 -4.119331019895891e-07 -0.044998019861771196 0 1.7683502173036664e-05 -0.044376165434060248 0 -9.4643694192729971e-08 -0.044999793937792451 0 0.0009036782413981803 -0.043869014671376556 0 0.0011582449631816019 -0.044374134428791956 0 0.00060854975476708401 -0.044522656926549213 0 -0.00017757321227912856 -0.044267341240560039 0 0.00062267730552980098 -0.043730162238014403 0 -6.0921998279857001e-06 -0.043557148192855465 0 0.00020040226089772174 -0.044453198425591055 0 0.0009036782413981803 -0.043869014671376556 0 0.00060854975476708401 -0.044522656926549213 0 1.7683502173036664e-05 -0.044376165434060248 0 0.00079078498768892413 -0.043799082231839578 0 -6.0921998279857001e-06 -0.043557148192855465 0 0.0001896318635573664 -0.042180016588935151 0 0.00089203944574953284 -0.042953568415053482 0 0.00062267730552980098 -0.043730162238014403 0 -6.0921998279857001e-06 -0.043557148192855465 0 0.00089203944574953284 -0.042953568415053482 0 0.0001896318635573664 -0.042180016588935151 0 0.0013157476601672565 -0.042294607533217163 0 0.00089203944574953284 -0.042953568415053482 0 1.4478492904147022e-05 -0.041991702596266618 0 0.0008190871086381572 -0.041570631242807167 0 -0.00027694981405505684 -0.044025536602690721 0 0.0001896318635573664 -0.042180016588935151 0 3.1738686453432502e-07 -0.040291206588260013 0 -0.00027694981405505684 -0.044025536602690721 0 -6.0921998279857001e-06 -0.043557148192855465 0 0.0001896318635573664 -0.042180016588935151 0 0.0001896318635573664 -0.042180016588935151 0 3.1738686453432502e-07 -0.040291206588260013 0 0.00010871128846994171 -0.040422145850592055 0 3.1738686453432502e-07 -0.040291206588260013 0 8.1683933692182852e-05 -0.038081732344616294 0 0.00010871128846994171 -0.040422145850592055 0 3.1738686453432502e-07 -0.040291206588260013 0 8.1683933692182852e-05 -0.038081732344616294 0 1.1318689193524211e-06 -0.034117084739162556 0 8.1683933692182852e-05 -0.038081732344616294 0 0.0020998476178745798 -0.039928373735139293 0 0.00010871128846994171 -0.040422145850592055 0 6.2038225789063542e-06 -0.037738165792204008 0 0.0012995134699553615 -0.039047101024746331 0 0.0012995134699553615 -0.039047101024746331 0 0.0008190871086381572 -0.041570631242807167 0 0.0022210451238838871 -0.042188610067831506 0 0.0013157476601672565 -0.042294607533217163 0 0.0019417611016215438 -0.043310463133301016 0 8.1683933692182852e-05 -0.038081732344616294 0 -6.254423658029007e-05 -0.036565957635557464 0 1.1318689193524211e-06 -0.034117084739162556 0 3.1267689873680885e-06 -0.034110201413498221 0 0.0011323154134012634 -0.032095211418097652 0 2.9980544995887836e-05 -0.031836103605371431 0 -6.254423658029007e-05 -0.036565957635557464 0 1.1318689193524211e-06 -0.034117084739162556 0 0.00020285480078561686 -0.035425595894227419 0 0.0010092426739286581 -0.033625613260506955 0 0.00023705512522809031 -0.031900528130700198 0 2.6713396833276285e-07 -0.034114400345815081 0 0.0010092426739286581 -0.033625613260506955 0 0.00093124440294829996 -0.036851781832988602 0 0.0019380610479517444 -0.036677751437477805 0 0.0016146413070265366 -0.037555367014284462 0 0.0012995134699553615 -0.039047101024746331 0 0.0010092426739286581 -0.033625613260506955 0 0.0012995134699553615 -0.039047101024746331 0 0.0020076483435699306 -0.038392749696604389 0 0.0010913045591041733 -0.031601938282462841 0 0.0007798940861919589 -0.030815763146946899 0 0.001377243342567034 -0.030568605760147697 0 0.0010092426739286581 -0.033625613260506955 0 0.0020076483435699306 -0.038392749696604389 0 0.0010913045591041733 -0.031601938282462841 0 0.0007798940861919589 -0.030815763146946899 0 2.9980544995887836e-05 -0.031836103605371431 0 0.0025574314178657188 -0.043285106835920316 0 0.0026060196808051529 -0.043675407394326543 0 0.0027686326058434072 -0.043616376214242747 0 0.0007798940861919589 -0.030815763146946899 0 0.001377243342567034 -0.030568605760147697 0 0.00059875870348850228 -0.029968438547941862 0 0.0020076483435699306 -0.038392749696604389 0 0.0017277352347901029 -0.036775468052356479 0 0.0022210451238838871 -0.042188610067831506 0 0.0028328860769838396 -0.042894479509139855 0 0.0019417611016215438 -0.043310463133301016 0 0.0028328860769838396 -0.042894479509139855 0 0.002403984597347857 -0.043848723230568903 0 0.0019417611016215438 -0.043310463133301016 0 0.0020076483435699306 -0.038392749696604389 0 0.0022592441420341233 -0.045569927281044385 0 0.0025574314178657188 -0.043285106835920316 0 0.002403984597347857 -0.043848723230568903 0 0.0026060196808051529 -0.043675407394326543 0 0.002403984597347857 -0.043848723230568903 0 0.002561511016874035 -0.043876639981997576 0 0.0026060196808051529 -0.043675407394326543 0 0.0026905651843566044 -0.043755459265240035 0 0.0027686326058434072 -0.043616376214242747 0 0.0028536887760770998 -0.043724752518268135 0 0.0026060196808051529 -0.043675407394326543 0 0.0026905651843566044 -0.043755459265240035 0 0.0027686326058434072 -0.043616376214242747 0 0.002561511016874035 -0.043876639981997576 0 0.0026905651843566044 -0.043755459265240035 0 0.0026434786451517631 -0.0438692610539387 0 0.002561511016874035 -0.043876639981997576 0 0.0026060196808051529 -0.043675407394326543 0 0.0026905651843566044 -0.043755459265240035 0 0.0013157476601672565 -0.042294607533217163 0 0.00089203944574953284 -0.042953568415053482 0 0.0019417611016215438 -0.043310463133301016 0 0.00079078498768892413 -0.043799082231839578 0 0.001898349863835801 -0.043349895406814089 0 0.00062267730552980098 -0.043730162238014403 0 0.00089203944574953284 -0.042953568415053482 0 0.0019417611016215438 -0.043310463133301016 0 0.002403984597347857 -0.043848723230568903 0 0.0019417611016215438 -0.043310463133301016 0 0.001642348863460405 -0.044008923566676329 0 0.0009036782413981803 -0.043869014671376556 0 0.0019417611016215438 -0.043310463133301016 0 0.001642348863460405 -0.044008923566676329 0 0.0009036782413981803 -0.043869014671376556 0 0.001642348863460405 -0.044008923566676329 0 0.0011582449631816019 -0.044374134428791956 0 0.0011582449631816019 -0.044374134428791956 0 0.0018658245115271018 -0.044646371641779405 0 0.00095463312321520668 -0.04494798178444126 0 0.001642348863460405 -0.044008923566676329 0 0.0011582449631816019 -0.044374134428791956 0 0.0018658245115271018 -0.044646371641779405 0 0.002403984597347857 -0.043848723230568903 0 0.001642348863460405 -0.044008923566676329 0 0.0018658245115271018 -0.044646371641779405 0 -0.00014270441224925435 -0.042474854238059669 0 7.4494547564637457e-06 -0.042579518604073809 0 -0.00017208183115049514 -0.042691494187693323 0 0.00073165701608745237 -0.043813135907238815 0 0.00027100064606466333 -0.043655052097622701 0 -0.00014270441224925435 -0.042474854238059669 0 -0.00017208183115049514 -0.042691494187693323 0 -0.00040853346204833946 -0.04254401234667031 0 0.0026905651843566044 -0.043755459265240035 0 0.0026434786451517631 -0.0438692610539387 0 0.0028536887760770998 -0.043724752518268135 0 0.0018658239294874557 -0.041546523088736131 0 0.00077989583449731626 -0.035915926777753758 0 0.002561511016874035 -0.043876639981997576 0 0.0018658245115271018 -0.044646371641779405 0 0.0028456971479028648 -0.044274281793785633 0 0.00073165701608745237 -0.043813135907238815 0 0.0018658239294874557 -0.041546523088736131 0 0.002403984597347857 -0.043848723230568903 0 0.002561511016874035 -0.043876639981997576 0 0.0018658245115271018 -0.044646371641779405 0 0.003055860088260432 -0.044245361018771516 0 0.0018658239294874557 -0.041546523088736131 0 -0.00014270441224925435 -0.042474854238059669 0 8.3079631351868187e-05 -0.042409841687265692 0 7.4494547564637457e-06 -0.042579518604073809 0 0.0018658239294874557 -0.041546523088736131 0 0.00069921994309595685 -0.039116269866481486 0 8.3079631351868187e-05 -0.042409841687265692 0 7.4494547564637457e-06 -0.042579518604073809 0 0.00018272244746941701 -0.042572018409826863 0 7.4494547564637457e-06 -0.042579518604073809 0 0.00012053438422100543 -0.04270882487701206 0 0.00018272244746941701 -0.042572018409826863 0 7.4494547564637457e-06 -0.042579518604073809 0 0.00012053438422100543 -0.04270882487701206 0 -9.4590440946550771e-06 -0.042730111412450228 0 7.4494547564637457e-06 -0.042579518604073809 0 -9.4590440946550771e-06 -0.042730111412450228 0 -0.00017208183115049514 -0.042691494187693323 0 -9.4590440946550771e-06 -0.042730111412450228 0 -9.63557310738431e-05 -0.042862875070007911 0 1.3161857644403424e-05 -0.042927943738010295 0 0.00012053438422100543 -0.04270882487701206 0 0.00016446838851117736 -0.04283096749264733 0 1.3161857644403424e-05 -0.042927943738010295 0 0.00012053438422100543 -0.04270882487701206 0 -9.4590440946550771e-06 -0.042730111412450228 0 1.3161857644403424e-05 -0.042927943738010295 0 -0.00017208183115049514 -0.042691494187693323 0 -0.00039226046237977972 -0.042767638309398871 0 -0.00040853346204833946 -0.04254401234667031 0 -0.00017208183115049514 -0.042691494187693323 0 -0.00022668925406540893 -0.042910358386558899 0 -0.00039226046237977972 -0.042767638309398871 0 -9.4590440946550771e-06 -0.042730111412450228 0 -0.00017208183115049514 -0.042691494187693323 0 -9.63557310738431e-05 -0.042862875070007911 0 -0.00017208183115049514 -0.042691494187693323 0 -9.63557310738431e-05 -0.042862875070007911 0 -0.00022668925406540893 -0.042910358386558899 0 -9.63557310738431e-05 -0.042862875070007911 0 -0.00022668925406540893 -0.042910358386558899 0 -0.00013235295425403619 -0.043017792852816886 0 -0.00022668925406540893 -0.042910358386558899 0 -0.00039226046237977972 -0.042767638309398871 0 -0.00038610692431085051 -0.043047768952914602 0 -0.00039226046237977972 -0.042767638309398871 0 -0.00062937954629307892 -0.042907387386580634 0 -0.00038610692431085051 -0.043047768952914602 0 -0.00052974597189377832 -0.042707757533835086 0 -0.00039226046237977972 -0.042767638309398871 0 -0.00062937954629307892 -0.042907387386580634 0 -0.00052974597189377832 -0.042707757533835086 0 -0.00039226046237977972 -0.042767638309398871 0 -0.00040853346204833946 -0.04254401234667031 0 -0.00057674178726495318 -0.04367461513354054 0 1.2932279101037914e-05 -0.044311066752251105 0 -0.00040216882483084615 -0.044685401178337629 0 -3.5104631072356815e-05 -0.044920897183804813 0 -0.00013051160529077091 -0.045149504042594935 0 -0.00052974597189377832 -0.042707757533835086 0 -0.00062937954629307892 -0.042907387386580634 0 -0.00069159151294321782 -0.042624723723248013 0 -0.00040216882483084615 -0.044685401178337629 0 1.0073955912986604e-05 -0.044771375774436468 0 -3.5104631072356815e-05 -0.044920897183804813 0 1.0073955912986604e-05 -0.044771375774436468 0 1.4079179010955668e-05 -0.044921272376291524 0 -1.9530341625603475e-05 -0.044949984714157419 0 1.0073955912986604e-05 -0.044771375774436468 0 1.4079179010955668e-05 -0.044921272376291524 0 -3.5104631072356815e-05 -0.044920897183804813 0 -4.8819653446864548e-08 -0.044999860239336088 0 1.4079179010955668e-05 -0.044921272376291524 0 1.2032094376543264e-07 -0.044999919971175216 0 -4.8819653446864548e-08 -0.044999860239336088 0 1.4079179010955668e-05 -0.044921272376291524 0 -1.9530341625603475e-05 -0.044949984714157419 0 1.4079179010955668e-05 -0.044921272376291524 0 1.2032094376543264e-07 -0.044999919971175216 0 1.7631133338888695e-05 -0.045016712290994632 0 4.2455198568496323e-08 -0.045000003947715035 0 9.6258899366056264e-06 -0.045020770478780239 0 1.7631133338888695e-05 -0.045016712290994632 0 -3.5104631072356815e-05 -0.044920897183804813 0 -0.00013051160529077091 -0.045149504042594935 0 1.4079179010955668e-05 -0.044921272376291524 0 1.7631133338888695e-05 -0.045016712290994632 0 -3.5104631072356815e-05 -0.044920897183804813 0 9.6258899366056264e-06 -0.045020770478780239 0 1.2932279101037914e-05 -0.044311066752251105 0 0.00026274844625638578 -0.045061947803406263 0 1.2932279101037914e-05 -0.044311066752251105 0 6.2589742614088705e-05 -0.04492818667395488 0 0.00016885897879920263 -0.04477090306038839 0 0.00021422807193180598 -0.044985948060411 0 6.6100491412658254e-05 -0.045012287531943265 0 6.2589742614088705e-05 -0.04492818667395488 0 0.00021422807193180598 -0.044985948060411 0 6.6100491412658254e-05 -0.045012287531943265 0 6.2589742614088705e-05 -0.04492818667395488 0 7.0049697487162365e-08 -0.045000002388411536 0 6.0717047086073593e-09 -0.045000063628672447 0 6.6100491412658254e-05 -0.045012287531943265 0 7.0049697487162365e-08 -0.045000002388411536 0 6.2589742614088705e-05 -0.04492818667395488 0 7.0049697487162365e-08 -0.045000002388411536 0 -1.9623190050709635e-07 -0.044999471883237954 0 6.2589742614088705e-05 -0.04492818667395488 0 -1.9623190050709635e-07 -0.044999471883237954 0 0.00016885897879920263 -0.04477090306038839 0 0.00020040226089772174 -0.044453198425591055 0 -1.9623190050709635e-07 -0.044999471883237954 0 0.00016885897879920263 -0.04477090306038839 0 0.00016885897879920263 -0.04477090306038839 0 0.00048912567451189412 -0.044833849817009552 0 0.00060854975476708401 -0.044522656926549213 0 0.00020040226089772174 -0.044453198425591055 0 0.00016885897879920263 -0.04477090306038839 0 0.00060854975476708401 -0.044522656926549213 0 0.0011582449631816019 -0.044374134428791956 0 0.00060854975476708401 -0.044522656926549213 0 0.00095463312321520668 -0.04494798178444126 0 0.00048912567451189412 -0.044833849817009552 0 0.00060854975476708401 -0.044522656926549213 0 0.00095463312321520668 -0.04494798178444126 0 0.00048912567451189412 -0.044833849817009552 0 0.00095463312321520668 -0.04494798178444126 0 0.00028652151172339676 -0.045115901974594662 0 0.00027100064606466333 -0.043655052097622701 0 1.2932279101037914e-05 -0.044311066752251105 0 -0.00052974597189377832 -0.042707757533835086 0 -0.00040853346204833946 -0.04254401234667031 0 -0.00069159151294321782 -0.042624723723248013 0 0.00016885897879920263 -0.04477090306038839 0 0.00048912567451189412 -0.044833849817009552 0 0.00028652151172339676 -0.045115901974594662 0 0.00033072398883875073 -0.021351347260383124 0 0.00031396973391047893 -0.021133162166254757 0 0.0002047592742599425 -0.021327894796986893 0 0.00050421949857903914 -0.021189314943876814 0 0.00033072398883875073 -0.021351347260383124 0 0.00031396973391047893 -0.021133162166254757 0 -0.00031020150663086808 -0.026496573132407809 0 -0.00033939813491045247 -0.026398896103929613 0 8.8354703895146639e-05 -0.026143915527494038 0 0.00014975409764220922 -0.023656752825290006 0 0.00017919916856916316 -0.023761236954695227 0 -0.00033939813491045247 -0.026398896103929613 0 -0.00023409552848098849 -0.025264488693025607 0 -0.00037048173507780611 -0.02649370831506449 0 -0.00033939813491045247 -0.026398896103929613 0 8.8354703895146639e-05 -0.026143915527494038 0 -0.00023409552848098849 -0.025264488693025607 0 0.00017919916856916316 -0.023761236954695227 0 0.00023610781409399889 -0.022890142939907213 0 8.8354703895146639e-05 -0.026143915527494038 0 -0.00023409552848098849 -0.025264488693025607 0 0.00056896920448134864 -0.024533457337502337 0 -2.1899143286835547e-05 -0.023964083275046434 0 -0.00023409552848098849 -0.025264488693025607 0 0.00056896920448134864 -0.024533457337502337 0 -2.1899143286835547e-05 -0.023964083275046434 0 2.2668408587744499e-07 -0.022506113039859044 0 -6.8536194567739931e-07 -0.024827962659116895 0 -2.1899143286835547e-05 -0.023964083275046434 0 2.2668408587744499e-07 -0.022506113039859044 0 0.00016915913219610389 -0.022914084351365611 0 -2.1899143286835547e-05 -0.023964083275046434 0 -6.8536194567739931e-07 -0.024827962659116895 0 -0.00023409552848098849 -0.025264488693025607 0 -6.8536194567739931e-07 -0.024827962659116895 0 -0.00023409552848098849 -0.025264488693025607 0 -0.0002253732061685282 -0.026229329081053236 0 -0.00023409552848098849 -0.025264488693025607 0 -0.00037048173507780611 -0.02649370831506449 0 -0.0002253732061685282 -0.026229329081053236 0 -0.00037048173507780611 -0.02649370831506449 0 -0.0002253732061685282 -0.026229329081053236 0 -0.00017248105077777851 -0.027453071216392982 0 -6.8536194567739931e-07 -0.024827962659116895 0 -0.0002253732061685282 -0.026229329081053236 0 -4.3080537908286565e-07 -0.027149365166419134 0 -0.0002253732061685282 -0.026229329081053236 0 -4.3080537908286565e-07 -0.027149365166419134 0 -0.00017248105077777851 -0.027453071216392982 0 -4.3080537908286565e-07 -0.027149365166419134 0 -0.00017248105077777851 -0.027453071216392982 0 1.1995383490783286e-07 -0.029470287402674104 0 -0.00037048173507780611 -0.02649370831506449 0 -0.00017248105077777851 -0.027453071216392982 0 -0.00027677931669724639 -0.026848602132156351 0 -0.00017248105077777851 -0.027453071216392982 0 -0.00027677931669724639 -0.026848602132156351 0 0.00011618276691694833 -0.028596518698325458 0 -0.00033939813491045247 -0.026398896103929613 0 -0.00037048173507780611 -0.02649370831506449 0 -0.00027677931669724639 -0.026848602132156351 0 -0.00033939813491045247 -0.026398896103929613 0 -0.00027677931669724639 -0.026848602132156351 0 -0.00020824143320610167 -0.026494642664130898 0 -0.00031020150663086808 -0.026496573132407809 0 -0.00033939813491045247 -0.026398896103929613 0 -0.00020824143320610167 -0.026494642664130898 0 -0.00027677931669724639 -0.026848602132156351 0 -0.00020824143320610167 -0.026494642664130898 0 9.690403872222125e-05 -0.026471372559607246 0 9.690403872222125e-05 -0.026471372559607246 0 0.00042354158526166627 -0.026768186771397046 0 0.00019134409051216222 -0.026272267135043111 0 -0.00027677931669724639 -0.026848602132156351 0 9.690403872222125e-05 -0.026471372559607246 0 0.00042354158526166627 -0.026768186771397046 0 0.00024529574796422796 -0.028338437829298003 0 0.00014142639931790881 -0.028176896964595792 0 0.0001495168980922701 -0.029914347418462082 0 -4.3138392277313727e-05 -0.029960002124649106 0 -0.00019840501526129626 -0.029767407944513491 0 -4.3138392277313727e-05 -0.029960002124649106 0 -0.00019840501526129626 -0.029767407944513491 0 -0.00012824831703300661 -0.029923944963124515 0 0.0001495168980922701 -0.029914347418462082 0 -4.3138392277313727e-05 -0.029960002124649106 0 3.9249258050350771e-05 -0.029999828866184373 0 -0.00027677931669724639 -0.026848602132156351 0 0.00042354158526166627 -0.026768186771397046 0 0.00011618276691694833 -0.028596518698325458 0 0.0001495168980922701 -0.029914347418462082 0 -0.00019840501526129626 -0.029767407944513491 0 0.00011618276691694833 -0.028596518698325458 0 0.00024529574796422796 -0.028338437829298003 0 0.00015798590924334519 -0.028571376417132709 0 -0.00017248105077777851 -0.027453071216392982 0 0.00011618276691694833 -0.028596518698325458 0 1.1995383490783286e-07 -0.029470287402674104 0 0.00011618276691694833 -0.028596518698325458 0 1.1995383490783286e-07 -0.029470287402674104 0 -0.00016904309449408756 -0.029960747633626283 0 1.1995383490783286e-07 -0.029470287402674104 0 -0.00016904309449408756 -0.029960747633626283 0 -1.3128531279177942e-06 -0.031792303524345131 0 -0.00019840501526129626 -0.029767407944513491 0 -0.00016904309449408756 -0.029960747633626283 0 -0.0001472160358586637 -0.030145805418958539 0 -0.00019840501526129626 -0.029767407944513491 0 0.00011618276691694833 -0.028596518698325458 0 -0.00016904309449408756 -0.029960747633626283 0 -0.0001690