<?xml version="1.0"?>
<VTKFile type="UnstructuredGrid" version="0.1" byte_order="LittleEndian">
<UnstructuredGrid>
<Piece NumberOfPoints="30578" NumberOfCells="10723">
<Points>
<DataArray type="Float64" NumberOfComponents="3" format="ascii">
-0.5 -0.5 0 -0.47439485679867832 -0.48072581506667478 0 -0.5 -0.44765434486020428 0 -0.5 -0.5 0 -0.47439485679867832 -0.48072581506667478 0 -0.43702443379937372 -0.49999999999999922 0 -0.47439485679867832 -0.48072581506667478 0 -0.45530669598391149 -0.47718009944797551 0 -0.43702443379937372 -0.49999999999999922 0 -0.47439485679867832 -0.48072581506667478 0 -0.45530669598391149 -0.47718009944797551 0 -0.4597353119515426 -0.45943449384344293 0 -0.45530669598391149 -0.47718009944797551 0 -0.44381084376742141 -0.47114793899167112 0 -0.4597353119515426 -0.45943449384344293 0 -0.45530669598391149 -0.47718009944797551 0 -0.44381084376742141 -0.47114793899167112 0 -0.43702443379937372 -0.49999999999999922 0 -0.44381084376742141 -0.47114793899167112 0 -0.43702443379937372 -0.49999999999999922 0 -0.45059725373546922 -0.44229587798334291 0 -0.4339166039271336 -0.43498117536117131 0 -0.43309128002320102 -0.45351235807576151 0 -0.44381084376742141 -0.47114793899167112 0 -0.45059725373546922 -0.44229587798334291 0 -0.4597353119515426 -0.45943449384344293 0 -0.44381084376742141 -0.47114793899167112 0 -0.45059725373546922 -0.44229587798334291 0 -0.43309128002320102 -0.45351235807576151 0 -0.44381084376742141 -0.47114793899167112 0 -0.45059725373546922 -0.44229587798334291 0 -0.4597353119515426 -0.45943449384344293 0 -0.47505511338101108 -0.44868394208069429 0 -0.46517432262153441 -0.43649963461163338 0 -0.45059725373546922 -0.44229587798334291 0 -0.4597353119515426 -0.45943449384344293 0 -0.46517432262153441 -0.43649963461163338 0 -0.47505511338101108 -0.44868394208069429 0 -0.47820614292347569 -0.42776699273468149 0 -0.46517432262153441 -0.43649963461163338 0 -0.47505511338101108 -0.44868394208069429 0 -0.47820614292347569 -0.42776699273468149 0 -0.47439485679867832 -0.48072581506667478 0 -0.47505511338101108 -0.44868394208069429 0 -0.5 -0.44765434486020428 0 -0.47439485679867832 -0.48072581506667478 0 -0.4597353119515426 -0.45943449384344293 0 -0.47505511338101108 -0.44868394208069429 0 -0.47505511338101108 -0.44868394208069429 0 -0.5 -0.44765434486020428 0 -0.47820614292347569 -0.42776699273468149 0 -0.5 -0.44765434486020428 0 -0.49656450065014057 -0.42151023988558672 0 -0.47820614292347569 -0.42776699273468149 0 -0.5 -0.44765434486020428 0 -0.49656450065014057 -0.42151023988558672 0 -0.50000000000000089 -0.37904661106745707 0 -0.49656450065014057 -0.42151023988558672 0 -0.48135717246594062 -0.40685004338866881 0 -0.47820614292347569 -0.42776699273468149 0 -0.49656450065014057 -0.42151023988558672 0 -0.48135717246594062 -0.40685004338866881 0 -0.48135717246594062 -0.40685004338866881 0 -0.47820614292347569 -0.42776699273468149 0 -0.48135717246594062 -0.40685004338866881 0 -0.47820614292347569 -0.42776699273468149 0 -0.45738366370351707 -0.41344381697501481 0 -0.49656450065014057 -0.42151023988558672 0 -0.48135717246594062 -0.40685004338866881 0 -0.50000000000000089 -0.37904661106745707 0 -0.50000000000000089 -0.37904661106745707 0 -0.48466894952205442 -0.38486603086372417 0 -0.48717439863114548 -0.36823452950912272 0 -0.48135717246594062 -0.40685004338866881 0 -0.50000000000000089 -0.37904661106745707 0 -0.48466894952205442 -0.38486603086372417 0 -0.48466894952205442 -0.38486603086372417 0 -0.48717439863114548 -0.36823452950912272 0 -0.50000000000000089 -0.37904661106745707 0 -0.48466894952205442 -0.38486603086372417 0 -0.48135717246594062 -0.40685004338866881 0 -0.48466894952205442 -0.38486603086372417 0 -0.46593083509403682 -0.39197871725165279 0 -0.48135717246594062 -0.40685004338866881 0 -0.48466894952205442 -0.38486603086372417 0 -0.48135717246594062 -0.40685004338866881 0 -0.46593083509403682 -0.39197871725165279 0 -0.48466894952205442 -0.38486603086372417 0 -0.47195833844942919 -0.37959069520904498 0 -0.46593083509403682 -0.39197871725165279 0 -0.48466894952205442 -0.38486603086372417 0 -0.46593083509403682 -0.39197871725165279 0 -0.48466894952205442 -0.38486603086372417 0 -0.47195833844942919 -0.37959069520904498 0 -0.48717439863114548 -0.36823452950912272 0 -0.46593083509403682 -0.39197871725165279 0 -0.44890944387521442 -0.39029302340116001 0 -0.45132291774153199 -0.37789636588759368 0 -0.47195833844942919 -0.37959069520904498 0 -0.46593083509403682 -0.39197871725165279 0 -0.45132291774153199 -0.37789636588759368 0 -0.46593083509403682 -0.39197871725165279 0 -0.45132291774153199 -0.37789636588759368 0 -0.48135717246594062 -0.40685004338866881 0 -0.46593083509403682 -0.39197871725165279 0 -0.45738366370351707 -0.41344381697501481 0 -0.46593083509403682 -0.39197871725165279 0 -0.44275815558040038 -0.40077469311046232 0 -0.45738366370351707 -0.41344381697501481 0 -0.46593083509403682 -0.39197871725165279 0 -0.44275815558040038 -0.40077469311046232 0 -0.46593083509403682 -0.39197871725165279 0 -0.44275815558040038 -0.40077469311046232 0 -0.44890944387521442 -0.39029302340116001 0 -0.44275815558040038 -0.40077469311046232 0 -0.44064580868350911 -0.39542861624611658 0 -0.44890944387521442 -0.39029302340116001 0 -0.44225344557501872 -0.38376649822575309 0 -0.45132291774153199 -0.37789636588759368 0 -0.43671500038902772 -0.36381401452353412 0 -0.44890944387521442 -0.39029302340116001 0 -0.44225344557501872 -0.38376649822575309 0 -0.45132291774153199 -0.37789636588759368 0 -0.44064580868350911 -0.39542861624611658 0 -0.44225344557501872 -0.38376649822575309 0 -0.43040194378266172 -0.3881600185019185 0 -0.44064580868350911 -0.39542861624611658 0 -0.44890944387521442 -0.39029302340116001 0 -0.44225344557501872 -0.38376649822575309 0 -0.47820614292347569 -0.42776699273468149 0 -0.46517432262153441 -0.43649963461163338 0 -0.45738366370351707 -0.41344381697501481 0 -0.45059725373546922 -0.44229587798334291 0 -0.45738366370351707 -0.41344381697501481 0 -0.45059725373546922 -0.44229587798334291 0 -0.46517432262153441 -0.43649963461163338 0 -0.45738366370351707 -0.41344381697501481 0 -0.44275815558040038 -0.40077469311046232 0 -0.45738366370351707 -0.41344381697501481 0 -0.44164244492799948 -0.42121090558557039 0 -0.45059725373546922 -0.44229587798334291 0 -0.45738366370351707 -0.41344381697501481 0 -0.44164244492799948 -0.42121090558557039 0 -0.45059725373546922 -0.44229587798334291 0 -0.44164244492799948 -0.42121090558557039 0 -0.4339166039271336 -0.43498117536117131 0 -0.4339166039271336 -0.43498117536117131 0 -0.42355654769347711 -0.414558964497861 0 -0.41671115160429401 -0.44095791049380378 0 -0.44164244492799948 -0.42121090558557039 0 -0.4339166039271336 -0.43498117536117131 0 -0.42355654769347711 -0.414558964497861 0 -0.44275815558040038 -0.40077469311046232 0 -0.44164244492799948 -0.42121090558557039 0 -0.42355654769347711 -0.414558964497861 0 -0.42355654769347711 -0.414558964497861 0 -0.41056920252370888 -0.3963363404412637 0 -0.40050668374064252 -0.41734442193795029 0 -0.42355654769347711 -0.414558964497861 0 -0.41671115160429401 -0.44095791049380378 0 -0.42355654769347711 -0.414558964497861 0 -0.40050668374064252 -0.41734442193795029 0 -0.41671115160429401 -0.44095791049380378 0 -0.44225344557501872 -0.38376649822575309 0 -0.43040194378266172 -0.3881600185019185 0 -0.43671500038902772 -0.36381401452353412 0 -0.43040194378266172 -0.3881600185019185 0 -0.43671500038902772 -0.36381401452353412 0 -0.44064580868350911 -0.39542861624611658 0 -0.42355654769347711 -0.414558964497861 0 -0.43040194378266172 -0.3881600185019185 0 -0.42355654769347711 -0.414558964497861 0 -0.43040194378266172 -0.3881600185019185 0 -0.44275815558040038 -0.40077469311046232 0 -0.44064580868350911 -0.39542861624611658 0 -0.42355654769347711 -0.414558964497861 0 -0.44064580868350911 -0.39542861624611658 0 -0.43040194378266172 -0.3881600185019185 0 -0.42355654769347711 -0.414558964497861 0 -0.43040194378266172 -0.3881600185019185 0 -0.41056920252370888 -0.3963363404412637 0 -0.43040194378266172 -0.3881600185019185 0 -0.4079689369259607 -0.37224253963894771 0 -0.43040194378266172 -0.3881600185019185 0 -0.41056920252370888 -0.3963363404412637 0 -0.4079689369259607 -0.37224253963894771 0 -0.41056920252370888 -0.3963363404412637 0 -0.39195929229331972 -0.37982250283040359 0 -0.4079689369259607 -0.37224253963894771 0 -0.41056920252370888 -0.3963363404412637 0 -0.39195929229331972 -0.37982250283040359 0 -0.39357845321732049 -0.39746174547711199 0 -0.41056920252370888 -0.3963363404412637 0 -0.39357845321732049 -0.39746174547711199 0 -0.40050668374064252 -0.41734442193795029 0 -0.39357845321732049 -0.39746174547711199 0 -0.38114412328536468 -0.40833987260765031 0 -0.36544727141479139 -0.39026932065168712 0 -0.39195929229331972 -0.37982250283040359 0 -0.37549160074202448 -0.3732971907138336 0 -0.36544727141479139 -0.39026932065168712 0 -0.39195929229331972 -0.37982250283040359 0 -0.39357845321732049 -0.39746174547711199 0 -0.36544727141479139 -0.39026932065168712 0 -0.40050668374064252 -0.41734442193795029 0 -0.3944977858259317 -0.43926335073686201 0 -0.41671115160429401 -0.44095791049380378 0 -0.40050668374064252 -0.41734442193795029 0 -0.38028594703985957 -0.42392304976487449 0 -0.3944977858259317 -0.43926335073686201 0 -0.39357845321732049 -0.39746174547711199 0 -0.40050668374064252 -0.41734442193795029 0 -0.38114412328536468 -0.40833987260765031 0 -0.40050668374064252 -0.41734442193795029 0 -0.38114412328536468 -0.40833987260765031 0 -0.38028594703985957 -0.42392304976487449 0 -0.38114412328536468 -0.40833987260765031 0 -0.38028594703985957 -0.42392304976487449 0 -0.36590226101420908 -0.41270082520662749 0 -0.38028594703985957 -0.42392304976487449 0 -0.3944977858259317 -0.43926335073686201 0 -0.3723601590800425 -0.44005613486137668 0 -0.3944977858259317 -0.43926335073686201 0 -0.38265619596279349 -0.45813348326120767 0 -0.3723601590800425 -0.44005613486137668 0 -0.40093272222703252 -0.45142790024540502 0 -0.3944977858
[...]
<PointData Scalars="" Vectors="displacement," Tensors="">
<DataArray type="Float64" Name="displacement" NumberOfComponents="3" format="ascii">
-5.6821056415130657e-07 -0.034997859775477931 0 -0.00021540541093170921 -0.034242084024315 0 2.4685645019335953e-07 -0.03133760512420225 0 -5.6821056415130657e-07 -0.034997859775477931 0 -0.00021540541093170921 -0.034242084024315 0 -3.2039241265857022e-07 -0.034998459892488704 0 -0.00021540541093170921 -0.034242084024315 0 -0.00014454854181287949 -0.034374910913959819 0 -3.2039241265857022e-07 -0.034998459892488704 0 -0.00021540541093170921 -0.034242084024315 0 -0.00014454854181287949 -0.034374910913959819 0 -4.7383776439880052e-06 -0.033877781927776456 0 -0.00014454854181287949 -0.034374910913959819 0 -0.00013811249843932174 -0.034430154298213354 0 -4.7383776439880052e-06 -0.033877781927776456 0 -0.00014454854181287949 -0.034374910913959819 0 -0.00013811249843932174 -0.034430154298213354 0 -3.2039241265857022e-07 -0.034998459892488704 0 1.3753835023477815e-05 -0.034514795337602405 0 -7.3611762149911909e-08 -0.03499983972939414 0 0.0007028608544207989 -0.034120344744403987 0 0.00090085719358568071 -0.034513215666838182 0 0.00047331647592995115 -0.034628733165093822 0 -0.00013811249843932174 -0.034430154298213354 0 0.00048430457096762335 -0.034012348407344531 0 -4.7383776439880052e-06 -0.033877781927776456 0 0.00015586842514268148 -0.034574709886570826 0 0.0007028608544207989 -0.034120344744403987 0 0.00047331647592995115 -0.034628733165093822 0 1.3753835023477815e-05 -0.034514795337602405 0 0.00061505499042471465 -0.034065952846986339 0 -4.7383776439880052e-06 -0.033877781927776456 0 0.00014749144943350571 -0.032806679569171798 0 0.00069380845780518869 -0.033408330989486042 0 0.00048430457096762335 -0.034012348407344531 0 -4.7383776439880052e-06 -0.033877781927776456 0 0.00069380845780518869 -0.033408330989486042 0 0.00014749144943350571 -0.032806679569171798 0 0.0010233592912411941 -0.032895805859168924 0 0.00069380845780518869 -0.033408330989486042 0 1.1261050036557532e-05 -0.032660213130429619 0 0.00063706775116300696 -0.032332713188850032 0 -0.00021540541093170921 -0.034242084024315 0 0.00014749144943350571 -0.032806679569171798 0 2.4685645019335953e-07 -0.03133760512420225 0 -0.00021540541093170921 -0.034242084024315 0 -4.7383776439880052e-06 -0.033877781927776456 0 0.00014749144943350571 -0.032806679569171798 0 0.00014749144943350571 -0.032806679569171798 0 2.4685645019335953e-07 -0.03133760512420225 0 8.4553224365507701e-05 -0.031439446772682733 0 2.4685645019335953e-07 -0.03133760512420225 0 6.3531948427253209e-05 -0.029619125156923793 0 8.4553224365507701e-05 -0.031439446772682733 0 2.4685645019335953e-07 -0.03133760512420225 0 6.3531948427253209e-05 -0.029619125156923793 0 8.8034249282966278e-07 -0.026535510352681972 0 6.3531948427253209e-05 -0.029619125156923793 0 0.0016332148139024576 -0.03105540179399725 0 8.4553224365507701e-05 -0.031439446772682733 0 4.8251953391545184e-06 -0.029351906727269804 0 0.0010107326988541615 -0.03036996746369159 0 0.0010107326988541615 -0.03036996746369159 0 0.00063706775116300696 -0.032332713188850032 0 0.001727479540798556 -0.032813363386091185 0 0.0010233592912411941 -0.032895805859168924 0 0.0015102586345945158 -0.033685915770345236 0 6.3531948427253209e-05 -0.029619125156923793 0 -4.8645517340226206e-05 -0.02844018927210025 0 8.8034249282966278e-07 -0.026535510352681972 0 2.4319314346196205e-06 -0.02653015665494305 0 0.00088068976597875149 -0.024962942214075957 0 2.3318201663473683e-05 -0.0247614139152889 0 -4.8645517340226206e-05 -0.02844018927210025 0 8.8034249282966278e-07 -0.026535510352681972 0 0.00015777595616659322 -0.027553241251065765 0 0.00078496652416673639 -0.026153254758172088 0 0.00018437620851073937 -0.024811521879433491 0 2.0777086425882436e-07 -0.02653342249118951 0 0.00078496652416673639 -0.026153254758172088 0 0.00072430120229309059 -0.028662496981213363 0 0.0015073808150735785 -0.02852714000692718 0 0.0012558321276872947 -0.029209729899999055 0 0.0010107326988541615 -0.03036996746369159 0 0.00078496652416673639 -0.026153254758172088 0 0.0010107326988541615 -0.03036996746369159 0 0.001561504267221047 -0.029861027541803427 0 0.00084879243485880881 -0.024579285330804439 0 0.00060658428926041908 -0.023967815780958707 0 0.0010711892664410333 -0.023775582257892659 0 0.00078496652416673639 -0.026153254758172088 0 0.001561504267221047 -0.029861027541803427 0 0.00084879243485880881 -0.024579285330804439 0 0.00060658428926041908 -0.023967815780958707 0 2.3318201663473683e-05 -0.0247614139152889 0 0.0019891133250066468 -0.033666194205715788 0 0.0020269041961817622 -0.033969761306698411 0 0.0021533809156559615 -0.033923848166633234 0 0.00060658428926041908 -0.023967815780958707 0 0.0010711892664410333 -0.023775582257892659 0 0.00046570121382440047 -0.023308785537288119 0 0.001561504267221047 -0.029861027541803427 0 0.0013437940715034051 -0.028603141818499468 0 0.001727479540798556 -0.032813363386091185 0 0.0022033558376540669 -0.033362372951553219 0 0.0015102586345945158 -0.033685915770345236 0 0.0022033558376540669 -0.033362372951553219 0 0.0018697657979371985 -0.0341045625126647 0 0.0015102586345945158 -0.033685915770345236 0 0.001561504267221047 -0.029861027541803427 0 0.0017571898882487358 -0.035443276774145625 0 0.0019891133250066468 -0.033666194205715788 0 0.0018697657979371985 -0.0341045625126647 0 0.0020269041961817622 -0.033969761306698411 0 0.0018697657979371985 -0.0341045625126647 0 0.0019922863464575599 -0.034126275541553654 0 0.0020269041961817622 -0.033969761306698411 0 0.0020926618100551146 -0.034032023872964459 0 0.0021533809156559615 -0.033923848166633234 0 0.002219535714726612 -0.034008140847541876 0 0.0020269041961817622 -0.033969761306698411 0 0.0020926618100551146 -0.034032023872964459 0 0.0021533809156559615 -0.033923848166633234 0 0.0019922863464575599 -0.034126275541553654 0 0.0020926618100551146 -0.034032023872964459 0 0.0020560389462291268 -0.034120536375285629 0 0.0019922863464575599 -0.034126275541553654 0 0.0020269041961817622 -0.033969761306698411 0 0.0020926618100551146 -0.034032023872964459 0 0.0010233592912411941 -0.032895805859168924 0 0.00069380845780518869 -0.033408330989486042 0 0.0015102586345945158 -0.033685915770345236 0 0.00061505499042471465 -0.034065952846986339 0 0.0014764943385389389 -0.03371658531641096 0 0.00048430457096762335 -0.034012348407344531 0 0.00069380845780518869 -0.033408330989486042 0 0.0015102586345945158 -0.033685915770345236 0 0.0018697657979371985 -0.0341045625126647 0 0.0015102586345945158 -0.033685915770345236 0 0.0012773824493580773 -0.034229162774081584 0 0.0007028608544207989 -0.034120344744403987 0 0.0015102586345945158 -0.033685915770345236 0 0.0012773824493580773 -0.034229162774081584 0 0.0007028608544207989 -0.034120344744403987 0 0.0012773824493580773 -0.034229162774081584 0 0.00090085719358568071 -0.034513215666838182 0 0.00090085719358568071 -0.034513215666838182 0 0.0014511968422988399 -0.034724955721383968 0 0.00074249242916737555 -0.034959541387898738 0 0.0012773824493580773 -0.034229162774081584 0 0.00090085719358568071 -0.034513215666838182 0 0.0014511968422988399 -0.034724955721383968 0 0.0018697657979371985 -0.0341045625126647 0 0.0012773824493580773 -0.034229162774081584 0 0.0014511968422988399 -0.034724955721383968 0 -0.00011099232063830605 -0.033035997740713099 0 5.7940203661426076e-06 -0.03311740335872411 0 -0.00013384142422816095 -0.033204495479317066 0 0.00056906656806801452 -0.034076883483407976 0 0.00021077828027251365 -0.033953929409262069 0 -0.00011099232063830605 -0.033035997740713099 0 -0.00013384142422816095 -0.033204495479317066 0 -0.00031774824825982006 -0.033089787380743606 0 0.0020926618100551146 -0.034032023872964459 0 0.0020560389462291268 -0.034120536375285629 0 0.002219535714726612 -0.034008140847541876 0 0.0014511963896013424 -0.032313962402350328 0 0.00060658564905346113 -0.02793460971603072 0 0.0019922863464575599 -0.034126275541553654 0 0.0014511968422988399 -0.034724955721383968 0 0.0022133200039244297 -0.034435552506277715 0 0.00056906656806801452 -0.034076883483407976 0 0.0014511963896013424 -0.032313962402350328 0 0.0018697657979371985 -0.0341045625126647 0 0.0019922863464575599 -0.034126275541553654 0 0.0014511968422988399 -0.034724955721383968 0 0.0023767800686469785 -0.034413058570155607 0 0.0014511963896013424 -0.032313962402350328 0 -0.00011099232063830605 -0.033035997740713099 0 6.4617491051461275e-05 -0.032985432423428905 0 5.7940203661426076e-06 -0.03311740335872411 0 0.0014511963896013424 -0.032313962402350328 0 0.0005438377335190757 -0.030423765451707829 0 6.4617491051461275e-05 -0.032985432423428905 0 5.7940203661426076e-06 -0.03311740335872411 0 0.0001421174591428813 -0.033111569874309806 0 5.7940203661426076e-06 -0.03311740335872411 0 9.3748965505228147e-05 -0.033217974904342744 0 0.0001421174591428813 -0.033111569874309806 0 5.7940203661426076e-06 -0.03311740335872411 0 9.3748965505228147e-05 -0.033217974904342744 0 -7.357034295840014e-06 -0.033234531098572433 0 5.7940203661426076e-06 -0.03311740335872411 0 -7.357034295840014e-06 -0.033234531098572433 0 -0.00013384142422816095 -0.033204495479317066 0 -7.357034295840014e-06 -0.033234531098572433 0 -7.494334639076586e-05 -0.03333779172111731 0 1.0237000390095493e-05 -0.033388400685119141 0 9.3748965505228147e-05 -0.033217974904342744 0 0.00012791985773091697 -0.033312974716503505 0 1.0237000390095493e-05 -0.033388400685119141 0 9.3748965505228147e-05 -0.033217974904342744 0 -7.357034295840014e-06 -0.033234531098572433 0 1.0237000390095493e-05 -0.033388400685119141 0 -0.00013384142422816095 -0.033204495479317066 0 -0.00030509147073982918 -0.03326371868508806 0 -0.00031774824825982006 -0.033089787380743606 0 -0.00013384142422816095 -0.033204495479317066 0 -0.00017631386427309376 -0.033374723189545846 0 -0.00030509147073982918 -0.03326371868508806 0 -7.357034295840014e-06 -0.033234531098572433 0 -0.00013384142422816095 -0.033204495479317066 0 -7.494334639076586e-05 -0.03333779172111731 0 -0.00013384142422816095 -0.033204495479317066 0 -7.494334639076586e-05 -0.03333779172111731 0 -0.00017631386427309376 -0.033374723189545846 0 -7.494334639076586e-05 -0.03333779172111731 0 -0.00017631386427309376 -0.033374723189545846 0 -0.00010294118664202714 -0.033458283329968717 0 -0.00017631386427309376 -0.033374723189545846 0 -0.00030509147073982918 -0.03326371868508806 0 -0.00030030538557510554 -0.033481598074489159 0 -0.00030509147073982918 -0.03326371868508806 0 -0.000489517424894611 -0.033372412411784971 0 -0.00030030538557510554 -0.033481598074489159 0 -0.00041202464480627265 -0.033217144748538451 0 -0.00030509147073982918 -0.03326371868508806 0 -0.000489517424894611 -0.033372412411784971 0 -0.00041202464480627265 -0.033217144748538451 0 -0.00030509147073982918 -0.03326371868508806 0 -0.00031774824825982006 -0.033089787380743606 0 -0.00044857694565051445 -0.033969145103864895 0 1.0058439300812128e-05 -0.034464163029528622 0 -0.00031279797486843345 -0.034755312027595957 0 -2.7303601945163459e-05 -0.034938475587403761 0 -0.00010150902633726171 -0.035116280922018302 0 -0.00041202464480627265 -0.033217144748538451 0 -0.000489517424894611 -0.033372412411784971 0 -0.00053790451006694936 -0.033152562895859612 0 -0.00031279797486843345 -0.034755312027595957 0 7.8352990434365593e-06 -0.034822181157895045 0 -2.7303601945163459e-05 -0.034938475587403761 0 7.8352990434365593e-06 -0.034822181157895045 0 1.0950472564080444e-05 -0.034938767403782309 0 -1.5190265708797387e-05 -0.034961099222122441 0 7.8352990434365593e-06 -0.034822181157895045 0 1.0950472564080444e-05 -0.034938767403782309 0 -2.7303601945163459e-05 -0.034938475587403761 0 -3.7970841569797113e-08 -0.034999891297261387 0 1.0950472564080444e-05 -0.034938767403782309 0 9.3582956262040479e-08 -0.034999937755358521 0 -3.7970841569797113e-08 -0.034999891297261387 0 1.0950472564080444e-05 -0.034938767403782309 0 -1.5190265708797387e-05 -0.034961099222122441 0 1.0950472564080444e-05 -0.034938767403782309 0 9.3582956262040479e-08 -0.034999937755358521 0 1.3713103708027122e-05 -0.035012998448551394 0 3.3020709997736286e-08 -0.03500000307044504 0 7.4868032840315093e-06 -0.035016154816829091 0 1.3713103708027122e-05 -0.035012998448551394 0 -2.7303601945163459e-05 -0.034938475587403761 0 -0.00010150902633726171 -0.035116280922018302 0 1.0950472564080444e-05 -0.034938767403782309 0 1.3713103708027122e-05 -0.035012998448551394 0 -2.7303601945163459e-05 -0.034938475587403761 0 7.4868032840315093e-06 -0.035016154816829091 0 1.0058439300812128e-05 -0.034464163029528622 0 0.00020435990264386133 -0.035048181624871541 0 1.0058439300812128e-05 -0.034464163029528622 0 4.8680910922073186e-05 -0.034944145190853801 0 0.00013133476128827782 -0.034821813491413188 0 0.0001666218337247412 -0.034989070713653002 0 5.1411493320962435e-05 -0.035009556969289202 0 4.8680910922073186e-05 -0.034944145190853801 0 0.0001666218337247412 -0.034989070713653002 0 5.1411493320962435e-05 -0.035009556969289202 0 4.8680910922073186e-05 -0.034944145190853801 0 5.4483098045578191e-08 -0.035000001857653423 0 4.7224369955726394e-09 -0.035000049488967469 0 5.1411493320962435e-05 -0.035009556969289202 0 5.4483098045578191e-08 -0.035000001857653423 0 4.8680910922073186e-05 -0.034944145190853801 0 5.4483098045578191e-08 -0.035000001857653423 0 -1.5262481150549815e-07 -0.03499958924251842 0 4.8680910922073186e-05 -0.034944145190853801 0 -1.5262481150549815e-07 -0.03499958924251842 0 0.00013133476128827782 -0.034821813491413188 0 0.00015586842514268148 -0.034574709886570826 0 -1.5262481150549815e-07 -0.03499958924251842 0 0.00013133476128827782 -0.034821813491413188 0 0.00013133476128827782 -0.034821813491413188 0 0.00038043108017591759 -0.034870772079896313 0 0.00047331647592995115 -0.034628733165093822 0 0.00015586842514268148 -0.034574709886570826 0 0.00013133476128827782 -0.034821813491413188 0 0.00047331647592995115 -0.034628733165093822 0 0.00090085719358568071 -0.034513215666838182 0 0.00047331647592995115 -0.034628733165093822 0 0.00074249242916737555 -0.034959541387898738 0 0.00038043108017591759 -0.034870772079896313 0 0.00047331647592995115 -0.034628733165093822 0 0.00074249242916737555 -0.034959541387898738 0 0.00038043108017591759 -0.034870772079896313 0 0.00074249242916737555 -0.034959541387898738 0 0.00022285006467375753 -0.035090145980240274 0 0.00021077828027251365 -0.033953929409262069 0 1.0058439300812128e-05 -0.034464163029528622 0 -0.00041202464480627265 -0.033217144748538451 0 -0.00031774824825982006 -0.033089787380743606 0 -0.00053790451006694936 -0.033152562895859612 0 0.00013133476128827782 -0.034821813491413188 0 0.00038043108017591759 -0.034870772079896313 0 0.00022285006467375753 -0.035090145980240274 0 0.00025722976909680413 -0.016606603424742458 0 0.00024419868193036954 -0.016436903907087057 0 0.00015925721331328468 -0.016588362619878717 0 0.00039217072111703355 -0.016480578289681986 0 0.00025722976909680413 -0.016606603424742458 0 0.00024419868193036954 -0.016436903907087057 0 -0.00024126783849067742 -0.02060844576965053 0 -0.00026397632715257426 -0.020532474747500827 0 6.8720325251783425e-05 -0.020334156521384261 0 0.00011647540927727388 -0.018399696641892234 0 0.00013937713110934963 -0.018480962075874085 0 -0.00026397632715257426 -0.020532474747500827 0 -0.0001820742999296562 -0.019650157872353254 0 -0.00028815246061607047 -0.020606217578383504 0 -0.00026397632715257426 -0.020532474747500827 0 6.8720325251783425e-05 -0.020334156521384261 0 -0.0001820742999296562 -0.019650157872353254 0 0.00013937713110934963 -0.018480962075874085 0 0.00018363941096199792 -0.017803444508816744 0 6.8720325251783425e-05 -0.020334156521384261 0 -0.0001820742999296562 -0.019650157872353254 0 0.00044253160348549592 -0.019081577929168501 0 -1.7032667000872427e-05 -0.018638731436147232 0 -0.0001820742999296562 -0.019650157872353254 0 0.00044253160348549592 -0.019081577929168501 0 -1.7032667000872427e-05 -0.018638731436147232 0 1.7630984457133647e-07 -0.01750475458655704 0 -5.3305929108241933e-07 -0.019310637623757589 0 -1.7032667000872427e-05 -0.018638731436147232 0 1.7630984457133647e-07 -0.01750475458655704 0 0.00013156821393030363 -0.017822065606617709 0 -1.7032667000872427e-05 -0.018638731436147232 0 -5.3305929108241933e-07 -0.019310637623757589 0 -0.0001820742999296562 -0.019650157872353254 0 -5.3305929108241933e-07 -0.019310637623757589 0 -0.0001820742999296562 -0.019650157872353254 0 -0.00017529027146441026 -0.020400589285263636 0 -0.0001820742999296562 -0.019650157872353254 0 -0.00028815246061607047 -0.020606217578383504 0 -0.00017529027146441026 -0.020400589285263636 0 -0.00028815246061607047 -0.020606217578383504 0 -0.00017529027146441026 -0.020400589285263636 0 -0.00013415192838271741 -0.02135238872386121 0 -5.3305929108241933e-07 -0.019310637623757589 0 -0.00017529027146441026 -0.020400589285263636 0 -3.3507085039778256e-07 -0.021116172907214896 0 -0.00017529027146441026 -0.020400589285263636 0 -3.3507085039778256e-07 -0.021116172907214896 0 -0.00013415192838271741 -0.02135238872386121 0 -3.3507085039778256e-07 -0.021116172907214896 0 -0.00013415192838271741 -0.02135238872386121 0 9.3297427150527858e-08 -0.022921334646524304 0 -0.00028815246061607047 -0.020606217578383504 0 -0.00013415192838271741 -0.02135238872386121 0 -0.00021527280187563658 -0.020882246102788295 0 -0.00013415192838271741 -0.02135238872386121 0 -0.00021527280187563658 -0.020882246102788295 0 9.0364374268734891e-05 -0.022241736765364253 0 -0.00026397632715257426 -0.020532474747500827 0 -0.00028815246061607047 -0.020606217578383504 0 -0.00021527280187563658 -0.020882246102788295 0 -0.00026397632715257426 -0.020532474747500827 0 -0.00021527280187563658 -0.020882246102788295 0 -0.00016196555916030351 -0.020606944294324046 0 -0.00024126783849067742 -0.02060844576965053 0 -0.00026397632715257426 -0.020532474747500827 0 -0.00016196555916030351 -0.020606944294324046 0 -0.00021527280187563658 -0.020882246102788295 0 -0.00016196555916030351 -0.020606944294324046 0 7.5369807895059733e-05 -0.020588845324138988 0 7.5369807895059733e-05 -0.020588845324138988 0 0.00032942123298129527 -0.020819700822197723 0 0.00014882318150946292 -0.020433985549477982 0 -0.00021527280187563658 -0.020882246102788295 0 7.5369807895059733e-05 -0.020588845324138988 0 0.00032942123298129527 -0.020819700822197723 0 0.00019078558174995429 -0.022041007200565125 0 0.00010999831058059695 -0.021915364305796735 0 0.00011629092073842986 -0.023266714658803835 0 -3.35520828823551e-05 -0.023302223874727083 0 -0.00015431501186989664 -0.023152428401288266 0 -3.35520828823551e-05 -0.023302223874727083 0 -0.00015431501186989664 -0.023152428401288266 0 -9.9748691025670802e-05 -0.023274179415763506 0 0.00011629092073842986 -0.023266714658803835 0 -3.35520828823551e-05 -0.023302223874727083 0 3.0527200705829798e-05 -0.023333200229254513 0 -0.00021527280187563658 -0.020882246102788295 0 0.00032942123298129527 -0.020819700822197723 0 9.0364374268734891e-05 -0.022241736765364253 0 0.00011629092073842986 -0.023266714658803835 0 -0.00015431501186989664 -0.023152428401288266 0 9.0364374268734891e-05 -0.022241736765364253 0 0.00019078558174995429 -0.022041007200565125 0 0.0001228779294114882 -0.022222181657769888 0 -0.00013415192838271741 -0.02135238872386121 0 9.0364374268734891e-05 -0.022241736765364253 0 9.3297427150527858e-08 -0.022921334646524304 0 9.0364374268734891e-05 -0.022241736765364253 0 9.3297427150527858e-08 -0.022921334646524304 0 -0.00013147796238428811 -0.023302803715042675 0 9.3297427150527858e-08 -0.022921334646524304 0 -0.00013147796238428811 -0.023302803715042675 0 -1.0211079883804919e-06 -0.024727347185601788 0 -0.00015431501186989664 -0.023152428401288266 0 -0.00013147796238428811 -0.023302803715042675 0 -0.00011450136122340241 -0.023446737548078869 0 -0.00015431501186989664 -0.023152428401288266 0 9.0364374268734891e-05 -0.022241736765364253 0 -0.00013147796238428811 -0.023302803715042675 0 -0.00013147796238428811 