<?xml version="1.0"?>
<VTKFile type="UnstructuredGrid" version="0.1" byte_order="LittleEndian">
<UnstructuredGrid>
<Piece NumberOfPoints="31898" NumberOfCells="11152">
<Points>
<DataArray type="Float64" NumberOfComponents="3" format="ascii">
-0.5 -0.5 0 -0.47620991077874902 -0.44978878706170539 0 -0.49999999999999473 -0.42132396840504388 0 -0.5 -0.5 0 -0.47160970827802529 -0.4793630013852106 0 -0.47620991077874902 -0.44978878706170539 0 -0.5 -0.5 0 -0.47160970827802529 -0.4793630013852106 0 -0.44860394795025399 -0.5 0 -0.47160970827802529 -0.4793630013852106 0 -0.44860394795025399 -0.5 0 -0.4490820238307246 -0.45820516232899983 0 -0.44860394795025399 -0.5 0 -0.4490820238307246 -0.45820516232899983 0 -0.42881687682924802 -0.47781464288736519 0 -0.4490820238307246 -0.45820516232899983 0 -0.45555437223955858 -0.42914059360647611 0 -0.4490820238307246 -0.45820516232899983 0 -0.45555437223955858 -0.42914059360647611 0 -0.43867285131603428 -0.4271457417558665 0 -0.4490820238307246 -0.45820516232899983 0 -0.43867285131603428 -0.4271457417558665 0 -0.4263356171060747 -0.44269880333887462 0 -0.47160970827802529 -0.4793630013852106 0 -0.4490820238307246 -0.45820516232899983 0 -0.47620991077874902 -0.44978878706170539 0 -0.4490820238307246 -0.45820516232899983 0 -0.47620991077874902 -0.44978878706170539 0 -0.45555437223955858 -0.42914059360647611 0 -0.47620991077874902 -0.44978878706170539 0 -0.48101336032419229 -0.41069999664450008 0 -0.45555437223955858 -0.42914059360647611 0 -0.47620991077874902 -0.44978878706170539 0 -0.49999999999999473 -0.42132396840504388 0 -0.48101336032419229 -0.41069999664450008 0 -0.49999999999999473 -0.42132396840504388 0 -0.48101336032419229 -0.41069999664450008 0 -0.5 -0.393886241813306 0 -0.49999999999999473 -0.42132396840504388 0 -0.48101336032419229 -0.41069999664450008 0 -0.5 -0.393886241813306 0 -0.47854472220918332 -0.38978458738689759 0 -0.48422759779560409 -0.37130120630367158 0 -0.5 -0.393886241813306 0 -0.5 -0.36644851522156802 0 -0.48422759779560409 -0.37130120630367158 0 -0.48101336032419229 -0.41069999664450008 0 -0.5 -0.393886241813306 0 -0.47854472220918332 -0.38978458738689759 0 -0.48101336032419229 -0.41069999664450008 0 -0.47854472220918332 -0.38978458738689759 0 -0.46202672064839212 -0.40007602488395211 0 -0.48101336032419229 -0.41069999664450008 0 -0.46202672064839212 -0.40007602488395211 0 -0.47854472220918332 -0.38978458738689759 0 -0.46725442735267431 -0.37660061361585562 0 -0.46202672064839212 -0.40007602488395211 0 -0.47854472220918332 -0.38978458738689759 0 -0.46725442735267431 -0.37660061361585562 0 -0.48422759779560409 -0.37130120630367158 0 -0.46725442735267431 -0.37660061361585562 0 -0.46202672064839212 -0.40007602488395211 0 -0.46725442735267431 -0.37660061361585562 0 -0.45645674801697989 -0.38644133236760531 0 -0.46202672064839212 -0.40007602488395211 0 -0.46725442735267431 -0.37660061361585562 0 -0.45645674801697989 -0.38644133236760531 0 -0.4540003998136638 -0.37455519391687309 0 -0.45645674801697989 -0.38644133236760531 0 -0.46202672064839212 -0.40007602488395211 0 -0.44257020456291563 -0.38918913383950271 0 -0.46202672064839212 -0.40007602488395211 0 -0.44257020456291563 -0.38918913383950271 0 -0.44727608925983742 -0.41095911152778891 0 -0.46202672064839212 -0.40007602488395211 0 -0.44257020456291563 -0.38918913383950271 0 -0.44257020456291563 -0.38918913383950271 0 -0.44727608925983742 -0.41095911152778891 0 -0.43479358559901082 -0.4041454901736512 0 -0.44257020456291563 -0.38918913383950271 0 -0.4540003998136638 -0.37455519391687309 0 -0.44172858264042247 -0.37082207246888088 0 -0.45645674801697989 -0.38644133236760531 0 -0.44257020456291563 -0.38918913383950271 0 -0.4540003998136638 -0.37455519391687309 0 -0.46202672064839212 -0.40007602488395211 0 -0.45555437223955858 -0.42914059360647611 0 -0.44727608925983742 -0.41095911152778891 0 -0.46202672064839212 -0.40007602488395211 0 -0.45555437223955858 -0.42914059360647611 0 -0.48101336032419229 -0.41069999664450008 0 -0.46202672064839212 -0.40007602488395211 0 -0.45555437223955858 -0.42914059360647611 0 -0.44727608925983742 -0.41095911152778891 0 -0.43867285131603428 -0.4271457417558665 0 -0.43676601469929588 -0.41441201227470881 0 -0.44727608925983742 -0.41095911152778891 0 -0.43676601469929588 -0.41441201227470881 0 -0.43479358559901082 -0.4041454901736512 0 -0.45555437223955858 -0.42914059360647611 0 -0.44727608925983742 -0.41095911152778891 0 -0.43867285131603428 -0.4271457417558665 0 -0.43867285131603428 -0.4271457417558665 0 -0.42681803064840879 -0.42717069814352421 0 -0.4263356171060747 -0.44269880333887462 0 -0.42681803064840879 -0.42717069814352421 0 -0.41531815884496182 -0.42985383783075998 0 -0.4263356171060747 -0.44269880333887462 0 -0.42681803064840879 -0.42717069814352421 0 -0.42624289495594048 -0.42089725947505818 0 -0.42083332353326591 -0.42146747131641099 0 -0.42681803064840879 -0.42717069814352421 0 -0.43096994786351572 -0.41951492446283251 0 -0.42624289495594048 -0.42089725947505818 0 -0.43867285131603428 -0.4271457417558665 0 -0.42681803064840879 -0.42717069814352421 0 -0.43096994786351572 -0.41951492446283251 0 -0.43867285131603428 -0.4271457417558665 0 -0.43676601469929588 -0.41441201227470881 0 -0.43096994786351572 -0.41951492446283251 0 -0.43676601469929588 -0.41441201227470881 0 -0.43096994786351572 -0.41951492446283251 0 -0.42907264086257813 -0.41311715872526122 0 -0.43676601469929588 -0.41441201227470881 0 -0.42907264086257813 -0.41311715872526122 0 -0.43479358559901082 -0.4041454901736512 0 -0.42907264086257813 -0.41311715872526122 0 -0.43479358559901082 -0.4041454901736512 0 -0.42460885511582858 -0.40417321677700252 0 -0.42907264086257813 -0.41311715872526122 0 -0.41997834854398469 -0.41180534796019508 0 -0.42907264086257813 -0.41311715872526122 0 -0.42635027777857132 -0.41543594397746519 0 -0.41997834854398469 -0.41180534796019508 0 -0.42907264086257813 -0.41311715872526122 0 -0.41997834854398469 -0.41180534796019508 0 -0.42460885511582858 -0.40417321677700252 0 -0.42635027777857132 -0.41543594397746519 0 -0.41997834854398469 -0.41180534796019508 0 -0.42635027777857132 -0.41543594397746519 0 -0.42083332353326591 -0.42146747131641099 0 -0.41997834854398469 -0.41180534796019508 0 -0.43096994786351572 -0.41951492446283251 0 -0.42624289495594048 -0.42089725947505818 0 -0.42635027777857132 -0.41543594397746519 0 -0.43096994786351572 -0.41951492446283251 0 -0.42907264086257813 -0.41311715872526122 0 -0.42635027777857132 -0.41543594397746519 0 -0.42624289495594048 -0.42089725947505818 0 -0.42635027777857132 -0.41543594397746519 0 -0.42083332353326591 -0.42146747131641099 0 -0.42083332353326591 -0.42146747131641099 0 -0.41997834854398469 -0.41180534796019508 0 -0.40992282953163789 -0.42011435591993562 0 -0.41997834854398469 -0.41180534796019508 0 -0.39756877647335259 -0.40857286797681719 0 -0.41997834854398469 -0.41180534796019508 0 -0.40992282953163789 -0.42011435591993562 0 -0.39756877647335259 -0.40857286797681719 0 -0.40992282953163789 -0.42011435591993562 0 -0.41531815884496182 -0.42985383783075998 0 -0.39591554026262499 -0.42887225451549271 0 -0.41531815884496182 -0.42985383783075998 0 -0.39591554026262499 -0.42887225451549271 0 -0.41160927495564159 -0.44339431233754628 0 -0.42083332353326591 -0.42146747131641099 0 -0.40992282953163789 -0.42011435591993562 0 -0.41531815884496182 -0.42985383783075998 0 -0.42681803064840879 -0.42717069814352421 0 -0.42083332353326591 -0.42146747131641099 0 -0.41531815884496182 -0.42985383783075998 0 -0.44257020456291563 -0.38918913383950271 0 -0.42311368847744002 -0.37830224279505142 0 -0.42594061475171041 -0.39368797999533162 0 -0.44257020456291563 -0.38918913383950271 0 -0.42311368847744002 -0.37830224279505142 0 -0.44172858264042247 -0.37082207246888088 0 -0.44257020456291563 -0.38918913383950271 0 -0.42311368847744002 -0.37830224279505142 0 -0.42311368847744002 -0.37830224279505142 0 -0.42594061475171041 -0.39368797999533162 0 -0.416587075656149 -0.38785930376960043 0 -0.44257020456291563 -0.38918913383950271 0 -0.42594061475171041 -0.39368797999533162 0 -0.43479358559901082 -0.4041454901736512 0 -0.42594061475171041 -0.39368797999533162 0 -0.43479358559901082 -0.4041454901736512 0 -0.42460885511582858 -0.40417321677700252 0 -0.41997834854398469 -0.41180534796019508 0 -0.41325908582185972 -0.39811010703057192 0 -0.39770572831670092 -0.39911486077581648 0 -0.41997834854398469 -0.41180534796019508 0 -0.39770572831670092 -0.39911486077581648 0 -0.42594061475171041 -0.39368797999533162 0 -0.42460885511582858 -0.40417321677700252 0 -0.41325908582185972 -0.39811010703057192 0 -0.41997834854398469 -0.41180534796019508 0 -0.42460885511582858 -0.40417321677700252 0 -0.41325908582185972 -0.39811010703057192 0 -0.42594061475171041 -0.39368797999533162 0 -0.41325908582185972 -0.39811010703057192 0 -0.416587075656149 -0.38785930376960043 0 -0.41325908582185972 -0.39811010703057192 0 -0.416587075656149 -0.38785930376960043 0 -0.40403491357358612 -0.38133688525744702 0 -0.42311368847744002 -0.37830224279505142 0 -0.40403491357358612 -0.38133688525744702 0 -0.40365717239196519 -0.36741535175059892 0 -0.42311368847744002 -0.37830224279505142 0 -0.416587075656149 -0.38785930376960043 0 -0.40403491357358612 -0.38133688525744702 0 -0.40403491357358612 -0.38133688525744702 0 -0.39190790742475001 -0.38540387676521748 0 -0.39770572831670092 -0.39911486077581648 0 -0.40403491357358612 -0.38133688525744702 0 -0.39190790742475001 -0.38540387676521748 0 -0.3904578797192948 -0.37473938743617019 0 -0.41325908582185972 -0.39811010703057192 0 -0.40403491357358612 -0.38133688525744702 0 -0.39770572831670092 -0.39911486077581648 0 -0.39770572831670092 -0.39911486077581648 0 -0.37543310808941849 -0.38642437359143528 0 -0.39770572831670092 -0.39911486077581648 0 -0.37515920440272033 -0.40534038799344108 0 -0.37543310808941849 -0.38642437359143528 0 -0.39770572831670092 -0.39911486077581648 0 -0.37515920440272033 -0.40534038799344108 0 -0.39756877647335259 -0.40857286797681719
[...]
<PointData Scalars="" Vectors="displacement," Tensors="">
<DataArray type="Float64" Name="displacement" NumberOfComponents="3" format="ascii">
-0.094993146402016226 -0.094994650507343056 0 -0.088566541392685411 -0.093306311470132464 0 -0.080080318420125002 -0.094987341525753985 0 -0.094993146402016226 -0.094994650507343056 0 -0.093484620908724725 -0.091535819028901511 0 -0.088566541392685411 -0.093306311470132464 0 -0.094993146402016226 -0.094994650507343056 0 -0.093484620908724725 -0.091535819028901511 0 -0.094994678019113099 -0.085242955130219053 0 -0.093484620908724725 -0.091535819028901511 0 -0.094994678019113099 -0.085242955130219053 0 -0.094060547647740161 -0.09021359697148959 0 -0.094994678019113099 -0.085242955130219053 0 -0.094060547647740161 -0.09021359697148959 0 -0.095302393033656119 -0.083491681207595106 0 -0.092156543250948464 -0.092758643587136522 0 -0.091794038413222645 -0.09350740824148511 0 -0.094060547647740161 -0.09021359697148959 0 -0.1022017749211232 -0.091038302068430096 0 -0.10283815132039811 -0.086980421467144492 0 -0.094060547647740161 -0.09021359697148959 0 -0.10283815132039811 -0.086980421467144492 0 -0.099425663367833816 -0.08385719686476209 0 -0.093484620908724725 -0.091535819028901511 0 -0.094060547647740161 -0.09021359697148959 0 -0.088566541392685411 -0.093306311470132464 0 -0.094060547647740161 -0.09021359697148959 0 -0.088566541392685411 -0.093306311470132464 0 -0.086435563673294122 -0.09494396785591544 0 -0.088566541392685411 -0.093306311470132464 0 -0.082425051347705641 -0.093985204882508708 0 -0.086435563673294122 -0.09494396785591544 0 -0.088566541392685411 -0.093306311470132464 0 -0.080080318420125002 -0.094987341525753985 0 -0.082425051347705641 -0.093985204882508708 0 -0.08005152874035916 -0.094999988843215852 0 -0.078030493056015046 -0.09858338803828684 0 -0.074838399098889688 -0.094999984704406251 0 -0.080054354295529581 -0.095001221626759808 0 -0.081349455315385177 -0.095469355447167281 0 -0.074838399098889688 -0.094999984704406251 0 -0.074066395744565472 -0.099048517120821383 0 -0.070553375702330487 -0.097977129323738116 0 -0.074838399098889688 -0.094999984704406251 0 -0.069625225543148039 -0.094999981970818465 0 -0.070553375702330487 -0.097977129323738116 0 -0.078030493056015046 -0.09858338803828684 0 -0.074838399098889688 -0.094999984704406251 0 -0.074066395744565472 -0.099048517120821383 0 -0.078030493056015046 -0.09858338803828684 0 -0.074066395744565472 -0.099048517120821383 0 -0.076025399726383225 -0.10215755087225964 0 -0.081349455315385177 -0.095469355447167281 0 -0.084143738416187011 -0.093822900108175608 0 -0.074066395744565472 -0.099048517120821383 0 -0.071566231648167292 -0.10118212487380952 0 -0.076025399726383225 -0.10215755087225964 0 -0.074066395744565472 -0.099048517120821383 0 -0.071566231648167292 -0.10118212487380952 0 -0.070553375702330487 -0.097977129323738116 0 -0.072144028506029717 -0.096225359443269556 0 -0.084143738416187011 -0.093822900108175608 0 -0.066175613505214198 -0.10040557622341102 0 -0.065998263011404906 -0.10035065586064906 0 -0.065878810139741825 -0.10040780243255346 0 -0.066175613505214198 -0.10040557622341102 0 -0.065998263011404906 -0.10035065586064906 0 -0.066022277196131227 -0.10038599361934822 0 -0.065998263011404906 -0.10035065586064906 0 -0.065878810139741825 -0.10040780243255346 0 -0.06590581331718344 -0.10020173825704848 0 -0.10790532592530351 -0.091496974403555725 0 -0.10952407997237164 -0.087699769021557808 0 -0.10592245360688553 -0.088785865524280486 0 -0.084143738416187011 -0.093822900108175608 0 -0.0849442584973326 -0.092236482056276839 0 -0.10952407997237164 -0.087699769021557808 0 -0.10592245360688553 -0.088785865524280486 0 -0.1070833078672002 -0.086352799184068338 0 -0.06590581331718344 -0.10020173825704848 0 -0.066022277196131227 -0.10038599361934822 0 -0.066025927500810419 -0.10019442155877303 0 -0.065998263011404906 -0.10035065586064906 0 -0.06590581331718344 -0.10020173825704848 0 -0.066022277196131227 -0.10038599361934822 0 -0.10790532592530351 -0.091496974403555725 0 -0.1022017749211232 -0.091038302068430096 0 -0.10592245360688553 -0.088785865524280486 0 -0.084143738416187011 -0.093822900108175608 0 -0.091794038413222645 -0.09350740824148511 0 -0.082425051347705641 -0.093985204882508708 0 -0.082011406420230124 -0.095405327340265689 0 -0.086435563673294122 -0.09494396785591544 0 -0.10592245360688553 -0.088785865524280486 0 -0.10283815132039811 -0.086980421467144492 0 -0.10532835527533235 -0.086663238017447922 0 -0.10592245360688553 -0.088785865524280486 0 -0.10532835527533235 -0.086663238017447922 0 -0.1070833078672002 -0.086352799184068338 0 -0.1022017749211232 -0.091038302068430096 0 -0.10592245360688553 -0.088785865524280486 0 -0.10283815132039811 -0.086980421467144492 0 -0.10283815132039811 -0.086980421467144492 0 -0.10274939700240734 -0.084312761446039983 0 -0.099425663367833816 -0.08385719686476209 0 -0.10274939700240734 -0.084312761446039983 0 -0.10216740672340179 -0.081809845881859231 0 -0.099425663367833816 -0.08385719686476209 0 -0.10274939700240734 -0.084312761446039983 0 -0.10405136168165276 -0.084304607802307738 0 -0.10391824086244729 -0.083076035365533679 0 -0.10274939700240734 -0.084312761446039983 0 -0.10435112037979893 -0.085404453496909144 0 -0.10405136168165276 -0.084304607802307738 0 -0.10283815132039811 -0.086980421467144492 0 -0.10274939700240734 -0.084312761446039983 0 -0.10435112037979893 -0.085404453496909144 0 -0.10283815132039811 -0.086980421467144492 0 -0.10532835527533235 -0.086663238017447922 0 -0.10435112037979893 -0.085404453496909144 0 -0.10532835527533235 -0.086663238017447922 0 -0.10435112037979893 -0.085404453496909144 0 -0.10569906265131757 -0.085189777826441035 0 -0.10532835527533235 -0.086663238017447922 0 -0.10569906265131757 -0.085189777826441035 0 -0.1070833078672002 -0.086352799184068338 0 -0.10569906265131757 -0.085189777826441035 0 -0.1070833078672002 -0.086352799184068338 0 -0.10705697187370625 -0.084728882544628445 0 -0.10222485581402611 -0.079609901092895452 0 -0.10217002221570853 -0.078965939627646073 0 -0.10569906265131757 -0.085189777826441035 0 -0.10518917390354349 -0.084428385015516833 0 -0.10616644555699932 -0.082748125844385012 0 -0.10569906265131757 -0.085189777826441035 0 -0.10602135386391172 -0.084067693825804174 0 -0.10705697187370625 -0.084728882544628445 0 -0.1021593107232782 -0.079212706310309897 0 -0.10217002221570853 -0.078965939627646073 0 -0.10518917390354349 -0.084428385015516833 0 -0.10391824086244729 -0.083076035365533679 0 -0.10600054875369247 -0.082893917444649259 0 -0.10435112037979893 -0.085404453496909144 0 -0.10405136168165276 -0.084304607802307738 0 -0.10518917390354349 -0.084428385015516833 0 -0.10435112037979893 -0.085404453496909144 0 -0.10569906265131757 -0.085189777826441035 0 -0.10518917390354349 -0.084428385015516833 0 -0.10405136168165276 -0.084304607802307738 0 -0.10518917390354349 -0.084428385015516833 0 -0.10391824086244729 -0.083076035365533679 0 -0.10391824086244729 -0.083076035365533679 0 -0.10600054875369247 -0.082893917444649259 0 -0.10420718578361962 -0.080725622485904702 0 -0.10217002221570853 -0.078965939627646073 0 -0.10280355913049291 -0.075564367479932365 0 -0.10600054875369247 -0.082893917444649259 0 -0.10420718578361962 -0.080725622485904702 0 -0.10659012531179869 -0.078147058279626355 0 -0.10420718578361962 -0.080725622485904702 0 -0.10216740672340179 -0.081809845881859231 0 -0.10241002212031032 -0.077818342621444117 0 -0.10216740672340179 -0.081809845881859231 0 -0.10241002212031032 -0.077818342621444117 0 -0.099469892103376797 -0.08099858205403869 0 -0.10391824086244729 -0.083076035365533679 0 -0.10420718578361962 -0.080725622485904702 0 -0.10216740672340179 -0.081809845881859231 0 -0.10274939700240734 -0.084312761446039983 0 -0.10391824086244729 -0.083076035365533679 0 -0.10216740672340179 -0.081809845881859231 0 -0.10952407997237164 -0.087699769021557808 0 -0.11059332815014097 -0.084576697075361015 0 -0.10858270691665008 -0.084991820752502903 0 -0.06590581331718344 -0.10020173825704848 0 -0.06592651597718413 -0.099851601771496185 0 -0.066025927500810419 -0.10019442155877303 0 -0.0849442584973326 -0.092236482056276839 0 -0.084876903010076332 -0.089378576985592942 0 -0.11059332815014097 -0.084576697075361015 0 -0.10858270691665008 -0.084991820752502903 0 -0.10926670210559448 -0.083691434106732437 0 -0.10952407997237164 -0.087699769021557808 0 -0.10858270691665008 -0.084991820752502903 0 -0.1070833078672002 -0.086352799184068338 0 -0.10858270691665008 -0.084991820752502903 0 -0.1070833078672002 -0.086352799184068338 0 -0.10705697187370625 -0.084728882544628445 0 -0.10602135386391172 -0.084067693825804174 0 -0.10791583524167765 -0.083224823103601228 0 -0.10784901780257893 -0.081281325134690011 0 -0.10217002221570853 -0.078965939627646073 0 -0.10155577515512883 -0.075712017194253009 0 -0.10858270691665008 -0.084991820752502903 0 -0.10705697187370625 -0.084728882544628445 0 -0.10791583524167765 -0.083224823103601228 0 -0.10602135386391172 -0.084067693825804174 0 -0.10705697187370625 -0.084728882544628445 0 -0.10791583524167765 -0.083224823103601228 0 -0.10858270691665008 -0.084991820752502903 0 -0.10791583524167765 -0.083224823103601228 0 -0.10926670210559448 -0.083691434106732437 0 -0.10791583524167765 -0.083224823103601228 0 -0.10926670210559448 -0.083691434106732437 0 -0.10996162908990642 -0.082014873881825059 0 -0.11059332815014097 -0.084576697075361015 0 -0.10996162908990642 -0.082014873881825059 0 -0.11178771943272985 -0.081972389950795518 0 -0.11059332815014097 -0.084576697075361015 0 -0.10926670210559448 -0.083691434106732437 0 -0.10996162908990642 -0.082014873881825059 0 -0.10996162908990642 -0.082014873881825059 0 -0.10941020831540932 -0.080697251403524378 0 -0.10784901780257893 -0.081281325134690011 0 -0.10996162908990642 -0.082014873881825059 0 -0.10941020831540932 -0.080697251403524378 0 -0.11049619025468736 -0.080564221783834128 0 -0.10791583524167765 -0.083224823103601228 0 -0.10996162908990642 -0.082014873881825059 0 -0.10784901780257893 -0.081281325134690011 0 -0.10155577515512883 -0.075712017194253009 0 -0.099243486419365035 -0.070646085420052324 0 -0.10230092938501961 -0.074451225179226477 0 -0.10151754911971077 -0.071614208581474534 0 -0.10388260277566236 -0.071646486218164482 0 -0.10230092938501961 -0.074451225179226477 0 -0.10151754911971077 -0.071614208581474534 0 -0.10111376127918896 -0.074435736485047657 0 -0.1031294405824973 -0.070755630805724862 0 -0.099243486419365035 -0.070646085420052324 0 -0.10930003542862229 -0.078990092808250423 0 -0.11049619025468736 -0.080564221783834128 0 -0.11100213122288684 -0.079088124608533192 0 -0.10941020831540932 -0.080697251403524378 0 -0.10930003542862229 -0.078990092808250423 0 -0.11049619025468736 -0.080564221783834128 0 -0.099243486419365035 -0.070646085420052324 0 -0.093933296238502925 -0.072441222377225056 0 -0.10941020831540932 -0.080697251403524378 0 -0.10784901780257893 -0.081281325134690011 0 -0.10930003542862229 -0.078990092808250423 0 -0.10071426710917834 -0.077269009514409584 0 -0.10230092938501961 -0.074451225179226477 0 -0.10111376127918896 -0.074435736485047657 0 -0.10420718578361962 -0.080725622485904702 0 -0.10241002212031032 -0.077818342621444117 0 -0.10659012531179869 -0.078147058279626355 0 -0.10723167953129341 -0.073559898128990747 0 -0.10241002212031032 -0.077818342621444117 0 -0.10659012531179869 -0.078147058279626355 0 -0.1031294405824973 -0.070755630805724862 0 -0.10280355913049291 -0.075564367479932365 0 -0.10723167953129341 -0.073559898128990747 0 -0.10241002212031032 -0.077818342621444117 0 -0.1010771533241193 -0.073499367013411893 0 -0.10241002212031032 -0.077818342621444117 0 -0.098831387721907249 -0.077219726569026786 0 -0.1010771533241193 -0.073499367013411893 0 -0.098831387721907249 -0.077219726569026786 0 -0.094989645249661109 -0.073421412111748255 0 -0.1010771533241193 -0.073499367013411893 0 -0.10241002212031032 -0.077818342621444117 0 -0.098831387721907249 -0.077219726569026786 0 -0.099469892103376797 -0.08099858205403869 0 -0.098831387721907249 -0.077219726569026786 0 -0.096611651557198489 -0.079435697432131622 0 -0.099469892103376797 -0.08099858205403869 0 -0.097810023876286983 -0.079606973703409606 0 -0.096625850113842865 -0.076473273323716576 0 -0.096567471874373992 -0.080422168335295793 0 -0.1028763395093595 -0.076574958204207566 0 -0.10214327678699479 -0.07385741819757638 0 -0.098980164559422087 -0.074481040823882932 0 -0.099568531997525883 -0.075564577659350277 0 -0.097408201406338144 -0.074275773595837119 0 -0.099568531997525883 -0.075564577659350277 0 -0.099570827350294586 -0.075603094772495896 0 -0.099568531997525883 -0.075564577659350277 0 -0.099579291841947443 -0.074017999376760915 0 -0.098831387721907249 -0.077219726569026786 0 -0.096611651557198489 -0.079435697432131622 0 -0.095801388830639392 -0.076427416231626563 0 -0.098831387721907249 -0.077219726569026786 0 -0.095801388830639392 -0.076427416231626563 0 -0.094989645249661109 -0.073421412111748255 0 -0.099579291841947443 -0.074017999376760915 0 -0.099546382376304088 -0.071654730389754714 0 -0.10214327678699479 -0.07385741819757638 0 -0.10030135163357101 -0.072872429238518555 0 -0.10140945361423676 -0.071119528683383379 0 -0.10030135163357101 -0.072872429238518555 0 -0.098980164559422087 -0.074481040823882932 0 -0.099248202622667106 -0.071075997109020725 0 -0.098980164559422087 -0.074481040823882932 0 -0.096926399214669168 -0.070753991391173721 0 -0.099248202622667106 -0.071075997109020725 0 -0.10030135163357101 -0.072872429238518555 0 -0.099248202622667106 -0.071075997109020725 0 -0.10140945361423676 -0.071119528683383379 0 -0.10214327678699479 -0.07385741819757638 0 -0.10030135163357101 -0.072872429238518555 0 -0.098980164559422087 -0.074481040823882932 0 -0.095001794817669669 -0.072382302840242788 0 -0.097408201406338144 -0.074275773595837119 0 -0.095000008789460369 -0.07237984535812983 0 -0.098980164559422087 -0.074481040823882932 0 -0.096926399214669168 -0.070753991391173721 0 -0.094999684237145485 -0.072383205777590082 0 -0.096625850113842865 -0.076473273323716576 0 -0.094997643481948266 -0.077897510924320346 0 -0.096625850113842865 -0.076473273323716576 0 -0.096567471874373992 -0.080422168335295793 0 -0.094997643481948266 -0.077897510924320346 0 -0.096567471874373992 -0.080422168335295793 0 -0.094997643481948266 -0.077897510924320346 0 -0.095302393033656119 -0.083491681207595106 0 -0.094994678019113099 -0.085242955130219053 0 -0.094997643481948266 -0.077897510924320346 0 -0.095302393033656119 -0.083491681207595106 0 -0.096567471874373992 -0.080422168335295793 0 -0.095302393033656119 -0.083491681207595106 0 -0.09639047554150372 -0.083712188836937054 0 -0.094060547647740161 -0.09021359697148959 0 -0.095302393033656119 -0.083491681207595106 0 -0.09639047554150372 -0.083712188836937054 0 -0.094060547647740161 -0.09021359697148959 0 -0.09639047554150372 -0.083712188836937054 0 -0.099425663367833816 -0.08385719686476209 0 -0.09639047554150372 -0.083712188836937054 0 -0.099425663367833816 -0.08385719686476209 0 -0.097823415463388547 -0.081726424628827815 0 -0.099425663367833816 -0.08385719686476209 0 -0.099469892103376797 -0.08099858205403869 0 -0.097823415463388547 -0.081726424628827815 0 -0.10216740672340179 -0.081809845881859231 0 -0.099425663367833816 -0.08385719686476209 0 -0.099469892103376797 -0.08099858205403869 0 -0.097708445225820048 -0.07962588832167404 0 -0.099469892103376797 -0.08099858205403869 0 -0.097787767992852867 -0.08000054305735331 0 -0.099469892103376797 -0.08099858205403869 0 -0.097787767992852867 -0.08000054305735331 0 -0.097823415463388547 -0.081726424628827815 0 -0.099568531997525883 -0.075564577659350277 0 -0.099763128219371208 -0.076192651356653748 0 -0.096567471874373992 -0.080422168335295793 0 -0.097787767992852867 -0.08000054305735331 0 -0.097823415463388547 -0.081726424628827815 0 -0.097810023876286983 -0.079606973703409606 0 -0.096567471874373992 -0.080422168335295793 0 -0.097787767992852867 -0.08000054305735331 0 -0.096567471874373992 -0.080422168335295793 0 -0.09639047554150372 -0.083712188836937054 0 -0.097823415463388547 -0.081726424628827815 0 -0.040574607609119996 -0.099661698201060897 0 -0.036244695714777342 -0.09446490708897641 0 -0.047803959932013473 -0.10259432399893076 0 -0.047547353471325847 -0.10841579668475534 0 -0.044459508185701484 -0.1039705143814071 0 -0.052203246666662324 -0.10390819745976236 0 -0.048610849576127789 -0.10271705369685064 0 -0.048303459185247463 -0.10676791967533203 0 -0.052203246666662324 -0.10390819745976236 0 -0.052006623097890524 -0.10743139365065357 0 -0.048303459185247463 -0.10676791967533203 0 -0.052203246666662324 -0.10390819745976236 0 -0.055476274184911828 -0.10543157211989743 0 -0.052006623097890524 -0.10743139365065357 0 -0.052203246666662324 -0.10390819745976236 0 -0.05083789403896085 -0.1007849261505334 0 -0.053682047559250545 -0.10043057226887307 0 -0.052203246666662324 -0.10390819745976236 0 -0.05083789403896085 -0.1007849261505334 0 -0.048610849576127789 -0.10271705369685064 0 -0.040574607609119996 -0.099661698201060897 0 -0.041987316572695867 -0.099432432924680958 0 -0.05083789403896085 -0.1007849261505334 0 -0.048610849576127789 -0.10271705369685064 0 -0.048702034806899788 -0.098476511281033074 0 -0.047803959932013473 -0.10259432399893076 0 -0.048702034806899788 -0.098476511281033074 0 -0.043817478062534644 -0.099485214430173191 0 -0.048702034806899788 -0.098476511281033074 0 -0.048772099816887758 -0.094999152365392234 0 -0.051978207005069804 -0.097774617108139367 0 -0.048702034806899788 -0.098476511281033074 0 -0.048772099816887758 -0.094999152365392234 0 -0.045575660374501781 -0.096835580213522468 0 -0.048772099816887758 -0.094999152365392234 0 -0.051978207005069804 -0.097774617108139367 0 -0.053985570471912041 -0.094999883511247676 0 -0.05083789403896085 -0.1007849261505334 0 -0.048702034806899788 -0.098476511281033074 0 -0.051978207005069804 -0.097774617108139367 0 -0.05083789403896085 -0.1007849261505334 0 -0.051978207005069804 -0.097774617108139367 0 -0.053682047559250545 -0.10043057226887307 0 -0.053682047559250545 -0.10043057226887307 0 -0.055390966927877039 -0.097486960416188706 0 -0.056598497983820426 -0.099985844889724937 0 -0.051978207005069804 -0.097774617108139367 0 -0.053682047559250545 -0.10043057226887307 0 -0.055390966927877039 -0.097486960416188706 0 -0.053985570471912041 -0.094999883511247676 0 -0.055390966927877039 -0.097486960416188706 0 -0.059198676582303759 -0.094999842486860886 0 -0.051978207005069804 -0.097774617108139367 0 -0.053985570471912041 -0.094999883511247676 0 -0.055390966927877039 -0.097486960416188706 0 -0.055390966927877039 -0.097486960416188706 0 -0.059198676582303759 -0.094999842486860886 0 -0.05806594129527725 -0.098050272789318688 0 -0.05806594129527725 -0.098050272789318688 0 -0.056598497983820426 -0.099985844889724937 0 -0.059611970007158059 -0.09987008188745633 0 -0.055390966927877039 -0.097486960416188706 0 -0.05806594129527725 -0.098050272789318688 0 -0.056598497983820426 -0.099985844889724937 0 -0.056598497983820426 -0.099985844889724937 0 -0.058081703514662089 -0.10183109147771652 0 -0.059611970007158059 -0.09987008188745633 0 -0.058081703514662089 -0.10183109147771652 0 -0.057489625179519672 -0.10429226881916362 0 -0.059410828619444501 -0.10334218774970047 0 -0.058081703514662089 -0.10183109147771652 0 -0.055530546212075295 -0.10262886394171503 0 -0.057489625179519672 -0.10429226881916362 0 -0.056598497983820426 -0.099985844889724937 0 -0.058081703514662089 -0.10183109147771652 0 -0.055530546212075295 -0.10262886394171503 0 -0.052203246666662324 -0.10390819745976236 0 -0.053682047559250545 -0.10043057226887307 0 -0.055530546212075295 -0.10262886394171503 0 -0.053682047559250545 -0.10043057226887307 0 -0.056598497983820426 -0.099985844889724937 0 -0.055530546212075295 -0.10262886394171503 0 -0.052203246666662324 -0.10390819745976236 0 -0.055530546212075295 -0.10262886394171503 0 -0.055476274184911828 -0.10543157211