<?xml version="1.0"?>
<VTKFile type="UnstructuredGrid" version="0.1" byte_order="LittleEndian">
<UnstructuredGrid>
<Piece NumberOfPoints="29639" NumberOfCells="10356">
<Points>
<DataArray type="Float64" NumberOfComponents="3" format="ascii">
-0.5 -0.5 0 -0.48513641781356998 -0.44232289521854218 0 -0.5 -0.41520400797710227 0 -0.5 -0.5 0 -0.479084235063854 -0.47116144760927059 0 -0.48513641781356998 -0.44232289521854218 0 -0.5 -0.5 0 -0.479084235063854 -0.47116144760927059 0 -0.47303205231413831 -0.49999999999999889 0 -0.479084235063854 -0.47116144760927059 0 -0.47303205231413831 -0.49999999999999889 0 -0.47303205231413831 -0.49999999999999889 0 -0.44914930997700298 -0.47421247022984209 0 -0.44677511310469742 -0.5 0 -0.479084235063854 -0.47116144760927059 0 -0.47303205231413831 -0.49999999999999889 0 -0.44914930997700298 -0.47421247022984209 0 -0.44914930997700298 -0.47421247022984209 0 -0.44677511310469742 -0.5 0 -0.4318620150268348 -0.48547934911197799 0 -0.45149513518133783 -0.44361409070835278 0 -0.43517811240424109 -0.42345142660842727 0 -0.43209746574787439 -0.45018296005450109 0 -0.44914930997700298 -0.47421247022984209 0 -0.45149513518133783 -0.44361409070835278 0 -0.43209746574787439 -0.45018296005450109 0 -0.479084235063854 -0.47116144760927059 0 -0.44914930997700298 -0.47421247022984209 0 -0.45149513518133783 -0.44361409070835278 0 -0.479084235063854 -0.47116144760927059 0 -0.45149513518133783 -0.44361409070835278 0 -0.48513641781356998 -0.44232289521854218 0 -0.479084235063854 -0.47116144760927059 0 -0.48513641781356998 -0.44232289521854218 0 -0.48513641781356998 -0.44232289521854218 0 -0.49118860056328589 -0.4134843428278141 0 -0.5 -0.41520400797710227 0 -0.5 -0.41520400797710227 0 -0.4753212933574047 -0.38326629246186178 0 -0.5 -0.3509171147786575 0 -0.48513641781356998 -0.44232289521854218 0 -0.49118860056328589 -0.4134843428278141 0 -0.49118860056328589 -0.4134843428278141 0 -0.46939920567229848 -0.42396587137449548 0 -0.46746292176092408 -0.40308173034355588 0 -0.48513641781356998 -0.44232289521854218 0 -0.49118860056328589 -0.4134843428278141 0 -0.46939920567229848 -0.42396587137449548 0 -0.49118860056328589 -0.4134843428278141 0 -0.5 -0.41520400797710227 0 -0.4753212933574047 -0.38326629246186178 0 -0.49118860056328589 -0.4134843428278141 0 -0.4753212933574047 -0.38326629246186178 0 -0.46746292176092408 -0.40308173034355588 0 -0.4753212933574047 -0.38326629246186178 0 -0.46746292176092408 -0.40308173034355588 0 -0.44911761940056172 -0.38518012325116557 0 -0.4753212933574047 -0.38326629246186178 0 -0.44911761940056172 -0.38518012325116557 0 -0.44579434291897779 -0.36051315755711588 0 -0.46746292176092408 -0.40308173034355588 0 -0.44911761940056172 -0.38518012325116557 0 -0.45228788981106932 -0.40951202180244201 0 -0.43819167851704982 -0.39783490279328382 0 -0.44911761940056172 -0.38518012325116557 0 -0.45228788981106932 -0.40951202180244201 0 -0.43819167851704982 -0.39783490279328382 0 -0.44911761940056172 -0.38518012325116557 0 -0.42624814434193309 -0.37552565215950079 0 -0.45149513518133783 -0.44361409070835278 0 -0.48513641781356998 -0.44232289521854218 0 -0.46939920567229848 -0.42396587137449548 0 -0.45149513518133783 -0.44361409070835278 0 -0.46939920567229848 -0.42396587137449548 0 -0.45209008576723669 -0.42513585262342951 0 -0.46939920567229848 -0.42396587137449548 0 -0.46746292176092408 -0.40308173034355588 0 -0.45228788981106932 -0.40951202180244201 0 -0.46939920567229848 -0.42396587137449548 0 -0.45228788981106932 -0.40951202180244201 0 -0.45209008576723669 -0.42513585262342951 0 -0.43819167851704982 -0.39783490279328382 0 -0.45228788981106932 -0.40951202180244201 0 -0.43517811240424109 -0.42345142660842727 0 -0.45228788981106932 -0.40951202180244201 0 -0.45209008576723669 -0.42513585262342951 0 -0.43517811240424109 -0.42345142660842727 0 -0.45149513518133783 -0.44361409070835278 0 -0.45209008576723669 -0.42513585262342951 0 -0.43517811240424109 -0.42345142660842727 0 -0.43517811240424109 -0.42345142660842727 0 -0.41272141063900519 -0.4195288393027613 0 -0.41838291479514561 -0.43753264811379522 0 -0.43517811240424109 -0.42345142660842727 0 -0.43209746574787439 -0.45018296005450109 0 -0.41838291479514561 -0.43753264811379522 0 -0.43517811240424109 -0.42345142660842727 0 -0.41272141063900519 -0.4195288393027613 0 -0.42240061962376252 -0.40332690502182922 0 -0.43819167851704982 -0.39783490279328382 0 -0.43517811240424109 -0.42345142660842727 0 -0.42240061962376252 -0.40332690502182922 0 -0.41272141063900519 -0.4195288393027613 0 -0.39703906911564751 -0.43811924701277227 0 -0.41838291479514561 -0.43753264811379522 0 -0.43819167851704982 -0.39783490279328382 0 -0.42624814434193309 -0.37552565215950079 0 -0.42240061962376252 -0.40332690502182922 0 -0.42624814434193309 -0.37552565215950079 0 -0.42240061962376252 -0.40332690502182922 0 -0.40534685359511041 -0.39567693811897409 0 -0.41272141063900519 -0.4195288393027613 0 -0.42240061962376252 -0.40332690502182922 0 -0.40534685359511041 -0.39567693811897409 0 -0.42624814434193309 -0.37552565215950079 0 -0.40092199127304728 -0.37751727064389201 0 -0.42624814434193309 -0.37552565215950079 0 -0.40092199127304728 -0.37751727064389201 0 -0.40534685359511041 -0.39567693811897409 0 -0.40092199127304728 -0.37751727064389201 0 -0.40534685359511041 -0.39567693811897409 0 -0.38162974438469599 -0.39802956078147628 0 -0.40534685359511041 -0.39567693811897409 0 -0.38162974438469599 -0.39802956078147628 0 -0.39411930394048672 -0.41628065904863581 0 -0.40092199127304728 -0.37751727064389201 0 -0.37559583820416131 -0.37950888912828312 0 -0.40092199127304728 -0.37751727064389201 0 -0.38162974438469599 -0.39802956078147628 0 -0.37559583820416131 -0.37950888912828312 0 -0.41272141063900519 -0.4195288393027613 0 -0.39411930394048672 -0.41628065904863581 0 -0.39703906911564751 -0.43811924701277227 0 -0.41272141063900519 -0.4195288393027613 0 -0.40534685359511041 -0.39567693811897409 0 -0.39411930394048672 -0.41628065904863581 0 -0.38162974438469599 -0.39802956078147628 0 -0.39411930394048672 -0.41628065904863581 0 -0.37546626425513469 -0.4284232638147436 0 -0.39411930394048672 -0.41628065904863581 0 -0.37546626425513469 -0.4284232638147436 0 -0.39703906911564751 -0.43811924701277227 0 -0.37546626425513469 -0.4284232638147436 0 -0.39703906911564751 -0.43811924701277227 0 -0.38287386886335317 -0.45904196606201159 0 -0.39703906911564751 -0.43811924701277227 0 -0.38287386886335317 -0.45904196606201159 0 -0.40879971812010862 -0.45532034795956122 0 -0.38287386886335317 -0.45904196606201159 0 -0.40757607876061031 -0.47887146546315512 0 -0.40879971812010862 -0.45532034795956122 0 -0.38287386886335317 -0.45904196606201159 0 -0.38305906849826488 -0.48297685139704383 0 -0.36257986470516979 -0.47697082546005237 0 -0.38305906849826488 -0.48297685139704383 0 -0.39426123468581592 -0.5 0 -0.36800429547637509 -0.5 0 -0.38305906849826488 -0.48297685139704383 0 -0.39426123468581592 -0.5 0 -0.40757607876061031 -0.47887146546315512 0 -0.38287386886335317 -0.45904196606201159 0 -0.38305906849826488 -0.48297685139704383 0 -0.40757607876061031 -0.47887146546315512 0 -0.39426123468581592 -0.5 0 -0.40757607876061031 -0.47887146546315512 0 -0.42051817389525659 -0.5 0 -0.40757607876061031 -0.47887146546315512 0 -0.42051817389525659 -0.5 0 -0.4318620150268348 -0.48547934911197799 0 -0.44677511310469742 -0.5 0 -0.42051817389525659 -0.5 0 -0.4318620150268348 -0.48547934911197799 0 -0.44914930997700298 -0.47421247022984209 0 -0.4318620150268348 -0.48547934911197799 0 -0.42672518272552251 -0.46843942695447499 0 -0.40757607876061031 -0.47887146546315512 0 -0.4318620150268348 -0.48547934911197799 0 -0.42672518272552251 -0.46843942695447499 0 -0.44914930997700298 -0.47421247022984209 0 -0.42672518272552251 -0.46843942695447499 0 -0.43209746574787439 -0.45018296005450109 0 -0.42672518272552251 -0.46843942695447499 0 -0.43209746574787439 -0.45018296005450109 0 -0.40879971812010862 -0.45532034795956122 0 -0.39703906911564751 -0.43811924701277227 0 -0.41838291479514561 -0.43753264811379522 0 -0.40879971812010862 -0.45532034795956122 0 -0.43209746574787439 -0.45018296005450109 0 -0.41838291479514561 -0.43753264811379522 0 -0.40879971812010862 -0.45532034795956122 0 -0.40757607876061031 -0.47887146546315512 0 -0.42672518272552251 -0.46843942695447499 0 -0.40879971812010862 -0.45532034795956122 0 -0.47838901025646491 -0.28096483992765209 0 -0.5 -0.30217947588156702 0 -0.49999999999999939 -0.237213766015091 0 -0.45646127211515258 -0.27040648428022412 0 -0.4281978941755375 -0.26099862172574168 0 -0.44770979756629281 -0.24953915428251991 0 -0.45646127211515258 -0.27040648428022412 0 -0.43409448004258228 -0.28316422019177617 0 -0.4281978941755375 -0.26099862172574168 0 -0.45646127211515258 -0.27040648428022412 0 -0.47823063605757588 -0.25381012514765738 0 -0.45646127211515258 -0.27040648428022412 0 -0.47823063605757588 -0.25381012514765738 0 -0.44770979756629281 -0.24953915428251991 0 -0.47823063605757588 -0.25381012514765738 0 -0.47838901025646491 -0.28096483992765209 0 -0.49999999999999939 -0.237213766015091 0 -0.45646127211515258 -0.27040648428022412 0 -0.47823063605757588 -0.25381012514765738 0 -0.47838901025646491 -0.28096483992765209 0 -0.47838901025646491 -0.28096483992765209 0 -0.5 -0.30217947588156702 0 -0.47558938277311491 -0.32107086240551808 0 -0.45646127211515258 -0.27040648428022412 0 -0.47838901025646491 -0.28096483992765209 0 -0.45205054802931099 -0.30314452277561088 0 -0.45646127211515258 -0.27040648428022412 0 -0.45205054802931099 -0.30314452277561088 0 -0.43409448004258228 -0.28316422019177617 0 -0.47838901025646491 -0.28096483992765209 0 -0.45205054802931099 -0.30314452277561088 0 -0.47558938277311491 -0.32107086240551808 0 -0.45205054802931099 -0.30314452277561088 0 -0.42864650622383038 -0.30742878711084148 0 -0.43409448004258228 -0.28316422019177617 0 -0.45205054802931099 -0.30314452277561088 0 -0.45398809601026741 -0.33384874142074 0 -0.43172710027119221 -0.32997516627225149 0 -0.45398809
[...]
<PointData Scalars="" Vectors="displacement," Tensors="">
<DataArray type="Float64" Name="displacement" NumberOfComponents="3" format="ascii">
0.034997896942806458 6.5368728408311841e-07 0 0.034950050059235974 3.7338737813729086e-05 0 0.034996876997579821 7.4286311452394275e-07 0 0.034997896942806458 6.5368728408311841e-07 0 0.034825931034203117 -1.8444234937109639e-06 0 0.034950050059235974 3.7338737813729086e-05 0 0.034997896942806458 6.5368728408311841e-07 0 0.034825931034203117 -1.8444234937109639e-06 0 0.033117000062110227 -1.2929117956891247e-06 0 0.032917286400305286 -1.133815749949992e-05 0 0.033112300532039653 -4.3442865121581135e-09 0 0.033107352784267567 -1.1976769511072546e-06 0 0.030537183875158996 0.00019993952355852463 0 0.031275177657618121 6.9100155993435947e-07 0 0.030927833857688387 -8.65276223508319e-05 0 0.033107352784267567 -1.1976769511072546e-06 0 0.030537183875158996 0.00019993952355852463 0 0.030537183875158996 0.00019993952355852463 0 0.031275177657618121 6.9100155993435947e-07 0 0.030018703829983961 0.00014997519591378051 0 0.030871967519405779 2.7011438321368025e-05 0 0.030986761693179377 8.1265042900215393e-07 0 0.030153472592481967 9.9991211556683127e-05 0 0.030537183875158996 0.00019993952355852463 0 0.030871967519405779 2.7011438321368025e-05 0 0.030153472592481967 9.9991211556683127e-05 0 0.030927833857688387 -8.65276223508319e-05 0 0.030537183875158996 0.00019993952355852463 0 0.030871967519405779 2.7011438321368025e-05 0 0.030927833857688387 -8.65276223508319e-05 0 0.030871967519405779 2.7011438321368025e-05 0 0.031492805680861477 0.00051185969812769349 0 0.032917286400305286 -1.133815749949992e-05 0 0.033243242958340719 0.00023001973102785905 0 0.034950050059235974 3.7338737813729086e-05 0 0.034450075311515671 0.00025974311062414287 0 0.034996876997579821 7.4286311452394275e-07 0 0.034996876997579821 7.4286311452394275e-07 0 0.033840470239209476 0.00023411197913616831 0 0.034997911771854719 1.6911358019316205e-07 0 0.033243242958340719 0.00023001973102785905 0 0.034315308003232466 0.00028534833601415172 0 0.034450075311515671 0.00025974311062414287 0 0.032430045967359926 8.6208587333512499e-05 0 0.033167959537271446 0.00019409400569194693 0 0.031492805680861477 0.00051185969812769349 0 0.034450075311515671 0.00025974311062414287 0 0.032430045967359926 8.6208587333512499e-05 0 0.034450075311515671 0.00025974311062414287 0 0.034996876997579821 7.4286311452394275e-07 0 0.033840470239209476 0.00023411197913616831 0 0.034450075311515671 0.00025974311062414287 0 0.033840470239209476 0.00023411197913616831 0 0.033167959537271446 0.00019409400569194693 0 0.033840470239209476 0.00023411197913616831 0 0.033167959537271446 0.00019409400569194693 0 0.032712109098047414 0.00011852179785404435 0 0.033840470239209476 0.00023411197913616831 0 0.032712109098047414 0.00011852179785404435 0 0.033012076610091361 7.5096390950979883e-05 0 0.033167959537271446 0.00019409400569194693 0 0.032712109098047414 0.00011852179785404435 0 0.032193248747574774 7.104620448433792e-05 0 0.031891466938686594 4.6052514100891136e-05 0 0.032712109098047414 0.00011852179785404435 0 0.032193248747574774 7.104620448433792e-05 0 0.031891466938686594 4.6052514100891136e-05 0 0.032712109098047414 0.00011852179785404435 0 0.032112689416909118 -5.2082439008990877e-05 0 0.030871967519405779 2.7011438321368025e-05 0 0.031492805680861477 0.00051185969812769349 0 0.032430045967359926 8.6208587333512499e-05 0 0.030871967519405779 2.7011438321368025e-05 0 0.032430045967359926 8.6208587333512499e-05 0 0.031628628191649785 4.8274554440913474e-05 0 0.032430045967359926 8.6208587333512499e-05 0 0.033167959537271446 0.00019409400569194693 0 0.032193248747574774 7.104620448433792e-05 0 0.032430045967359926 8.6208587333512499e-05 0 0.032193248747574774 7.104620448433792e-05 0 0.031628628191649785 4.8274554440913474e-05 0 0.031891466938686594 4.6052514100891136e-05 0 0.032193248747574774 7.104620448433792e-05 0 0.030986761693179377 8.1265042900215393e-07 0 0.032193248747574774 7.104620448433792e-05 0 0.031628628191649785 4.8274554440913474e-05 0 0.030986761693179377 8.1265042900215393e-07 0 0.030871967519405779 2.7011438321368025e-05 0 0.031628628191649785 4.8274554440913474e-05 0 0.030986761693179377 8.1265042900215393e-07 0 0.030986761693179377 8.1265042900215393e-07 0 0.030193583753899241 -1.7204098611987716e-05 0 0.029949586745235634 4.1242055739466796e-05 0 0.030986761693179377 8.1265042900215393e-07 0 0.030153472592481967 9.9991211556683127e-05 0 0.029949586745235634 4.1242055739466796e-05 0 0.030986761693179377 8.1265042900215393e-07 0 0.030193583753899241 -1.7204098611987716e-05 0 0.031040717986412461 -3.3849724499167081e-05 0 0.031891466938686594 4.6052514100891136e-05 0 0.030986761693179377 8.1265042900215393e-07 0 0.031040717986412461 -3.3849724499167081e-05 0 0.030193583753899241 -1.7204098611987716e-05 0 0.029069567979802119 3.6068059604393254e-05 0 0.029949586745235634 4.1242055739466796e-05 0 0.031891466938686594 4.6052514100891136e-05 0 0.032112689416909118 -5.2082439008990877e-05 0 0.031040717986412461 -3.3849724499167081e-05 0 0.032112689416909118 -5.2082439008990877e-05 0 0.031040717986412461 -3.3849724499167081e-05 0 0.03051963646039469 -0.00010908353348984334 0 0.030193583753899241 -1.7204098611987716e-05 0 0.031040717986412461 -3.3849724499167081e-05 0 0.03051963646039469 -0.00010908353348984334 0 0.031969946559741086 2.9943105837030388e-05 0 0.031376629241898539 1.6479619139267537e-05 0 0.032112689416909118 -5.2082439008990877e-05 0 0.030679947023927068 -0.00012944533407511905 0 0.03051963646039469 -0.00010908353348984334 0 0.030679947023927068 -0.00012944533407511905 0 0.03051963646039469 -0.00010908353348984334 0 0.029513417213816371 -0.0001222572443810699 0 0.03051963646039469 -0.00010908353348984334 0 0.029513417213816371 -0.0001222572443810699 0 0.029529929180039622 -5.0946035218400051e-05 0 0.031376629241898539 1.6479619139267537e-05 0 0.031006561912673255 0.000411141576624715 0 0.030679947023927068 -0.00012944533407511905 0 0.029513417213816371 -0.0001222572443810699 0 0.029632219838750074 -0.00014974193463703349 0 0.030193583753899241 -1.7204098611987716e-05 0 0.029529929180039622 -5.0946035218400051e-05 0 0.029069567979802119 3.6068059604393254e-05 0 0.030193583753899241 -1.7204098611987716e-05 0 0.03051963646039469 -0.00010908353348984334 0 0.029529929180039622 -5.0946035218400051e-05 0 0.029513417213816371 -0.0001222572443810699 0 0.029529929180039622 -5.0946035218400051e-05 0 0.028442374790029326 -7.1871577505143306e-05 0 0.029529929180039622 -5.0946035218400051e-05 0 0.028442374790029326 -7.1871577505143306e-05 0 0.029069567979802119 3.6068059604393254e-05 0 0.028442374790029326 -7.1871577505143306e-05 0 0.029069567979802119 3.6068059604393254e-05 0 0.027913315747090418 9.3424115651101819e-05 0 0.029069567979802119 3.6068059604393254e-05 0 0.027913315747090418 9.3424115651101819e-05 0 0.029162020380917687 0.00010394124543343466 0 0.027913315747090418 9.3424115651101819e-05 0 0.028716593718026647 0.00014099877916118011 0 0.029162020380917687 0.00010394124543343466 0 0.027913315747090418 9.3424115651101819e-05 0 0.027274745213433704 9.209626690559556e-05 0 0.026340914081406638 8.5562866419445254e-05 0 0.027274745213433704 9.209626690559556e-05 0 0.027598733906559952 2.3989665447452888e-07 0 0.025760577892413952 2.4225936773115882e-07 0 0.027274745213433704 9.209626690559556e-05 0 0.027598733906559952 2.3989665447452888e-07 0 0.028716593718026647 0.00014099877916118011 0 0.027913315747090418 9.3424115651101819e-05 0 0.027274745213433704 9.209626690559556e-05 0 0.028716593718026647 0.00014099877916118011 0 0.027598733906559952 2.3989665447452888e-07 0 0.028716593718026647 0.00014099877916118011 0 0.029435773847882117 2.5891901240784632e-07 0 0.028716593718026647 0.00014099877916118011 0 0.029435773847882117 2.5891901240784632e-07 0 0.030018703829983961 0.00014997519591378051 0 0.031275177657618121 6.9100155993435947e-07 0 0.029435773847882117 2.5891901240784632e-07 0 0.030018703829983961 0.00014997519591378051 0 0.030537183875158996 0.00019993952355852463 0 0.030018703829983961 0.00014997519591378051 0 0.029739400591927808 0.0001490717058272967 0 0.028716593718026647 0.00014099877916118011 0 0.030018703829983961 0.00014997519591378051 0 0.029739400591927808 0.0001490717058272967 0 0.030537183875158996 0.00019993952355852463 0 0.029739400591927808 0.0001490717058272967 0 0.030153472592481967 9.9991211556683127e-05 0 0.029739400591927808 0.0001490717058272967 0 0.030153472592481967 9.9991211556683127e-05 0 0.029162020380917687 0.00010394124543343466 0 0.029069567979802119 3.6068059604393254e-05 0 0.029949586745235634 4.1242055739466796e-05 0 0.029162020380917687 0.00010394124543343466 0 0.030153472592481967 9.9991211556683127e-05 0 0.029949586745235634 4.1242055739466796e-05 0 0.029162020380917687 0.00010394124543343466 0 0.028716593718026647 0.00014099877916118011 0 0.029739400591927808 0.0001490717058272967 0 0.029162020380917687 0.00010394124543343466 0 0.034508923160268289 7.969019198870117e-06 0 0.034998301829438611 6.6464529742676826e-08 0 0.034999784233514637 5.5440457995170945e-08 0 0.033987350293578578 -0.00011500414483046184 0 0.033272626529679439 -0.00055359050957447394 0 0.034081330060971901 -0.00021535477244494317 0 0.033987350293578578 -0.00011500414483046184 0 0.033340670695810287 -0.00027029370063147938 0 0.033272626529679439 -0.00055359050957447394 0 0.034066505922466427 -0.00012078047099757264 0 0.034527716449022278 -1.8767002049080667e-05 0 0.033987350293578578 -0.00011500414483046184 0 0.034385884389830423 8.2888031181289504e-06 0 0.034081330060971901 -0.00021535477244494317 0 0.034701706418234599 -3.9343583412743272e-05 0 0.034508923160268289 7.969019198870117e-06 0 0.034999784233514637 5.5440457995170945e-08 0 0.033987350293578578 -0.00011500414483046184 0 0.034701706418234599 -3.9343583412743272e-05 0 0.034508923160268289 7.969019198870117e-06 0 0.034508923160268289 7.969019198870117e-06 0 0.034998301829438611 6.6464529742676826e-08 0 0.034238911606889119 5.4104891897394192e-05 0 0.033987350293578578 -0.00011500414483046184 0 0.034508923160268289 7.969019198870117e-06 0 0.033663491968531474 -4.6287013981531969e-05 0 0.033987350293578578 -0.00011500414483046184 0 0.033663491968531474 -4.6287013981531969e-05 0 0.033340670695810287 -0.00027029370063147938 0 0.034508923160268289 7.969019198870117e-06 0 0.033663491968531474 -4.6287013981531969e-05 0 0.034238911606889119 5.4104891897394192e-05 0 0.033663491968531474 -4.6287013981531969e-05 0 0.033000688776199764 -0.00010742597299945744 0 0.033340670695810287 -0.00027029370063147938 0 0.033663491968531474 -4.6287013981531969e-05 0 0.033520306952442867 4.4481305930745191e-05 0 0.032878286071465847 -2.8019984461540185e-05 0 0.033520306952442867 4.4481305930745191e-05 0 0.033012076610091361 7.5096390950979883e-05 0 0.032878286071465847 -2.8019984461540185e-05 0 0.033520306952442867 4.4481305930745191e-05 0 0.034238911606889119 5.4104891897394192e-05 0 0.033946066895917962 0.00010305792061652957 0 0.033663491968531474 -4.6287013981531969e-05 0 0.033520306952442867 4.4481305930745191e-05 0 0.034238911606889119 5.4104891897394192e-05 0 0.034998301829438611 6.6464529742676826e-08 0 0.034238911606889119 5.4104891897394192e-05 0 0.034997911771854719 1.6911358019316205e-07 0 0.034238911606889119 5.4104891897394192e-05 0 0.033946066895917962 0.00010305792061652957 0 0.034997911771854719 1.6911358019316205e-07 0 0.033840470239209476 0.00023411197913616831 0 0.033946066895917962 0.00010305792061652957 0 0.034997911771854719 1.6911358019316205e-07 0 0.033840470239209476 0.00023411197913616831 0 0.033946066895917962 0.00010305792061652957 0 0.033012076610091361 7.5096390950979883e-05 0 0.033520306952442867 4.4481305930745191e-05 0 0.033946066895917962 0.00010305792061652957 0 0.033012076610091361 7.5096390950979883e-05 0 0.032712109098047414 0.00011852179785404435 0 0.032112689416909118 -5.2082439008990877e-05 0 0.033012076610091361 7.5096390950979883e-05 0 0.032112689416909118 -5.2082439008990877e-05 0 0.033012076610091361 7.5096390950979883e-05 0 0.032256389743042069 -2.9156346282066081e-05 0 0.033012076610091361 7.5096390950979883e-05 0 0.032256389743042069 -2.9156346282066081e-05 0 0.032878286071465847 -2.8019984461540185e-05 0 0.032112689416909118 -5.2082439008990877e-05 0 0.032256389743042069 -2.9156346282066081e-05 0 0.031793853004506642 3.5093934942459339e-05 0 0.032112689416909118 -5.2082439008990877e-05 0 0.03202010622310876 7.281061174800451e-05 0 0.031793853004506642 3.5093934942459339e-05 0 0.03202010622310876 7.281061174800451e-05 0 0.031761576289790434 0.00040857514421863193 0 0.031793853004506642 3.5093934942459339e-05 0 0.032069223546563837 0.00071491998507368696 0 0.031761576289790434 0.00040857514421863193 0 0.031706305096726957 0.0009511185775563603 0 0.03202010622310876 7.281061174800451e-05 0 0.032069223546563837 0.00071491998507368696 0 0.031761576289790434 0.00040857514421863193 0 0.031761576289790434 0.00040857514421863193 0 0.03102519373489921 0.00042601200626966206 0 0.031706305096726957 0.0009511185775563603 0 0.030765192870545837 0.00038514505709171361 0 0.030327222064150956 0.0006259846595345008 0 0.032256389743042069 -2.9156346282066081e-05 0 0.031793853004506642 3.5093934942459339e-05 0 0.03166323995888734 0.00015666597666299167 0 0.031761576289790434 0.00040857514421863193 0 0.03102519373489921 0.00042601200626966206 0 0.031793853004506642 3.5093934942459339e-05 0 0.03102519373489921 0.00042601200626966206 0 0.031793853004506642 3.5093934942459339e-05 0 0.03166323995888734 0.00015666597666299167 0 0.03102519373489921 0.00042601200626966206 0 0.03166323995888734 0.00015666597666299167 0 0.03112607449917687 0.00019870378614070979 0 0.03102519373489921 0.00042601200626966206 0 0.03112607449917687 0.00019870378614070979 0 0.030053506738911624 0.00013479631720888426 0 0.031543405453336448 0.00011864035501845657 0 0.031342010016190656 -8.2627613408963482e-05 0 0.03112607449917687 0.00019870378614070979 0 0.03166323995888734 0.00015666597666299167 0 0.031543405453336448 0.00011864035501845657 0 0.03112607449917687 0.00019870378614070979 0 0.03166323995888734 0.00015666597666299167 0 0.032328166761089946 -8.0635851664546506e-05 0 0.031543405453336448 0.00011864035501845657 0 0.032256389743042069 -2.9156346282066081e-05 0 0.03166323995888734 0.00015666597666299167 0 0.032328166761089946 -8.0635851664546506e-05 0 0.032256389743042069 -2.9156346282066081e-05 0 0.032328166761089946 -8.0635851664546506e-05 0 0.032878286071465847 -2.8019984461540185e-05 0 0.033663491968531474 -4.6287013981531969e-05 0 0.032878286071465847 -2.8019984461540185e-05 0 0.033000688776199764 -0.00010742597299945744 0 0.032328166761089946 -8.0635851664546506e-05 0 0.032878286071465847 -2.8019984461540185e-05 0 0.033000688776199764 -0.00010742597299945744 0 0.033000688776199764 -0.00010742597299945744 0 0.033340670695810287 -0.00027029370063147938 0 0.032941801006657397 -0.00021833127380708757 0 0.032941801006657397 -0.00021833127380708757 0 0.032698297365597408 -0.00032089052180397465 0 0.032865798425335144 -0.00036352314282862494 0 0.033340670695810287 -0.00027029370063147938 0 0.032941801006657397 -0.00021833127380708757 0 0.032865798425335144 -0.00036352314282862494 0 0.032328166761089946 -8.0635851664546506e-05 0 0.032941801006657397 -0.00021833127380708757 0 0.032698297365597408 -0.00032089052180397465 0 0.032328166761089946 -8.0635851664546506e-05 0 0.033000688776199764 -0.00010742597299945744 0 0.032941801006657397 -0.00021833127380708757 0 0.032328166761089946 -8.0635851664546506e-05 0 0.032559773536491213 -0.0003267676256182318 0 0.032698297365597408 -0.00032089052180397465 0 0.032268229858655836 -7.538385259701265e-05 0 0.032052589310337339 -8.3848413348821534e-05 0 0.032559773536491213 -0.0003267676256182318 0 0.03234164094398851 -0.00023442488470831635 0 0.032151917786122197 -3.4419526506538322e-05 0 0.032052589310337339 -8.3848413348821534e-05 0 0.031709359308266079 -0.00011135923827474689 0 0.032559773536491213 -0.0003267676256182318 0 0.03234164094398851 -0.00023442488470831635 0 0.032698297365597408 -0.00032089052180397465 0 0.03234164094398851 -0.00023442488470831635 0 0.032698297365597408 -0.00032089052180397465 0 0.032271194777611402 -0.00021926404578704033 0 0.032698297365597408 -0.00032089052180397465 0 0.032271194777611402 -0.00021926404578704033 0 0.032865798425335144 -0.00036352314282862494 0 0.03234164094398851 -0.00023442488470831635 0 0.032271194777611402 -0.00021926404578704033 0 0.031940044201223414 -0.00014493555572583092 0 0.03234164094398851 -0.00023442488470831635 0 0.031940044201223414 -0.00014493555572583092 0 0.032151917786122197 -3.4419526506538322e-05 0 0.032271194777611402 -0.00021926404578704033 0 0.031940044201223414 -0.00014493555572583092 0 0.031911639901295807 -0.00012988664722593572 0 0.032271194777611402 -0.00021926404578704033 0 0.031911639901295807 -0.00012988664722593572 0 0.031967213536097237 -0.00014852762805766699 0 0.031911639901295807 -0.00012988664722593572 0 0.031967213536097237 -0.00014852762805766699 0 0.031658881056014179 -7.1116696633579342e-05 0 0.031911639901295807 -0.00012988664722593572 0 0.031691923247303154 -8.1874575165818546e-05 0 0.031658881056014179 -7.1116696633579342e-05 0 0.031940044201223414 -0.00014493555572583092 0 0.031911639901295807 -0.00012988664722593572 0 0.031691923247303154 -8.1874575165818546e-05 0 0.032271194777611402 -0.00021926404578704033 0 0.031967213536097237 -0.00014852762805766699 0 0.032237362430330069 -0.00021672153681332566 0 0.032271194777611402 -0.00021926404578704033 0 0.032237362430330069 -0.00021672153681332566 0 0.032865798425335144 -0.00036352314282862494 0 0.032237362430330069 -0.00021672153681332566 0 0.032613492889317093 -0.00037469057884174272 0 0.032865798425335144 -0.00036352314282862494 0 0.032613492889317093 -0.00037469057884174272 0 0.032865798425335144 -0.00036352314282862494 0 0.033272626529679439 -0.00055359050957447394 0 0.033340670695810287 -0.00027029370063147938 0 0.032865798425335144 -0.00036352314282862494 0 0.033272626529679439 -0.00055359050957447394 0 0.033272626529679439 -0.00055359050957447394 0 0.034114045178211566 -0.00075680544456725122 0 0.034081330060971901 -0.00021535477244494317 0 0.032613492889317093 -0.00037469057884174272 0 0.033272626529679439 -0.00055359050957447394 0 0.032287503002569592 -0.00069273115504120332 0 0.033237047868460087 -0.00060831110055195559 0 0.033222482448362865 -0.00069295635321733298 0 0.030355824422342442 -0.0004958536026097132 0 0.029884975839148606 -0.00078858006762267698 0 0.030204768922800475 -0.00035307199600482933 0 0.030355824422342442 -0.0004958536026097132 0 0.030688304703554228 -0.00030155687231198368 0 0.030557400147319547 -0.00057122556123258338 0 0.030355824422342442 -0.0004958536026097132 0 0.030165726339274741 -0.00092035749818960536 0 0.030557400147319547 -0.00057122556123258338 0 0.030355824422342442 -0.0004958536026097132 0 0.030165726339274741 -0.00092035749818960536 0 0.029884975839148606 -0.00078858006762267698 0 0.029884975839148606 -0.00078858006762267698 0 0.029440504849546915 -0.00066833918120947332 0 0.029114507892298153 -0.0012121474533117928 0 0.029884975839148606 -0.00078858006762267698 0 0.029440504849546915 -0.00066833918120947332 0 0.030204768922800475 -0.00035307199600482933 0 0.029440504849546915 -0.00066833918120947332 0 0.030204768922800475 -0.00035307199600482933 0 0.029877867902716987 -0.00031231846159657272 0 0.030204768922800475 -0.00035307199600482933 0 0.029877867902716987 -0.00031231846159657272 0 0.030543140787831175 0.00011333305400506764 0 0.030543140787831175 0.00011333305400506764 0 0.030890006002152248 1.9371008722402569e-06 0 0.031377091497091322 -0.00010537179357480448 0 0.029877867902716987 -0.00031231846159657272 0 0.030543140787831175 0.00011333305400506764 0 0.029278795905389912 -0.00022726762966570813 0 0.029440504849546915 -0.00066833918120947332 0 0