<?xml version="1.0"?>
<VTKFile type="UnstructuredGrid" version="0.1" byte_order="LittleEndian">
<UnstructuredGrid>
<Piece NumberOfPoints="29639" NumberOfCells="10356">
<Points>
<DataArray type="Float64" NumberOfComponents="3" format="ascii">
-0.5 -0.5 0 -0.48513641781356998 -0.44232289521854218 0 -0.5 -0.41520400797710227 0 -0.5 -0.5 0 -0.479084235063854 -0.47116144760927059 0 -0.48513641781356998 -0.44232289521854218 0 -0.5 -0.5 0 -0.479084235063854 -0.47116144760927059 0 -0.47303205231413831 -0.49999999999999889 0 -0.479084235063854 -0.47116144760927059 0 -0.47303205231413831 -0.49999999999999889 0 -0.47303205231413831 -0.49999999999999889 0 -0.44914930997700298 -0.47421247022984209 0 -0.44677511310469742 -0.5 0 -0.479084235063854 -0.47116144760927059 0 -0.47303205231413831 -0.49999999999999889 0 -0.44914930997700298 -0.47421247022984209 0 -0.44914930997700298 -0.47421247022984209 0 -0.44677511310469742 -0.5 0 -0.4318620150268348 -0.48547934911197799 0 -0.45149513518133783 -0.44361409070835278 0 -0.43517811240424109 -0.42345142660842727 0 -0.43209746574787439 -0.45018296005450109 0 -0.44914930997700298 -0.47421247022984209 0 -0.45149513518133783 -0.44361409070835278 0 -0.43209746574787439 -0.45018296005450109 0 -0.479084235063854 -0.47116144760927059 0 -0.44914930997700298 -0.47421247022984209 0 -0.45149513518133783 -0.44361409070835278 0 -0.479084235063854 -0.47116144760927059 0 -0.45149513518133783 -0.44361409070835278 0 -0.48513641781356998 -0.44232289521854218 0 -0.479084235063854 -0.47116144760927059 0 -0.48513641781356998 -0.44232289521854218 0 -0.48513641781356998 -0.44232289521854218 0 -0.49118860056328589 -0.4134843428278141 0 -0.5 -0.41520400797710227 0 -0.5 -0.41520400797710227 0 -0.4753212933574047 -0.38326629246186178 0 -0.5 -0.3509171147786575 0 -0.48513641781356998 -0.44232289521854218 0 -0.49118860056328589 -0.4134843428278141 0 -0.49118860056328589 -0.4134843428278141 0 -0.46939920567229848 -0.42396587137449548 0 -0.46746292176092408 -0.40308173034355588 0 -0.48513641781356998 -0.44232289521854218 0 -0.49118860056328589 -0.4134843428278141 0 -0.46939920567229848 -0.42396587137449548 0 -0.49118860056328589 -0.4134843428278141 0 -0.5 -0.41520400797710227 0 -0.4753212933574047 -0.38326629246186178 0 -0.49118860056328589 -0.4134843428278141 0 -0.4753212933574047 -0.38326629246186178 0 -0.46746292176092408 -0.40308173034355588 0 -0.4753212933574047 -0.38326629246186178 0 -0.46746292176092408 -0.40308173034355588 0 -0.44911761940056172 -0.38518012325116557 0 -0.4753212933574047 -0.38326629246186178 0 -0.44911761940056172 -0.38518012325116557 0 -0.44579434291897779 -0.36051315755711588 0 -0.46746292176092408 -0.40308173034355588 0 -0.44911761940056172 -0.38518012325116557 0 -0.45228788981106932 -0.40951202180244201 0 -0.43819167851704982 -0.39783490279328382 0 -0.44911761940056172 -0.38518012325116557 0 -0.45228788981106932 -0.40951202180244201 0 -0.43819167851704982 -0.39783490279328382 0 -0.44911761940056172 -0.38518012325116557 0 -0.42624814434193309 -0.37552565215950079 0 -0.45149513518133783 -0.44361409070835278 0 -0.48513641781356998 -0.44232289521854218 0 -0.46939920567229848 -0.42396587137449548 0 -0.45149513518133783 -0.44361409070835278 0 -0.46939920567229848 -0.42396587137449548 0 -0.45209008576723669 -0.42513585262342951 0 -0.46939920567229848 -0.42396587137449548 0 -0.46746292176092408 -0.40308173034355588 0 -0.45228788981106932 -0.40951202180244201 0 -0.46939920567229848 -0.42396587137449548 0 -0.45228788981106932 -0.40951202180244201 0 -0.45209008576723669 -0.42513585262342951 0 -0.43819167851704982 -0.39783490279328382 0 -0.45228788981106932 -0.40951202180244201 0 -0.43517811240424109 -0.42345142660842727 0 -0.45228788981106932 -0.40951202180244201 0 -0.45209008576723669 -0.42513585262342951 0 -0.43517811240424109 -0.42345142660842727 0 -0.45149513518133783 -0.44361409070835278 0 -0.45209008576723669 -0.42513585262342951 0 -0.43517811240424109 -0.42345142660842727 0 -0.43517811240424109 -0.42345142660842727 0 -0.41272141063900519 -0.4195288393027613 0 -0.41838291479514561 -0.43753264811379522 0 -0.43517811240424109 -0.42345142660842727 0 -0.43209746574787439 -0.45018296005450109 0 -0.41838291479514561 -0.43753264811379522 0 -0.43517811240424109 -0.42345142660842727 0 -0.41272141063900519 -0.4195288393027613 0 -0.42240061962376252 -0.40332690502182922 0 -0.43819167851704982 -0.39783490279328382 0 -0.43517811240424109 -0.42345142660842727 0 -0.42240061962376252 -0.40332690502182922 0 -0.41272141063900519 -0.4195288393027613 0 -0.39703906911564751 -0.43811924701277227 0 -0.41838291479514561 -0.43753264811379522 0 -0.43819167851704982 -0.39783490279328382 0 -0.42624814434193309 -0.37552565215950079 0 -0.42240061962376252 -0.40332690502182922 0 -0.42624814434193309 -0.37552565215950079 0 -0.42240061962376252 -0.40332690502182922 0 -0.40534685359511041 -0.39567693811897409 0 -0.41272141063900519 -0.4195288393027613 0 -0.42240061962376252 -0.40332690502182922 0 -0.40534685359511041 -0.39567693811897409 0 -0.42624814434193309 -0.37552565215950079 0 -0.40092199127304728 -0.37751727064389201 0 -0.42624814434193309 -0.37552565215950079 0 -0.40092199127304728 -0.37751727064389201 0 -0.40534685359511041 -0.39567693811897409 0 -0.40092199127304728 -0.37751727064389201 0 -0.40534685359511041 -0.39567693811897409 0 -0.38162974438469599 -0.39802956078147628 0 -0.40534685359511041 -0.39567693811897409 0 -0.38162974438469599 -0.39802956078147628 0 -0.39411930394048672 -0.41628065904863581 0 -0.40092199127304728 -0.37751727064389201 0 -0.37559583820416131 -0.37950888912828312 0 -0.40092199127304728 -0.37751727064389201 0 -0.38162974438469599 -0.39802956078147628 0 -0.37559583820416131 -0.37950888912828312 0 -0.41272141063900519 -0.4195288393027613 0 -0.39411930394048672 -0.41628065904863581 0 -0.39703906911564751 -0.43811924701277227 0 -0.41272141063900519 -0.4195288393027613 0 -0.40534685359511041 -0.39567693811897409 0 -0.39411930394048672 -0.41628065904863581 0 -0.38162974438469599 -0.39802956078147628 0 -0.39411930394048672 -0.41628065904863581 0 -0.37546626425513469 -0.4284232638147436 0 -0.39411930394048672 -0.41628065904863581 0 -0.37546626425513469 -0.4284232638147436 0 -0.39703906911564751 -0.43811924701277227 0 -0.37546626425513469 -0.4284232638147436 0 -0.39703906911564751 -0.43811924701277227 0 -0.38287386886335317 -0.45904196606201159 0 -0.39703906911564751 -0.43811924701277227 0 -0.38287386886335317 -0.45904196606201159 0 -0.40879971812010862 -0.45532034795956122 0 -0.38287386886335317 -0.45904196606201159 0 -0.40757607876061031 -0.47887146546315512 0 -0.40879971812010862 -0.45532034795956122 0 -0.38287386886335317 -0.45904196606201159 0 -0.38305906849826488 -0.48297685139704383 0 -0.36257986470516979 -0.47697082546005237 0 -0.38305906849826488 -0.48297685139704383 0 -0.39426123468581592 -0.5 0 -0.36800429547637509 -0.5 0 -0.38305906849826488 -0.48297685139704383 0 -0.39426123468581592 -0.5 0 -0.40757607876061031 -0.47887146546315512 0 -0.38287386886335317 -0.45904196606201159 0 -0.38305906849826488 -0.48297685139704383 0 -0.40757607876061031 -0.47887146546315512 0 -0.39426123468581592 -0.5 0 -0.40757607876061031 -0.47887146546315512 0 -0.42051817389525659 -0.5 0 -0.40757607876061031 -0.47887146546315512 0 -0.42051817389525659 -0.5 0 -0.4318620150268348 -0.48547934911197799 0 -0.44677511310469742 -0.5 0 -0.42051817389525659 -0.5 0 -0.4318620150268348 -0.48547934911197799 0 -0.44914930997700298 -0.47421247022984209 0 -0.4318620150268348 -0.48547934911197799 0 -0.42672518272552251 -0.46843942695447499 0 -0.40757607876061031 -0.47887146546315512 0 -0.4318620150268348 -0.48547934911197799 0 -0.42672518272552251 -0.46843942695447499 0 -0.44914930997700298 -0.47421247022984209 0 -0.42672518272552251 -0.46843942695447499 0 -0.43209746574787439 -0.45018296005450109 0 -0.42672518272552251 -0.46843942695447499 0 -0.43209746574787439 -0.45018296005450109 0 -0.40879971812010862 -0.45532034795956122 0 -0.39703906911564751 -0.43811924701277227 0 -0.41838291479514561 -0.43753264811379522 0 -0.40879971812010862 -0.45532034795956122 0 -0.43209746574787439 -0.45018296005450109 0 -0.41838291479514561 -0.43753264811379522 0 -0.40879971812010862 -0.45532034795956122 0 -0.40757607876061031 -0.47887146546315512 0 -0.42672518272552251 -0.46843942695447499 0 -0.40879971812010862 -0.45532034795956122 0 -0.47838901025646491 -0.28096483992765209 0 -0.5 -0.30217947588156702 0 -0.49999999999999939 -0.237213766015091 0 -0.45646127211515258 -0.27040648428022412 0 -0.4281978941755375 -0.26099862172574168 0 -0.44770979756629281 -0.24953915428251991 0 -0.45646127211515258 -0.27040648428022412 0 -0.43409448004258228 -0.28316422019177617 0 -0.4281978941755375 -0.26099862172574168 0 -0.45646127211515258 -0.27040648428022412 0 -0.47823063605757588 -0.25381012514765738 0 -0.45646127211515258 -0.27040648428022412 0 -0.47823063605757588 -0.25381012514765738 0 -0.44770979756629281 -0.24953915428251991 0 -0.47823063605757588 -0.25381012514765738 0 -0.47838901025646491 -0.28096483992765209 0 -0.49999999999999939 -0.237213766015091 0 -0.45646127211515258 -0.27040648428022412 0 -0.47823063605757588 -0.25381012514765738 0 -0.47838901025646491 -0.28096483992765209 0 -0.47838901025646491 -0.28096483992765209 0 -0.5 -0.30217947588156702 0 -0.47558938277311491 -0.32107086240551808 0 -0.45646127211515258 -0.27040648428022412 0 -0.47838901025646491 -0.28096483992765209 0 -0.45205054802931099 -0.30314452277561088 0 -0.45646127211515258 -0.27040648428022412 0 -0.45205054802931099 -0.30314452277561088 0 -0.43409448004258228 -0.28316422019177617 0 -0.47838901025646491 -0.28096483992765209 0 -0.45205054802931099 -0.30314452277561088 0 -0.47558938277311491 -0.32107086240551808 0 -0.45205054802931099 -0.30314452277561088 0 -0.42864650622383038 -0.30742878711084148 0 -0.43409448004258228 -0.28316422019177617 0 -0.45205054802931099 -0.30314452277561088 0 -0.45398809601026741 -0.33384874142074 0 -0.43172710027119221 -0.32997516627225149 0 -0.45398809
[...]
<PointData Scalars="" Vectors="displacement," Tensors="">
<DataArray type="Float64" Name="displacement" NumberOfComponents="3" format="ascii">
1.8372427898242305e-07 0.034999166328660326 0 -5.9673866372137169e-06 0.031315299404066355 0 1.7092483633551551e-07 0.029065317507500587 0 1.8372427898242305e-07 0.034999166328660326 0 2.4300872028091939e-05 0.033391823790164712 0 -5.9673866372137169e-06 0.031315299404066355 0 1.8372427898242305e-07 0.034999166328660326 0 2.4300872028091939e-05 0.033391823790164712 0 -7.7686929853045683e-08 0.034998649768073299 0 0.00018443881995863659 0.03311931697520086 0 -2.3079376317235303e-09 0.034999349886553316 0 5.9375620114879158e-07 0.034997552121259254 0 0.00034362050795462985 0.033507452419496861 0 9.877116555224434e-08 0.034998755990211086 0 0.00038990905405298097 0.032864642738334629 0 5.9375620114879158e-07 0.034997552121259254 0 0.00034362050795462985 0.033507452419496861 0 0.00034362050795462985 0.033507452419496861 0 9.877116555224434e-08 0.034998755990211086 0 0.00020010164555278107 0.034262259354376351 0 0.00036143661392900781 0.031723322632916585 0 0.00029315544581773177 0.031014614513334742 0 0.00037815338927047772 0.032499279815888148 0 0.00034362050795462985 0.033507452419496861 0 0.00036143661392900781 0.031723322632916585 0 0.00037815338927047772 0.032499279815888148 0 0.00038990905405298097 0.032864642738334629 0 0.00034362050795462985 0.033507452419496861 0 0.00036143661392900781 0.031723322632916585 0 0.00038990905405298097 0.032864642738334629 0 0.00036143661392900781 0.031723322632916585 0 0.00033705824087304319 0.030852983991412362 0 0.00018443881995863659 0.03311931697520086 0 0.0001831838928082583 0.031051900072775081 0 -5.9673866372137169e-06 0.031315299404066355 0 2.72964571587901e-05 0.02909095450264881 0 1.7092483633551551e-07 0.029065317507500587 0 1.7092483633551551e-07 0.029065317507500587 0 3.3340732927376643e-05 0.02744912275980196 0 -1.1692156592109003e-08 0.024565150080347861 0 0.0001831838928082583 0.031051900072775081 0 1.5846157236746573e-05 0.02938791500996012 0 2.72964571587901e-05 0.02909095450264881 0 0.00018764643163136783 0.030138750414390431 0 6.8018953114554713e-05 0.028882082751924706 0 0.00033705824087304319 0.030852983991412362 0 2.72964571587901e-05 0.02909095450264881 0 0.00018764643163136783 0.030138750414390431 0 2.72964571587901e-05 0.02909095450264881 0 1.7092483633551551e-07 0.029065317507500587 0 3.3340732927376643e-05 0.02744912275980196 0 2.72964571587901e-05 0.02909095450264881 0 3.3340732927376643e-05 0.02744912275980196 0 6.8018953114554713e-05 0.028882082751924706 0 3.3340732927376643e-05 0.02744912275980196 0 6.8018953114554713e-05 0.028882082751924706 0 -0.00010571392314184427 0.028273255232465454 0 3.3340732927376643e-05 0.02744912275980196 0 -0.00010571392314184427 0.028273255232465454 0 -7.76881778629677e-05 0.026911538946385156 0 6.8018953114554713e-05 0.028882082751924706 0 -0.00010571392314184427 0.028273255232465454 0 0.00011955173972272883 0.029672727792649949 0 -3.0455476921023213e-06 0.029383405669781679 0 -0.00010571392314184427 0.028273255232465454 0 0.00011955173972272883 0.029672727792649949 0 -3.0455476921023213e-06 0.029383405669781679 0 -0.00010571392314184427 0.028273255232465454 0 -0.00048144906135056553 0.028249626789661402 0 0.00036143661392900781 0.031723322632916585 0 0.00033705824087304319 0.030852983991412362 0 0.00018764643163136783 0.030138750414390431 0 0.00036143661392900781 0.031723322632916585 0 0.00018764643163136783 0.030138750414390431 0 0.00024425578701947251 0.030627419861183357 0 0.00018764643163136783 0.030138750414390431 0 6.8018953114554713e-05 0.028882082751924706 0 0.00011955173972272883 0.029672727792649949 0 0.00018764643163136783 0.030138750414390431 0 0.00011955173972272883 0.029672727792649949 0 0.00024425578701947251 0.030627419861183357 0 -3.0455476921023213e-06 0.029383405669781679 0 0.00011955173972272883 0.029672727792649949 0 0.00029315544581773177 0.031014614513334742 0 0.00011955173972272883 0.029672727792649949 0 0.00024425578701947251 0.030627419861183357 0 0.00029315544581773177 0.031014614513334742 0 0.00036143661392900781 0.031723322632916585 0 0.00024425578701947251 0.030627419861183357 0 0.00029315544581773177 0.031014614513334742 0 0.00029315544581773177 0.031014614513334742 0 0.00028725611728285438 0.031662553912288977 0 0.00034510650976145459 0.032237627107211939 0 0.00029315544581773177 0.031014614513334742 0 0.00037815338927047772 0.032499279815888148 0 0.00034510650976145459 0.032237627107211939 0 0.00029315544581773177 0.031014614513334742 0 0.00028725611728285438 0.031662553912288977 0 0.00011756864728388134 0.030426686689740912 0 -3.0455476921023213e-06 0.029383405669781679 0 0.00029315544581773177 0.031014614513334742 0 0.00011756864728388134 0.030426686689740912 0 0.00028725611728285438 0.031662553912288977 0 0.00026556302315530961 0.032825503950638039 0 0.00034510650976145459 0.032237627107211939 0 -3.0455476921023213e-06 0.029383405669781679 0 -0.00048144906135056553 0.028249626789661402 0 0.00011756864728388134 0.030426686689740912 0 -0.00048144906135056553 0.028249626789661402 0 0.00011756864728388134 0.030426686689740912 0 -3.2044312912509075e-05 0.031273427169921597 0 0.00028725611728285438 0.031662553912288977 0 0.00011756864728388134 0.030426686689740912 0 -3.2044312912509075e-05 0.031273427169921597 0 -0.00054879657984160729 0.028365170409903571 0 -0.00065249551881484244 0.029085512744753832 0 -0.00048144906135056553 0.028249626789661402 0 -0.00097111300734893137 0.03140049235494375 0 -3.2044312912509075e-05 0.031273427169921597 0 -0.00097111300734893137 0.03140049235494375 0 -3.2044312912509075e-05 0.031273427169921597 0 8.6399995878080302e-06 0.032478518300352643 0 -3.2044312912509075e-05 0.031273427169921597 0 8.6399995878080302e-06 0.032478518300352643 0 0.0001741331531001616 0.032322765211978279 0 -0.00065249551881484244 0.029085512744753832 0 -0.00036753591785198192 0.029569541975864037 0 -0.00097111300734893137 0.03140049235494375 0 8.6399995878080302e-06 0.032478518300352643 0 -0.0004110122496803905 0.03255547527315273 0 0.00028725611728285438 0.031662553912288977 0 0.0001741331531001616 0.032322765211978279 0 0.00026556302315530961 0.032825503950638039 0 0.00028725611728285438 0.031662553912288977 0 -3.2044312912509075e-05 0.031273427169921597 0 0.0001741331531001616 0.032322765211978279 0 8.6399995878080302e-06 0.032478518300352643 0 0.0001741331531001616 0.032322765211978279 0 4.2854421322868514e-05 0.033033611038091035 0 0.0001741331531001616 0.032322765211978279 0 4.2854421322868514e-05 0.033033611038091035 0 0.00026556302315530961 0.032825503950638039 0 4.2854421322868514e-05 0.033033611038091035 0 0.00026556302315530961 0.032825503950638039 0 0.00020269250453828222 0.033677187073239398 0 0.00026556302315530961 0.032825503950638039 0 0.00020269250453828222 0.033677187073239398 0 0.00032534181713274432 0.033194475118385081 0 0.00020269250453828222 0.033677187073239398 0 0.00023406770315421898 0.034123672192307608 0 0.00032534181713274432 0.033194475118385081 0 0.00020269250453828222 0.033677187073239398 0 0.00014111572352502885 0.034441713232066379 0 0.00013013287462133188 0.034373551126990011 0 0.00014111572352502885 0.034441713232066379 0 1.5497929274099506e-07 0.034999061413003484 0 1.1015490245384118e-07 0.034999192378013515 0 0.00014111572352502885 0.034441713232066379 0 1.5497929274099506e-07 0.034999061413003484 0 0.00023406770315421898 0.034123672192307608 0 0.00020269250453828222 0.033677187073239398 0 0.00014111572352502885 0.034441713232066379 0 0.00023406770315421898 0.034123672192307608 0 1.5497929274099506e-07 0.034999061413003484 0 0.00023406770315421898 0.034123672192307608 0 2.50711242312202e-07 0.034998701859339343 0 0.00023406770315421898 0.034123672192307608 0 2.50711242312202e-07 0.034998701859339343 0 0.00020010164555278107 0.034262259354376351 0 9.877116555224434e-08 0.034998755990211086 0 2.50711242312202e-07 0.034998701859339343 0 0.00020010164555278107 0.034262259354376351 0 0.00034362050795462985 0.033507452419496861 0 0.00020010164555278107 0.034262259354376351 0 0.0003294006582265021 0.033482218355620819 0 0.00023406770315421898 0.034123672192307608 0 0.00020010164555278107 0.034262259354376351 0 0.0003294006582265021 0.033482218355620819 0 0.00034362050795462985 0.033507452419496861 0 0.0003294006582265021 0.033482218355620819 0 0.00037815338927047772 0.032499279815888148 0 0.0003294006582265021 0.033482218355620819 0 0.00037815338927047772 0.032499279815888148 0 0.00032534181713274432 0.033194475118385081 0 0.00026556302315530961 0.032825503950638039 0 0.00034510650976145459 0.032237627107211939 0 0.00032534181713274432 0.033194475118385081 0 0.00037815338927047772 0.032499279815888148 0 0.00034510650976145459 0.032237627107211939 0 0.00032534181713274432 0.033194475118385081 0 0.00023406770315421898 0.034123672192307608 0 0.0003294006582265021 0.033482218355620819 0 0.00032534181713274432 0.033194475118385081 0 6.6745493221697168e-06 0.021017489575239613 0 9.9808092345511479e-07 0.021153375203944478 0 -2.6265171882115379e-06 0.016609784103224591 0 4.9419817582713804e-06 0.021302050207014568 0 -0.00060528345385225577 0.022709649954018033 0 -0.00055910203043446724 0.020801213905642092 0 4.9419817582713804e-06 0.021302050207014568 0 -3.3452375364449345e-06 0.023210638651636487 0 -0.00060528345385225577 0.022709649954018033 0 5.500474359927725e-05 0.020993458160794481 0 -0.00016211545648956157 0.018899502769407047 0 4.9419817582713804e-06 0.021302050207014568 0 3.9964204996610562e-06 0.017917599403915938 0 -0.00055910203043446724 0.020801213905642092 0 -0.00037155885253671253 0.019776126152151713 0 6.6745493221697168e-06 0.021017489575239613 0 -2.6265171882115379e-06 0.016609784103224591 0 4.9419817582713804e-06 0.021302050207014568 0 -0.00037155885253671253 0.019776126152151713 0 6.6745493221697168e-06 0.021017489575239613 0 6.6745493221697168e-06 0.021017489575239613 0 9.9808092345511479e-07 0.021153375203944478 0 9.6274202862811815e-05 0.023502343731066015 0 4.9419817582713804e-06 0.021302050207014568 0 6.6745493221697168e-06 0.021017489575239613 0 0.00011859210171697151 0.02338840515096751 0 4.9419817582713804e-06 0.021302050207014568 0 0.00011859210171697151 0.02338840515096751 0 -3.3452375364449345e-06 0.023210638651636487 0 6.6745493221697168e-06 0.021017489575239613 0 0.00011859210171697151 0.02338840515096751 0 9.6274202862811815e-05 0.023502343731066015 0 0.00011859210171697151 0.02338840515096751 0 9.2420086501863248e-05 0.024520762440906292 0 -3.3452375364449345e-06 0.023210638651636487 0 0.00011859210171697151 0.02338840515096751 0 9.5125350838129403e-05 0.025054012269022308 0 0.00015034472122102828 0.025428196351986371 0 9.5125350838129403e-05 0.025054012269022308 0 -7.76881778629677e-05 0.026911538946385156 0 0.00015034472122102828 0.025428196351986371 0 9.5125350838129403e-05 0.025054012269022308 0 9.6274202862811815e-05 0.023502343731066015 0 2.0116343150327864e-05 0.025515152454528085 0 0.00011859210171697151 0.02338840515096751 0 9.5125350838129403e-05 0.025054012269022308 0 9.6274202862811815e-05 0.023502343731066015 0 9.9808092345511479e-07 0.021153375203944478 0 9.6274202862811815e-05 0.023502343731066015 0 -1.1692156592109003e-08 0.024565150080347861 0 9.6274202862811815e-05 0.023502343731066015 0 2.0116343150327864e-05 0.025515152454528085 0 -1.1692156592109003e-08 0.024565150080347861 0 3.3340732927376643e-05 0.02744912275980196 0 2.0116343150327864e-05 0.025515152454528085 0 -1.1692156592109003e-08 0.024565150080347861 0 3.3340732927376643e-05 0.02744912275980196 0 2.0116343150327864e-05 0.025515152454528085 0 -7.76881778629677e-05 0.026911538946385156 0 9.5125350838129403e-05 0.025054012269022308 0 2.0116343150327864e-05 0.025515152454528085 0 -7.76881778629677e-05 0.026911538946385156 0 -0.00010571392314184427 0.028273255232465454 0 -0.00048144906135056553 0.028249626789661402 0 -7.76881778629677e-05 0.026911538946385156 0 -0.00048144906135056553 0.028249626789661402 0 -7.76881778629677e-05 0.026911538946385156 0 0.00016336887692147936 0.026488156286202567 0 -7.76881778629677e-05 0.026911538946385156 0 0.00016336887692147936 0.026488156286202567 0 0.00015034472122102828 0.025428196351986371 0 -0.00048144906135056553 0.028249626789661402 0 0.00016336887692147936 0.026488156286202567 0 5.5985592278518507e-05 0.026649573216300529 0 -0.00048144906135056553 0.028249626789661402 0 -0.00048753960381797988 0.026808713047666331 0 5.5985592278518507e-05 0.026649573216300529 0 -0.00048753960381797988 0.026808713047666331 0 -0.00013098610729024121 0.026628814167457607 0 5.5985592278518507e-05 0.026649573216300529 0 -0.00023168851575217143 0.026547861048427331 0 -0.00013098610729024121 0.026628814167457607 0 -0.00015327411172559366 0.026514014352586424 0 -0.00048753960381797988 0.026808713047666331 0 -0.00023168851575217143 0.026547861048427331 0 -0.00013098610729024121 0.026628814167457607 0 -0.00013098610729024121 0.026628814167457607 0 6.9441751047600306e-05 0.026719694641557865 0 -0.00015327411172559366 0.026514014352586424 0 9.9895932078797586e-05 0.026849244384050626 0 -4.1570908398750498e-05 0.026758071567612032 0 0.00016336887692147936 0.026488156286202567 0 5.5985592278518507e-05 0.026649573216300529 0 5.2048729743275993e-05 0.026406924154409026 0 -0.00013098610729024121 0.026628814167457607 0 6.9441751047600306e-05 0.026719694641557865 0 5.5985592278518507e-05 0.026649573216300529 0 6.9441751047600306e-05 0.026719694641557865 0 5.5985592278518507e-05 0.026649573216300529 0 5.2048729743275993e-05 0.026406924154409026 0 6.9441751047600306e-05 0.026719694641557865 0 5.2048729743275993e-05 0.026406924154409026 0 -0.00041623308374657848 0.027209506568335151 0 6.9441751047600306e-05 0.026719694641557865 0 -0.00041623308374657848 0.027209506568335151 0 -0.00016298496474849067 0.027514392479647962 0 -0.00088914042898462513 0.026720801057345134 0 -0.00072035876344404056 0.027476012478049431 0 -0.00041623308374657848 0.027209506568335151 0 5.2048729743275993e-05 0.026406924154409026 0 -0.00088914042898462513 0.026720801057345134 0 -0.00041623308374657848 0.027209506568335151 0 5.2048729743275993e-05 0.026406924154409026 0 -3.68077584308501e-05 0.025455264465814288 0 -0.00088914042898462513 0.026720801057345134 0 0.00016336887692147936 0.026488156286202567 0 5.2048729743275993e-05 0.026406924154409026 0 -3.68077584308501e-05 0.025455264465814288 0 0.00016336887692147936 0.026488156286202567 0 -3.68077584308501e-05 0.025455264465814288 0 0.00015034472122102828 0.025428196351986371 0 0.00011859210171697151 0.02338840515096751 0 0.00015034472122102828 0.025428196351986371 0 9.2420086501863248e-05 0.024520762440906292 0 -3.68077584308501e-05 0.025455264465814288 0 0.00015034472122102828 0.025428196351986371 0 9.2420086501863248e-05 0.024520762440906292 0 9.2420086501863248e-05 0.024520762440906292 0 -3.3452375364449345e-06 0.023210638651636487 0 6.2506937339237113e-05 0.024376998884380927 0 6.2506937339237113e-05 0.024376998884380927 0 6.0864235287425968e-05 0.024800232139654373 0 -0.00042403260532610914 0.024019963933028174 0 -3.3452375364449345e-06 0.023210638651636487 0 6.2506937339237113e-05 0.024376998884380927 0 -0.00042403260532610914 0.024019963933028174 0 -3.68077584308501e-05 0.025455264465814288 0 6.2506937339237113e-05 0.024376998884380927 0 6.0864235287425968e-05 0.024800232139654373 0 -3.68077584308501e-05 0.025455264465814288 0 9.2420086501863248e-05 0.024520762440906292 0 6.2506937339237113e-05 0.024376998884380927 0 -3.68077584308501e-05 0.025455264465814288 0 0.00022786326546084709 0.025097889372147165 0 6.0864235287425968e-05 0.024800232139654373 0 -5.3687499086878334e-05 0.02547284130751528 0 -0.00030430528876193233 0.025932324070269047 0 0.00022786326546084709 0.025097889372147165 0 -0.00015074035428093042 0.025364711209373562 0 5.9370832304499419e-05 0.02615872403968738 0 -0.00030430528876193233 0.025932324070269047 0 -0.00050986878120644959 0.026752487013030606 0 0.00022786326546084709 0.025097889372147165 0 -0.00015074035428093042 0.025364711209373562 0 6.0864235287425968e-05 0.024800232139654373 0 -0.00015074035428093042 0.025364711209373562 0 6.0864235287425968e-05 0.024800232139654373 0 -0.00072561519303947827 0.0251018939652944 0 6.0864235287425968e-05 0.024800232139654373 0 -0.00072561519303947827 0.0251018939652944 0 -0.00042403260532610914 0.024019963933028174 0 -0.00015074035428093042 0.025364711209373562 0 -0.00072561519303947827 0.0251018939652944 0 -0.0006831541243409394 0.025782363657641794 0 -0.00015074035428093042 0.025364711209373562 0 -0.0006831541243409394 0.025782363657641794 0 5.9370832304499419e-05 0.02615872403968738 0 -0.00072561519303947827 0.0251018939652944 0 -0.0006831541243409394 0.025782363657641794 0 -0.0011874596021883813 0.025604881448787413 0 -0.00072561519303947827 0.0251018939652944 0 -0.0011874596021883813 0.025604881448787413 0 -0.0015970969089313411 0.025258572827282687 0 -0.0011874596021883813 0.025604881448787413 0 -0.0015970969089313411 0.025258572827282687 0 -0.0015649513421791554 0.026030645057535357 0 -0.0011874596021883813 0.025604881448787413 0 -0.0011390059276122216 0.026066742347657525 0 -0.0015649513421791554 0.026030645057535357 0 -0.0006831541243409394 0.025782363657641794 0 -0.0011874596021883813 0.025604881448787413 0 -0.0011390059276122216 0.026066742347657525 0 -0.00072561519303947827 0.0251018939652944 0 -0.0015970969089313411 0.025258572827282687 0 -0.0015193502457802749 0.024600118280657276 0 -0.00072561519303947827 0.0251018939652944 0 -0.0015193502457802749 0.024600118280657276 0 -0.00042403260532610914 0.024019963933028174 0 -0.0015193502457802749 0.024600118280657276 0 -0.0013331694095123187 0.023689689890030279 0 -0.00042403260532610914 0.024019963933028174 0 -0.0013331694095123187 0.023689689890030279 0 -0.00042403260532610914 0.024019963933028174 0 -0.00060528345385225577 0.022709649954018033 0 -3.3452375364449345e-06 0.023210638651636487 0 -0.00042403260532610914 0.024019963933028174 0 -0.00060528345385225577 0.022709649954018033 0 -0.00060528345385225577 0.022709649954018033 0 -0.00099216824714576141 0.02223337025930967 0 -0.00055910203043446724 0.020801213905642092 0 -0.0013331694095123187 0.023689689890030279 0 -0.00060528345385225577 0.022709649954018033 0 -0.0020013383663631231 0.022965461139592327 0 -0.00057724778463599921 0.02263045475286066 0 -0.0017130112189703752 0.022683680545174036 0 -0.0013516362122173436 0.028059082719562929 0 -0.0012297454858124677 0.028211962928764149 0 -0.0011662882490649795 0.028022403887677665 0 -0.0013516362122173436 0.028059082719562929 0 -0.0015193957431297372 0.027889069269579757 0 -0.0015446400908461758 0.028070864378922755 0 -0.0013516362122173436 0.028059082719562929 0 -0.0013894731712823759 0.028211317785189892 0 -0.0015446400908461758 0.028070864378922755 0 -0.0013516362122173436 0.028059082719562929 0 -0.0013894731712823759 0.028211317785189892 0 -0.0012297454858124677 0.028211962928764149 0 -0.0012297454858124677 0.028211962928764149 0 -0.0010855056452966734 0.028225756161428625 0 -0.0011535447303310819 0.02840659706929587 0 -0.0012297454858124677 0.028211962928764149 0 -0.0010855056452966734 0.028225756161428625 0 -0.0011662882490649795 0.028022403887677665 0 -0.0010855056452966734 0.028225756161428625 0 -0.0011662882490649795 0.028022403887677665 0 -0.001057715110589921 0.028043925520143249 0 -0.0011662882490649795 0.028022403887677665 0 -0.001057715110589921 0.028043925520143249 0 -0.0010118431780583444 0.027761583533470104 0 -0.0010118431780583444 0.027761583533470104 0 -0.00091681052033219378 0.027529245933765968 0 -0.00083170775286317946 0.027631245073618967 0 -0.001057715110589921 0.028043925520143249 0 -0.0010118431780583444 0.027761583533470104 0 -0.001012724714738665 0.028127595741098261 0 -0.0010855056452966734 0.028225756161428625 0 -0.001057715110589921 0.028043925520143249 0 -0.001012724714738665 0.028127595741098261 0 -0.0010118431780583