<?xml version="1.0"?>
<VTKFile type="UnstructuredGrid" version="0.1" byte_order="LittleEndian">
<UnstructuredGrid>
<Piece NumberOfPoints="29639" NumberOfCells="10356">
<Points>
<DataArray type="Float64" NumberOfComponents="3" format="ascii">
-0.5 -0.5 0 -0.48513641781356998 -0.44232289521854218 0 -0.5 -0.41520400797710227 0 -0.5 -0.5 0 -0.479084235063854 -0.47116144760927059 0 -0.48513641781356998 -0.44232289521854218 0 -0.5 -0.5 0 -0.479084235063854 -0.47116144760927059 0 -0.47303205231413831 -0.49999999999999889 0 -0.479084235063854 -0.47116144760927059 0 -0.47303205231413831 -0.49999999999999889 0 -0.47303205231413831 -0.49999999999999889 0 -0.44914930997700298 -0.47421247022984209 0 -0.44677511310469742 -0.5 0 -0.479084235063854 -0.47116144760927059 0 -0.47303205231413831 -0.49999999999999889 0 -0.44914930997700298 -0.47421247022984209 0 -0.44914930997700298 -0.47421247022984209 0 -0.44677511310469742 -0.5 0 -0.4318620150268348 -0.48547934911197799 0 -0.45149513518133783 -0.44361409070835278 0 -0.43517811240424109 -0.42345142660842727 0 -0.43209746574787439 -0.45018296005450109 0 -0.44914930997700298 -0.47421247022984209 0 -0.45149513518133783 -0.44361409070835278 0 -0.43209746574787439 -0.45018296005450109 0 -0.479084235063854 -0.47116144760927059 0 -0.44914930997700298 -0.47421247022984209 0 -0.45149513518133783 -0.44361409070835278 0 -0.479084235063854 -0.47116144760927059 0 -0.45149513518133783 -0.44361409070835278 0 -0.48513641781356998 -0.44232289521854218 0 -0.479084235063854 -0.47116144760927059 0 -0.48513641781356998 -0.44232289521854218 0 -0.48513641781356998 -0.44232289521854218 0 -0.49118860056328589 -0.4134843428278141 0 -0.5 -0.41520400797710227 0 -0.5 -0.41520400797710227 0 -0.4753212933574047 -0.38326629246186178 0 -0.5 -0.3509171147786575 0 -0.48513641781356998 -0.44232289521854218 0 -0.49118860056328589 -0.4134843428278141 0 -0.49118860056328589 -0.4134843428278141 0 -0.46939920567229848 -0.42396587137449548 0 -0.46746292176092408 -0.40308173034355588 0 -0.48513641781356998 -0.44232289521854218 0 -0.49118860056328589 -0.4134843428278141 0 -0.46939920567229848 -0.42396587137449548 0 -0.49118860056328589 -0.4134843428278141 0 -0.5 -0.41520400797710227 0 -0.4753212933574047 -0.38326629246186178 0 -0.49118860056328589 -0.4134843428278141 0 -0.4753212933574047 -0.38326629246186178 0 -0.46746292176092408 -0.40308173034355588 0 -0.4753212933574047 -0.38326629246186178 0 -0.46746292176092408 -0.40308173034355588 0 -0.44911761940056172 -0.38518012325116557 0 -0.4753212933574047 -0.38326629246186178 0 -0.44911761940056172 -0.38518012325116557 0 -0.44579434291897779 -0.36051315755711588 0 -0.46746292176092408 -0.40308173034355588 0 -0.44911761940056172 -0.38518012325116557 0 -0.45228788981106932 -0.40951202180244201 0 -0.43819167851704982 -0.39783490279328382 0 -0.44911761940056172 -0.38518012325116557 0 -0.45228788981106932 -0.40951202180244201 0 -0.43819167851704982 -0.39783490279328382 0 -0.44911761940056172 -0.38518012325116557 0 -0.42624814434193309 -0.37552565215950079 0 -0.45149513518133783 -0.44361409070835278 0 -0.48513641781356998 -0.44232289521854218 0 -0.46939920567229848 -0.42396587137449548 0 -0.45149513518133783 -0.44361409070835278 0 -0.46939920567229848 -0.42396587137449548 0 -0.45209008576723669 -0.42513585262342951 0 -0.46939920567229848 -0.42396587137449548 0 -0.46746292176092408 -0.40308173034355588 0 -0.45228788981106932 -0.40951202180244201 0 -0.46939920567229848 -0.42396587137449548 0 -0.45228788981106932 -0.40951202180244201 0 -0.45209008576723669 -0.42513585262342951 0 -0.43819167851704982 -0.39783490279328382 0 -0.45228788981106932 -0.40951202180244201 0 -0.43517811240424109 -0.42345142660842727 0 -0.45228788981106932 -0.40951202180244201 0 -0.45209008576723669 -0.42513585262342951 0 -0.43517811240424109 -0.42345142660842727 0 -0.45149513518133783 -0.44361409070835278 0 -0.45209008576723669 -0.42513585262342951 0 -0.43517811240424109 -0.42345142660842727 0 -0.43517811240424109 -0.42345142660842727 0 -0.41272141063900519 -0.4195288393027613 0 -0.41838291479514561 -0.43753264811379522 0 -0.43517811240424109 -0.42345142660842727 0 -0.43209746574787439 -0.45018296005450109 0 -0.41838291479514561 -0.43753264811379522 0 -0.43517811240424109 -0.42345142660842727 0 -0.41272141063900519 -0.4195288393027613 0 -0.42240061962376252 -0.40332690502182922 0 -0.43819167851704982 -0.39783490279328382 0 -0.43517811240424109 -0.42345142660842727 0 -0.42240061962376252 -0.40332690502182922 0 -0.41272141063900519 -0.4195288393027613 0 -0.39703906911564751 -0.43811924701277227 0 -0.41838291479514561 -0.43753264811379522 0 -0.43819167851704982 -0.39783490279328382 0 -0.42624814434193309 -0.37552565215950079 0 -0.42240061962376252 -0.40332690502182922 0 -0.42624814434193309 -0.37552565215950079 0 -0.42240061962376252 -0.40332690502182922 0 -0.40534685359511041 -0.39567693811897409 0 -0.41272141063900519 -0.4195288393027613 0 -0.42240061962376252 -0.40332690502182922 0 -0.40534685359511041 -0.39567693811897409 0 -0.42624814434193309 -0.37552565215950079 0 -0.40092199127304728 -0.37751727064389201 0 -0.42624814434193309 -0.37552565215950079 0 -0.40092199127304728 -0.37751727064389201 0 -0.40534685359511041 -0.39567693811897409 0 -0.40092199127304728 -0.37751727064389201 0 -0.40534685359511041 -0.39567693811897409 0 -0.38162974438469599 -0.39802956078147628 0 -0.40534685359511041 -0.39567693811897409 0 -0.38162974438469599 -0.39802956078147628 0 -0.39411930394048672 -0.41628065904863581 0 -0.40092199127304728 -0.37751727064389201 0 -0.37559583820416131 -0.37950888912828312 0 -0.40092199127304728 -0.37751727064389201 0 -0.38162974438469599 -0.39802956078147628 0 -0.37559583820416131 -0.37950888912828312 0 -0.41272141063900519 -0.4195288393027613 0 -0.39411930394048672 -0.41628065904863581 0 -0.39703906911564751 -0.43811924701277227 0 -0.41272141063900519 -0.4195288393027613 0 -0.40534685359511041 -0.39567693811897409 0 -0.39411930394048672 -0.41628065904863581 0 -0.38162974438469599 -0.39802956078147628 0 -0.39411930394048672 -0.41628065904863581 0 -0.37546626425513469 -0.4284232638147436 0 -0.39411930394048672 -0.41628065904863581 0 -0.37546626425513469 -0.4284232638147436 0 -0.39703906911564751 -0.43811924701277227 0 -0.37546626425513469 -0.4284232638147436 0 -0.39703906911564751 -0.43811924701277227 0 -0.38287386886335317 -0.45904196606201159 0 -0.39703906911564751 -0.43811924701277227 0 -0.38287386886335317 -0.45904196606201159 0 -0.40879971812010862 -0.45532034795956122 0 -0.38287386886335317 -0.45904196606201159 0 -0.40757607876061031 -0.47887146546315512 0 -0.40879971812010862 -0.45532034795956122 0 -0.38287386886335317 -0.45904196606201159 0 -0.38305906849826488 -0.48297685139704383 0 -0.36257986470516979 -0.47697082546005237 0 -0.38305906849826488 -0.48297685139704383 0 -0.39426123468581592 -0.5 0 -0.36800429547637509 -0.5 0 -0.38305906849826488 -0.48297685139704383 0 -0.39426123468581592 -0.5 0 -0.40757607876061031 -0.47887146546315512 0 -0.38287386886335317 -0.45904196606201159 0 -0.38305906849826488 -0.48297685139704383 0 -0.40757607876061031 -0.47887146546315512 0 -0.39426123468581592 -0.5 0 -0.40757607876061031 -0.47887146546315512 0 -0.42051817389525659 -0.5 0 -0.40757607876061031 -0.47887146546315512 0 -0.42051817389525659 -0.5 0 -0.4318620150268348 -0.48547934911197799 0 -0.44677511310469742 -0.5 0 -0.42051817389525659 -0.5 0 -0.4318620150268348 -0.48547934911197799 0 -0.44914930997700298 -0.47421247022984209 0 -0.4318620150268348 -0.48547934911197799 0 -0.42672518272552251 -0.46843942695447499 0 -0.40757607876061031 -0.47887146546315512 0 -0.4318620150268348 -0.48547934911197799 0 -0.42672518272552251 -0.46843942695447499 0 -0.44914930997700298 -0.47421247022984209 0 -0.42672518272552251 -0.46843942695447499 0 -0.43209746574787439 -0.45018296005450109 0 -0.42672518272552251 -0.46843942695447499 0 -0.43209746574787439 -0.45018296005450109 0 -0.40879971812010862 -0.45532034795956122 0 -0.39703906911564751 -0.43811924701277227 0 -0.41838291479514561 -0.43753264811379522 0 -0.40879971812010862 -0.45532034795956122 0 -0.43209746574787439 -0.45018296005450109 0 -0.41838291479514561 -0.43753264811379522 0 -0.40879971812010862 -0.45532034795956122 0 -0.40757607876061031 -0.47887146546315512 0 -0.42672518272552251 -0.46843942695447499 0 -0.40879971812010862 -0.45532034795956122 0 -0.47838901025646491 -0.28096483992765209 0 -0.5 -0.30217947588156702 0 -0.49999999999999939 -0.237213766015091 0 -0.45646127211515258 -0.27040648428022412 0 -0.4281978941755375 -0.26099862172574168 0 -0.44770979756629281 -0.24953915428251991 0 -0.45646127211515258 -0.27040648428022412 0 -0.43409448004258228 -0.28316422019177617 0 -0.4281978941755375 -0.26099862172574168 0 -0.45646127211515258 -0.27040648428022412 0 -0.47823063605757588 -0.25381012514765738 0 -0.45646127211515258 -0.27040648428022412 0 -0.47823063605757588 -0.25381012514765738 0 -0.44770979756629281 -0.24953915428251991 0 -0.47823063605757588 -0.25381012514765738 0 -0.47838901025646491 -0.28096483992765209 0 -0.49999999999999939 -0.237213766015091 0 -0.45646127211515258 -0.27040648428022412 0 -0.47823063605757588 -0.25381012514765738 0 -0.47838901025646491 -0.28096483992765209 0 -0.47838901025646491 -0.28096483992765209 0 -0.5 -0.30217947588156702 0 -0.47558938277311491 -0.32107086240551808 0 -0.45646127211515258 -0.27040648428022412 0 -0.47838901025646491 -0.28096483992765209 0 -0.45205054802931099 -0.30314452277561088 0 -0.45646127211515258 -0.27040648428022412 0 -0.45205054802931099 -0.30314452277561088 0 -0.43409448004258228 -0.28316422019177617 0 -0.47838901025646491 -0.28096483992765209 0 -0.45205054802931099 -0.30314452277561088 0 -0.47558938277311491 -0.32107086240551808 0 -0.45205054802931099 -0.30314452277561088 0 -0.42864650622383038 -0.30742878711084148 0 -0.43409448004258228 -0.28316422019177617 0 -0.45205054802931099 -0.30314452277561088 0 -0.45398809601026741 -0.33384874142074 0 -0.43172710027119221 -0.32997516627225149 0 -0.45398809
[...]
<PointData Scalars="" Vectors="displacement," Tensors="">
<DataArray type="Float64" Name="displacement" NumberOfComponents="3" format="ascii">
0.035000302051853789 0.034997377495739002 0 0.031093160649657024 0.035568472656736912 0 0.029065414193199433 0.034996301197047365 0 0.035000302051853789 0.034997377495739002 0 0.033342620583902326 0.035464851328485737 0 0.031093160649657024 0.035568472656736912 0 0.035000302051853789 0.034997377495739002 0 0.033342620583902326 0.035464851328485737 0 0.034997858355144087 0.033118389266650429 0 0.033305904852700983 0.033485531576478468 0 0.034999022248894299 0.033112298755092605 0 0.034999337215746849 0.033106794781773086 0 0.034015001780471947 0.031503114146612055 0 0.034998498078069103 0.031275874757384255 0 0.033548673488015053 0.031589890188944182 0 0.034999337215746849 0.033106794781773086 0 0.034015001780471947 0.031503114146612055 0 0.034015001780471947 0.031503114146612055 0 0.034998498078069103 0.031275874757384255 0 0.034511981241610167 0.030483799520230254 0 0.031978838091164662 0.032045339178847089 0 0.031153365618358127 0.032005447009979808 0 0.032710071987475144 0.031228761814442275 0 0.034015001780471947 0.031503114146612055 0 0.031978838091164662 0.032045339178847089 0 0.032710071987475144 0.031228761814442275 0 0.033548673488015053 0.031589890188944182 0 0.034015001780471947 0.031503114146612055 0 0.031978838091164662 0.032045339178847089 0 0.033548673488015053 0.031589890188944182 0 0.031978838091164662 0.032045339178847089 0 0.031357929371655241 0.031941383783107215 0 0.033305904852700983 0.033485531576478468 0 0.031308115018695279 0.033837397407514923 0 0.031093160649657024 0.035568472656736912 0 0.029136325253372699 0.034504687120881207 0 0.029065414193199433 0.034996301197047365 0 0.029065414193199433 0.034996301197047365 0 0.027641443776118168 0.034153009129609266 0 0.024566307128467225 0.034997669791786368 0 0.031308115018695279 0.033837397407514923 0 0.029425030439781816 0.034372068823488033 0 0.029136325253372699 0.034504687120881207 0 0.030227836362521528 0.032833491839175187 0 0.029115677044269705 0.033465952791667045 0 0.031357929371655241 0.031941383783107215 0 0.029136325253372699 0.034504687120881207 0 0.030227836362521528 0.032833491839175187 0 0.029136325253372699 0.034504687120881207 0 0.029065414193199433 0.034996301197047365 0 0.027641443776118168 0.034153009129609266 0 0.029136325253372699 0.034504687120881207 0 0.027641443776118168 0.034153009129609266 0 0.029115677044269705 0.033465952791667045 0 0.027641443776118168 0.034153009129609266 0 0.029115677044269705 0.033465952791667045 0 0.028440824354741465 0.033431625377373438 0 0.027641443776118168 0.034153009129609266 0 0.028440824354741465 0.033431625377373438 0 0.026693870333421015 0.033986006379547018 0 0.029115677044269705 0.033465952791667045 0 0.028440824354741465 0.033431625377373438 0 0.029897928592356893 0.032874917425410884 0 0.029632650739269503 0.03280761913384643 0 0.028440824354741465 0.033431625377373438 0 0.029897928592356893 0.032874917425410884 0 0.029632650739269503 0.03280761913384643 0 0.028440824354741465 0.033431625377373438 0 0.028304963526291589 0.033405150600398309 0 0.031978838091164662 0.032045339178847089 0 0.031357929371655241 0.031941383783107215 0 0.030227836362521528 0.032833491839175187 0 0.031978838091164662 0.032045339178847089 0 0.030227836362521528 0.032833491839175187 0 0.030803354856162087 0.032459557018906626 0 0.030227836362521528 0.032833491839175187 0 0.029115677044269705 0.033465952791667045 0 0.029897928592356893 0.032874917425410884 0 0.030227836362521528 0.032833491839175187 0 0.029897928592356893 0.032874917425410884 0 0.030803354856162087 0.032459557018906626 0 0.029632650739269503 0.03280761913384643 0 0.029897928592356893 0.032874917425410884 0 0.031153365618358127 0.032005447009979808 0 0.029897928592356893 0.032874917425410884 0 0.030803354856162087 0.032459557018906626 0 0.031153365618358127 0.032005447009979808 0 0.031978838091164662 0.032045339178847089 0 0.030803354856162087 0.032459557018906626 0 0.031153365618358127 0.032005447009979808 0 0.031153365618358127 0.032005447009979808 0 0.031484412965132304 0.03113150310040803 0 0.032253242097575262 0.030890070219454013 0 0.031153365618358127 0.032005447009979808 0 0.032710071987475144 0.031228761814442275 0 0.032253242097575262 0.030890070219454013 0 0.031153365618358127 0.032005447009979808 0 0.031484412965132304 0.03113150310040803 0 0.030504491466654966 0.032113983258159555 0 0.029632650739269503 0.03280761913384643 0 0.031153365618358127 0.032005447009979808 0 0.030504491466654966 0.032113983258159555 0 0.031484412965132304 0.03113150310040803 0 0.032611342067092083 0.029689698566338386 0 0.032253242097575262 0.030890070219454013 0 0.029632650739269503 0.03280761913384643 0 0.028304963526291589 0.033405150600398309 0 0.030504491466654966 0.032113983258159555 0 0.028304963526291589 0.033405150600398309 0 0.030504491466654966 0.032113983258159555 0 0.030852272714253982 0.031433063143141184 0 0.031484412965132304 0.03113150310040803 0 0.030504491466654966 0.032113983258159555 0 0.030852272714253982 0.031433063143141184 0 0.0284363871422442 0.033089903178030004 0 0.028901387692889472 0.032087920394038426 0 0.028304963526291589 0.033405150600398309 0 0.031296024106664107 0.031282668017660074 0 0.030852272714253982 0.031433063143141184 0 0.031296024106664107 0.031282668017660074 0 0.030852272714253982 0.031433063143141184 0 0.031624900692169389 0.029731363226015235 0 0.030852272714253982 0.031433063143141184 0 0.031624900692169389 0.029731363226015235 0 0.031772123974015222 0.030136760456199327 0 0.028901387692889472 0.032087920394038426 0 0.029361506575642828 0.031365090140437812 0 0.031296024106664107 0.031282668017660074 0 0.031624900692169389 0.029731363226015235 0 0.03230628740663908 0.029474056337723698 0 0.031484412965132304 0.03113150310040803 0 0.031772123974015222 0.030136760456199327 0 0.032611342067092083 0.029689698566338386 0 0.031484412965132304 0.03113150310040803 0 0.030852272714253982 0.031433063143141184 0 0.031772123974015222 0.030136760456199327 0 0.031624900692169389 0.029731363226015235 0 0.031772123974015222 0.030136760456199327 0 0.03245621963682091 0.028671466578788551 0 0.031772123974015222 0.030136760456199327 0 0.03245621963682091 0.028671466578788551 0 0.032611342067092083 0.029689698566338386 0 0.03245621963682091 0.028671466578788551 0 0.032611342067092083 0.029689698566338386 0 0.03376058054905428 0.02823078892214952 0 0.032611342067092083 0.029689698566338386 0 0.03376058054905428 0.02823078892214952 0 0.03328213290556651 0.029890458877425922 0 0.03376058054905428 0.02823078892214952 0 0.034313542990757645 0.029158043722522904 0 0.03328213290556651 0.029890458877425922 0 0.03376058054905428 0.02823078892214952 0 0.034568314660160984 0.027439857077956056 0 0.034558659228289886 0.026364391961034152 0 0.034568314660160984 0.027439857077956056 0 0.034998738155260521 0.02759933376911268 0 0.034998799249317432 0.025761338731928329 0 0.034568314660160984 0.027439857077956056 0 0.034998738155260521 0.02759933376911268 0 0.034313542990757645 0.029158043722522904 0 0.03376058054905428 0.02823078892214952 0 0.034568314660160984 0.027439857077956056 0 0.034313542990757645 0.029158043722522904 0 0.034998738155260521 0.02759933376911268 0 0.034313542990757645 0.029158043722522904 0 0.034998739370625663 0.029436525692136267 0 0.034313542990757645 0.029158043722522904 0 0.034998739370625663 0.029436525692136267 0 0.034511981241610167 0.030483799520230254 0 0.034998498078069103 0.031275874757384255 0 0.034998739370625663 0.029436525692136267 0 0.034511981241610167 0.030483799520230254 0 0.034015001780471947 0.031503114146612055 0 0.034511981241610167 0.030483799520230254 0 0.033763741670371418 0.030557373063762723 0 0.034313542990757645 0.029158043722522904 0 0.034511981241610167 0.030483799520230254 0 0.033763741670371418 0.030557373063762723 0 0.034015001780471947 0.031503114146612055 0 0.033763741670371418 0.030557373063762723 0 0.032710071987475144 0.031228761814442275 0 0.033763741670371418 0.030557373063762723 0 0.032710071987475144 0.031228761814442275 0 0.03328213290556651 0.029890458877425922 0 0.032611342067092083 0.029689698566338386 0 0.032253242097575262 0.030890070219454013 0 0.03328213290556651 0.029890458877425922 0 0.032710071987475144 0.031228761814442275 0 0.032253242097575262 0.030890070219454013 0 0.03328213290556651 0.029890458877425922 0 0.034313542990757645 0.029158043722522904 0 0.033763741670371418 0.030557373063762723 0 0.03328213290556651 0.029890458877425922 0 0.020739984211808792 0.03551065451582075 0 0.02115539631468065 0.034998479421155866 0 0.016607386941666566 0.034999340305626805 0 0.021212557658365057 0.03600639126162529 0 0.022648260850361104 0.037129883584366759 0 0.020008887783339792 0.03650575263022731 0 0.021212557658365057 0.03600639126162529 0 0.022848757581337528 0.036084207093198525 0 0.022648260850361104 0.037129883584366759 0 0.020911016545601561 0.036073625103091783 0 0.018925902159631594 0.035579138526633712 0 0.021212557658365057 0.03600639126162529 0 0.019065516293891405 0.035401857021972995 0 0.020008887783339792 0.03650575263022731 0 0.018677158158729352 0.035775351145935781 0 0.020739984211808792 0.03551065451582075 0 0.016607386941666566 0.034999340305626805 0 0.021212557658365057 0.03600639126162529 0 0.018677158158729352 0.035775351145935781 0 0.020739984211808792 0.03551065451582075 0 0.020739984211808792 0.03551065451582075 0 0.02115539631468065 0.034998479421155866 0 0.023409988315600535 0.035058942944959884 0 0.021212557658365057 0.03600639126162529 0 0.020739984211808792 0.03551065451582075 0 0.023172712919477374 0.035446123880880719 0 0.021212557658365057 0.03600639126162529 0 0.023172712919477374 0.035446123880880719 0 0.022848757581337528 0.036084207093198525 0 0.020739984211808792 0.03551065451582075 0 0.023172712919477374 0.035446123880880719 0 0.023409988315600535 0.035058942944959884 0 0.023172712919477374 0.035446123880880719 0 0.024065853074003808 0.035130246522939626 0 0.022848757581337528 0.036084207093198525 0 0.023172712919477374 0.035446123880880719 0 0.024814716107952297 0.034746557443529877 0 0.025085234936136278 0.034687649577348059 0 0.024814716107952297 0.034746557443529877 0 0.026693870333421015 0.033986006379547018 0 0.025085234936136278 0.034687649577348059 0 0.024814716107952297 0.034746557443529877 0 0.023409988315600535 0.035058942944959884 0 0.025406092006133054 0.034605597523999221 0 0.023172712919477374 0.035446123880880719 0 0.024814716107952297 0.034746557443529877 0 0.023409988315600535 0.035058942944959884 0 0.02115539631468065 0.034998479421155866 0 0.023409988315600535 0.035058942944959884 0 0.024566307128467225 0.034997669791786368 0 0.023409988315600535 0.035058942944959884 0 0.025406092006133054 0.034605597523999221 0 0.024566307128467225 0.034997669791786368 0 0.027641443776118168 0.034153009129609266 0 0.025406092006133054 0.034605597523999221 0 0.024566307128467225 0.034997669791786368 0 0.027641443776118168 0.034153009129609266 0 0.025406092006133054 0.034605597523999221 0 0.026693870333421015 0.033986006379547018 0 0.024814716107952297 0.034746557443529877 0 0.025406092006133054 0.034605597523999221 0 0.026693870333421015 0.033986006379547018 0 0.028440824354741465 0.033431625377373438 0 0.028304963526291589 0.033405150600398309 0 0.026693870333421015 0.033986006379547018 0 0.028304963526291589 0.033405150600398309 0 0.026693870333421015 0.033986006379547018 0 0.025987215164742859 0.033999999603385248 0 0.026693870333421015 0.033986006379547018 0 0.025987215164742859 0.033999999603385248 0 0.025085234936136278 0.034687649577348059 0 0.028304963526291589 0.033405150600398309 0 0.025987215164742859 0.033999999603385248 0 0.026335310876372125 0.033457741757059484 0 0.028304963526291589 0.033405150600398309 0 0.026658206580925332 0.033302078907847234 0 0.026335310876372125 0.033457741757059484 0 0.026658206580925332 0.033302078907847234 0 0.026339935111968069 0.032865281515826177 0 0.026335310876372125 0.033457741757059484 0 0.026239462872334498 0.032780012158674918 0 0.026339935111968069 0.032865281515826177 0 0.026353989051178139 0.032737882026937101 0 0.026658206580925332 0.033302078907847234 0 0.026239462872334498 0.032780012158674918 0 0.026339935111968069 0.032865281515826177 0 0.026339935111968069 0.032865281515826177 0 0.026199540522427567 0.032400314101760003 0 0.026353989051178139 0.032737882026937101 0 0.026417208065972916 0.032297185216987163 0 0.026298241769586325 0.031297777472554557 0 0.025987215164742859 0.033999999603385248 0 0.026335310876372125 0.033457741757059484 0 0.025944026441643779 0.033112558003942048 0 0.026339935111968069 0.032865281515826177 0 0.026199540522427567 0.032400314101760003 0 0.026335310876372125 0.033457741757059484 0 0.026199540522427567 0.032400314101760003 0 0.026335310876372125 0.033457741757059484 0 0.025944026441643779 0.033112558003942048 0 0.026199540522427567 0.032400314101760003 0 0.025944026441643779 0.033112558003942048 0 0.026887492149489777 0.030901346516256433 0 0.026199540522427567 0.032400314101760003 0 0.026887492149489777 0.030901346516256433 0 0.026800074861763466 0.03010782001255348 0 0.027404181575921369 0.031889194446993993 0 0.027150214441042417 0.030165219894578574 0 0.026887492149489777 0.030901346516256433 0 0.025944026441643779 0.033112558003942048 0 0.027404181575921369 0.031889194446993993 0 0.026887492149489777 0.030901346516256433 0 0.025944026441643779 0.033112558003942048 0 0.025302486863240724 0.034508141728242667 0 0.027404181575921369 0.031889194446993993 0 0.025987215164742859 0.033999999603385248 0 0.025944026441643779 0.033112558003942048 0 0.025302486863240724 0.034508141728242667 0 0.025987215164742859 0.033999999603385248 0 0.025302486863240724 0.034508141728242667 0 0.025085234936136278 0.034687649577348059 0 0.023172712919477374 0.035446123880880719 0 0.025085234936136278 0.034687649577348059 0 0.024065853074003808 0.035130246522939626 0 0.025302486863240724 0.034508141728242667 0 0.025085234936136278 0.034687649577348059 0 0.024065853074003808 0.035130246522939626 0 0.024065853074003808 0.035130246522939626 0 0.022848757581337528 0.036084207093198525 0 0.023535845343105224 0.035307264936135757 0 0.023535845343105224 0.035307264936135757 0 0.023471493237169707 0.034989991330625199 0 0.023486136267876608 0.035746968626704401 0 0.022848757581337528 0.036084207093198525 0 0.023535845343105224 0.035307264936135757 0 0.023486136267876608 0.035746968626704401 0 0.025302486863240724 0.034508141728242667 0 0.023535845343105224 0.035307264936135757 0 0.023471493237169707 0.034989991330625199 0 0.025302486863240724 0.034508141728242667 0 0.024065853074003808 0.035130246522939626 0 0.023535845343105224 0.035307264936135757 0 0.025302486863240724 0.034508141728242667 0 0.023588432711299796 0.034741532841020911 0 0.023471493237169707 0.034989991330625199 0 0.025312997885084527 0.034352704987910966 0 0.025475562281126699 0.033237929605278396 0 0.023588432711299796 0.034741532841020911 0 0.023925910662942779 0.033942037263471614 0 0.02356287717345058 0.032291352505692608 0 0.025475562281126699 0.033237929605278396 0 0.025532043251481198 0.03127688126416163 0 0.023588432711299796 0.034741532841020911 0 0.023925910662942779 0.033942037263471614 0 0.023471493237169707 0.034989991330625199 0 0.023925910662942779 0.033942037263471614 0 0.023471493237169707 0.034989991330625199 0 0.024659169878782555 0.034180740613813786 0 0.023471493237169707 0.034989991330625199 0 0.024659169878782555 0.034180740613813786 0 0.023486136267876608 0.035746968626704401 0 0.023925910662942779 0.033942037263471614 0 0.024659169878782555 0.034180740613813786 0 0.024983645050658646 0.033001132994558945 0 0.023925910662942779 0.033942037263471614 0 0.024983645050658646 0.033001132994558945 0 0.02356287717345058 0.032291352505692608 0 0.024659169878782555 0.034180740613813786 0 0.024983645050658646 0.033001132994558945 0 0.025720399982572986 0.033211752215199584 0 0.024659169878782555 0.034180740613813786 0 0.025720399982572986 0.033211752215199584 0 0.02617568566404934 0.033740175774588294 0 0.025720399982572986 0.033211752215199584 0 0.02617568566404934 0.033740175774588294 0 0.026617447138121173 0.032399378989365492 0 0.025720399982572986 0.033211752215199584 0 0.025911018290846362 0.032342548049637328 0 0.026617447138121173 0.032399378989365492 0 0.024983645050658646 0.033001132994558945 0 0.025720399982572986 0.033211752215199584 0 0.025911018290846362 0.032342548049637328 0 0.024659169878782555 0.034180740613813786 0 0.02617568566404934 0.033740175774588294 0 0.025600364581293351 0.034672854527586262 0 0.024659169878782555 0.034180740613813786 0 0.025600364581293351 0.034672854527586262 0 0.023486136267876608 0.035746968626704401 0 0.025600364581293351 0.034672854527586262 0 0.024678042051258956 0.035911860065315292 0 0.023486136267876608 0.035746968626704401 0 0.024678042051258956 0.035911860065315292 0 0.023486136267876608 0.035746968626704401 0 0.022648260850361104 0.037129883584366759 0 0.022848757581337528 0.036084207093198525 0 0.023486136267876608 0.035746968626704401 0 0.022648260850361104 0.037129883584366759 0 0.022648260850361104 0.037129883584366759 0 0.0197471260998867 0.038240363580817102 0 0.020008887783339792 0.03650575263022731 0 0.024678042051258956 0.035911860065315292 0 0.022648260850361104 0.037129883584366759 0 0.025978188225698595 0.037221579029150187 0 0.022518945275210908 0.037354098355418974 0 0.023302954178461628 0.037569003784686063 0 0.027473536923668728 0.027762277230595312 0 0.027336301479099066 0.027327549332005624 0 0.027073768038157045 0.027914973762081415 0 0.027473536923668728 0.027762277230595312 0 0.027762508815067626 0.028240202154532615 0 0.02793423373899873 0.027693841582631846 0 0.027473536923668728 0.027762277230595312 0 0.027697847435244675 0.027173226716011675 0 0.02793423373899873 0.027693841582631846 0 0.027473536923668728 0.027762277230595312 0 0.027697847435244675 0.027173226716011675 0 0.027336301479099066 0.027327549332005624 0 0.027336301479099066 0.027327549332005624 0 0.027126599814308174 0.02742742072526894 0 0.027388458030325528 0.026791321231553561 0 0.027336301479099066 0.027327549332005624 0 0.027126599814308174 0.02742742072526894 0 0.027073768038157045 0.027914973762081415 0 0.027126599814308174 0.02742742072526894 0 0.027073768038157045 0.027914973762081415 0 0.026918243194812386 0.027913238005182705 0 0.027073768038157045 0.027914973762081415 0 0.026918243194812386 0.027913238005182705 0 0.026590668779799775 0.028661396365459706 0 0.026590668779799775 0.028661396365459706 0 0.026356056520716719 0.029321982124775835 0 0.026967276319645343 0.029802852497324197 0 0.026918243194812386 0.027913238005182705 0 0.026590668779799775 0.028661396365459706 0 0.027024723275143814 0.027734661646624484 0 0.027126599814308174 0.02742742072526894 0 0.026918243194812386 0.027913238005182705 0 0.027024723275143814 0.027734661646624484 0 0.026590668779799775 0.028661396365459706 0 0.027196419218219643 0.028565454846065937 0 0.026736149989181626 0.029271449603172555 0 0.027073768038157045 0.027914973762081415 0 0.026590668779799775 0.028661396365459706 0 0.027196419218219643 0.028565454846065937 0 0.027473536923668728 0.027762277230595312 0 0.027073768038157045 0.027914973762081415 0 0.027196419218219643 0.028565454846065937 0 0.027473536923668728 0.027762277230595312 0 0.027196419218219643 0.028565454846065937 0 0.027762508815067626 0.028240202154532615 0 0.027196419218219643 0.028565454846065937 0 0.027581492442495126 0.028972246372030001 0 0.027762508815067626 0.028240202154532615 0 0.027196419218219643 0.028565454846065937 0 0.027581492442495126 0.028972246372030001 0 0.027100741821047322 0.029639129075083696 0 0.027581492442495126 0.028972246372030001 0 0.027100741821047322 0.029639129075083696 0 0.027671184851833702 0.029854614412090728 0 0.027100741821047322 0.029639129075083