<?xml version="1.0"?>
<VTKFile type="UnstructuredGrid" version="0.1" byte_order="LittleEndian">
<UnstructuredGrid>
<Piece NumberOfPoints="30632" NumberOfCells="10758">
<Points>
<DataArray type="Float64" NumberOfComponents="3" format="ascii">
-0.50000000000001066 -0.49748678677858038 0 -0.47136571029626118 -0.49464882105567232 0 -0.5 -0.5 0 -0.50000000000001066 -0.49748678677858038 0 -0.47136571029626118 -0.49464882105567232 0 -0.5 -0.5 0 -0.47136571029626118 -0.49464882105567232 0 -0.44416710752534999 -0.5 0 -0.50000000000000122 -0.49033381415807992 0 -0.4853004082295207 -0.47935254668383809 0 -0.47136571029626118 -0.49464882105567232 0 -0.50000000000001066 -0.49748678677858038 0 -0.50000000000000122 -0.49033381415807992 0 -0.47136571029626118 -0.49464882105567232 0 -0.50000000000000122 -0.49033381415807992 0 -0.4853004082295207 -0.47935254668383809 0 -0.50000000000000244 -0.47257752939497583 0 -0.4853004082295207 -0.47935254668383809 0 -0.48279867662421649 -0.4600532171849076 0 -0.50000000000000122 -0.49033381415807992 0 -0.49999999999999972 -0.48023769656004173 0 -0.4853004082295207 -0.47935254668383809 0 -0.49999999999999972 -0.48023769656004173 0 -0.4853004082295207 -0.47935254668383809 0 -0.50000000000000244 -0.47257752939497583 0 -0.49999999999999972 -0.48023769656004173 0 -0.4853004082295207 -0.47935254668383809 0 -0.4853004082295207 -0.47935254668383809 0 -0.45607832125478148 -0.47759291096932283 0 -0.4853004082295207 -0.47935254668383809 0 -0.45607832125478148 -0.47759291096932283 0 -0.46519159723331238 -0.46433034500734638 0 -0.4853004082295207 -0.47935254668383809 0 -0.46519159723331238 -0.46433034500734638 0 -0.4853004082295207 -0.47935254668383809 0 -0.47136571029626118 -0.49464882105567232 0 -0.46071066088260859 -0.48950907964916163 0 -0.47136571029626118 -0.49464882105567232 0 -0.46071066088260859 -0.48950907964916163 0 -0.44273142059251192 -0.49181085533276531 0 -0.47136571029626118 -0.49464882105567232 0 -0.44273142059251192 -0.49181085533276531 0 -0.4853004082295207 -0.47935254668383809 0 -0.46071066088260859 -0.48950907964916163 0 -0.45607832125478148 -0.47759291096932283 0 -0.45607832125478148 -0.47759291096932283 0 -0.4505805537459418 -0.46345052715008872 0 -0.46071066088260859 -0.48950907964916163 0 -0.45218109030449888 -0.48046775904352068 0 -0.44683603931918242 -0.48257721926919861 0 -0.46071066088260859 -0.48950907964916163 0 -0.45607832125478148 -0.47759291096932283 0 -0.46071066088260859 -0.48950907964916163 0 -0.45607832125478148 -0.47759291096932283 0 -0.45218109030449888 -0.48046775904352068 0 -0.44683603931918242 -0.48257721926919861 0 -0.43905569232779063 -0.47481004066970361 0 -0.44273142059251192 -0.49181085533276531 0 -0.45218109030449888 -0.48046775904352068 0 -0.44683603931918242 -0.48257721926919861 0 -0.4480523004319909 -0.4745208692196769 0 -0.45607832125478148 -0.47759291096932283 0 -0.45218109030449888 -0.48046775904352068 0 -0.4480523004319909 -0.4745208692196769 0 -0.4480523004319909 -0.4745208692196769 0 -0.43905569232779063 -0.47481004066970361 0 -0.4505805537459418 -0.46345052715008872 0 -0.45607832125478148 -0.47759291096932283 0 -0.4480523004319909 -0.4745208692196769 0 -0.4505805537459418 -0.46345052715008872 0 -0.44683603931918242 -0.48257721926919861 0 -0.4480523004319909 -0.4745208692196769 0 -0.43905569232779063 -0.47481004066970361 0 -0.47136571029626118 -0.49464882105567232 0 -0.44416710752534999 -0.5 0 -0.44273142059251192 -0.49181085533276531 0 -0.46071066088260859 -0.48950907964916163 0 -0.44683603931918242 -0.48257721926919861 0 -0.44273142059251192 -0.49181085533276531 0 -0.44508278623710512 -0.4493081433308535 0 -0.46559735324842982 -0.44752890497484071 0 -0.44839602987264338 -0.43500459276477332 0 -0.4429783800079018 -0.44389479681207888 0 -0.44839602987264338 -0.43500459276477332 0 -0.4429783800079018 -0.44389479681207888 0 -0.44508278623710512 -0.4493081433308535 0 -0.44839602987264338 -0.43500459276477332 0 -0.4429783800079018 -0.44389479681207888 0 -0.44136982366758049 -0.44653439044475901 0 -0.43247121177667491 -0.43988672030199227 0 -0.4429783800079018 -0.44389479681207888 0 -0.44136982366758049 -0.44653439044475901 0 -0.44136982366758049 -0.44653439044475901 0 -0.44508278623710512 -0.4493081433308535 0 -0.441939866253104 -0.4586697388651737 0 -0.4429783800079018 -0.44389479681207888 0 -0.44136982366758049 -0.44653439044475901 0 -0.44508278623710512 -0.4493081433308535 0 -0.4429783800079018 -0.44389479681207888 0 -0.44508278623710512 -0.4493081433308535 0 -0.44136982366758049 -0.44653439044475901 0 -0.44508278623710512 -0.4493081433308535 0 -0.43905569232779063 -0.47481004066970361 0 -0.441939866253104 -0.4586697388651737 0 -0.4505805537459418 -0.46345052715008872 0 -0.44136982366758049 -0.44653439044475901 0 -0.441939866253104 -0.4586697388651737 0 -0.43240610105910299 -0.46124359554332878 0 -0.43905569232779063 -0.47481004066970361 0 -0.441939866253104 -0.4586697388651737 0 -0.43240610105910299 -0.46124359554332878 0 -0.44508278623710512 -0.4493081433308535 0 -0.4505805537459418 -0.46345052715008872 0 -0.44508278623710512 -0.4493081433308535 0 -0.441939866253104 -0.4586697388651737 0 -0.4505805537459418 -0.46345052715008872 0 -0.44508278623710512 -0.4493081433308535 0 -0.4505805537459418 -0.46345052715008872 0 -0.46519159723331238 -0.46433034500734638 0 -0.44508278623710512 -0.4493081433308535 0 -0.46519159723331238 -0.46433034500734638 0 -0.44508278623710512 -0.4493081433308535 0 -0.46519159723331238 -0.46433034500734638 0 -0.46559735324842982 -0.44752890497484071 0 -0.45607832125478148 -0.47759291096932283 0 -0.4505805537459418 -0.46345052715008872 0 -0.46519159723331238 -0.46433034500734638 0 -0.46559735324842982 -0.44752890497484071 0 -0.44839602987264338 -0.43500459276477332 0 -0.46559735324842982 -0.44752890497484071 0 -0.46127371841462989 -0.43237520092974591 0 -0.44839602987264338 -0.43500459276477332 0 -0.46559735324842982 -0.44752890497484071 0 -0.48711120163217198 -0.43647904844436619 0 -0.47209379268264579 -0.43165555055474752 0 -0.46559735324842982 -0.44752890497484071 0 -0.48279867662421649 -0.4600532171849076 0 -0.48711120163217198 -0.43647904844436619 0 -0.4853004082295207 -0.47935254668383809 0 -0.46519159723331238 -0.46433034500734638 0 -0.48279867662421649 -0.4600532171849076 0 -0.46559735324842982 -0.44752890497484071 0 -0.48279867662421649 -0.4600532171849076 0 -0.46519159723331238 -0.46433034500734638 0 -0.46559735324842982 -0.44752890497484071 0 -0.48279867662421649 -0.4600532171849076 0 -0.50000000000000244 -0.47257752939497583 0 -0.48279867662421649 -0.4600532171849076 0 -0.50000000000000244 -0.47257752939497583 0 -0.48279867662421649 -0.4600532171849076 0 -0.5 -0.44502929314481088 0 -0.48279867662421649 -0.4600532171849076 0 -0.5 -0.44502929314481088 0 -0.48711120163217198 -0.43647904844436619 0 -0.48711120163217198 -0.43647904844436619 0 -0.5 -0.41748105689464587 0 -0.48886842686515419 -0.42111220207679367 0 -0.5 -0.44502929314481088 0 -0.48711120163217198 -0.43647904844436619 0 -0.5 -0.41748105689464587 0 -0.49154761995180257 -0.41044754060880428 0 -0.48886842686515419 -0.42111220207679367 0 -0.48304115041030038 -0.40347953832968209 0 -0.5 -0.41748105689464587 0 -0.49154761995180257 -0.41044754060880428 0 -0.48886842686515419 -0.42111220207679367 0 -0.48886842686515419 -0.42111220207679367 0 -0.47595338455565722 -0.42400959622325018 0 -0.46497848889658772 -0.40779326534248977 0 -0.47595338455565722 -0.42400959622325018 0 -0.46671501270172611 -0.42300791469785382 0 -0.46497848889658772 -0.40779326534248977 0 -0.48886842686515419 -0.42111220207679367 0 -0.46497848889658772 -0.40779326534248977 0 -0.48886842686515419 -0.42111220207679367 0 -0.48304115041030038 -0.40347953832968209 0 -0.46497848889658772 -0.40779326534248977 0 -0.47595338455565722 -0.42400959622325018 0 -0.47209379268264579 -0.43165555055474752 0 -0.46671501270172611 -0.42300791469785382 0 -0.48711120163217198 -0.43647904844436619 0 -0.47595338455565722 -0.42400959622325018 0 -0.47209379268264579 -0.43165555055474752 0 -0.48711120163217198 -0.43647904844436619 0 -0.48886842686515419 -0.42111220207679367 0 -0.47595338455565722 -0.42400959622325018 0 -0.49170068458505262 -0.37720173223881298 0 -0.47859496772905619 -0.38544902415883892 0 -0.49221144656152471 -0.363104782975188 0 -0.5 -0.38993282064448093 0 -0.49170068458505262 -0.37720173223881298 0 -0.50000000000000355 -0.36238458439431592 0 -0.5 -0.38993282064448093 0 -0.49170068458505262 -0.37720173223881298 0 -0.47859496772905619 -0.38544902415883892 0 -0.5 -0.41748105689464587 0 -0.49154761995180257 -0.41044754060880428 0 -0.5 -0.38993282064448093 0 -0.49154761995180257 -0.41044754060880428 0 -0.5 -0.38993282064448093 0 -0.48304115041030038 -0.40347953832968209 0 -0.5 -0.38993282064448093 0 -0.48304115041030038 -0.40347953832968209 0 -0.47859496772905619 -0.38544902415883892 0 -0.47859496772905619 -0.38544902415883892 0 -0.46497848889658772 -0.40779326534248977 0 -0.48304115041030038 -0.40347953832968209 0 -0.47859496772905619 -0.38544902415883892 0 -0.46497848889658772 -0.40779326534248977 0 -0.47859496772905619 -0.38544902415883892 0 -0.46688088254695032 -0.37684902354320599 0 -0.4626230175545839 -0.3897314881651246 0 -0.47859496772905619 -0.38544902415883892 0 -0.46688088254695032 -0.37684902354320599 0 -0.47702688012082878 -0.36786756563286388 0 -0.4626230175545839 -0.3897314881651246 0 -0.4514811620259197 -0.40026833819913848 0 -0.45178420933672458 -0.37734487165108499 0 -0.46688088254695032 -0.37684902354320599 0 -0.4626230175545839 -0.3897314881651246 0 -0.45178420933672458 -0.37734487165108499 0 -0.4626230175545839 -0.3897314881651246 0 -0.4514811620259197 -0.40026833819913848 0 -0.46497848889658772 -0.40779326534248977 0 -0.47859496772905619 -0.38544902415883892 0 -0.4626230175545839 -0.3897314881651246 0 -0.46497848889658772 -0.40779326534248977 0 -0.4514811620259197 -0.40026833819913848 0 -0.46497848889658772 -0.40779326534248977 0 -0.4514811620259197 -0.40026833819913848 0 -0.440351403
[...]
<PointData Scalars="" Vectors="displacement," Tensors="">
<DataArray type="Float64" Name="displacement" NumberOfComponents="3" format="ascii">
4.1326316428772376e-08 -0.054723375788331655 0 8.1135658570273593e-05 -0.054134971198845333 0 -3.8457112449446846e-07 -0.054995732181509237 0 6.0733693805810704e-07 -0.054730289341243785 0 5.6412433040174369e-07 -0.054994556122343621 0 -3.8457112449446846e-07 -0.054995732181509237 0 5.6412433040174369e-07 -0.054994556122343621 0 1.0376300952280429e-07 -0.055001113056208237 0 -1.5717783460022799e-06 -0.053945966536250424 0 -0.00022381843351923356 -0.053629371316106525 0 0.00017981378707502754 -0.053300262607563854 0 1.6477170586915793e-06 -0.054714191144368006 0 -1.5717783460022799e-06 -0.053945966536250424 0 0.00017981378707502754 -0.053300262607563854 0 8.1589070316675013e-08 -0.053936529117442525 0 -0.00010142170695531236 -0.052839363540242566 0 -9.991137146975171e-07 -0.051988632578827708 0 1.2062138196458401e-05 -0.052083053330196111 0 -9.8389037256182293e-05 -0.052019374213608034 0 -5.5517040525022071e-09 -0.053931910429734102 0 3.4427272192236337e-09 -0.052830957885165022 0 -1.677475066213587e-06 -0.052738050724252417 0 -2.9401799884440496e-08 -0.052825723122243214 0 -0.00010142170695531236 -0.052839363540242566 0 -9.991137146975171e-07 -0.051988632578827708 0 9.8573508610475272e-07 -0.052820980301770522 0 1.2062138196458401e-05 -0.052083053330196111 0 -0.00010142170695531236 -0.052839363540242566 0 -0.00022430178650220401 -0.052701021795277171 0 -8.3855375765419542e-05 -0.052774720979962393 0 -0.0001151629200020107 -0.052262907123045731 0 -0.00034721892837670347 -0.052420794275906603 0 -0.00010142170695531236 -0.052839363540242566 0 -0.00020878840666573338 -0.052026504782848773 0 -0.00022381843351923356 -0.053629371316106525 0 0.00017981378707502754 -0.053300262607563854 0 5.9612687798683714e-05 -0.052964745409428117 0 0.00017981378707502754 -0.053300262607563854 0 5.9612687798683714e-05 -0.052964745409428117 0 0.00016354300244441453 -0.052409949839041403 0 8.1135658570273593e-05 -0.054134971198845333 0 7.9606159360198265e-05 -0.053716220535108258 0 -0.00022381843351923356 -0.053629371316106525 0 5.9612687798683714e-05 -0.052964745409428117 0 -0.00026449650716458883 -0.052836696745424301 0 -0.00022430178650220401 -0.052701021795277171 0 -0.00041707586158427277 -0.052363369959718513 0 5.9612687798683714e-05 -0.052964745409428117 0 -0.00012283286939073176 -0.052665460939949345 0 -6.5091610478386298e-05 -0.052518426238000182 0 3.7309869468658175e-05 -0.052907415980561388 0 -0.00022430178650220401 -0.052701021795277171 0 5.9612687798683714e-05 -0.052964745409428117 0 -0.00018812873355334304 -0.052753453977705533 0 -0.00012283286939073176 -0.052665460939949345 0 -6.5091610478386298e-05 -0.052518426238000182 0 -0.00022488599896433275 -0.052302486615139074 0 0.00016354300244441453 -0.052409949839041403 0 -0.00012283286939073176 -0.052665460939949345 0 -6.5091610478386298e-05 -0.052518426238000182 0 -0.00024361290872864738 -0.052537170689438077 0 -0.00018812873355334304 -0.052753453977705533 0 -0.00012283286939073176 -0.052665460939949345 0 -0.00024361290872864738 -0.052537170689438077 0 -0.00024361290872864738 -0.052537170689438077 0 -0.00022488599896433275 -0.052302486615139074 0 -0.00048283711555766919 -0.05257679761473058 0 -0.00018812873355334304 -0.052753453977705533 0 -0.00024361290872864738 -0.052537170689438077 0 -0.00048283711555766919 -0.05257679761473058 0 -6.5091610478386298e-05 -0.052518426238000182 0 -0.00024361290872864738 -0.052537170689438077 0 -0.00022488599896433275 -0.052302486615139074 0 5.6412433040174369e-07 -0.054994556122343621 0 1.0376300952280429e-07 -0.055001113056208237 0 2.268144581417682e-07 -0.054996868389112628 0 5.9612687798683714e-05 -0.052964745409428117 0 -6.5091610478386298e-05 -0.052518426238000182 0 0.00016354300244441453 -0.052409949839041403 0 -0.00029831417175406913 -0.051386797285843382 0 -0.00032762893665146386 -0.051770053192888639 0 -0.00056672956152696097 -0.051434421531677092 0 -0.0005923463172159318 -0.051168425740925977 0 -0.00013298137688064391 -0.048803818439308616 0 -0.00040001883432166642 -0.051341577951134018 0 -0.00029831417175406913 -0.051386797285843382 0 -0.00056672956152696097 -0.051434421531677092 0 -0.00072795588479367785 -0.052120924736928302 0 -0.00069787328733689181 -0.052102448072936569 0 -0.00077637260388650309 -0.052002790059662241 0 -0.0005923463172159318 -0.051168425740925977 0 -0.00072669774039160577 -0.051814944249026086 0 -0.00089670713422171757 -0.052336705771784398 0 -0.00082237066378294311 -0.052432343464867436 0 -0.00058255818036932337 -0.052354560668990024 0 -0.00078632071560915556 -0.051429544785566529 0 -0.00063366919304532116 -0.051337001844209952 0 -0.00047297163256659577 -0.051552455619698928 0 -0.0005923463172159318 -0.051168425740925977 0 -0.00054433458286331745 -0.051787281634456318 0 -0.00072669774039160577 -0.051814944249026086 0 -0.00054433458286331745 -0.051787281634456318 0 -0.00022488599896433275 -0.052302486615139074 0 -0.00058255818036932337 -0.052354560668990024 0 -0.00048283711555766919 -0.05257679761473058 0 -0.00089670713422171757 -0.052336705771784398 0 -0.00058255818036932337 -0.052354560668990024 0 -0.00049827791057262499 -0.052100746479902711 0 -0.00022488599896433275 -0.052302486615139074 0 -0.00058255818036932337 -0.052354560668990024 0 -0.00049827791057262499 -0.052100746479902711 0 -0.00054433458286331745 -0.051787281634456318 0 -0.00041707586158427277 -0.052363369959718513 0 -0.00082237066378294311 -0.052432343464867436 0 -0.00058255818036932337 -0.052354560668990024 0 -0.00048283711555766919 -0.05257679761473058 0 -0.00061156647632661847 -0.052064503355759864 0 -0.00036296572258159632 -0.052163768105831926 0 -0.00034721892837670347 -0.052420794275906603 0 -0.00054433458286331745 -0.051787281634456318 0 -0.00020878840666573338 -0.052026504782848773 0 -0.00029831417175406913 -0.051386797285843382 0 -5.1563479509163537e-05 -0.051787821379557605 0 -0.00032762893665146386 -0.051770053192888639 0 -0.0001151629200020107 -0.052262907123045731 0 -0.00036296572258159632 -0.052163768105831926 0 -0.00034721892837670347 -0.052420794275906603 0 -0.00020083077509591672 -0.049937267988003832 0 -0.00013298137688064391 -0.048803818439308616 0 -0.00015800043243133761 -0.047784471430017413 0 -8.6357672113093005e-05 -0.047832106669169788 0 -0.00012371709415116315 -0.048032410975288778 0 -0.00015800043243133761 -0.047784471430017413 0 -0.00020108915451756755 -0.047657876635968301 0 -0.00013461773253333739 -0.047562609671571277 0 -0.00015800043243133761 -0.047784471430017413 0 0.00017511317482252868 -0.048696779007012789 0 -0.00020108915451756755 -0.047657876635968301 0 1.2062138196458401e-05 -0.052083053330196111 0 -5.1563479509163537e-05 -0.051787821379557605 0 -9.8389037256182293e-05 -0.052019374213608034 0 -0.00020083077509591672 -0.049937267988003832 0 -0.00010815023387528748 -0.050334928481734743 0 -5.1563479509163537e-05 -0.051787821379557605 0 -0.00032762893665146386 -0.051770053192888639 0 -9.8389037256182293e-05 -0.052019374213608034 0 -2.9273121663467357e-08 -0.051982657657895531 0 -0.00010815023387528748 -0.050334928481734743 0 2.3759628759549719e-06 -0.051979403907025219 0 0.00017511317482252868 -0.048696779007012789 0 -1.4397390101779057e-06 -0.048953320709140782 0 0.00017511317482252868 -0.048696779007012789 0 -1.4397390101779057e-06 -0.048953320709140782 0 -0.00020108915451756755 -0.047657876635968301 0 -0.00020108915451756755 -0.047657876635968301 0 5.4895397520332991e-07 -0.045922819469619507 0 9.8660722574815405e-05 -0.046200190747202274 0 -1.4397390101779057e-06 -0.048953320709140782 0 -0.00020108915451756755 -0.047657876635968301 0 5.4895397520332991e-07 -0.045922819469619507 0 -7.4160413996471932e-05 -0.045207609393114072 0 9.8660722574815405e-05 -0.046200190747202274 0 -0.00019404639047830975 -0.044615955135291215 0 5.4895397520332991e-07 -0.045922819469619507 0 -7.4160413996471932e-05 -0.045207609393114072 0 9.8660722574815405e-05 -0.046200190747202274 0 9.8660722574815405e-05 -0.046200190747202274 0 -1.7045315131743078e-05 -0.047252866451807277 0 0.00091078216378257535 -0.047856189787220629 0 -1.7045315131743078e-05 -0.047252866451807277 0 0.0001056776128632178 -0.047692453602490616 0 0.00091078216378257535 -0.047856189787220629 0 0.00039918543389333042 -0.046415203502638842 0 -0.00036159238369495297 -0.045346640125850525 0 9.8660722574815405e-05 -0.046200190747202274 0 -0.00019404639047830975 -0.044615955135291215 0 -7.4328014391750931e-05 -0.044101036467884033 0 -1.7045315131743078e-05 -0.047252866451807277 0 -0.00013461773253333739 -0.047562609671571277 0 0.0001056776128632178 -0.047692453602490616 0 -0.00020108915451756755 -0.047657876635968301 0 -1.7045315131743078e-05 -0.047252866451807277 0 -0.00013461773253333739 -0.047562609671571277 0 -0.00020108915451756755 -0.047657876635968301 0 9.8660722574815405e-05 -0.046200190747202274 0 -1.7045315131743078e-05 -0.047252866451807277 0 -5.6409390608082576e-05 -0.042127106169127661 0 -0.00015934572348838021 -0.04372170567334472 0 0.00011489542911351012 -0.040864875822081786 0 -1.4323023762401652e-06 -0.042892473934153984 0 -5.6409390608082576e-05 -0.042127106169127661 0 2.3387138348543959e-06 -0.039866630683291056 0 -1.4323023762401652e-06 -0.042892473934153984 0 -5.6409390608082576e-05 -0.042127106169127661 0 -0.00015934572348838021 -0.04372170567334472 0 5.4895397520332991e-07 -0.045922819469619507 0 -7.4160413996471932e-05 -0.045207609393114072 0 -1.4323023762401652e-06 -0.042892473934153984 0 -7.4160413996471932e-05 -0.045207609393114072 0 -1.4323023762401652e-06 -0.042892473934153984 0 -0.00019404639047830975 -0.044615955135291215 0 -1.4323023762401652e-06 -0.042892473934153984 0 -0.00019404639047830975 -0.044615955135291215 0 -0.00015934572348838021 -0.04372170567334472 0 -0.00094579192665381973 -0.042576732692887621 0 -0.00036159238369495297 -0.045346640125850525 0 -0.00019404639047830975 -0.044615955135291215 0 -0.00015934572348838021 -0.04372170567334472 0 -7.4328014391750931e-05 -0.044101036467884033 0 -0.0013606587058532641 -0.042070121931451571 0 -0.00076594695742980123 -0.042848256671366824 0 -0.0015916937824307217 -0.043122763071787126 0 -0.0013606587058532641 -0.042070121931451571 0 -0.00076594695742980123 -0.042848256671366824 0 -0.00016402523207008306 -0.042123989703312603 0 -0.0015916937824307217 -0.043122763071787126 0 -0.0022331740351239603 -0.043825597166129993 0 -0.00079623984500977799 -0.043818442493713965 0 -0.00076594695742980123 -0.042848256671366824 0 -0.0015916937824307217 -0.043122763071787126 0 -0.00079623984500977799 -0.043818442493713965 0 -0.0015916937824307217 -0.043122763071787126 0 -0.0022331740351239603 -0.043825597166129993 0 -0.0027044216674118773 -0.042994506278787842 0 -0.0013606587058532641 -0.042070121931451571 0 -0.0015916937824307217 -0.043122763071787126 0 -0.0027044216674118773 -0.042994506278787842 0 -0.00086151462123008524 -0.045067826049122683 0 -0.00036159238369495297 -0.045346640125850525 0 0.00017485518896663075 -0.046171072719808991 0 0.00018085984625289327 -0.046162922913754866 0 0.00016761204533924493 -0.046150291220556486 0 0.00017485518896663075 -0.046171072719808991 0 0.00018085984625289327 -0.046162922913754866 0 0.00018858797307544809 -0.046173455125765567 0 -0.00086151462123008524 -0.045067826049122683 0 0.00030486884682500288 -0.042419785531249872 0 -0.0022331740351239603 -0.043825597166129993 0 -0.0017504195494456418 -0.044651067163689447 0 -0.00079623984500977799 -0.043818442493713965 0 0.00042632691373037385 -0.038812047034703284 0 0.0007512799559525389 -0.038499869985686164 0 0.00090440380802852811 -0.038733191691073345 0 0.00030486884682500288 -0.042419785531249872 0 -7.3867570001748454e-05 -0.041119938439610787 0 -0.00015800043243133761 -0.047784471430017413 0 -0.00013461773253333739 -0.047562609671571277 0 -8.6357672113093005e-05 -0.047832106669169788 0 -8.6357672113093005e-05 -0.047832106669169788 0 0.00017409520218224201 -0.048013643490171315 0 -0.00012371709415116315 -0.048032410975288778 0 -8.6357672113093005e-05 -0.047832106669169788 0 0.0001056776128632178 -0.047692453602490616 0 0.00017409520218224201 -0.048013643490171315 0 -0.00013461773253333739 -0.047562609671571277 0 -8.6357672113093005e-05 -0.047832106669169788 0 0.0001056776128632178 -0.047692453602490616 0 0.0001056776128632178 -0.047692453602490616 0 0.00091078216378257535 -0.047856189787220629 0 0.00017409520218224201 -0.048013643490171315 0 0.00017485518896663075 -0.046171072719808991 0 0.00017870933992075898 -0.046183715163828055 0 0.00019172653085892128 -0.046188551495932963 0 -0.00036159238369495297 -0.045346640125850525 0 0.00033179965396836576 -0.04700419070691321 0 0.00017485518896663075 -0.046171072719808991 0 0.00019172653085892128 -0.046188551495932963 0 0.00018858797307544809 -0.046173455125765567 0 0.00019172653085892128 -0.046188551495932963 0 0.00018858797307544809 -0.046173455125765567 0 0.00019640550109778558 -0.046182992026194775 0 -0.00019569403029453451 -0.049626394161002847 0 -0.00032301361105265816 -0.04969931292006205 0 -0.00045228730298920014 -0.049514853281961937 0 -0.0005923463172159318 -0.051168425740925977 0 -0.00013645126131312907 -0.048640122769321475 0 0.00019172653085892128 -0.046188551495932963 0 0.00019919165779242685 -0.046198833219912867 0 0.00019640550109778558 -0.046182992026194775 0 0.00033179965396836576 -0.04700419070691321 0 -0.00013298137688064391 -0.048803818439308616 0 -0.00013298137688064391 -0.048803818439308616 0 -0.00013645126131312907 -0.048640122769321475 0 -0.00092345626254082113 -0.051859079701626856 0 -0.00095251181033680391 -0.052017892490083054 0 -0.001115110764457513 -0.051754550829831672 0 -0.00072795588479367785 -0.052120924736928302 0 -0.00095251181033680391 -0.052017892490083054 0 -0.00077637260388650309 -0.052002790059662241 0 -0.00092345626254082113 -0.051859079701626856 0 -0.00095251181033680391 -0.052017892490083054 0 -0.00077637260388650309 -0.052002790059662241 0 -0.00092345626254082113 -0.051859079701626856 0 -0.00077637260388650309 -0.052002790059662241 0 -0.00078202993687056166 -0.051792866227535365 0 -0.00013645126131312907 -0.048640122769321475 0 0.00078394080285659176 -0.046033080235235717 0 0.00023494806328963619 -0.046205887759109672 0 0.00019103671884176303 -0.046156564768449086 0 0.00020337563758715091 -0.046146539211629672 0 -0.00013645126131312907 -0.048640122769321475 0 7.1469662430965404e-05 -0.045909019477074216 0 0.00018858797307544809 -0.046173455125765567 0 0.00019640550109778558 -0.046182992026194775 0 0.00019103671884176303 -0.046156564768449086 0 0.00018085984625289327 -0.046162922913754866 0 0.00018858797307544809 -0.046173455125765567 0 0.00019103671884176303 -0.046156564768449086 0 0.0015468463707803953 -0.04060587708722059 0 0.0015676238689798945 -0.040627587691797938 0 0.0014118016496919821 -0.040645451950004456 0 -0.00092345626254082113 -0.051859079701626856 0 -0.001115110764457513 -0.051754550829831672 0 -0.0010219259207250083 -0.05167960231710713 0 0.00078394080285659176 -0.046033080235235717 0 0.00055289174343270311 -0.046135171035748129 0 0.0015639607587095118 -0.040626218738048427 0 0.0016111623174768393 -0.040641933447311041 0 0.0015676238689798945 -0.040627587691797938 0 0.00078394080285659176 -0.046033080235235717 0 0.00052584892670062887 -0.045359794098801504 0 0.0015639607587095118 -0.040626218738048427 0 0.0015676238689798945 -0.040627587691797938 0 0.0015828628610811992 -0.04070298150711469 0 0.0015676238689798945 -0.040627587691797938 0 0.0015828628610811992 -0.04070298150711469 0 0.0014118016496919821 -0.040645451950004456 0 0.0015828628610811992 -0.04070298150711469 0 0.0014118016496919821 -0.040645451950004456 0 0.00146181750294795 -0.04085654053798983 0 -0.0010219259207250083 -0.05167960231710713 0 -0.00074310910828114429 -0.051427568482427147 0 -0.00078202993687056166 -0.051792866227535365 0 -0.00092345626254082113 -0.051859079701626856 0 -0.0010219259207250083 -0.05167960231710713 0 -0.00078202993687056166 -0.051792866227535365 0 0.00042632691373037385 -0.038812047034703284 0 0.00058469407480285724 -0.0390677570658194 0 0.00090440380802852811 -0.038733191691073345 0 0.0016129494903331515 -0.037150607534178794 0 0.0017730126887807235 -0.036069201821906025 0 0.00030486884682500288 -0.042419785531249872 0 0.0016129494903331515 -0.037150607534178794 0 0.00030486884682500288 -0.042419785531249872 0 0.00078394080285659176 -0.046033080235235717 0 0.0013367269766965551 -0.040901963382776213 0 0.0015639607587095118 -0.040626218738048427 0 0.0016111623174768393 -0.040641933447311041 0 0.0013367269766965551 -0.040901963382776213 0 0.0015639607587095118 -0.040626218738048427 0 0.0013856388981867494 -0.04055728816742344 0 0.0013367269766965551 -0.040901963382776213 0 0.0012353446700056206 -0.0407070498414294 0 0.0013856388981867494 -0.04055728816742344 0 0.00016761204533924493 -0.046150291220556486 0 0.00019103671884176303 -0.046156564768449086 0 0.00020337563758715091 -0.046146539211629672 0 0.00018085984625289327 -0.046162922913754866 0 0.00016761204533924493 -0.046150291220556486 0 0.00019103671884176303 -0.046156564768449086 0 0.0015639607587095118 -0.040626218738048427 0 0.0015828628610811992 -0.04070298150711469 0 0.001755029637574252 -0.040657921504693335 0 0.0016640416460228034 -0.040434519547094115 0 0.0017319304892182987 -0.039526015511717395 0 0.0015828628610811992 -0.04070298150711469 0 0.001755029637574252 -0.040657921504693335 0 0.0016378614821853695 -0.040831633526574221 0 0.0017319304892182987 -0.039526015511717395 0 0.0016935804694431802 -0.040829214351496661 0 0.0022877615647891739 -0.040305715314785752 0 0.0027592751669202591 -0.040437782774423003 0 0.0023395213080225088 -0.040763193598460208 0 0.0016129494903331515 -0.037150607534178794 0 0.0017319304892182987 -0.039526015511717395 0 0.0029459264683290112 -0.03323239037822303 0 0.0026340271253648532 -0.032635666411234651 0 0.0022088134798885694 -0.033095341474121999 0 0.0021797542792940639 -0.037324354885883669 0 0.002143217762064018 -0.037106351021555045 0 0.0020486952184323721 -0.037071317741017455 0 0.0016129494903331515 -0.037150607534178794 0 0.0024958765730639459 -0.034650919116161409 0 0.0021797542792940639 -0.037324354885883669 0 0.0023293151654441816 -0.037176964677768008 0 0.002143217762064018 -0.037106351021555045 0 0.0017319304892182987 -0.039526015511717395 0 0.0033383924956636294 -0.037062876385898974 0 0.0033383924956636294 -0.037062876385898974 0 0.0024958765730639459 -0.034650919116161409 0 0.0033383924956636294 -0.037062876385898974 0 0.0022408892211172142 -0.038288698672381292 0 0.0027592751669202591 -0.040437782774423003 0 0.0023395213080225088 -0.040763193598460208 0 0.0026413174287324183 -0.041274486259982431 0 0.0027592751669202591 -0.040437782774423003 0 0.0026413174287324183 -0.041274486259982431 0 0.0030878973882509848 -0.041446150736860823 0 0.0033519759086951895 -0.034559869914318184 0 0.0031938810706426484 -0.034504239859346648 0 0.0031059036637603047 -0.033914684253925569 0 0.0023395213080225088 -0.040763193598460208 0 0.0021181162278733159 -0.041075374761968791 0 0.0026413174287324183 -0.041274486259982431 0 0.0022877615647891739 -0.040305715314785752 0 0.0023395213080225088 -0.040763193598460208 0 0.0019126325209096299 -0.040711445923306749 0 0.0023395213080225088 -0.040763193598460208 0 0.0021181162278733159 -0.041075374761968791 0 0.0019126325209096299 -0.040711445923306749 0 0.0021181162278733159 -0.041075374761968791 0 0.0021283430485915262 -0.041483159430434818 0 0.0026413174287324183 -0.041274486259982431 0 0.0021283430485915262 -0.041483159430434818 0 0.0026413174287324183 -0.041274486259982431 0 0.0027655028139082953 -0.04162311810925861 0 0.0026413174287324183 -0.041274486259982431 0 0.0026550852922503226 -0.041501497902754314 0 0.0027655028139082953 -0.04162311810925861 0 0.0032409911111434416 -0.041055488169071855 0 0.0022408892211172142 -0.038288698672381292 0 0.00141180