<?xml version="1.0"?>
<VTKFile type="UnstructuredGrid" version="0.1" byte_order="LittleEndian">
<UnstructuredGrid>
<Piece NumberOfPoints="30794" NumberOfCells="10773">
<Points>
<DataArray type="Float64" NumberOfComponents="3" format="ascii">
-0.49100099684116849 -0.49999999999999628 0 -0.49304374346644331 -0.47553347608821778 0 -0.47309548174009652 -0.48263462867703782 0 -0.49100099684116849 -0.49999999999999628 0 -0.5 -0.5 0 -0.49304374346644331 -0.47553347608821778 0 -0.49100099684116849 -0.49999999999999628 0 -0.49304374346644331 -0.47553347608821778 0 -0.5 -0.5 0 -0.49304374346644331 -0.47553347608821778 0 -0.5 -0.4541745895704109 0 -0.49304374346644331 -0.47553347608821778 0 -0.47309548174009652 -0.48263462867703782 0 -0.46866577183635438 -0.46192865890594947 0 -0.49100099684116849 -0.49999999999999628 0 -0.47309548174009652 -0.48263462867703782 0 -0.46097923674388702 -0.5 0 -0.47309548174009652 -0.48263462867703782 0 -0.46097923674388702 -0.5 0 -0.44224505358098909 -0.47279036563545929 0 -0.47309548174009652 -0.48263462867703782 0 -0.44224505358098909 -0.47279036563545929 0 -0.46866577183635438 -0.46192865890594947 0 -0.46097923674388702 -0.5 0 -0.44224505358098909 -0.47279036563545929 0 -0.43095747664660539 -0.5 0 -0.44766829542017589 -0.45244946255784768 0 -0.45905064801857159 -0.43310858360570842 0 -0.43194032264130772 -0.43663587307625978 0 -0.44224505358098909 -0.47279036563545929 0 -0.44766829542017589 -0.45244946255784768 0 -0.42598668410023283 -0.46103599845786902 0 -0.44224505358098909 -0.47279036563545929 0 -0.44766829542017589 -0.45244946255784768 0 -0.46866577183635438 -0.46192865890594947 0 -0.44224505358098909 -0.47279036563545929 0 -0.46866577183635438 -0.46192865890594947 0 -0.44766829542017589 -0.45244946255784768 0 -0.46866577183635438 -0.46192865890594947 0 -0.45905064801857159 -0.43310858360570842 0 -0.46866577183635438 -0.46192865890594947 0 -0.49508649009171951 -0.45106695217643938 0 -0.48058047793797809 -0.43504065816177923 0 -0.46866577183635438 -0.46192865890594947 0 -0.48058047793797809 -0.43504065816177923 0 -0.45905064801857159 -0.43310858360570842 0 -0.46866577183635438 -0.46192865890594947 0 -0.49508649009171951 -0.45106695217643938 0 -0.49304374346644331 -0.47553347608821778 0 -0.49508649009171951 -0.45106695217643938 0 -0.49304374346644331 -0.47553347608821778 0 -0.46866577183635438 -0.46192865890594947 0 -0.49508649009171951 -0.45106695217643938 0 -0.49304374346644331 -0.47553347608821778 0 -0.5 -0.4541745895704109 0 -0.49508649009171951 -0.45106695217643938 0 -0.49508649009171951 -0.45106695217643938 0 -0.5 -0.44936997659457739 0 -0.49754324504585951 -0.42164173953031647 0 -0.49508649009171951 -0.45106695217643938 0 -0.5 -0.44936997659457739 0 -0.5 -0.4541745895704109 0 -0.49508649009171951 -0.45106695217643938 0 -0.5 -0.44936997659457739 0 -0.49508649009171951 -0.45106695217643938 0 -0.49754324504585951 -0.42164173953031647 0 -0.48058047793797809 -0.43504065816177923 0 -0.49508649009171951 -0.45106695217643938 0 -0.49754324504585951 -0.42164173953031647 0 -0.5 -0.44936997659457739 0 -0.49754324504585951 -0.42164173953031647 0 -0.50000000000000022 -0.39221652688419351 0 -0.49754324504585951 -0.42164173953031647 0 -0.50000000000000022 -0.39221652688419351 0 -0.49754324504585951 -0.42164173953031647 0 -0.48058047793797809 -0.43504065816177923 0 -0.47520206432054157 -0.40606081929938792 0 -0.49754324504585951 -0.42164173953031647 0 -0.50000000000000022 -0.39221652688419351 0 -0.47520206432054157 -0.40606081929938792 0 -0.48058047793797809 -0.43504065816177923 0 -0.47520206432054157 -0.40606081929938792 0 -0.45905064801857159 -0.43310858360570842 0 -0.50000000000000022 -0.39221652688419351 0 -0.4831840771892707 -0.37757640421031241 0 -0.5 -0.36293628153643198 0 -0.50000000000000022 -0.39221652688419351 0 -0.47520206432054157 -0.40606081929938792 0 -0.4831840771892707 -0.37757640421031241 0 -0.47520206432054157 -0.40606081929938792 0 -0.4831840771892707 -0.37757640421031241 0 -0.46105773080952828 -0.38032108046924451 0 -0.45317788301855128 -0.39938784713659847 0 -0.43962411748326907 -0.41494191516303042 0 -0.42019758694796672 -0.39677524672035241 0 -0.47520206432054157 -0.40606081929938792 0 -0.46105773080952828 -0.38032108046924451 0 -0.45317788301855128 -0.39938784713659847 0 -0.46105773080952828 -0.38032108046924451 0 -0.45317788301855128 -0.39938784713659847 0 -0.43716508925243031 -0.37994966696465332 0 -0.47520206432054157 -0.40606081929938792 0 -0.45317788301855128 -0.39938784713659847 0 -0.45905064801857159 -0.43310858360570842 0 -0.45317788301855128 -0.39938784713659847 0 -0.45905064801857159 -0.43310858360570842 0 -0.43962411748326907 -0.41494191516303042 0 -0.45905064801857159 -0.43310858360570842 0 -0.43962411748326907 -0.41494191516303042 0 -0.45905064801857159 -0.43310858360570842 0 -0.43962411748326907 -0.41494191516303042 0 -0.43194032264130772 -0.43663587307625978 0 -0.43962411748326907 -0.41494191516303042 0 -0.43194032264130772 -0.43663587307625978 0 -0.42161396098976189 -0.41780307098103592 0 -0.43962411748326907 -0.41494191516303042 0 -0.42161396098976189 -0.41780307098103592 0 -0.42019758694796672 -0.39677524672035241 0 -0.40629816863872131 -0.41050362986202749 0 -0.42161396098976189 -0.41780307098103592 0 -0.42019758694796672 -0.39677524672035241 0 -0.40629816863872131 -0.41050362986202749 0 -0.42161396098976189 -0.41780307098103592 0 -0.41000960923754448 -0.43015869008350938 0 -0.43194032264130772 -0.43663587307625978 0 -0.42161396098976189 -0.41780307098103592 0 -0.41000960923754448 -0.43015869008350938 0 -0.45317788301855128 -0.39938784713659847 0 -0.43716508925243031 -0.37994966696465332 0 -0.42019758694796672 -0.39677524672035241 0 -0.43716508925243031 -0.37994966696465332 0 -0.42019758694796672 -0.39677524672035241 0 -0.40077105641266442 -0.37860857827767441 0 -0.43962411748326907 -0.41494191516303042 0 -0.42019758694796672 -0.39677524672035241 0 -0.40629816863872131 -0.41050362986202749 0 -0.42019758694796672 -0.39677524672035241 0 -0.40061123365991569 -0.39472964507112368 0 -0.42019758694796672 -0.39677524672035241 0 -0.40077105641266442 -0.37860857827767441 0 -0.42019758694796672 -0.39677524672035241 0 -0.40077105641266442 -0.37860857827767441 0 -0.40061123365991569 -0.39472964507112368 0 -0.40077105641266442 -0.37860857827767441 0 -0.40061123365991569 -0.39472964507112368 0 -0.38762690267710592 -0.38452062284890071 0 -0.40061123365991569 -0.39472964507112368 0 -0.38816245362312018 -0.40324014764666383 0 -0.38762690267710592 -0.38452062284890071 0 -0.40629816863872131 -0.41050362986202749 0 -0.40061123365991569 -0.39472964507112368 0 -0.38816245362312018 -0.40324014764666383 0 -0.38816245362312018 -0.40324014764666383 0 -0.38762690267710592 -0.38452062284890071 0 -0.3746840518779867 -0.3908612585920983 0 -0.38816245362312018 -0.40324014764666383 0 -0.37499037753076658 -0.40948529014498602 0 -0.3746840518779867 -0.3908612585920983 0 -0.38816245362312018 -0.40324014764666383 0 -0.3746840518779867 -0.3908612585920983 0 -0.38762690267710592 -0.38452062284890071 0 -0.37636850370020941 -0.37698452578058428 0 -0.3746840518779867 -0.3908612585920983 0 -0.41000960923754448 -0.43015869008350938 0 -0.39243713641313921 -0.4188364691099149 0 -0.39453840959530551 -0.43795269674057441 0 -0.40629816863872131 -0.41050362986202749 0 -0.38816245362312018 -0.40324014764666383 0 -0.39243713641313921 -0.4188364691099149 0 -0.40629816863872131 -0.41050362986202749 0 -0.41000960923754448 -0.43015869008350938 0 -0.39243713641313921 -0.4188364691099149 0 -0.39243713641313921 -0.4188364691099149 0 -0.37874804885936281 -0.42634345499337878 0 -0.37499037753076658 -0.40948529014498602 0 -0.38816245362312018 -0.40324014764666383 0 -0.39243713641313921 -0.4188364691099149 0 -0.37499037753076658 -0.40948529014498602 0 -0.39243713641313921 -0.4188364691099149 0 -0.37874804885936281 -0.42634345499337878 0 -0.39453840959530551 -0.43795269674057441 0 -0.37874804885936281 -0.42634345499337878 0 -0.37813548716060158 -0.44490583937211348 0 -0.39453840959530551 -0.43795269674057441 0 -0.37813548716060158 -0.44490583937211348 0 -0.39453840959530551 -0.43795269674057441 0 -0.39597874228520591 -0.45882544372946998 0 -0.39453840959530551 -0.43795269674057441 0 -0.39597874228520591 -0.45882544372946998 0 -0.41159578240174072 -0.44945619544874887 0 -0.41000960923754448 -0.43015869008350938 0 -0.39453840959530551 -0.43795269674057441 0 -0.41159578240174072 -0.44945619544874887 0 -0.39597874228520591 -0.45882544372946998 0 -0.39606587022349138 -0.47725990370668142 0 -0.40839200639991641 -0.46752766529079948 0 -0.39597874228520591 -0.45882544372946998 0 -0.41159578240174072 -0.44945619544874887 0 -0.40839200639991641 -0.46752766529079948 0 -0.37813548716060158 -0.44490583937211348 0 -0.39597874228520591 -0.45882544372946998 0 -0.37499309371178491 -0.46456285094731042 0 -0.39597874228520591 -0.45882544372946998 0 -0.39606587022349138 -0.47725990370668142 0 -0.37499309371178491 -0.46456285094731042 0 -0.3790062045255656 -0.48398528019432357 0 -0.39606587022349138 -0.47725990370668142 0 -0.37499309371178491 -0.46456285094731042 0 -0.3790062045255656 -0.48398528019432357 0 -0.40093571654932397 -0.5 0 -0.37091395645204273 -0.5 0 -0.40093571654932397 -0.5 0 -0.39606587022349138 -0.47725990370668142 0 -0.41582433532562391 -0.48365207236496899 0 -0.3790062045255656 -0.48398528019432357 0 -0.40093571654932397 -0.5 0 -0.39606587022349138 -0.47725990370668142 0 -0.39606587022349138 -0.47725990370668142 0 -0.41582433532562391 -0.48365207236496899 0 -0.40839200639991641 -0.46752766529079948 0 -0.41582433532562391 -0.48365207236496899 0 -0.42598668410023283 -0.46103599845786902 0 -0.40839200639991641 -0.46752766529079948 0 -0.40093571654932397 -0.5 0 -0.41582433532562391 -0.48365207236496899 0 -0.43095747664660539 -0.5 0 -0.44224505358098909 -0.47279036563545929 0 -0.41582433532562391 -0.48365207236496899 0 -0.43095747664660539 -0.5 0 -0.44224505358098909 -0.47279036563545929 0 -0.41582433532562391 -0.48365
[...]
<PointData Scalars="" Vectors="displacement," Tensors="">
<DataArray type="Float64" Name="displacement" NumberOfComponents="3" format="ascii">
-0.03499978052452167 -0.034369586956423774 0 -0.036457431711979335 -0.034339203771111049 0 -0.036026688042861063 -0.033074245990165778 0 -0.03499920666873272 -0.034374149800298591 0 -0.035000199319278801 -0.034997556827587234 0 -0.033382116150865296 -0.035394506924568213 0 -0.034999303020506571 -0.03437020985475453 0 -0.035160019104079898 -0.034909807745687235 0 -0.035000199319278801 -0.034997556827587234 0 -0.033382116150865296 -0.035394506924568213 0 -0.031792527703232175 -0.035000524114589662 0 -0.036457431711979335 -0.034339203771111049 0 -0.036026688042861063 -0.033074245990165778 0 -0.03730619852801316 -0.032778042071032569 0 -0.03499978052452167 -0.034369586956423774 0 -0.036026688042861063 -0.033074245990165778 0 -0.035000033788030314 -0.03226867274410089 0 -0.036026688042861063 -0.033074245990165778 0 -0.035000033788030314 -0.03226867274410089 0 -0.036454595228229809 -0.030915597693095726 0 -0.036026688042861063 -0.033074245990165778 0 -0.036454595228229809 -0.030915597693095726 0 -0.03730619852801316 -0.032778042071032569 0 -0.035000033788030314 -0.03226867274410089 0 -0.036454595228229809 -0.030915597693095726 0 -0.034999025538603096 -0.030166435695364022 0 -0.032915778024696418 -0.032020674393794801 0 -0.032495001292601529 -0.03376070216508216 0 -0.033739020774512886 -0.030589193503503663 0 -0.032793690760410353 -0.031121467020079324 0 -0.032915778024696418 -0.032020674393794801 0 -0.033637907836079915 -0.03002704258304404 0 -0.032793690760410353 -0.031121467020079324 0 -0.032915778024696418 -0.032020674393794801 0 -0.032546469996901757 -0.03317367101666556 0 -0.034677176250575738 -0.031086815004082152 0 -0.035194504768523163 -0.032921499177023389 0 -0.032915778024696418 -0.032020674393794801 0 -0.032546469996901757 -0.03317367101666556 0 -0.032495001292601529 -0.03376070216508216 0 -0.032546469996901757 -0.03317367101666556 0 -0.032352509910463928 -0.032915710263774579 0 -0.0318184317627817 -0.033482309809186969 0 -0.032546469996901757 -0.03317367101666556 0 -0.0318184317627817 -0.033482309809186969 0 -0.032495001292601529 -0.03376070216508216 0 -0.035194504768523163 -0.032921499177023389 0 -0.033358847767653473 -0.034101799997201754 0 -0.035160019104079898 -0.034909807745687235 0 -0.033358847767653473 -0.034101799997201754 0 -0.036457431711979335 -0.034339203771111049 0 -0.03730619852801316 -0.032778042071032569 0 -0.037921556315403324 -0.034436627090238266 0 -0.033382116150865296 -0.035394506924568213 0 -0.031792527703232175 -0.035000524114589662 0 -0.031571264922369766 -0.035356876839777437 0 -0.031577513259319033 -0.035340021859684823 0 -0.031455935949637588 -0.03499996980059604 0 -0.029515419137798222 -0.035170647712213093 0 -0.033358847767653473 -0.034101799997201754 0 -0.0329783862248271 -0.034467893600798535 0 -0.031792527703232175 -0.035000524114589662 0 -0.031571264922369766 -0.035356876839777437 0 -0.031455734666788152 -0.034999743638181063 0 -0.032352509910463928 -0.032915710263774579 0 -0.030456481703810996 -0.033002750390518351 0 -0.0318184317627817 -0.033482309809186969 0 -0.033358847767653473 -0.034101799997201754 0 -0.029740681466975213 -0.034159021363986547 0 -0.031455935949637588 -0.03499996980059604 0 -0.029515419137798222 -0.035170647712213093 0 -0.02745514860165919 -0.034999997753215363 0 -0.029740681466975213 -0.034159021363986547 0 -0.027456589011593029 -0.034999674064839392 0 -0.030456481703810996 -0.033002750390518351 0 -0.0318184317627817 -0.033482309809186969 0 -0.029021281933997351 -0.034489186902070812 0 -0.030456481703810996 -0.033002750390518351 0 -0.027456434535535444 -0.034994257324917871 0 -0.029021281933997351 -0.034489186902070812 0 -0.0318184317627817 -0.033482309809186969 0 -0.029021281933997351 -0.034489186902070812 0 -0.032495001292601529 -0.03376070216508216 0 -0.027456434535535444 -0.034994257324917871 0 -0.026640876518859907 -0.035179188282400346 0 -0.025405753587561686 -0.03500046891849435 0 -0.027456434535535444 -0.034994257324917871 0 -0.029021281933997351 -0.034489186902070812 0 -0.026640876518859907 -0.035179188282400346 0 -0.029021281933997351 -0.034489186902070812 0 -0.026640876518859907 -0.035179188282400346 0 -0.026907346837785666 -0.035735194889659573 0 -0.028343230985448876 -0.035764549752414498 0 -0.029864620619370834 -0.036592561436855603 0 -0.028170193161986923 -0.037240381369015037 0 -0.029021281933997351 -0.034489186902070812 0 -0.026907346837785666 -0.035735194889659573 0 -0.028343230985448876 -0.035764549752414498 0 -0.026907346837785666 -0.035735194889659573 0 -0.028343230985448876 -0.035764549752414498 0 -0.026990669850459788 -0.036580019004558699 0 -0.029021281933997351 -0.034489186902070812 0 -0.028343230985448876 -0.035764549752414498 0 -0.032495001292601529 -0.03376070216508216 0 -0.028343230985448876 -0.035764549752414498 0 -0.032495001292601529 -0.03376070216508216 0 -0.029864620619370834 -0.036592561436855603 0 -0.032493226054022932 -0.03377837077281598 0 -0.032330049558313909 -0.033757819013720207 0 -0.032495001292601529 -0.03376070216508216 0 -0.034906995651233778 -0.031032334742032864 0 -0.033739020774512886 -0.030589193503503663 0 -0.034906995651233778 -0.031032334742032864 0 -0.033739020774512886 -0.030589193503503663 0 -0.034617407590934471 -0.029919636482046732 0 -0.034906995651233778 -0.031032334742032864 0 -0.034617407590934471 -0.029919636482046732 0 -0.034610109608925507 -0.029686550730434819 0 -0.034629676014419235 -0.029414755638786677 0 -0.034617407590934471 -0.029919636482046732 0 -0.034610109608925507 -0.029686550730434819 0 -0.034629676014419235 -0.029414755638786677 0 -0.034617407590934471 -0.029919636482046732 0 -0.034404402900378259 -0.029346645776765396 0 -0.033739020774512886 -0.030589193503503663 0 -0.034617407590934471 -0.029919636482046732 0 -0.034404402900378259 -0.029346645776765396 0 -0.028343230985448876 -0.035764549752414498 0 -0.026990669850459788 -0.036580019004558699 0 -0.028170193161986923 -0.037240381369015037 0 -0.026990669850459788 -0.036580019004558699 0 -0.028170193161986923 -0.037240381369015037 0 -0.027208370324061079 -0.037617211994765046 0 -0.032330049558313909 -0.033757819013720207 0 -0.031296041543347371 -0.033517050057062237 0 -0.034629676014419235 -0.029414755638786677 0 -0.034610109608925507 -0.029686550730434819 0 -0.034296285935440998 -0.029495094633658066 0 -0.031296041543347371 -0.033517050057062237 0 -0.030885308637410236 -0.033745298923033663 0 -0.034610109608925507 -0.029686550730434819 0 -0.033373705142022245 -0.029576330771133984 0 -0.034296285935440998 -0.029495094633658066 0 -0.033373705142022245 -0.029576330771133984 0 -0.034296285935440998 -0.029495094633658066 0 -0.033665993705534004 -0.029961057021464583 0 -0.034296285935440998 -0.029495094633658066 0 -0.034634682401744839 -0.029246388733210827 0 -0.033665993705534004 -0.029961057021464583 0 -0.034629676014419235 -0.029414755638786677 0 -0.034296285935440998 -0.029495094633658066 0 -0.034634682401744839 -0.029246388733210827 0 -0.034634682401744839 -0.029246388733210827 0 -0.033665993705534004 -0.029961057021464583 0 -0.033991473429832331 -0.03065325541722554 0 -0.034634682401744839 -0.029246388733210827 0 -0.03453336619776616 -0.028410295090208454 0 -0.034635255441876296 -0.028324955174428925 0 -0.034443980401374308 -0.029418163112117927 0 -0.034572421639110729 -0.029282697018806123 0 -0.033665993705534004 -0.029961057021464583 0 -0.033165095740857055 -0.030645602623942683 0 -0.033991473429832331 -0.03065325541722554 0 -0.034404402900378259 -0.029346645776765396 0 -0.034583438958852616 -0.028937505845174242 0 -0.034515366088271333 -0.028683167124665326 0 -0.034629676014419235 -0.029414755638786677 0 -0.034634682401744839 -0.029246388733210827 0 -0.034583438958852616 -0.028937505845174242 0 -0.034629676014419235 -0.029414755638786677 0 -0.034404402900378259 -0.029346645776765396 0 -0.034583438958852616 -0.028937505845174242 0 -0.034583438958852616 -0.028937505845174242 0 -0.034602399627494375 -0.028300496697860014 0 -0.03453336619776616 -0.028410295090208454 0 -0.034634682401744839 -0.029246388733210827 0 -0.034583438958852616 -0.028937505845174242 0 -0.03453336619776616 -0.028410295090208454 0 -0.034583438958852616 -0.028937505845174242 0 -0.034602399627494375 -0.028300496697860014 0 -0.034515366088271333 -0.028683167124665326 0 -0.034602399627494375 -0.028300496697860014 0 -0.034713372773326111 -0.027957060546327326 0 -0.034515366088271333 -0.028683167124665326 0 -0.034713372773326111 -0.027957060546327326 0 -0.034515366088271333 -0.028683167124665326 0 -0.034576394808687363 -0.02847851822626472 0 -0.034515366088271333 -0.028683167124665326 0 -0.034576394808687363 -0.02847851822626472 0 -0.034158936550567155 -0.029303349737839175 0 -0.034404402900378259 -0.029346645776765396 0 -0.034515366088271333 -0.028683167124665326 0 -0.034158936550567155 -0.029303349737839175 0 -0.034576394808687363 -0.02847851822626472 0 -0.03485173630489196 -0.028197338287270206 0 -0.034413952896443917 -0.029007147946613774 0 -0.034576394808687363 -0.02847851822626472 0 -0.034158936550567155 -0.029303349737839175 0 -0.034413952896443917 -0.029007147946613774 0 -0.034713372773326111 -0.027957060546327326 0 -0.034576394808687363 -0.02847851822626472 0 -0.034960395396824211 -0.027386918582914074 0 -0.034576394808687363 -0.02847851822626472 0 -0.03485173630489196 -0.028197338287270206 0 -0.034960395396824211 -0.027386918582914074 0 -0.035076427297689936 -0.02705343549884047 0 -0.03485173630489196 -0.028197338287270206 0 -0.034960395396824211 -0.027386918582914074 0 -0.035076427297689936 -0.02705343549884047 0 -0.034998961337271532 -0.028066009545328389 0 -0.034999262993223472 -0.025965609572912478 0 -0.034998961337271532 -0.028066009545328389 0 -0.03485173630489196 -0.028197338287270206 0 -0.03489129758269803 -0.029149220019943394 0 -0.035076427297689936 -0.02705343549884047 0 -0.034998961337271532 -0.028066009545328389 0 -0.03485173630489196 -0.028197338287270206 0 -0.03485173630489196 -0.028197338287270206 0 -0.03489129758269803 -0.029149220019943394 0 -0.034413952896443917 -0.029007147946613774 0 -0.03489129758269803 -0.029149220019943394 0 -0.033637907836079915 -0.03002704258304404 0 -0.034413952896443917 -0.029007147946613774 0 -0.034998961337271532 -0.028066009545328389 0 -0.03489129758269803 -0.029149220019943394 0 -0.034999025538603096 -0.030166435695364022 0 -0.036454595228229809 -0.030915597693095726 0 -0.03489129758269803 -0.029149220019943394 0 -0.034999025538603096 -0.030166435695364022 0 -0.034677176250575738 -0.031086815004082152 0 -0.034844125774620364 -0.029441854356170267 0 -0.032793690760410353 -0.031121467020079324 0 -0.03489129758269803 -0.029149220019943394 0 -0.033637907836079915 -0.03002704258304404 0 -0.032915778024696418 -0.032020674393794801 0 -0.033739020774512886 -0.030589193503503663 0 -0.033637907836079915 -0.03002704258304404 0 -0.033739020774512886 -0.030589193503503663 0 -0.033637907836079915 -0.03002704258304404 0 -0.034158936550567155 -0.029303349737839175 0 -0.033739020774512886 -0.030589193503503663 0 -0.034404402900378259 -0.029346645776765396 0 -0.034158936550567155 -0.029303349737839175 0 -0.033637907836079915 -0.03002704258304404 0 -0.034158936550567155 -0.029303349737839175 0 -0.034413952896443917 -0.029007147946613774 0 -0.015151499591025096 -0.037168136148697323 0 -0.015231441413098228 -0.037309973670586555 0 -0.015047769914604627 -0.037285604256471601 0 -0.020775955338664217 -0.036386779335955202 0 -0.02060680844622494 -0.035667241955934043 0 -0.017823607386984224 -0.037131055850637591 0 -0.017526906319975923 -0.034395001466695801 0 -0.018746231135726304 -0.034723150219212247 0 -0.015326896234809222 -0.037159666805332787 0 -0.015151499591025096 -0.037168136148697323 0 -0.015231441413098228 -0.037309973670586555 0 -0.017823607386984224 -0.037131055850637591 0 -0.017381227687551778 -0.037106827875837606 0 -0.017526906319975923 -0.034395001466695801 0 -0.018107196581507484 -0.036919102123020894 0 -0.016842368434896466 -0.035995320249645739 0 -0.018107196581507484 -0.036919102123020894 0 -0.016396820796809024 -0.037588091217320159 0 -0.019450592563148992 -0.038074255922508064 0 -0.017899395268058286 -0.037938260641442283 0 -0.018585000196620322 -0.036949368002505305 0 -0.019450592563148992 -0.038074255922508064 0 -0.0193306381840413 -0.037065174141185431 0 -0.018585000196620322 -0.036949368002505305 0 -0.018107196581507484 -0.036919102123020894 0 -0.019896630411532466 -0.036907818030618357 0 -0.01988804156940158 -0.036299557176928531 0 -0.019633340429177762 -0.036959356754745883 0 -0.019673590738704061 -0.036287697433794695 0 -0.018107196581507484 -0.036919102123020894 0 -0.020775955338664217 -0.036386779335955202 0 -0.019450592563148992 -0.038074255922508064 0 -0.0193306381840413 -0.037065174141185431 0 -0.019823579424550215 -0.037220133682822357 0 -0.0193306381840413 -0.037065174141185431 0 -0.019870892103131879 -0.036898601748941932 0 -0.019823579424550215 -0.037220133682822357 0 -0.017899395268058286 -0.037938260641442283 0 -0.018585000196620322 -0.036949368002505305 0 -0.01716374462541112 -0.036801238404980334 0 -0.018018746630022262 -0.035967302319006453 0 -0.018585000196620322 -0.036949368002505305 0 -0.01716374462541112 -0.036801238404980334 0 -0.018018746630022262 -0.035967302319006453 0 -0.019256832633444357 -0.034999767138124728 0 -0.017206871129164386 -0.034999860222460245 0 -0.019256832633444357 -0.034999767138124728 0 -0.019173602270380796 -0.035971135207979857 0 -0.0204864090450485 -0.03584893727274905 0 -0.018018746630022262 -0.035967302319006453 0 -0.019256832633444357 -0.034999767138124728 0 -0.019173602270380796 -0.035971135207979857 0 -0.018018746630022262 -0.035967302319006453 0 -0.019173602270380796 -0.035971135207979857 0 -0.018585000196620322 -0.036949368002505305 0 -0.019173602270380796 -0.035971135207979857 0 -0.019445293235204358 -0.036495431028171807 0 -0.0204864090450485 -0.03584893727274905 0 -0.019173602270380796 -0.035971135207979857 0 -0.018585000196620322 -0.036949368002505305 0 -0.019445293235204358 -0.036495431028171807 0 -0.0193306381840413 -0.037065174141185431 0 -0.018585000196620322 -0.036949368002505305 0 -0.019445293235204358 -0.036495431028171807 0 -0.0193306381840413 -0.037065174141185431 0 -0.019445293235204358 -0.036495431028171807 0 -0.019870892103131879 -0.036898601748941932 0 -0.020470662438220599 -0.03594194827163745 0 -0.019896630411532466 -0.036907818030618357 0 -0.020886698102547566 -0.03626724302566102 0 -0.021351388309148327 -0.036578534315654831 0 -0.020309976905139651 -0.036670335427699027 0 -0.019870892103131879 -0.036898601748941932 0 -0.0204864090450485 -0.03584893727274905 0 -0.019827497543290488 -0.037283013488196105 0 -0.020886698102547566 -0.03626724302566102 0 -0.0204864090450485 -0.03584893727274905 0 -0.020309976905139651 -0.036670335427699027 0 -0.019445293235204358 -0.036495431028171807 0 -0.019870892103131879 -0.036898601748941932 0 -0.0204864090450485 -0.03584893727274905 0 -0.019256832633444357 -0.034999767138124728 0 -0.0204864090450485 -0.03584893727274905 0 -0.021306757409025479 -0.034999756175173063 0 -0.0204864090450485 -0.03584893727274905 0 -0.021306757409025479 -0.034999756175173063 0 -0.021747619278337616 -0.035776244156863646 0 -0.020886698102547566 -0.03626724302566102 0 -0.0204864090450485 -0.03584893727274905 0 -0.021747619278337616 -0.035776244156863646 0 -0.021747619278337616 -0.035776244156863646 0 -0.021351388309148327 -0.036578534315654831 0 -0.023122581725505433 -0.036097529731978127 0 -0.020886698102547566 -0.03626724302566102 0 -0.021747619278337616 -0.035776244156863646 0 -0.021351388309148327 -0.036578534315654831 0 -0.021351388309148327 -0.036578534315654831 0 -0.022200066227130142 -0.037363853447152581 0 -0.023122581725505433 -0.036097529731978127 0 -0.021351388309148327 -0.036578534315654831 0 -0.020260073122781216 -0.037393577930112436 0 -0.022200066227130142 -0.037363853447152581 0 -0.021351388309148327 -0.036578534315654831 0 -0.020309976905139651 -0.036670335427699027 0 -0.020260073122781216 -0.037393577930112436 0 -0.0198859865863701 -0.03696871382555466 0 -0.019896630411532466 -0.036907818030618357 0 -0.019896630411532466 -0.036907818030618357 0 -0.020775955338664217 -0.036386779335955202 0 -0.023706852740571868 -0.035889800919394109 0 -0.023799910881886637 -0.036061741794953056 0 -0.023817250703365721 -0.036197510092773375 0 -0.020775955338664217 -0.036386779335955202 0 -0.023488538553223907 -0.036727122573840372 0 -0.023706852740571868 -0.035889800919394109 0 -0.023799910881886637 -0.036061741794953056 0 -0.023988242606873607 -0.036065586993840944 0 -0.023799910881886637 -0.036061741794953056 0 -0.023988242606873607 -0.036065586993840944 0 -0.023730809795843768 -0.036049106326213443 0 -0.023706852740571868 -0.035889800919394109 0 -0.023988242606873607 -0.036065586993840944 0 -0.024223725630827607 -0.036055384625943154 0 -0.023988242606873607 -0.036065586993840944 0 -0.024223725630827607 -0.036055384625943154 0 -0.024208324158552438 -0.036207542453022726 0 -0.024223725630827607 -0.036055384625943154 0 -0.024611237186731215 -0.036529330480198803 0 -0.024404909550511351 -0.036431025907972515 0 -0.024223725630827607 -0.036055384625943154 0 -0.024404909550511351 -0.036431025907972515 0 -0.024208324158552438 -0.036207542453022726 0 -0.023488538553223907 -0.036727122573840372 0 -0.024345016589654378 -0.036551708848285326 0 -0.024611237186731215 -0.036529330480198803 0 -0.023122581725505433 -0.036097529731978127 0 -0.025200825341144692 -0.035719750720171105 0 -0.022200066227130142 -0.037363853447152581 0 -0.024611237186731215 -0.036529330480198803 0 -0.023122581725505433 -0.036097529731978127 0 -0.021747619278337616 -0.035776244156863646 0 -0.023122581725505433 -0.036097529731978127 0 -0.023356505200876534 -0.034999217822701073 0 -0.021306757409025479 -0.034999756175173063 0 -0.021747619278337616 -0.035776244156863646 0 -0.023356505200876534 -0.034999217822701073 0 -0.023122581725505433 -0.036097529731978127 0 -0.023356505200876534 -0.034999217822701073 0 -0.025200825341144692 -0.035719750720171105 0 -0.023356505200876534 -0.034999217822701073 0 -0.025200825341144692 -0.035719750720171105 0 -0.025405753587561686 -0.03500046891849435 0 -0.026640876518859907 -0.035179188282400346 0 -0.025200825341144692 -0.035719750720171105 0 -0.025405753587561686 -0.03500046891849435 0 -0.026640876518859907 -0.035179188282400346 0 -0.026907346837785666 -0.035735194889659573 0 -0.025200825341144692 -0.035719750720171105 0 -0.026907346837785666 -0.035735194889659573 0 -0.025200825341144692 -0.035719750720171105 0 -0.025745462822562168 -0.036362908012454481 0 -0.024611237186731215 -0.036529330480198803 0 -0.025200825341144692 -0.035719750720171105 0 -0.025745462822562168 -0.036362908012454481 0 -0.024611237186731215 -0.036529330480198803 0 -0.025745462822562168 -0.036362908012454481 0 -0.024955144333109004 -0.036630067184938997 0 -0.026907346837785666 -0.035735194889659573 0 -0.026990669850459788 -0.036580019004558699 0 -0.025745462822562168 -0.036362908012454481 0 -0.026990669850459788 -0.036580019004558699 0 -0.027208370324061079 -0.037617211994765046 0 -0.026076235649752966 -0.037041919464947573 0 -0.026990669850459788 -0.036580019004558699 0 -0.025745462822562168 -0.036362908012454481 0 -0.026076235649752966 -0.037041919464947573 0 -0.025745462822562168 -0.036362908012454481 0 -0.024955144333109004 -0.036630067184938997 0 -0.026076235649752966 -0.037041919464947573 0 -0.024955144333109004 -0.036630067184938997 0 -0.026076235649752966 -0.037041919464947573 0 -0.02527614176718735 -0.037807232281685248 0 -0.027208370324061079 -0.037617211994765046 0 -0.026210322144180884 -0.037756349223142971 0 -0.026199940713153722 -0.038492891157813562 0 -0.027208370324061079 -0.037617211994765046 0 -0.026076235649752966 -0.037041919464947573 0 -0.026210322144180884 -0.037756349223142971 0 -0.030885308