<?xml version="1.0"?>
<VTKFile type="UnstructuredGrid" version="0.1" byte_order="LittleEndian">
<UnstructuredGrid>
<Piece NumberOfPoints="30794" NumberOfCells="10773">
<Points>
<DataArray type="Float64" NumberOfComponents="3" format="ascii">
-0.49100099684116849 -0.49999999999999628 0 -0.49304374346644331 -0.47553347608821778 0 -0.47309548174009652 -0.48263462867703782 0 -0.49100099684116849 -0.49999999999999628 0 -0.5 -0.5 0 -0.49304374346644331 -0.47553347608821778 0 -0.49100099684116849 -0.49999999999999628 0 -0.49304374346644331 -0.47553347608821778 0 -0.5 -0.5 0 -0.49304374346644331 -0.47553347608821778 0 -0.5 -0.4541745895704109 0 -0.49304374346644331 -0.47553347608821778 0 -0.47309548174009652 -0.48263462867703782 0 -0.46866577183635438 -0.46192865890594947 0 -0.49100099684116849 -0.49999999999999628 0 -0.47309548174009652 -0.48263462867703782 0 -0.46097923674388702 -0.5 0 -0.47309548174009652 -0.48263462867703782 0 -0.46097923674388702 -0.5 0 -0.44224505358098909 -0.47279036563545929 0 -0.47309548174009652 -0.48263462867703782 0 -0.44224505358098909 -0.47279036563545929 0 -0.46866577183635438 -0.46192865890594947 0 -0.46097923674388702 -0.5 0 -0.44224505358098909 -0.47279036563545929 0 -0.43095747664660539 -0.5 0 -0.44766829542017589 -0.45244946255784768 0 -0.45905064801857159 -0.43310858360570842 0 -0.43194032264130772 -0.43663587307625978 0 -0.44224505358098909 -0.47279036563545929 0 -0.44766829542017589 -0.45244946255784768 0 -0.42598668410023283 -0.46103599845786902 0 -0.44224505358098909 -0.47279036563545929 0 -0.44766829542017589 -0.45244946255784768 0 -0.46866577183635438 -0.46192865890594947 0 -0.44224505358098909 -0.47279036563545929 0 -0.46866577183635438 -0.46192865890594947 0 -0.44766829542017589 -0.45244946255784768 0 -0.46866577183635438 -0.46192865890594947 0 -0.45905064801857159 -0.43310858360570842 0 -0.46866577183635438 -0.46192865890594947 0 -0.49508649009171951 -0.45106695217643938 0 -0.48058047793797809 -0.43504065816177923 0 -0.46866577183635438 -0.46192865890594947 0 -0.48058047793797809 -0.43504065816177923 0 -0.45905064801857159 -0.43310858360570842 0 -0.46866577183635438 -0.46192865890594947 0 -0.49508649009171951 -0.45106695217643938 0 -0.49304374346644331 -0.47553347608821778 0 -0.49508649009171951 -0.45106695217643938 0 -0.49304374346644331 -0.47553347608821778 0 -0.46866577183635438 -0.46192865890594947 0 -0.49508649009171951 -0.45106695217643938 0 -0.49304374346644331 -0.47553347608821778 0 -0.5 -0.4541745895704109 0 -0.49508649009171951 -0.45106695217643938 0 -0.49508649009171951 -0.45106695217643938 0 -0.5 -0.44936997659457739 0 -0.49754324504585951 -0.42164173953031647 0 -0.49508649009171951 -0.45106695217643938 0 -0.5 -0.44936997659457739 0 -0.5 -0.4541745895704109 0 -0.49508649009171951 -0.45106695217643938 0 -0.5 -0.44936997659457739 0 -0.49508649009171951 -0.45106695217643938 0 -0.49754324504585951 -0.42164173953031647 0 -0.48058047793797809 -0.43504065816177923 0 -0.49508649009171951 -0.45106695217643938 0 -0.49754324504585951 -0.42164173953031647 0 -0.5 -0.44936997659457739 0 -0.49754324504585951 -0.42164173953031647 0 -0.50000000000000022 -0.39221652688419351 0 -0.49754324504585951 -0.42164173953031647 0 -0.50000000000000022 -0.39221652688419351 0 -0.49754324504585951 -0.42164173953031647 0 -0.48058047793797809 -0.43504065816177923 0 -0.47520206432054157 -0.40606081929938792 0 -0.49754324504585951 -0.42164173953031647 0 -0.50000000000000022 -0.39221652688419351 0 -0.47520206432054157 -0.40606081929938792 0 -0.48058047793797809 -0.43504065816177923 0 -0.47520206432054157 -0.40606081929938792 0 -0.45905064801857159 -0.43310858360570842 0 -0.50000000000000022 -0.39221652688419351 0 -0.4831840771892707 -0.37757640421031241 0 -0.5 -0.36293628153643198 0 -0.50000000000000022 -0.39221652688419351 0 -0.47520206432054157 -0.40606081929938792 0 -0.4831840771892707 -0.37757640421031241 0 -0.47520206432054157 -0.40606081929938792 0 -0.4831840771892707 -0.37757640421031241 0 -0.46105773080952828 -0.38032108046924451 0 -0.45317788301855128 -0.39938784713659847 0 -0.43962411748326907 -0.41494191516303042 0 -0.42019758694796672 -0.39677524672035241 0 -0.47520206432054157 -0.40606081929938792 0 -0.46105773080952828 -0.38032108046924451 0 -0.45317788301855128 -0.39938784713659847 0 -0.46105773080952828 -0.38032108046924451 0 -0.45317788301855128 -0.39938784713659847 0 -0.43716508925243031 -0.37994966696465332 0 -0.47520206432054157 -0.40606081929938792 0 -0.45317788301855128 -0.39938784713659847 0 -0.45905064801857159 -0.43310858360570842 0 -0.45317788301855128 -0.39938784713659847 0 -0.45905064801857159 -0.43310858360570842 0 -0.43962411748326907 -0.41494191516303042 0 -0.45905064801857159 -0.43310858360570842 0 -0.43962411748326907 -0.41494191516303042 0 -0.45905064801857159 -0.43310858360570842 0 -0.43962411748326907 -0.41494191516303042 0 -0.43194032264130772 -0.43663587307625978 0 -0.43962411748326907 -0.41494191516303042 0 -0.43194032264130772 -0.43663587307625978 0 -0.42161396098976189 -0.41780307098103592 0 -0.43962411748326907 -0.41494191516303042 0 -0.42161396098976189 -0.41780307098103592 0 -0.42019758694796672 -0.39677524672035241 0 -0.40629816863872131 -0.41050362986202749 0 -0.42161396098976189 -0.41780307098103592 0 -0.42019758694796672 -0.39677524672035241 0 -0.40629816863872131 -0.41050362986202749 0 -0.42161396098976189 -0.41780307098103592 0 -0.41000960923754448 -0.43015869008350938 0 -0.43194032264130772 -0.43663587307625978 0 -0.42161396098976189 -0.41780307098103592 0 -0.41000960923754448 -0.43015869008350938 0 -0.45317788301855128 -0.39938784713659847 0 -0.43716508925243031 -0.37994966696465332 0 -0.42019758694796672 -0.39677524672035241 0 -0.43716508925243031 -0.37994966696465332 0 -0.42019758694796672 -0.39677524672035241 0 -0.40077105641266442 -0.37860857827767441 0 -0.43962411748326907 -0.41494191516303042 0 -0.42019758694796672 -0.39677524672035241 0 -0.40629816863872131 -0.41050362986202749 0 -0.42019758694796672 -0.39677524672035241 0 -0.40061123365991569 -0.39472964507112368 0 -0.42019758694796672 -0.39677524672035241 0 -0.40077105641266442 -0.37860857827767441 0 -0.42019758694796672 -0.39677524672035241 0 -0.40077105641266442 -0.37860857827767441 0 -0.40061123365991569 -0.39472964507112368 0 -0.40077105641266442 -0.37860857827767441 0 -0.40061123365991569 -0.39472964507112368 0 -0.38762690267710592 -0.38452062284890071 0 -0.40061123365991569 -0.39472964507112368 0 -0.38816245362312018 -0.40324014764666383 0 -0.38762690267710592 -0.38452062284890071 0 -0.40629816863872131 -0.41050362986202749 0 -0.40061123365991569 -0.39472964507112368 0 -0.38816245362312018 -0.40324014764666383 0 -0.38816245362312018 -0.40324014764666383 0 -0.38762690267710592 -0.38452062284890071 0 -0.3746840518779867 -0.3908612585920983 0 -0.38816245362312018 -0.40324014764666383 0 -0.37499037753076658 -0.40948529014498602 0 -0.3746840518779867 -0.3908612585920983 0 -0.38816245362312018 -0.40324014764666383 0 -0.3746840518779867 -0.3908612585920983 0 -0.38762690267710592 -0.38452062284890071 0 -0.37636850370020941 -0.37698452578058428 0 -0.3746840518779867 -0.3908612585920983 0 -0.41000960923754448 -0.43015869008350938 0 -0.39243713641313921 -0.4188364691099149 0 -0.39453840959530551 -0.43795269674057441 0 -0.40629816863872131 -0.41050362986202749 0 -0.38816245362312018 -0.40324014764666383 0 -0.39243713641313921 -0.4188364691099149 0 -0.40629816863872131 -0.41050362986202749 0 -0.41000960923754448 -0.43015869008350938 0 -0.39243713641313921 -0.4188364691099149 0 -0.39243713641313921 -0.4188364691099149 0 -0.37874804885936281 -0.42634345499337878 0 -0.37499037753076658 -0.40948529014498602 0 -0.38816245362312018 -0.40324014764666383 0 -0.39243713641313921 -0.4188364691099149 0 -0.37499037753076658 -0.40948529014498602 0 -0.39243713641313921 -0.4188364691099149 0 -0.37874804885936281 -0.42634345499337878 0 -0.39453840959530551 -0.43795269674057441 0 -0.37874804885936281 -0.42634345499337878 0 -0.37813548716060158 -0.44490583937211348 0 -0.39453840959530551 -0.43795269674057441 0 -0.37813548716060158 -0.44490583937211348 0 -0.39453840959530551 -0.43795269674057441 0 -0.39597874228520591 -0.45882544372946998 0 -0.39453840959530551 -0.43795269674057441 0 -0.39597874228520591 -0.45882544372946998 0 -0.41159578240174072 -0.44945619544874887 0 -0.41000960923754448 -0.43015869008350938 0 -0.39453840959530551 -0.43795269674057441 0 -0.41159578240174072 -0.44945619544874887 0 -0.39597874228520591 -0.45882544372946998 0 -0.39606587022349138 -0.47725990370668142 0 -0.40839200639991641 -0.46752766529079948 0 -0.39597874228520591 -0.45882544372946998 0 -0.41159578240174072 -0.44945619544874887 0 -0.40839200639991641 -0.46752766529079948 0 -0.37813548716060158 -0.44490583937211348 0 -0.39597874228520591 -0.45882544372946998 0 -0.37499309371178491 -0.46456285094731042 0 -0.39597874228520591 -0.45882544372946998 0 -0.39606587022349138 -0.47725990370668142 0 -0.37499309371178491 -0.46456285094731042 0 -0.3790062045255656 -0.48398528019432357 0 -0.39606587022349138 -0.47725990370668142 0 -0.37499309371178491 -0.46456285094731042 0 -0.3790062045255656 -0.48398528019432357 0 -0.40093571654932397 -0.5 0 -0.37091395645204273 -0.5 0 -0.40093571654932397 -0.5 0 -0.39606587022349138 -0.47725990370668142 0 -0.41582433532562391 -0.48365207236496899 0 -0.3790062045255656 -0.48398528019432357 0 -0.40093571654932397 -0.5 0 -0.39606587022349138 -0.47725990370668142 0 -0.39606587022349138 -0.47725990370668142 0 -0.41582433532562391 -0.48365207236496899 0 -0.40839200639991641 -0.46752766529079948 0 -0.41582433532562391 -0.48365207236496899 0 -0.42598668410023283 -0.46103599845786902 0 -0.40839200639991641 -0.46752766529079948 0 -0.40093571654932397 -0.5 0 -0.41582433532562391 -0.48365207236496899 0 -0.43095747664660539 -0.5 0 -0.44224505358098909 -0.47279036563545929 0 -0.41582433532562391 -0.48365207236496899 0 -0.43095747664660539 -0.5 0 -0.44224505358098909 -0.47279036563545929 0 -0.41582433532562391 -0.48365
[...]
<PointData Scalars="" Vectors="displacement," Tensors="">
<DataArray type="Float64" Name="displacement" NumberOfComponents="3" format="ascii">
-5.3410519369894044e-08 -0.0349999844257982 0 -8.7545984713306775e-05 -0.034984252784582878 0 -8.2548580286309276e-05 -0.034990575510210793 0 2.1172965490708218e-08 -0.03499946815074724 0 -5.1587061407264671e-08 -0.034999653965115923 0 -1.3914565711688358e-05 -0.033363441307433475 0 -8.5762950745763517e-08 -0.034999586361005787 0 -0.00027558728529196457 -0.034394497719891122 0 -5.1587061407264671e-08 -0.034999653965115923 0 -1.3914565711688358e-05 -0.033363441307433475 0 -5.7635559686190247e-08 -0.03179263732673928 0 -8.7545984713306775e-05 -0.034984252784582878 0 -8.2548580286309276e-05 -0.034990575510210793 0 -0.00011235634998424863 -0.034961097702002085 0 -5.3410519369894044e-08 -0.0349999844257982 0 -8.2548580286309276e-05 -0.034990575510210793 0 -1.1613434142287633e-07 -0.03500013353900229 0 -8.2548580286309276e-05 -0.034990575510210793 0 -1.1613434142287633e-07 -0.03500013353900229 0 -0.00025516851142281578 -0.034974366841290537 0 -8.2548580286309276e-05 -0.034990575510210793 0 -0.00025516851142281578 -0.034974366841290537 0 -0.00011235634998424863 -0.034961097702002085 0 -1.1613434142287633e-07 -0.03500013353900229 0 -0.00025516851142281578 -0.034974366841290537 0 1.6719180549072085e-08 -0.034999508822556986 0 0.00035526538406944515 -0.029859918065531305 0 0.0014820280689640131 -0.028016128644596551 0 0.0014329255164432515 -0.031514677918693244 0 -0.001046210122086159 -0.030752624634260883 0 0.00035526538406944515 -0.029859918065531305 0 0.00010532887799387913 -0.032409139307736458 0 -0.001046210122086159 -0.030752624634260883 0 0.00035526538406944515 -0.029859918065531305 0 -0.00017451716398103929 -0.028040046543249427 0 -0.00056503122854285144 -0.032849693549488752 0 -0.00016454611828424281 -0.03146598566578819 0 0.00035526538406944515 -0.029859918065531305 0 -0.00017451716398103929 -0.028040046543249427 0 0.0014820280689640131 -0.028016128644596551 0 -0.00017451716398103929 -0.028040046543249427 0 0.00059098077386178971 -0.027029417594905392 0 0.0011072631187177006 -0.027379830368781152 0 -0.00017451716398103929 -0.028040046543249427 0 0.0011072631187177006 -0.027379830368781152 0 0.0014820280689640131 -0.028016128644596551 0 -0.00016454611828424281 -0.03146598566578819 0 0.00044099058723773976 -0.031309897238551078 0 -0.00027558728529196457 -0.034394497719891122 0 0.00044099058723773976 -0.031309897238551078 0 -8.7545984713306775e-05 -0.034984252784582878 0 -0.00011235634998424863 -0.034961097702002085 0 -8.3513250502967014e-05 -0.034933646765110946 0 -1.3914565711688358e-05 -0.033363441307433475 0 -5.7635559686190247e-08 -0.03179263732673928 0 2.6320658343455891e-05 -0.031764899425783082 0 3.8315760751214921e-06 -0.031508874866697741 0 1.7145168591093359e-08 -0.031454869358528287 0 -9.8952064119100003e-07 -0.029543439007916408 0 0.00044099058723773976 -0.031309897238551078 0 0.00029204386757267887 -0.031499371375092275 0 -5.7635559686190247e-08 -0.03179263732673928 0 2.6320658343455891e-05 -0.031764899425783082 0 1.9680452258507563e-07 -0.031456295781207136 0 0.00059098077386178971 -0.027029417594905392 0 0.0010606082004217445 -0.027350580720416559 0 0.0011072631187177006 -0.027379830368781152 0 0.00044099058723773976 -0.031309897238551078 0 0.00036150952500208129 -0.028156458464846778 0 1.7145168591093359e-08 -0.031454869358528287 0 -9.8952064119100003e-07 -0.029543439007916408 0 -1.5343735296735833e-09 -0.027456167185363735 0 0.00036150952500208129 -0.028156458464846778 0 -1.4144193854273598e-07 -0.027455713088461776 0 0.0010606082004217445 -0.027350580720416559 0 0.0011072631187177006 -0.027379830368781152 0 0.00071420143512376886 -0.026820944403606668 0 0.0010606082004217445 -0.027350580720416559 0 1.6290844286932491e-06 -0.027452098365993435 0 0.00071420143512376886 -0.026820944403606668 0 0.0011072631187177006 -0.027379830368781152 0 0.00071420143512376886 -0.026820944403606668 0 0.0014820280689640131 -0.028016128644596551 0 1.6290844286932491e-06 -0.027452098365993435 0 -0.00014641617540696013 -0.026104772014237727 0 -9.4035022565009238e-07 -0.025406073998068421 0 1.6290844286932491e-06 -0.027452098365993435 0 0.00071420143512376886 -0.026820944403606668 0 -0.00014641617540696013 -0.026104772014237727 0 0.00071420143512376886 -0.026820944403606668 0 -0.00014641617540696013 -0.026104772014237727 0 -9.3478320633318915e-05 -0.025779574112036997 0 0.00040543381776077605 -0.026149934326628998 0 0.00094046615473966058 -0.025906089990442353 0 0.00031938075224801515 -0.025089519047268392 0 0.00071420143512376886 -0.026820944403606668 0 -9.3478320633318915e-05 -0.025779574112036997 0 0.00040543381776077605 -0.026149934326628998 0 -9.3478320633318915e-05 -0.025779574112036997 0 0.00040543381776077605 -0.026149934326628998 0 -0.00010424420424687397 -0.025375873412183777 0 0.00071420143512376886 -0.026820944403606668 0 0.00040543381776077605 -0.026149934326628998 0 0.0014820280689640131 -0.028016128644596551 0 0.00040543381776077605 -0.026149934326628998 0 0.0014820280689640131 -0.028016128644596551 0 0.00094046615473966058 -0.025906089990442353 0 0.0014637248891375958 -0.027947771262575083 0 0.0018962765086091352 -0.028344891103534713 0 0.0014820280689640131 -0.028016128644596551 0 0.0030207632199607572 -0.030824421020930821 0 0.0014329255164432515 -0.031514677918693244 0 0.0030207632199607572 -0.030824421020930821 0 0.0014329255164432515 -0.031514677918693244 0 0.0025187696807748628 -0.032242749074131792 0 0.0030207632199607572 -0.030824421020930821 0 0.0025187696807748628 -0.032242749074131792 0 0.00337150789230671 -0.032405762822225674 0 0.002630346030926919 -0.0331257766765536 0 0.0025187696807748628 -0.032242749074131792 0 0.00337150789230671 -0.032405762822225674 0 0.002630346030926919 -0.0331257766765536 0 0.0025187696807748628 -0.032242749074131792 0 0.0017460637396672651 -0.033078050255653108 0 0.0014329255164432515 -0.031514677918693244 0 0.0025187696807748628 -0.032242749074131792 0 0.0017460637396672651 -0.033078050255653108 0 0.00040543381776077605 -0.026149934326628998 0 -0.00010424420424687397 -0.025375873412183777 0 0.00031938075224801515 -0.025089519047268392 0 -0.00010424420424687397 -0.025375873412183777 0 0.00031938075224801515 -0.025089519047268392 0 -7.6690365465345025e-05 -0.024744673574169491 0 0.0018962765086091352 -0.028344891103534713 0 0.0017977881782089099 -0.028681209458655356 0 0.002630346030926919 -0.0331257766765536 0 0.00337150789230671 -0.032405762822225674 0 0.0032109551075054656 -0.033343823421261784 0 0.0017977881782089099 -0.028681209458655356 0 0.0020988286694748003 -0.029186759706866329 0 0.00337150789230671 -0.032405762822225674 0 0.0037909845874416776 -0.0333466713792075 0 0.0032109551075054656 -0.033343823421261784 0 0.0037909845874416776 -0.0333466713792075 0 0.0032109551075054656 -0.033343823421261784 0 0.0035520814213143028 -0.033873822471682663 0 0.0032109551075054656 -0.033343823421261784 0 0.0026530649782226263 -0.033979721249304345 0 0.0035520814213143028 -0.033873822471682663 0 0.002630346030926919 -0.0331257766765536 0 0.0032109551075054656 -0.033343823421261784 0 0.0026530649782226263 -0.033979721249304345 0 0.0026530649782226263 -0.033979721249304345 0 0.0035520814213143028 -0.033873822471682663 0 0.0032747928719616972 -0.034385434009492233 0 0.0026530649782226263 -0.033979721249304345 0 0.0022266219837787137 -0.034462330588154101 0 0.0024628692772610595 -0.034515830187757959 0 0.002485473556093464 -0.033869982372829503 0 0.0032152864221918708 -0.034835074760219707 0 0.0035520814213143028 -0.033873822471682663 0 0.0037971629958811325 -0.034272627166431861 0 0.0032747928719616972 -0.034385434009492233 0 0.0017460637396672651 -0.033078050255653108 0 0.0020974952175943965 -0.033850945497911879 0 0.0013163309540959458 -0.033899381913383424 0 0.002630346030926919 -0.0331257766765536 0 0.0026530649782226263 -0.033979721249304345 0 0.0020974952175943965 -0.033850945497911879 0 0.002630346030926919 -0.0331257766765536 0 0.0017460637396672651 -0.033078050255653108 0 0.0020974952175943965 -0.033850945497911879 0 0.0020974952175943965 -0.033850945497911879 0 0.0017225013633847266 -0.034369475648780269 0 0.0022266219837787137 -0.034462330588154101 0 0.0026530649782226263 -0.033979721249304345 0 0.0020974952175943965 -0.033850945497911879 0 0.0022266219837787137 -0.034462330588154101 0 0.0020974952175943965 -0.033850945497911879 0 0.0017225013633847266 -0.034369475648780269 0 0.0013163309540959458 -0.033899381913383424 0 0.0017225013633847266 -0.034369475648780269 0 0.0010520172973535837 -0.034467666198130041 0 0.0013163309540959458 -0.033899381913383424 0 0.0010520172973535837 -0.034467666198130041 0 0.0013163309540959458 -0.033899381913383424 0 0.0004564692844794942 -0.034114671721534116 0 0.0013163309540959458 -0.033899381913383424 0 0.0004564692844794942 -0.034114671721534116 0 0.00078513807359138993 -0.033232801163756306 0 0.0017460637396672651 -0.033078050255653108 0 0.0013163309540959458 -0.033899381913383424 0 0.00078513807359138993 -0.033232801163756306 0 0.0004564692844794942 -0.034114671721534116 0 -5.5828363537019947e-05 -0.034444013178767573 0 4.2908713496357587e-05 -0.033846360813373839 0 0.0004564692844794942 -0.034114671721534116 0 0.00078513807359138993 -0.033232801163756306 0 4.2908713496357587e-05 -0.033846360813373839 0 0.0010520172973535837 -0.034467666198130041 0 0.0004564692844794942 -0.034114671721534116 0 0.00042625599041398927 -0.034653823244850855 0 0.0004564692844794942 -0.034114671721534116 0 -5.5828363537019947e-05 -0.034444013178767573 0 0.00042625599041398927 -0.034653823244850855 0 1.9433752644847605e-05 -0.034758943127915665 0 -5.5828363537019947e-05 -0.034444013178767573 0 0.00042625599041398927 -0.034653823244850855 0 1.9433752644847605e-05 -0.034758943127915665 0 -5.3869550244001711e-07 -0.034998584662746447 0 1.2607575623766107e-07 -0.034999884279208755 0 -5.3869550244001711e-07 -0.034998584662746447 0 -5.5828363537019947e-05 -0.034444013178767573 0 -0.00044633839765809076 -0.034258820163358371 0 1.9433752644847605e-05 -0.034758943127915665 0 -5.3869550244001711e-07 -0.034998584662746447 0 -5.5828363537019947e-05 -0.034444013178767573 0 -5.5828363537019947e-05 -0.034444013178767573 0 -0.00044633839765809076 -0.034258820163358371 0 4.2908713496357587e-05 -0.033846360813373839 0 -0.00044633839765809076 -0.034258820163358371 0 0.00010532887799387913 -0.032409139307736458 0 4.2908713496357587e-05 -0.033846360813373839 0 -5.3869550244001711e-07 -0.034998584662746447 0 -0.00044633839765809076 -0.034258820163358371 0 1.6719180549072085e-08 -0.034999508822556986 0 -0.00025516851142281578 -0.034974366841290537 0 -0.00044633839765809076 -0.034258820163358371 0 1.6719180549072085e-08 -0.034999508822556986 0 -0.00056503122854285144 -0.032849693549488752 0 -0.00049941164930394596 -0.03404211317827005 0 -0.001046210122086159 -0.030752624634260883 0 -0.00044633839765809076 -0.034258820163358371 0 0.00010532887799387913 -0.032409139307736458 0 0.00035526538406944515 -0.029859918065531305 0 0.0014329255164432515 -0.031514677918693244 0 0.00010532887799387913 -0.032409139307736458 0 0.0014329255164432515 -0.031514677918693244 0 0.00010532887799387913 -0.032409139307736458 0 0.00078513807359138993 -0.033232801163756306 0 0.0014329255164432515 -0.031514677918693244 0 0.0017460637396672651 -0.033078050255653108 0 0.00078513807359138993 -0.033232801163756306 0 0.00010532887799387913 -0.032409139307736458 0 0.00078513807359138993 -0.033232801163756306 0 4.2908713496357587e-05 -0.033846360813373839 0 -0.0015391706137788358 -0.01731846862455548 0 -0.0020154426928165096 -0.018172316718018746 0 -0.001059537914261686 -0.017909759691204452 0 -0.00027885114337405578 -0.022449339362556549 0 -0.0017233049370779996 -0.023421168641488393 0 -0.0019372235629152839 -0.021434661200695804 0 -0.0019852737733722699 -0.021754002191826903 0 -0.0018489842572096819 -0.021709704381275476 0 -0.0023082880196055385 -0.017389487345872586 0 -0.0015391706137788358 -0.01731846862455548 0 -0.0020154426928165096 -0.018172316718018746 0 -0.0019372235629152839 -0.021434661200695804 0 -0.0019868957242971507 -0.021439518428584377 0 -0.0019852737733722699 -0.021754002191826903 0 -0.0009058079033182736 -0.019769312238219018 0 -0.0020768201318513866 -0.01983415048512149 0 -0.0009058079033182736 -0.019769312238219018 0 -0.00096405296510872728 -0.017310405035938101 0 0.00018384844807099843 -0.01766575034549684 0 -0.00035685984255329206 -0.017607072891552271 0 -0.00019593305017374298 -0.018069294610282453 0 0.00018384844807099843 -0.01766575034549684 0 0.00012700843952087682 -0.018190478913731312 0 -0.00019593305017374298 -0.018069294610282453 0 -0.0009058079033182736 -0.019769312238219018 0 0.00051584721015397804 -0.020127986482052915 0 0.00031693263567026682 -0.020867958793433096 0 0.00012069898131994806 -0.02034742893384528 0 0.00014750248161331258 -0.020878569624353752 0 -0.0009058079033182736 -0.019769312238219018 0 -0.00027885114337405578 -0.022449339362556549 0 0.00018384844807099843 -0.01766575034549684 0 0.00012700843952087682 -0.018190478913731312 0 0.00044580469128421797 -0.018132731797967063 0 0.00012700843952087682 -0.018190478913731312 0 0.00050372130878696859 -0.018443002357007063 0 0.00044580469128421797 -0.018132731797967063 0 -0.00035685984255329206 -0.017607072891552271 0 -0.00019593305017374298 -0.018069294610282453 0 -0.00035912573051963455 -0.017479232140770608 0 -0.00019841076300268086 -0.018066699953589668 0 -0.00019593305017374298 -0.018069294610282453 0 -0.00035912573051963455 -0.017479232140770608 0 -0.00019841076300268086 -0.018066699953589668 0 5.1093452226082911e-07 -0.019256903699229676 0 -7.9621731170717786e-07 -0.017207238882962689 0 5.1093452226082911e-07 -0.019256903699229676 0 4.6669859814475996e-06 -0.019035535128769251 0 0.00063198481269909578 -0.020580943445509321 0 -0.00019841076300268086 -0.018066699953589668 0 5.1093452226082911e-07 -0.019256903699229676 0 4.6669859814475996e-06 -0.019035535128769251 0 -0.00019841076300268086 -0.018066699953589668 0 4.6669859814475996e-06 -0.019035535128769251 0 -0.00019593305017374298 -0.018069294610282453 0 4.6669859814475996e-06 -0.019035535128769251 0 0.00010710996430742577 -0.018830179037235641 0 0.00063198481269909578 -0.020580943445509321 0 4.6669859814475996e-06 -0.019035535128769251 0 -0.00019593305017374298 -0.018069294610282453 0 0.00010710996430742577 -0.018830179037235641 0 0.00012700843952087682 -0.018190478913731312 0 -0.00019593305017374298 -0.018069294610282453 0 0.00010710996430742577 -0.018830179037235641 0 0.00012700843952087682 -0.018190478913731312 0 0.00010710996430742577 -0.018830179037235641 0 0.00050372130878696859 -0.018443002357007063 0 0.0008300958583987826 -0.020536201323133899 0 0.00051584721015397804 -0.020127986482052915 0 0.00054321901521332643 -0.022025934680625459 0 0.0003163655715180218 -0.022873411775681318 0 0.0015813106421120888 -0.022882974843432824 0 0.00050372130878696859 -0.018443002357007063 0 0.00063198481269909578 -0.020580943445509321 0 0.00069063704704017061 -0.017692302940917934 0 0.00054321901521332643 -0.022025934680625459 0 0.00063198481269909578 -0.020580943445509321 0 0.0015813106421120888 -0.022882974843432824 0 0.00010710996430742577 -0.018830179037235641 0 0.00050372130878696859 -0.018443002357007063 0 0.00063198481269909578 -0.020580943445509321 0 5.1093452226082911e-07 -0.019256903699229676 0 0.00063198481269909578 -0.020580943445509321 0 6.7748281952652755e-07 -0.021306615837095862 0 0.00063198481269909578 -0.020580943445509321 0 6.7748281952652755e-07 -0.021306615837095862 0 6.6330441416672847e-06 -0.022121704573639805 0 0.00054321901521332643 -0.022025934680625459 0 0.00063198481269909578 -0.020580943445509321 0 6.6330441416672847e-06 -0.022121704573639805 0 6.6330441416672847e-06 -0.022121704573639805 0 0.0003163655715180218 -0.022873411775681318 0 -0.00024312843082817168 -0.023561714874592597 0 0.00054321901521332643 -0.022025934680625459 0 6.6330441416672847e-06 -0.022121704573639805 0 0.0003163655715180218 -0.022873411775681318 0 0.0003163655715180218 -0.022873411775681318 0 -5.9312800110780538e-05 -0.023878805020656545 0 -0.00024312843082817168 -0.023561714874592597 0 0.0003163655715180218 -0.022873411775681318 0 0.0015496143333171054 -0.02371982978343859 0 -5.9312800110780538e-05 -0.023878805020656545 0 0.0003163655715180218 -0.022873411775681318 0 0.0015813106421120888 -0.022882974843432824 0 0.0015496143333171054 -0.02371982978343859 0 0.00047549474365326497 -0.019119627331229443 0 0.00051584721015397804 -0.020127986482052915 0 0.00051584721015397804 -0.020127986482052915 0 -0.00027885114337405578 -0.022449339362556549 0 -0.0011189266127360233 -0.02518169414200323 0 -0.0010761540646079255 -0.025040513058497523 0 -0.0012193899044069258 -0.024917289784354431 0 -0.00027885114337405578 -0.022449339362556549 0 -0.00032598884049273209 -0.024818866528619178 0 -0.0011189266127360233 -0.02518169414200323 0 -0.0010761540646079255 -0.025040513058497523 0 -0.00094339651234972937 -0.02505725708678154 0 -0.0010761540646079255 -0.025040513058497523 0 -0.00094339651234972937 -0.02505725708678154 0 -0.0010677447464426148 -0.024980562343880616 0 -0.0011189266127360233 -0.02518169414200323 0 -0.00094339651234972937 -0.02505725708678154 0 -0.00078443248625942384 -0.025107165482514845 0 -0.00094339651234972937 -0.02505725708678154 0 -0.00078443248625942384 -0.025107165482514845 0 -0.00082042830226611676 -0.024997415598017381 0 -0.00078443248625942384 -0.025107165482514845 0 -0.00049661552382330196 -0.024864013035283176 0 -0.00067308555262819041 -0.024944903231899542 0 -0.00078443248625942384 -0.025107165482514845 0 -0.00067308555262819041 -0.024944903231899542 0 -0.00082042830226611676 -0.024997415598017381 0 -0.00032598884049273209 -0.024818866528619178 0 -0.00060695526878785347 -0.024723401665321013 0 -0.00049661552382330196 -0.024864013035283176 0 -0.00024312843082817168 -0.023561714874592597 0 -0.00037042536725401801 -0.024985586402587013 0 -5.9312800110780538e-05 -0.023878805020656545 0 -0.00049661552382330196 -0.024864013035283176 0 -0.00024312843082817168 -0.023561714874592597 0 6.6330441416672847e-06 -0.022121704573639805 0 -0.00024312843082817168 -0.023561714874592597 0 -6.4122764754060885e-07 -0.023356098346299124 0 6.7748281952652755e-07 -0.021306615837095862 0 6.6330441416672847e-06 -0.022121704573639805 0 -6.4122764754060885e-07 -0.023356098346299124 0 -0.00024312843082817168 -0.023561714874592597 0 -6.4122764754060885e-07 -0.023356098346299124 0 -0.00037042536725401801 -0.024985586402587013 0 -6.4122764754060885e-07 -0.023356098346299124 0 -0.00037042536725401801 -0.024985586402587013 0 -9.4035022565009238e-07 -0.025406073998068421 0 -0.00014641617540696013 -0.026104772014237727 0 -0.00037042536725401801 -0.024985586402587013 0 -9.4035022565009238e-07 -0.025406073998068421 0 -0.00014641617540696013 -0.026104772014237727 0 -9.3478320633318915e-05 -0.025779574112036997 0 -0.00037042536725401801 -0.024985586402587013 0 -9.3478320633318915e-05 -0.025779574112036997 0 -0.00037042536725401801 -0.024985586402587013 0 -0.00038668486903521894 -0.025230497116975927 0 -0.00049661552382330196 -0.024864013035283176 0 -0.00037042536725401801 -0.024985586402587013 0 -0.00038668486903521894 -0.025230497116975927 0 -0.00049661552382330196 -0.024864013035283176 0 -0.00038668486903521894 -0.025230497116975927 0 -0.00056941346367696678 -0.024998978715259867 0 -9.3478320633318915e-05 -0.025779574112036997 0 -0.00010424420424687397 -0.025375873412183777 0 -0.00038668486903521894 -0.025230497116975927 0 -0.00010424420424687397 -0.025375873412183777 0 -7.6690365465345025e-05 -0.024744673574169491 0 -0.00036662473412659542 -0.02498790920534457 0 -0.00010424420424687397 -0.025375873412183777 0 -0.00038668486903521894 -0.025230497116975927 0 -0.00036662473412659542 -0.02498790920534457 0 -0.00038668486903521894 -0.025230497116975927 0 -0.0