<?xml version="1.0"?>
<VTKFile type="UnstructuredGrid" version="0.1" byte_order="LittleEndian">
<UnstructuredGrid>
<Piece NumberOfPoints="30794" NumberOfCells="10773">
<Points>
<DataArray type="Float64" NumberOfComponents="3" format="ascii">
-0.49100099684116849 -0.49999999999999628 0 -0.49304374346644331 -0.47553347608821778 0 -0.47309548174009652 -0.48263462867703782 0 -0.49100099684116849 -0.49999999999999628 0 -0.5 -0.5 0 -0.49304374346644331 -0.47553347608821778 0 -0.49100099684116849 -0.49999999999999628 0 -0.49304374346644331 -0.47553347608821778 0 -0.5 -0.5 0 -0.49304374346644331 -0.47553347608821778 0 -0.5 -0.4541745895704109 0 -0.49304374346644331 -0.47553347608821778 0 -0.47309548174009652 -0.48263462867703782 0 -0.46866577183635438 -0.46192865890594947 0 -0.49100099684116849 -0.49999999999999628 0 -0.47309548174009652 -0.48263462867703782 0 -0.46097923674388702 -0.5 0 -0.47309548174009652 -0.48263462867703782 0 -0.46097923674388702 -0.5 0 -0.44224505358098909 -0.47279036563545929 0 -0.47309548174009652 -0.48263462867703782 0 -0.44224505358098909 -0.47279036563545929 0 -0.46866577183635438 -0.46192865890594947 0 -0.46097923674388702 -0.5 0 -0.44224505358098909 -0.47279036563545929 0 -0.43095747664660539 -0.5 0 -0.44766829542017589 -0.45244946255784768 0 -0.45905064801857159 -0.43310858360570842 0 -0.43194032264130772 -0.43663587307625978 0 -0.44224505358098909 -0.47279036563545929 0 -0.44766829542017589 -0.45244946255784768 0 -0.42598668410023283 -0.46103599845786902 0 -0.44224505358098909 -0.47279036563545929 0 -0.44766829542017589 -0.45244946255784768 0 -0.46866577183635438 -0.46192865890594947 0 -0.44224505358098909 -0.47279036563545929 0 -0.46866577183635438 -0.46192865890594947 0 -0.44766829542017589 -0.45244946255784768 0 -0.46866577183635438 -0.46192865890594947 0 -0.45905064801857159 -0.43310858360570842 0 -0.46866577183635438 -0.46192865890594947 0 -0.49508649009171951 -0.45106695217643938 0 -0.48058047793797809 -0.43504065816177923 0 -0.46866577183635438 -0.46192865890594947 0 -0.48058047793797809 -0.43504065816177923 0 -0.45905064801857159 -0.43310858360570842 0 -0.46866577183635438 -0.46192865890594947 0 -0.49508649009171951 -0.45106695217643938 0 -0.49304374346644331 -0.47553347608821778 0 -0.49508649009171951 -0.45106695217643938 0 -0.49304374346644331 -0.47553347608821778 0 -0.46866577183635438 -0.46192865890594947 0 -0.49508649009171951 -0.45106695217643938 0 -0.49304374346644331 -0.47553347608821778 0 -0.5 -0.4541745895704109 0 -0.49508649009171951 -0.45106695217643938 0 -0.49508649009171951 -0.45106695217643938 0 -0.5 -0.44936997659457739 0 -0.49754324504585951 -0.42164173953031647 0 -0.49508649009171951 -0.45106695217643938 0 -0.5 -0.44936997659457739 0 -0.5 -0.4541745895704109 0 -0.49508649009171951 -0.45106695217643938 0 -0.5 -0.44936997659457739 0 -0.49508649009171951 -0.45106695217643938 0 -0.49754324504585951 -0.42164173953031647 0 -0.48058047793797809 -0.43504065816177923 0 -0.49508649009171951 -0.45106695217643938 0 -0.49754324504585951 -0.42164173953031647 0 -0.5 -0.44936997659457739 0 -0.49754324504585951 -0.42164173953031647 0 -0.50000000000000022 -0.39221652688419351 0 -0.49754324504585951 -0.42164173953031647 0 -0.50000000000000022 -0.39221652688419351 0 -0.49754324504585951 -0.42164173953031647 0 -0.48058047793797809 -0.43504065816177923 0 -0.47520206432054157 -0.40606081929938792 0 -0.49754324504585951 -0.42164173953031647 0 -0.50000000000000022 -0.39221652688419351 0 -0.47520206432054157 -0.40606081929938792 0 -0.48058047793797809 -0.43504065816177923 0 -0.47520206432054157 -0.40606081929938792 0 -0.45905064801857159 -0.43310858360570842 0 -0.50000000000000022 -0.39221652688419351 0 -0.4831840771892707 -0.37757640421031241 0 -0.5 -0.36293628153643198 0 -0.50000000000000022 -0.39221652688419351 0 -0.47520206432054157 -0.40606081929938792 0 -0.4831840771892707 -0.37757640421031241 0 -0.47520206432054157 -0.40606081929938792 0 -0.4831840771892707 -0.37757640421031241 0 -0.46105773080952828 -0.38032108046924451 0 -0.45317788301855128 -0.39938784713659847 0 -0.43962411748326907 -0.41494191516303042 0 -0.42019758694796672 -0.39677524672035241 0 -0.47520206432054157 -0.40606081929938792 0 -0.46105773080952828 -0.38032108046924451 0 -0.45317788301855128 -0.39938784713659847 0 -0.46105773080952828 -0.38032108046924451 0 -0.45317788301855128 -0.39938784713659847 0 -0.43716508925243031 -0.37994966696465332 0 -0.47520206432054157 -0.40606081929938792 0 -0.45317788301855128 -0.39938784713659847 0 -0.45905064801857159 -0.43310858360570842 0 -0.45317788301855128 -0.39938784713659847 0 -0.45905064801857159 -0.43310858360570842 0 -0.43962411748326907 -0.41494191516303042 0 -0.45905064801857159 -0.43310858360570842 0 -0.43962411748326907 -0.41494191516303042 0 -0.45905064801857159 -0.43310858360570842 0 -0.43962411748326907 -0.41494191516303042 0 -0.43194032264130772 -0.43663587307625978 0 -0.43962411748326907 -0.41494191516303042 0 -0.43194032264130772 -0.43663587307625978 0 -0.42161396098976189 -0.41780307098103592 0 -0.43962411748326907 -0.41494191516303042 0 -0.42161396098976189 -0.41780307098103592 0 -0.42019758694796672 -0.39677524672035241 0 -0.40629816863872131 -0.41050362986202749 0 -0.42161396098976189 -0.41780307098103592 0 -0.42019758694796672 -0.39677524672035241 0 -0.40629816863872131 -0.41050362986202749 0 -0.42161396098976189 -0.41780307098103592 0 -0.41000960923754448 -0.43015869008350938 0 -0.43194032264130772 -0.43663587307625978 0 -0.42161396098976189 -0.41780307098103592 0 -0.41000960923754448 -0.43015869008350938 0 -0.45317788301855128 -0.39938784713659847 0 -0.43716508925243031 -0.37994966696465332 0 -0.42019758694796672 -0.39677524672035241 0 -0.43716508925243031 -0.37994966696465332 0 -0.42019758694796672 -0.39677524672035241 0 -0.40077105641266442 -0.37860857827767441 0 -0.43962411748326907 -0.41494191516303042 0 -0.42019758694796672 -0.39677524672035241 0 -0.40629816863872131 -0.41050362986202749 0 -0.42019758694796672 -0.39677524672035241 0 -0.40061123365991569 -0.39472964507112368 0 -0.42019758694796672 -0.39677524672035241 0 -0.40077105641266442 -0.37860857827767441 0 -0.42019758694796672 -0.39677524672035241 0 -0.40077105641266442 -0.37860857827767441 0 -0.40061123365991569 -0.39472964507112368 0 -0.40077105641266442 -0.37860857827767441 0 -0.40061123365991569 -0.39472964507112368 0 -0.38762690267710592 -0.38452062284890071 0 -0.40061123365991569 -0.39472964507112368 0 -0.38816245362312018 -0.40324014764666383 0 -0.38762690267710592 -0.38452062284890071 0 -0.40629816863872131 -0.41050362986202749 0 -0.40061123365991569 -0.39472964507112368 0 -0.38816245362312018 -0.40324014764666383 0 -0.38816245362312018 -0.40324014764666383 0 -0.38762690267710592 -0.38452062284890071 0 -0.3746840518779867 -0.3908612585920983 0 -0.38816245362312018 -0.40324014764666383 0 -0.37499037753076658 -0.40948529014498602 0 -0.3746840518779867 -0.3908612585920983 0 -0.38816245362312018 -0.40324014764666383 0 -0.3746840518779867 -0.3908612585920983 0 -0.38762690267710592 -0.38452062284890071 0 -0.37636850370020941 -0.37698452578058428 0 -0.3746840518779867 -0.3908612585920983 0 -0.41000960923754448 -0.43015869008350938 0 -0.39243713641313921 -0.4188364691099149 0 -0.39453840959530551 -0.43795269674057441 0 -0.40629816863872131 -0.41050362986202749 0 -0.38816245362312018 -0.40324014764666383 0 -0.39243713641313921 -0.4188364691099149 0 -0.40629816863872131 -0.41050362986202749 0 -0.41000960923754448 -0.43015869008350938 0 -0.39243713641313921 -0.4188364691099149 0 -0.39243713641313921 -0.4188364691099149 0 -0.37874804885936281 -0.42634345499337878 0 -0.37499037753076658 -0.40948529014498602 0 -0.38816245362312018 -0.40324014764666383 0 -0.39243713641313921 -0.4188364691099149 0 -0.37499037753076658 -0.40948529014498602 0 -0.39243713641313921 -0.4188364691099149 0 -0.37874804885936281 -0.42634345499337878 0 -0.39453840959530551 -0.43795269674057441 0 -0.37874804885936281 -0.42634345499337878 0 -0.37813548716060158 -0.44490583937211348 0 -0.39453840959530551 -0.43795269674057441 0 -0.37813548716060158 -0.44490583937211348 0 -0.39453840959530551 -0.43795269674057441 0 -0.39597874228520591 -0.45882544372946998 0 -0.39453840959530551 -0.43795269674057441 0 -0.39597874228520591 -0.45882544372946998 0 -0.41159578240174072 -0.44945619544874887 0 -0.41000960923754448 -0.43015869008350938 0 -0.39453840959530551 -0.43795269674057441 0 -0.41159578240174072 -0.44945619544874887 0 -0.39597874228520591 -0.45882544372946998 0 -0.39606587022349138 -0.47725990370668142 0 -0.40839200639991641 -0.46752766529079948 0 -0.39597874228520591 -0.45882544372946998 0 -0.41159578240174072 -0.44945619544874887 0 -0.40839200639991641 -0.46752766529079948 0 -0.37813548716060158 -0.44490583937211348 0 -0.39597874228520591 -0.45882544372946998 0 -0.37499309371178491 -0.46456285094731042 0 -0.39597874228520591 -0.45882544372946998 0 -0.39606587022349138 -0.47725990370668142 0 -0.37499309371178491 -0.46456285094731042 0 -0.3790062045255656 -0.48398528019432357 0 -0.39606587022349138 -0.47725990370668142 0 -0.37499309371178491 -0.46456285094731042 0 -0.3790062045255656 -0.48398528019432357 0 -0.40093571654932397 -0.5 0 -0.37091395645204273 -0.5 0 -0.40093571654932397 -0.5 0 -0.39606587022349138 -0.47725990370668142 0 -0.41582433532562391 -0.48365207236496899 0 -0.3790062045255656 -0.48398528019432357 0 -0.40093571654932397 -0.5 0 -0.39606587022349138 -0.47725990370668142 0 -0.39606587022349138 -0.47725990370668142 0 -0.41582433532562391 -0.48365207236496899 0 -0.40839200639991641 -0.46752766529079948 0 -0.41582433532562391 -0.48365207236496899 0 -0.42598668410023283 -0.46103599845786902 0 -0.40839200639991641 -0.46752766529079948 0 -0.40093571654932397 -0.5 0 -0.41582433532562391 -0.48365207236496899 0 -0.43095747664660539 -0.5 0 -0.44224505358098909 -0.47279036563545929 0 -0.41582433532562391 -0.48365207236496899 0 -0.43095747664660539 -0.5 0 -0.44224505358098909 -0.47279036563545929 0 -0.41582433532562391 -0.48365
[...]
<PointData Scalars="" Vectors="displacement," Tensors="">
<DataArray type="Float64" Name="displacement" NumberOfComponents="3" format="ascii">
-0.034366648097776308 2.0929085384711766e-06 0 -0.032267264934559114 0.00064131481888265963 0 -0.032398084341410699 -9.4991335027346576e-05 0 -0.034373911464914232 5.1411173074265643e-07 0 -0.034997589603902257 -3.2495748553336405e-07 0 -0.034983019284456358 1.7778911800143948e-06 0 -0.034369688543198065 1.3377135020184161e-07 0 -0.033718778901285017 0.0003274663230992134 0 -0.034997589603902257 -3.2495748553336405e-07 0 -0.034983019284456358 1.7778911800143948e-06 0 -0.035000619946058728 9.4927363249722763e-08 0 -0.032267264934559114 0.00064131481888265963 0 -0.032398084341410699 -9.4991335027346576e-05 0 -0.031780802908939608 -0.00011884876782793076 0 -0.034366648097776308 2.0929085384711766e-06 0 -0.032398084341410699 -9.4991335027346576e-05 0 -0.032268710467231079 -1.2617532362774879e-06 0 -0.032398084341410699 -9.4991335027346576e-05 0 -0.032268710467231079 -1.2617532362774879e-06 0 -0.03117671344402943 -0.00019116172597080866 0 -0.032398084341410699 -9.4991335027346576e-05 0 -0.03117671344402943 -0.00019116172597080866 0 -0.031780802908939608 -0.00011884876782793076 0 -0.032268710467231079 -1.2617532362774879e-06 0 -0.03117671344402943 -0.00019116172597080866 0 -0.03016704786239921 2.2221326727390602e-07 0 -0.029863875574672974 0.00038113986398013604 0 -0.030839848004736103 0.0005558044547950261 0 -0.02972320750000473 0.00019747938739880409 0 -0.029465026152611377 0.00031150736289962228 0 -0.029863875574672974 0.00038113986398013604 0 -0.029277475427092969 0.00015671140387139043 0 -0.029465026152611377 0.00031150736289962228 0 -0.029863875574672974 0.00038113986398013604 0 -0.029737004126475491 5.9329575998476109e-05 0 -0.030307097576126981 -1.322021387959667e-05 0 -0.0304763330039543 -2.739766665281986e-05 0 -0.029863875574672974 0.00038113986398013604 0 -0.029737004126475491 5.9329575998476109e-05 0 -0.030839848004736103 0.0005558044547950261 0 -0.029737004126475491 5.9329575998476109e-05 0 -0.030290290199375826 -0.0011442546266184073 0 -0.031130134829015815 -0.00034443625833674153 0 -0.029737004126475491 5.9329575998476109e-05 0 -0.031130134829015815 -0.00034443625833674153 0 -0.030839848004736103 0.0005558044547950261 0 -0.0304763330039543 -2.739766665281986e-05 0 -0.032745633237844587 1.3303828641564486e-06 0 -0.033718778901285017 0.0003274663230992134 0 -0.032745633237844587 1.3303828641564486e-06 0 -0.032267264934559114 0.00064131481888265963 0 -0.031780802908939608 -0.00011884876782793076 0 -0.031486338266888687 0.00070147557151218221 0 -0.034983019284456358 1.7778911800143948e-06 0 -0.035000619946058728 9.4927363249722763e-08 0 -0.034997803453322249 2.9836557138280328e-06 0 -0.034995439275332475 1.8284537473295147e-08 0 -0.034999934017692573 -1.1631671280894095e-09 0 -0.034998704142391868 -4.8322770232931952e-07 0 -0.032745633237844587 1.3303828641564486e-06 0 -0.033357356307734939 -0.00027630268884927702 0 -0.035000619946058728 9.4927363249722763e-08 0 -0.034997803453322249 2.9836557138280328e-06 0 -0.034999687126134285 -4.52664495915438e-08 0 -0.030290290199375826 -0.0011442546266184073 0 -0.032279352009543676 -0.0011399577727031519 0 -0.031130134829015815 -0.00034443625833674153 0 -0.032745633237844587 1.3303828641564486e-06 0 -0.033583742580778515 -0.00060341018329041071 0 -0.034999934017692573 -1.1631671280894095e-09 0 -0.034998704142391868 -4.8322770232931952e-07 0 -0.035000002887218058 -6.9806897519944434e-09 0 -0.033583742580778515 -0.00060341018329041071 0 -0.034999510148604869 -1.6904785487215906e-07 0 -0.032279352009543676 -0.0011399577727031519 0 -0.031130134829015815 -0.00034443625833674153 0 -0.033382692411686704 0.00017142202365197351 0 -0.032279352009543676 -0.0011399577727031519 0 -0.034996027048008103 -2.9538694529773862e-06 0 -0.033382692411686704 0.00017142202365197351 0 -0.031130134829015815 -0.00034443625833674153 0 -0.033382692411686704 0.00017142202365197351 0 -0.030839848004736103 0.0005558044547950261 0 -0.034996027048008103 -2.9538694529773862e-06 0 -0.034658408813101421 0.00014496039293816662 0 -0.035000373994036334 9.3627328992448577e-07 0 -0.034996027048008103 -2.9538694529773862e-06 0 -0.033382692411686704 0.00017142202365197351 0 -0.034658408813101421 0.00014496039293816662 0 -0.033382692411686704 0.00017142202365197351 0 -0.034658408813101421 0.00014496039293816662 0 -0.034248435741897766 0.0006801795400323134 0 -0.033570401931501105 0.00094027971741400529 0 -0.032659609183360465 0.0014797929511583255 0 -0.033688332421222295 0.0014988429385525623 0 -0.033382692411686704 0.00017142202365197351 0 -0.034248435741897766 0.0006801795400323134 0 -0.033570401931501105 0.00094027971741400529 0 -0.034248435741897766 0.0006801795400323134 0 -0.033570401931501105 0.00094027971741400529 0 -0.034058252702120831 0.0011526686860782978 0 -0.033382692411686704 0.00017142202365197351 0 -0.033570401931501105 0.00094027971741400529 0 -0.030839848004736103 0.0005558044547950261 0 -0.033570401931501105 0.00094027971741400529 0 -0.030839848004736103 0.0005558044547950261 0 -0.032659609183360465 0.0014797929511583255 0 -0.030799998123605201 0.00052933585691909951 0 -0.031092109207589032 0.00079012990489541498 0 -0.030839848004736103 0.0005558044547950261 0 -0.029560717616271884 0.0002474024772549758 0 -0.02972320750000473 0.00019747938739880409 0 -0.029560717616271884 0.0002474024772549758 0 -0.02972320750000473 0.00019747938739880409 0 -0.02943793463982251 7.620833052034212e-05 0 -0.029560717616271884 0.0002474024772549758 0 -0.02943793463982251 7.620833052034212e-05 0 -0.029398576664764066 3.51904962801456e-05 0 -0.02934803085710214 5.5393773235537234e-05 0 -0.02943793463982251 7.620833052034212e-05 0 -0.029398576664764066 3.51904962801456e-05 0 -0.02934803085710214 5.5393773235537234e-05 0 -0.02943793463982251 7.620833052034212e-05 0 -0.029284777121612305 2.2676697985982642e-05 0 -0.02972320750000473 0.00019747938739880409 0 -0.02943793463982251 7.620833052034212e-05 0 -0.029284777121612305 2.2676697985982642e-05 0 -0.033570401931501105 0.00094027971741400529 0 -0.034058252702120831 0.0011526686860782978 0 -0.033688332421222295 0.0014988429385525623 0 -0.034058252702120831 0.0011526686860782978 0 -0.033688332421222295 0.0014988429385525623 0 -0.034005179206963811 0.0013228225185490303 0 -0.031092109207589032 0.00079012990489541498 0 -0.031536052521328198 0.00077280453905938327 0 -0.02934803085710214 5.5393773235537234e-05 0 -0.029398576664764066 3.51904962801456e-05 0 -0.029449710641763865 0.00010980377991501674 0 -0.031536052521328198 0.00077280453905938327 0 -0.031715187554171465 0.00069011261516426837 0 -0.029398576664764066 3.51904962801456e-05 0 -0.029635017683061385 9.8344539370137426e-05 0 -0.029449710641763865 0.00010980377991501674 0 -0.029635017683061385 9.8344539370137426e-05 0 -0.029449710641763865 0.00010980377991501674 0 -0.029573044763430829 0.00024910533919244432 0 -0.029449710641763865 0.00010980377991501674 0 -0.029351455934491802 0.00020750776069901615 0 -0.029573044763430829 0.00024910533919244432 0 -0.02934803085710214 5.5393773235537234e-05 0 -0.029449710641763865 0.00010980377991501674 0 -0.029351455934491802 0.00020750776069901615 0 -0.029351455934491802 0.00020750776069901615 0 -0.029573044763430829 0.00024910533919244432 0 -0.029495473408440134 0.00041725382895738805 0 -0.029351455934491802 0.00020750776069901615 0 -0.029246337193920245 0.0003600246414058384 0 -0.029469046311301098 0.00040455363399769483 0 -0.029385737582212506 0.00026378085953365619 0 -0.029402713935534543 0.00032193378456222264 0 -0.029573044763430829 0.00024910533919244432 0 -0.029686829866759846 0.00040257354847565951 0 -0.029495473408440134 0.00041725382895738805 0 -0.029284777121612305 2.2676697985982642e-05 0 -0.029204642743784832 0.00011539380918304607 0 -0.028978246852522909 3.5287572956797149e-05 0 -0.02934803085710214 5.5393773235537234e-05 0 -0.029351455934491802 0.00020750776069901615 0 -0.029204642743784832 0.00011539380918304607 0 -0.02934803085710214 5.5393773235537234e-05 0 -0.029284777121612305 2.2676697985982642e-05 0 -0.029204642743784832 0.00011539380918304607 0 -0.029204642743784832 0.00011539380918304607 0 -0.029017230357666689 0.00023404815366173039 0 -0.029246337193920245 0.0003600246414058384 0 -0.029351455934491802 0.00020750776069901615 0 -0.029204642743784832 0.00011539380918304607 0 -0.029246337193920245 0.0003600246414058384 0 -0.029204642743784832 0.00011539380918304607 0 -0.029017230357666689 0.00023404815366173039 0 -0.028978246852522909 3.5287572956797149e-05 0 -0.029017230357666689 0.00023404815366173039 0 -0.028629133508656354 0.00012558371073319918 0 -0.028978246852522909 3.5287572956797149e-05 0 -0.028629133508656354 0.00012558371073319918 0 -0.028978246852522909 3.5287572956797149e-05 0 -0.028614996088603281 -7.2768114978914795e-05 0 -0.028978246852522909 3.5287572956797149e-05 0 -0.028614996088603281 -7.2768114978914795e-05 0 -0.029104240782012847 1.5333830624760793e-05 0 -0.029284777121612305 2.2676697985982642e-05 0 -0.028978246852522909 3.5287572956797149e-05 0 -0.029104240782012847 1.5333830624760793e-05 0 -0.028614996088603281 -7.2768114978914795e-05 0 -0.028223482452911453 -0.00013294120132036931 0 -0.02882811107714146 -8.2024594570369121e-05 0 -0.028614996088603281 -7.2768114978914795e-05 0 -0.029104240782012847 1.5333830624760793e-05 0 -0.02882811107714146 -8.2024594570369121e-05 0 -0.028629133508656354 0.00012558371073319918 0 -0.028614996088603281 -7.2768114978914795e-05 0 -0.027882944964675346 5.1353143780442753e-06 0 -0.028614996088603281 -7.2768114978914795e-05 0 -0.028223482452911453 -0.00013294120132036931 0 -0.027882944964675346 5.1353143780442753e-06 0 -0.027167409823930653 -9.2339757978063491e-05 0 -0.028223482452911453 -0.00013294120132036931 0 -0.027882944964675346 5.1353143780442753e-06 0 -0.027167409823930653 -9.2339757978063491e-05 0 -0.02806574124526057 -4.0119454591146381e-07 0 -0.025964854325969459 -1.5174867899149811e-07 0 -0.02806574124526057 -4.0119454591146381e-07 0 -0.028223482452911453 -0.00013294120132036931 0 -0.029224684131306983 -2.1056383194547589e-05 0 -0.027167409823930653 -9.2339757978063491e-05 0 -0.02806574124526057 -4.0119454591146381e-07 0 -0.028223482452911453 -0.00013294120132036931 0 -0.028223482452911453 -0.00013294120132036931 0 -0.029224684131306983 -2.1056383194547589e-05 0 -0.02882811107714146 -8.2024594570369121e-05 0 -0.029224684131306983 -2.1056383194547589e-05 0 -0.029277475427092969 0.00015671140387139043 0 -0.02882811107714146 -8.2024594570369121e-05 0 -0.02806574124526057 -4.0119454591146381e-07 0 -0.029224684131306983 -2.1056383194547589e-05 0 -0.03016704786239921 2.2221326727390602e-07 0 -0.03117671344402943 -0.00019116172597080866 0 -0.029224684131306983 -2.1056383194547589e-05 0 -0.03016704786239921 2.2221326727390602e-07 0 -0.030307097576126981 -1.322021387959667e-05 0 -0.02941334350858503 -2.4771760736512176e-05 0 -0.029465026152611377 0.00031150736289962228 0 -0.029224684131306983 -2.1056383194547589e-05 0 -0.029277475427092969 0.00015671140387139043 0 -0.029863875574672974 0.00038113986398013604 0 -0.02972320750000473 0.00019747938739880409 0 -0.029277475427092969 0.00015671140387139043 0 -0.02972320750000473 0.00019747938739880409 0 -0.029277475427092969 0.00015671140387139043 0 -0.029104240782012847 1.5333830624760793e-05 0 -0.02972320750000473 0.00019747938739880409 0 -0.029284777121612305 2.2676697985982642e-05 0 -0.029104240782012847 1.5333830624760793e-05 0 -0.029277475427092969 0.00015671140387139043 0 -0.029104240782012847 1.5333830624760793e-05 0 -0.02882811107714146 -8.2024594570369121e-05 0 -0.034212292593946883 5.0688495164371955e-05 0 -0.034039218153157941 0.00035327875829161082 0 -0.034384463294658218 0.00026899590562291109 0 -0.033895409852494597 0.00080118278725912714 0 -0.032600151753736255 0.0010033971148688198 0 -0.032756390960757081 0.00092573549128628098 0 -0.032744197535231369 0.00085662052815783343 0 -0.032711580063068117 0.00086482253427624847 0 -0.033929912384145021 6.8875457005757449e-05 0 -0.034212292593946883 5.0688495164371955e-05 0 -0.034039218153157941 0.00035327875829161082 0 -0.032756390960757081 0.00092573549128628098 0 -0.032768695779085116 0.00092516158018761591 0 -0.032744197535231369 0.00085662052815783343 0 -0.034111939806554872 0.00036672964492505188 0 -0.033287917840350262 0.00058879185646517034 0 -0.034111939806554872 0.00036672964492505188 0 -0.034676530595954588 -4.3580600472770317e-06 0 -0.035020953304210865 -1.593785946619245e-05 0 -0.034989611508520667 -1.0194220373791912e-05 0 -0.035004583081276498 9.4264449648981041e-06 0 -0.035020953304210865 -1.593785946619245e-05 0 -0.035022390714218136 6.0723585978862245e-06 0 -0.035004583081276498 9.4264449648981041e-06 0 -0.034111939806554872 0.00036672964492505188 0 -0.0348078704981159 0.00021645623677914595 0 -0.034404644585686761 0.00041266535417725685 0 -0.034390885230872574 0.0003659491507222858 0 -0.034389769664376943 0.00041367837409338583 0 -0.034111939806554872 0.00036672964492505188 0 -0.033895409852494597 0.00080118278725912714 0 -0.035020953304210865 -1.593785946619245e-05 0 -0.035022390714218136 6.0723585978862245e-06 0 -0.03503687169136413 1.9106623479242532e-06 0 -0.035022390714218136 6.0723585978862245e-06 0 -0.0350438794301626 7.7684113801065163e-06 0 -0.03503687169136413 1.9106623479242532e-06 0 -0.034989611508520667 -1.0194220373791912e-05 0 -0.035004583081276498 9.4264449648981041e-06 0 -0.034979761158631578 1.21093575296111e-05 0 -0.034998992451858668 1.9701919851412942e-05 0 -0.035004583081276498 9.4264449648981041e-06 0 -0.034979761158631578 1.21093575296111e-05 0 -0.034998992451858668 1.9701919851412942e-05 0 -0.035000072536570309 5.0657602978740762e-08 0 -0.034999963007337175 1.8980782960288564e-08 0 -0.035000072536570309 5.0657602978740762e-08 0 -0.03501396716028847 3.2351874901098647e-05 0 -0.035087496036619779 8.9008570470952485e-05 0 -0.034998992451858668 1.9701919851412942e-05 0 -0.035000072536570309 5.0657602978740762e-08 0 -0.03501396716028847 3.2351874901098647e-05 0 -0.034998992451858668 1.9701919851412942e-05 0 -0.03501396716028847 3.2351874901098647e-05 0 -0.035004583081276498 9.4264449648981041e-06 0 -0.03501396716028847 3.2351874901098647e-05 0 -0.035024232835126679 2.4083392888609358e-05 0 -0.035087496036619779 8.9008570470952485e-05 0 -0.03501396716028847 3.2351874901098647e-05 0 -0.035004583081276498 9.4264449648981041e-06 0 -0.035024232835126679 2.4083392888609358e-05 0 -0.035022390714218136 6.0723585978862245e-06 0 -0.035004583081276498 9.4264449648981041e-06 0 -0.035024232835126679 2.4083392888609358e-05 0 -0.035022390714218136 6.0723585978862245e-06 0 -0.035024232835126679 2.4083392888609358e-05 0 -0.0350438794301626 7.7684113801065163e-06 0 -0.035132862809885833 0.00012002248501813509 0 -0.0348078704981159 0.00021645623677914595 0 -0.035110726978171997 0.00024040851340205037 0 -0.035087239236038945 0.00035985252268865844 0 -0.035266003919019989 0.00036117553298374545 0 -0.0350438794301626 7.7684113801065163e-06 0 -0.035087496036619779 8.9008570470952485e-05 0 -0.035041283464031771 -2.1649573637143343e-05 0 -0.035110726978171997 0.00024040851340205037 0 -0.035087496036619779 8.9008570470952485e-05 0 -0.035266003919019989 0.00036117553298374545 0 -0.035024232835126679 2.4083392888609358e-05 0 -0.0350438794301626 7.7684113801065163e-06 0 -0.035087496036619779 8.9008570470952485e-05 0 -0.035000072536570309 5.0657602978740762e-08 0 -0.035087496036619779 8.9008570470952485e-05 0 -0.035000192585690447 1.6045391402508906e-07 0 -0.035087496036619779 8.9008570470952485e-05 0 -0.035000192585690447 1.6045391402508906e-07 0 -0.035015424999171652 0.00015544568922944163 0 -0.035110726978171997 0.00024040851340205037 0 -0.035087496036619779 8.9008570470952485e-05 0 -0.035015424999171652 0.00015544568922944163 0 -0.035015424999171652 0.00015544568922944163 0 -0.035087239236038945 0.00035985252268865844 0 -0.034899563319338807 0.00034571245366831979 0 -0.035110726978171997 0.00024040851340205037 0 -0.035015424999171652 0.00015544568922944163 0 -0.035087239236038945 0.00035985252268865844 0 -0.035087239236038945 0.00035985252268865844 0 -0.035015901064659523 0.00060566373392642201 0 -0.034899563319338807 0.00034571245366831979 0 -0.035087239236038945 0.00035985252268865844 0 -0.035275756263310483 0.00050444342606636365 0 -0.035015901064659523 0.00060566373392642201 0 -0.035087239236038945 0.00035985252268865844 0 -0.035266003919019989 0.00036117553298374545 0 -0.035275756263310483 0.00050444342606636365 0 -0.034849278572957589 0.00010208935865544943 0 -0.0348078704981159 0.00021645623677914595 0 -0.0348078704981159 0.00021645623677914595 0 -0.033895409852494597 0.00080118278725912714 0 -0.032774585471072482 0.0017235531252283614 0 -0.032913618078084933 0.0013282003849394669 0 -0.032625926084380592 0.0010148547262424825 0 -0.033895409852494597 0.00080118278725912714 0 -0.034349583442752997 0.001100632421983319 0 -0.032774585471072482 0.0017235531252283614 0 -0.032913618078084933 0.0013282003849394669 0 -0.03324845279532232 0.0013674642560357485 0 -0.032913618078084933 0.0013282003849394669 0 -0.03324845279532232 0.0013674642560357485 0 -0.032932377885744012 0.0011616398221957235 0 -0.032774585471072482 0.0017235531252283614 0 -0.03324845279532232 0.0013674642560357485 0 -0.033676398564476281 0.0015218816158459937 0 -0.03324845279532232 0.0013674642560357485 0 -0.033676398564476281 0.0015218816158459937 0 -0.033581003637733323 0.0011877299490446562 0 -0.033676398564476281 0.0015218816158459937 0 -0.034506295214584558 0.00093101507236220129 0 -0.034021039294277716 0.0010123140887373955 0 -0.033676398564476281 0.0015218816158459937 0 -0.034021039294277716 0.0010123140887373955 0 -0.033581003637733323 0.0011877299490446562 0 -0.034349583442752997 0.001100632421983319 0 -0.034448025581938241 0.00094194969253039932 0 -0.034506295214584558 0.00093101507236220129 0 -0.034899563319338807 0.00034571245366831979 0 -0.034693518421025256 0.00036023590130250933 0 -0.035015901064659523 0.00060566373392642201 0 -0.034506295214584558 0.00093101507236220129 0 -0.034899563319338807 0.00034571245366831979 0 -0.035015424999171652 0.00015544568922944163 0 -0.034899563319338807 0.00034571245366831979 0 -0.03499964139816502 -1.2118861435881064e-07 0 -0.035000192585690447 1.6045391402508906e-07 0 -0.035015424999171652 0.00015544568922944163 0 -0.03499964139816502 -1.2118861435881064e-07 0 -0.034899563319338807 0.00034571245366831979 0 -0.03499964139816502 -1.2118861435881064e-07 0 -0.034693518421025256 0.00036023590130250933 0 -0.03499964139816502 -1.2118861435881064e-07 0 -0.034693518421025256 0.00036023590130250933 0 -0.035000373994036334 9.3627328992448577e-07 0 -0.034658408813101421 0.00014496039293816662 0 -0.034693518421025256 0.00036023590130250933 0 -0.035000373994036334 9.3627328992448577e-07 0 -0.034658408813101421 0.00014496039293816662 0 -0.034248435741897766 0.0006801795400323134 0 -0.034693518421025256 0.00036023590130250933 0 -0.034248435741897766 0.0006801795400323134 0 -0.034693518421025256 0.00036023590130250933 0 -0.034361305566918056 0.00094327175103538826 0 -0.034506295214584558 0.00093101507236220129 0 -0.034693518421025256 0.00036023590130250933 0 -0.034361305566918056 0.00094327175103538826 0 -0.034506295214584558 0.00093101507236220129 0 -0.034361305566918056 0.00094327175103538826 0 -0.034228712833260032 0.0010108455102217535 0 -0.034248435741897766 0.0006801795400323134 0 -0.034058252702120831 0.0011526686860782978 0 -0.034361305566918056 0.00094327175103538826 0 -0.034058252702120831 0.0011526686860782978 0 -0.034005179206963811 0.0013228225185490303 0 -0.034157762745840078 0.0011457276831663213 0 -0.034058252702120831 0.0011526686860782978 0 -0.034361305566918056 0.00094327175103538826 0 -0.034157762745840078 0.0011457276831663213 0 -0.034361305566918056 0.00094327175103538826 0 -0.034228712833260032 0.0010108455102217535 0 -0.0341