<?xml version="1.0"?>
<VTKFile type="UnstructuredGrid" version="0.1" byte_order="LittleEndian">
<UnstructuredGrid>
<Piece NumberOfPoints="32048" NumberOfCells="11191">
<Points>
<DataArray type="Float64" NumberOfComponents="3" format="ascii">
-0.5 -0.5 0 -0.48556746540584711 -0.47804328693087489 0 -0.48386249292258082 -0.45608657386174872 0 -0.5 -0.5 0 -0.48386249292258082 -0.45608657386174872 0 -0.5 -0.42594233992876779 0 -0.48727243788911351 -0.50000000000000122 0 -0.5 -0.5 0 -0.48556746540584711 -0.47804328693087489 0 -0.48727243788911351 -0.50000000000000122 0 -0.48556746540584711 -0.47804328693087489 0 -0.48556746540584711 -0.47804328693087489 0 -0.46936377834411469 -0.48490752494438671 0 -0.46456618662985127 -0.46539182825365449 0 -0.48727243788911351 -0.50000000000000122 0 -0.46936377834411469 -0.48490752494438671 0 -0.46049781074122031 -0.5 0 -0.48727243788911351 -0.50000000000000122 0 -0.48556746540584711 -0.47804328693087489 0 -0.46936377834411469 -0.48490752494438671 0 -0.46936377834411469 -0.48490752494438671 0 -0.46049781074122031 -0.5 0 -0.44891499105454102 -0.48110250953740402 0 -0.46936377834411469 -0.48490752494438671 0 -0.44891499105454102 -0.48110250953740402 0 -0.46456618662985127 -0.46539182825365449 0 -0.46049781074122031 -0.5 0 -0.44891499105454102 -0.48110250953740402 0 -0.43372318359332718 -0.5 0 -0.44159469221644831 -0.45840685133256848 0 -0.45497417052763012 -0.43935325943465081 0 -0.42266469403802631 -0.43820863216503408 0 -0.44891499105454102 -0.48110250953740402 0 -0.44159469221644831 -0.45840685133256848 0 -0.46456618662985127 -0.46539182825365449 0 -0.44159469221644831 -0.45840685133256848 0 -0.46456618662985127 -0.46539182825365449 0 -0.45497417052763012 -0.43935325943465081 0 -0.46456618662985127 -0.46539182825365449 0 -0.45497417052763012 -0.43935325943465081 0 -0.4713900926298441 -0.44874038058566912 0 -0.48386249292258082 -0.45608657386174872 0 -0.48215752043931448 -0.43412986079262239 0 -0.4713900926298441 -0.44874038058566912 0 -0.48386249292258082 -0.45608657386174872 0 -0.48215752043931448 -0.43412986079262239 0 -0.45497417052763012 -0.43935325943465081 0 -0.4713900926298441 -0.44874038058566912 0 -0.48215752043931448 -0.43412986079262239 0 -0.48556746540584711 -0.47804328693087489 0 -0.46456618662985127 -0.46539182825365449 0 -0.48386249292258082 -0.45608657386174872 0 -0.46456618662985127 -0.46539182825365449 0 -0.4713900926298441 -0.44874038058566912 0 -0.48386249292258082 -0.45608657386174872 0 -0.48556746540584711 -0.47804328693087489 0 -0.48386249292258082 -0.45608657386174872 0 -0.48386249292258082 -0.45608657386174872 0 -0.5 -0.42594233992876779 0 -0.48215752043931448 -0.43412986079262239 0 -0.5 -0.42594233992876779 0 -0.48325259359460299 -0.41742018380506662 0 -0.48215752043931448 -0.43412986079262239 0 -0.5 -0.42594233992876779 0 -0.48325259359460299 -0.41742018380506662 0 -0.48764671722829989 -0.39959123299779059 0 -0.48325259359460299 -0.41742018380506662 0 -0.48215752043931448 -0.43412986079262239 0 -0.46555791949460801 -0.41354675993824358 0 -0.48325259359460299 -0.41742018380506662 0 -0.48764671722829989 -0.39959123299779059 0 -0.46555791949460801 -0.41354675993824358 0 -0.5 -0.42594233992876779 0 -0.48764671722829989 -0.39959123299779059 0 -0.5 -0.37091851046886509 0 -0.48930929269217349 -0.37661775028857258 0 -0.48764671722829989 -0.39959123299779059 0 -0.48930929269217349 -0.37661775028857258 0 -0.48764671722829989 -0.39959123299779059 0 -0.47688204742435603 -0.37969825332881069 0 -0.48930929269217349 -0.37661775028857258 0 -0.48764671722829989 -0.39959123299779059 0 -0.5 -0.37091851046886509 0 -0.48764671722829989 -0.39959123299779059 0 -0.46412641546702249 -0.38634218351993449 0 -0.46555791949460801 -0.41354675993824358 0 -0.48764671722829989 -0.39959123299779059 0 -0.47688204742435603 -0.37969825332881069 0 -0.46412641546702249 -0.38634218351993449 0 -0.47688204742435603 -0.37969825332881069 0 -0.46412641546702249 -0.38634218351993449 0 -0.47266237187275462 -0.36386612275811631 0 -0.46412641546702249 -0.38634218351993449 0 -0.4517870154025781 -0.40160474006116431 0 -0.46555791949460801 -0.41354675993824358 0 -0.4517870154025781 -0.40160474006116431 0 -0.43863885096022842 -0.39036388964841429 0 -0.43882487568845352 -0.41616612713806461 0 -0.46412641546702249 -0.38634218351993449 0 -0.4517870154025781 -0.40160474006116431 0 -0.43863885096022842 -0.39036388964841429 0 -0.43863885096022842 -0.39036388964841429 0 -0.44943404419366889 -0.36749830938864309 0 -0.42452368003979191 -0.37279063138748619 0 -0.46412641546702249 -0.38634218351993449 0 -0.43863885096022842 -0.39036388964841429 0 -0.44943404419366889 -0.36749830938864309 0 -0.45497417052763012 -0.43935325943465081 0 -0.43882487568845352 -0.41616612713806461 0 -0.42266469403802631 -0.43820863216503408 0 -0.45497417052763012 -0.43935325943465081 0 -0.48215752043931448 -0.43412986079262239 0 -0.46555791949460801 -0.41354675993824358 0 -0.4517870154025781 -0.40160474006116431 0 -0.46555791949460801 -0.41354675993824358 0 -0.43882487568845352 -0.41616612713806461 0 -0.45497417052763012 -0.43935325943465081 0 -0.46555791949460801 -0.41354675993824358 0 -0.43882487568845352 -0.41616612713806461 0 -0.43882487568845352 -0.41616612713806461 0 -0.4137072500395802 -0.40357895387174553 0 -0.42266469403802631 -0.43820863216503408 0 -0.4137072500395802 -0.40357895387174553 0 -0.39695840231774621 -0.42725525130702668 0 -0.42266469403802631 -0.43820863216503408 0 -0.43882487568845352 -0.41616612713806461 0 -0.4137072500395802 -0.40357895387174553 0 -0.4137072500395802 -0.40357895387174553 0 -0.42452368003979191 -0.37279063138748619 0 -0.39819601722778702 -0.37063510406979222 0 -0.43863885096022842 -0.39036388964841429 0 -0.4137072500395802 -0.40357895387174553 0 -0.42452368003979191 -0.37279063138748619 0 -0.43863885096022842 -0.39036388964841429 0 -0.43882487568845352 -0.41616612713806461 0 -0.4137072500395802 -0.40357895387174553 0 -0.4137072500395802 -0.40357895387174553 0 -0.38858962439070688 -0.39099178060542639 0 -0.39819601722778702 -0.37063510406979222 0 -0.4137072500395802 -0.40357895387174553 0 -0.38858962439070688 -0.39099178060542639 0 -0.3821663646035654 -0.41146547394949368 0 -0.4137072500395802 -0.40357895387174553 0 -0.38858962439070688 -0.39099178060542639 0 -0.38858962439070688 -0.39099178060542639 0 -0.3821663646035654 -0.41146547394949368 0 -0.36252382498171631 -0.40113905631972241 0 -0.38858962439070688 -0.39099178060542639 0 -0.36347199874183372 -0.37840460733910741 0 -0.38858962439070688 -0.39099178060542639 0 -0.38027509019960581 -0.3752569555279206 0 -0.36347199874183372 -0.37840460733910741 0 -0.38858962439070688 -0.39099178060542639 0 -0.38027509019960581 -0.3752569555279206 0 -0.39819601722778702 -0.37063510406979222 0 -0.4137072500395802 -0.40357895387174553 0 -0.39695840231774621 -0.42725525130702668 0 -0.3821663646035654 -0.41146547394949368 0 -0.39695840231774621 -0.42725525130702668 0 -0.37505608221433301 -0.43091143740690568 0 -0.39190855484970538 -0.45235952297299797 0 -0.39695840231774621 -0.42725525130702668 0 -0.3821663646035654 -0.41146547394949368 0 -0.37505608221433301 -0.43091143740690568 0 -0.37505608221433301 -0.43091143740690568 0 -0.39190855484970538 -0.45235952297299797 0 -0.36747109467781908 -0.45009213450057511 0 -0.39695840231774621 -0.42725525130702668 0 -0.39190855484970538 -0.45235952297299797 0 -0.42266469403802631 -0.43820863216503408 0 -0.39190855484970538 -0.45235952297299797 0 -0.39331870592113027 -0.47957017199253738 0 -0.41922294883123329 -0.47282138558380099 0 -0.39190855484970538 -0.45235952297299797 0 -0.36833954018173781 -0.47266995140588808 0 -0.36747109467781908 -0.45009213450057511 0 -0.39190855484970538 -0.45235952297299797 0 -0.39331870592113027 -0.47957017199253738 0 -0.36833954018173781 -0.47266995140588808 0 -0.38017392929754079 -0.5 0 -0.39331870592113027 -0.47957017199253738 0 -0.36833954018173781 -0.47266995140588808 0 -0.38017392929754079 -0.5 0 -0.39331870592113027 -0.47957017199253738 0 -0.40694855644543398 -0.5 0 -0.39331870592113027 -0.47957017199253738 0 -0.41922294883123329 -0.47282138558380099 0 -0.40694855644543398 -0.5 0 -0.41922294883123329 -0.47282138558380099 0 -0.40694855644543398 -0.5 0 -0.43372318359332718 -0.5 0 -0.44891499105454102 -0.48110250953740402 0 -0.41922294883123329 -0.47282138558380099 0 -0.43372318359332718 -0.5 0 -0.44891499105454102 -0.48110250953740402 0 -0.44159469221644831 -0.45840685133256848 0 -0.41922294883123329 -0.47282138558380099 0 -0.39190855484970538 -0.45235952297299797 0 -0.41922294883123329 -0.47282138558380099 0 -0.42266469403802631 -0.43820863216503408 0 -0.44159469221644831 -0.45840685133256848 0 -0.41922294883123329 -0.47282138558380099 0 -0.42266469403802631 -0.43820863216503408 0 -0.44196826618057822 -0.25847988818253897 0 -0.44838465456654047 -0.2703752456780546 0 -0.45671639277957082 -0.2604348468599762 0 -0.44196826618057822 -0.25847988818253897 0 -0.45671639277957082 -0.2604348468599762 0 -0.4473161120999406 -0.2448583222308145 0 -0.44196826618057822 -0.25847988818253897 0 -0.44838465456654047 -0.2703752456780546 0 -0.43259540283512588 -0.27174491149756441 0 -0.44838465456654047 -0.2703752456780546 0 -0.44969090939170647 -0.28535256018627009 0 -0.43259540283512588 -0.27174491149756441 0 -0.44838465456654047 -0.2703752456780546 0 -0.46095230164572121 -0.27586402166392332 0 -0.44969090939170647 -0.28535256018627009 0 -0.44838465456654047 -0.2703752456780546 0 -0.46095230164572121 -0.27586402166392332 0 -0.45671639277957082 -0.2604348468599762 0 -0.46095230164572121 -0.27586402166392332 0 -0.45671639277957082 -0.2604348468599762 0 -0.4717969467520664 -0.26576658642147688 0 -0.45671639277957082 -0.2604348468599762 0 -0.46985781557381873 -0.24680838074819941 0 -0.4473161120999406 -0.2448583222308145 0 -0.45671639277957082 -0.2604348468599762 0 -0.4717969467520664 -0.26576658642147688 0 -0.46985781557381873 -0.24680838074819941 0 -0.48492890778690811 -0.25613398921828362 0 -0.4738204215812438
[...]
<PointData Scalars="" Vectors="displacement," Tensors="">
<DataArray type="Float64" Name="displacement" NumberOfComponents="3" format="ascii">
-0.044999348480939283 -0.044997054809443743 0 -0.043091037435787981 -0.045465254406049718 0 -0.040979196176712154 -0.045367690609401851 0 -0.044999348480939283 -0.044997054809443743 0 -0.040979196176712154 -0.045367690609401851 0 -0.038338613084922903 -0.044994740415289017 0 -0.044998423481241834 -0.04386061866882271 0 -0.044999348480939283 -0.044997054809443743 0 -0.043091037435787981 -0.045465254406049718 0 -0.044999037943814636 -0.043854432785430837 0 -0.043531236549695054 -0.043600370929502613 0 -0.044363799522354551 -0.041717303625517621 0 -0.04468270992072728 -0.041812700447499074 0 -0.043398025202716656 -0.041691835326804406 0 -0.044999300718085403 -0.043850016032827711 0 -0.04468270992072728 -0.041812700447499074 0 -0.044998517864069894 -0.041445311412048234 0 -0.044999300718085403 -0.043850016032827711 0 -0.044363799522354551 -0.041717303625517621 0 -0.04468270992072728 -0.041812700447499074 0 -0.04468270992072728 -0.041812700447499074 0 -0.044998517864069894 -0.041445311412048234 0 -0.044382297261065747 -0.04059982029077483 0 -0.04468270992072728 -0.041812700447499074 0 -0.044382297261065747 -0.04059982029077483 0 -0.043398025202716656 -0.041691835326804406 0 -0.044998517864069894 -0.041445311412048234 0 -0.044382297261065747 -0.04059982029077483 0 -0.044998388229286382 -0.039035436171760182 0 -0.043219941378608767 -0.040413806069342015 0 -0.04166244247505832 -0.041728909961436592 0 -0.04279809593558815 -0.03913482565396402 0 -0.044382297261065747 -0.04059982029077483 0 -0.043219941378608767 -0.040413806069342015 0 -0.043398025202716656 -0.041691835326804406 0 -0.043219941378608767 -0.040413806069342015 0 -0.043398025202716656 -0.041691835326804406 0 -0.04166244247505832 -0.041728909961436592 0 -0.043398025202716656 -0.041691835326804406 0 -0.04166244247505832 -0.041728909961436592 0 -0.04178017057850017 -0.042227533274163613 0 -0.041886902629214899 -0.043408538700409574 0 -0.040202928230140031 -0.043528848538053888 0 -0.04178017057850017 -0.042227533274163613 0 -0.042589287632352098 -0.041354426970339982 0 -0.039794811837610092 -0.043585032269189992 0 -0.04166244247505832 -0.041728909961436592 0 -0.04178017057850017 -0.042227533274163613 0 -0.039794811837610092 -0.043585032269189992 0 -0.044363799522354551 -0.041717303625517621 0 -0.043398025202716656 -0.041691835326804406 0 -0.042589287632352098 -0.041354426970339982 0 -0.043398025202716656 -0.041691835326804406 0 -0.04178017057850017 -0.042227533274163613 0 -0.042589287632352098 -0.041354426970339982 0 -0.043531236549695054 -0.043600370929502613 0 -0.041886902629214899 -0.043408538700409574 0 -0.040979196176712154 -0.045367690609401851 0 -0.038338613084922903 -0.044994740415289017 0 -0.039794811837610092 -0.043585032269189992 0 -0.038338613084922903 -0.044994740415289017 0 -0.03863119654017072 -0.043803553359962513 0 -0.039794811837610092 -0.043585032269189992 0 -0.038338613084922903 -0.044994740415289017 0 -0.03863119654017072 -0.043803553359962513 0 -0.037055786845849738 -0.044197762305908411 0 -0.03863119654017072 -0.043803553359962513 0 -0.039794811837610092 -0.043585032269189992 0 -0.039380570446112206 -0.042593095526040937 0 -0.03863119654017072 -0.043803553359962513 0 -0.037055786845849738 -0.044197762305908411 0 -0.039380570446112206 -0.042593095526040937 0 -0.038338613084922903 -0.044994740415289017 0 -0.037055786845849738 -0.044197762305908411 0 -0.033382256346567676 -0.045000258507046233 0 -0.035487417698204043 -0.043911332015178647 0 -0.036736598765588463 -0.04413683443183513 0 -0.037144447025356769 -0.042223254488276032 0 -0.037055786845849738 -0.044197762305908411 0 -0.03733105536925764 -0.042549793809251071 0 -0.034070317081472914 -0.045618245524903185 0 -0.037055786845849738 -0.044197762305908411 0 -0.033382256346567676 -0.045000258507046233 0 -0.037055786845849738 -0.044197762305908411 0 -0.03778573749512365 -0.042263582311812979 0 -0.039380570446112206 -0.042593095526040937 0 -0.037055786845849738 -0.044197762305908411 0 -0.03733105536925764 -0.042549793809251071 0 -0.03778573749512365 -0.042263582311812979 0 -0.03733105536925764 -0.042549793809251071 0 -0.03778573749512365 -0.042263582311812979 0 -0.036270448921901434 -0.042441514237646159 0 -0.03778573749512365 -0.042263582311812979 0 -0.039199270416632216 -0.041980346982046612 0 -0.039380570446112206 -0.042593095526040937 0 -0.039199270416632216 -0.041980346982046612 0 -0.03802307391870019 -0.042291274230616641 0 -0.04147038253534973 -0.041367596914310002 0 -0.03778573749512365 -0.042263582311812979 0 -0.039199270416632216 -0.041980346982046612 0 -0.03802307391870019 -0.042291274230616641 0 -0.03802307391870019 -0.042291274230616641 0 -0.036519054059177269 -0.042444832885108467 0 -0.037154089379966122 -0.042493119735427805 0 -0.03778573749512365 -0.042263582311812979 0 -0.03802307391870019 -0.042291274230616641 0 -0.036519054059177269 -0.042444832885108467 0 -0.04166244247505832 -0.041728909961436592 0 -0.04147038253534973 -0.041367596914310002 0 -0.04279809593558815 -0.03913482565396402 0 -0.04166244247505832 -0.041728909961436592 0 -0.039794811837610092 -0.043585032269189992 0 -0.039380570446112206 -0.042593095526040937 0 -0.039199270416632216 -0.041980346982046612 0 -0.039380570446112206 -0.042593095526040937 0 -0.04147038253534973 -0.041367596914310002 0 -0.04166244247505832 -0.041728909961436592 0 -0.039380570446112206 -0.042593095526040937 0 -0.04147038253534973 -0.041367596914310002 0 -0.04147038253534973 -0.041367596914310002 0 -0.044415507795444183 -0.037511609072811057 0 -0.04279809593558815 -0.03913482565396402 0 -0.044415507795444183 -0.037511609072811057 0 -0.044014537485939031 -0.036220782657130988 0 -0.04279809593558815 -0.03913482565396402 0 -0.041480942278460942 -0.041154928556518616 0 -0.041325254863043552 -0.040117521722802314 0 -0.038246919229947537 -0.042957992366461056 0 -0.037154089379966122 -0.042493119735427805 0 -0.037587681819269053 -0.041950805109409829 0 -0.03802307391870019 -0.042291274230616641 0 -0.038246919229947537 -0.042957992366461056 0 -0.037154089379966122 -0.042493119735427805 0 -0.03802307391870019 -0.042291274230616641 0 -0.04147038253534973 -0.041367596914310002 0 -0.038246919229947537 -0.042957992366461056 0 -0.038246919229947537 -0.042957992366461056 0 -0.037242352516152315 -0.041574442758136328 0 -0.037587681819269053 -0.041950805109409829 0 -0.044415507795444183 -0.037511609072811057 0 -0.044157587861877096 -0.034691935519133556 0 -0.044465110020446653 -0.034868608971605923 0 -0.041325254863043552 -0.040117521722802314 0 -0.040630830072076303 -0.038258614814206497 0 -0.044157587861877096 -0.034691935519133556 0 -0.044465110020446653 -0.034868608971605923 0 -0.04442191261497315 -0.034764294509528212 0 -0.040630830072076303 -0.038258614814206497 0 -0.039432970699373099 -0.038182273898637382 0 -0.037242352516152315 -0.041574442758136328 0 -0.038330511112093311 -0.040401397141226189 0 -0.039293332909302897 -0.037985898898321629 0 -0.037242352516152315 -0.041574442758136328 0 -0.038330511112093311 -0.040401397141226189 0 -0.037587681819269053 -0.041950805109409829 0 -0.044415507795444183 -0.037511609072811057 0 -0.044014537485939031 -0.036220782657130988 0 -0.044465110020446653 -0.034868608971605923 0 -0.044014537485939031 -0.036220782657130988 0 -0.04450083369482441 -0.034538728774098706 0 -0.044151531678488301 -0.035905127298438928 0 -0.044014537485939031 -0.036220782657130988 0 -0.044465110020446653 -0.034868608971605923 0 -0.04450083369482441 -0.034538728774098706 0 -0.04450083369482441 -0.034538728774098706 0 -0.044151531678488301 -0.035905127298438928 0 -0.044639499081536443 -0.033786429660884472 0 -0.044014537485939031 -0.036220782657130988 0 -0.044151531678488301 -0.035905127298438928 0 -0.04279809593558815 -0.03913482565396402 0 -0.044151531678488301 -0.035905127298438928 0 -0.044616285022312137 -0.035739077629077652 0 -0.044169139691209086 -0.03828165398845583 0 -0.044151531678488301 -0.035905127298438928 0 -0.044802276150012636 -0.033632109602606354 0 -0.044639499081536443 -0.033786429660884472 0 -0.044151531678488301 -0.035905127298438928 0 -0.044616285022312137 -0.035739077629077652 0 -0.044802276150012636 -0.033632109602606354 0 -0.04499857469725544 -0.034216130331954649 0 -0.044616285022312137 -0.035739077629077652 0 -0.044802276150012636 -0.033632109602606354 0 -0.04499857469725544 -0.034216130331954649 0 -0.044616285022312137 -0.035739077629077652 0 -0.044998465559244229 -0.036626007368881705 0 -0.044616285022312137 -0.035739077629077652 0 -0.044169139691209086 -0.03828165398845583 0 -0.044998465559244229 -0.036626007368881705 0 -0.044169139691209086 -0.03828165398845583 0 -0.044998465559244229 -0.036626007368881705 0 -0.044998388229286382 -0.039035436171760182 0 -0.044382297261065747 -0.04059982029077483 0 -0.044169139691209086 -0.03828165398845583 0 -0.044998388229286382 -0.039035436171760182 0 -0.044382297261065747 -0.04059982029077483 0 -0.043219941378608767 -0.040413806069342015 0 -0.044169139691209086 -0.03828165398845583 0 -0.044151531678488301 -0.035905127298438928 0 -0.044169139691209086 -0.03828165398845583 0 -0.04279809593558815 -0.03913482565396402 0 -0.043219941378608767 -0.040413806069342015 0 -0.044169139691209086 -0.03828165398845583 0 -0.04279809593558815 -0.03913482565396402 0 -0.02782904696038857 -0.04495435888147873 0 -0.027859927845649134 -0.044820646865980675 0 -0.027461044649883287 -0.044838573693622062 0 -0.02782904696038857 -0.04495435888147873 0 -0.027461044649883287 -0.044838573693622062 0 -0.027798636206573961 -0.044913236880779514 0 -0.02782904696038857 -0.04495435888147873 0 -0.027859927845649134 -0.044820646865980675 0 -0.028013372077581797 -0.045244131216059524 0 -0.027859927845649134 -0.044820646865980675 0 -0.028795668262407294 -0.04455273262705485 0 -0.028013372077581797 -0.045244131216059524 0 -0.027859927845649134 -0.044820646865980675 0 -0.027666156514348575 -0.044772300440618633 0 -0.028795668262407294 -0.04455273262705485 0 -0.027859927845649134 -0.044820646865980675 0 -0.027666156514348575 -0.044772300440618633 0 -0.027461044649883287 -0.044838573693622062 0 -0.027666156514348575 -0.044772300440618633 0 -0.027461044649883287 -0.044838573693622062 0 -0.026853535484702078 -0.044888236831648137 0 -0.027461044649883287 -0.044838573693622062 0 -0.027197739652336704 -0.044903971223046749 0 -0.027798636206573961 -0.044913236880779514 0 -0.027461044649883287 -0.044838573693622062 0 -0.026853535484702078 -0.044888236831648137 0 -0.027197739652336704 -0.044903971223046749 0 -0.022677728057370908 -0.045979905811661295 0 -0.021548789384810273 -0.046450365385065431 0 -0.021423315449265751 -0.046663580363027028 0 -0.026313255468071419 -0.045103474431031798 0 -0.025863285926713747 -0.045167732092710446 0 -0.026853535484702078 -0.044888236831648137 0 -0.026313255468071419 -0.045103474431031798 0 -0.026853535484702078 -0.044888236831648137 0 -0.027197739652336704 -0.044903971223046749 0 -0.024377893038392245 -0.045451426366338379 0 -0.026381221953019597 -0.045925246457148787 0 -0.022677728057370908 -0.045979905811661295 0 -0.023890725643502097 -0.044999820214759026 0 -0.021883206843699488 -0.045774672054718364 0 -0.026313255468071419 -0.045103474431031798 0 -0.023897049268607105 -0.045000193081114394 0 -0.025863285926713747 -0.045167732092710446 0 -0.024377893038392245 -0.045451426366338379 0 -0.023892071173180627 -0.044999724077124548 0 -0.023897049268607105 -0.045000193081114394 0 -0.025863285926713747 -0.045167732092710446 0 -0.025430784258956476 -0.044999226407992067 0 -0.025863285926713747 -0.045167732092710446 0 -0.026572231226284611 -0.045155639002523298 0 -0.025430784258956476 -0.044999226407992067 0 -0.027666156514348575 -0.044772300440618633 0 -0.026853535484702078 -0.044888236831648137 0 -0.027108433790176776 -0.044991153743432689 0 -0.025863285926713747 -0.045167732092710446 0 -0.027108433790176776 -0.044991153743432689 0 -0.026572231226284611 -0.045155639002523298 0 -0.025863285926713747 -0.045167732092710446 0 -0.026853535484702078 -0.044888236831648137 0 -0.027108433790176776 -0.044991153743432689 0 -0.027108433790176776 -0.044991153743432689 0 -0.026572231226284611 -0.045155639002523298 0 -0.027483855704444698 -0.045046513637202974 0 -0.027108433790176776 -0.044991153743432689 0 -0.027483855704444698 -0.045046513637202974 0 -0.028259178943232693 -0.044833016722791677 0 -0.026572231226284611 -0.045155639002523298 0 -0.025430784258956476 -0.044999226407992067 0 -0.026968835673790381 -0.044999704086514901 0 -0.026572231226284611 -0.045155639002523298 0 -0.026968835673790381 -0.044999704086514901 0 -0.027483855704444698 -0.045046513637202974 0 -0.028308636663014201 -0.044567500555421323 0 -0.030842601384834925 -0.043670825032749362 0 -0.031075792382760443 -0.043540934039700635 0 -0.026970306396317451 -0.044999139622544822 0 -0.029121448906743647 -0.04421327109061083 0 -0.026978356721811869 -0.04499462980958932 0 -0.028308636663014201 -0.044567500555421323 0 -0.030842601384834925 -0.043670825032749362 0 -0.029121448906743647 -0.04421327109061083 0 -0.031120876613356593 -0.044043674571683886 0 -0.030842601384834925 -0.043670825032749362 0 -0.033064879285760511 -0.043122567044709487 0 -0.032996960643455794 -0.043128273492972519 0 -0.027483855704444698 -0.045046513637202974 0 -0.029161715752596278 -0.044939257841209286 0 -0.028259178943232693 -0.044833016722791677 0 -0.027666156514348575 -0.044772300440618633 0 -0.027108433790176776 -0.044991153743432689 0 -0.028259178943232693 -0.044833016722791677 0 -0.027666156514348575 -0.044772300440618633 0 -0.028259178943232693 -0.044833016722791677 0 -0.028795668262407294 -0.04455273262705485 0 -0.029161715752596278 -0.044939257841209286 0 -0.028259178943232693 -0.044833016722791677 0 -0.029333730252445935 -0.044633654835662472 0 -0.028259178943232693 -0.044833016722791677 0 -0.029333730252445935 -0.044633654835662472 0 -0.028795668262407294 -0.04455273262705485 0 -0.028795668262407294 -0.04455273262705485 0 -0.031013437326489503 -0.044243121699068445 0 -0.028013372077581797 -0.045244131216059524 0 -0.029333730252445935 -0.044633654835662472 0 -0.028795668262407294 -0.04455273262705485 0 -0.031013437326489503 -0.044243121699068445 0 -0.033064879285760511 -0.043122567044709487 0 -0.033630017438009932 -0.042757185116371631 0 -0.034406256068808663 -0.042235585707079089 0 -0.029161715752596278 -0.044939257841209286 0 -0.031013437326489503 -0.044243121699068445 0 -0.031652137849131338 -0.04326226017937207 0 -0.031120876613356593 -0.044043674571683886 0 -0.033040467880192111 -0.042788599894094857 0 -0.033064879285760511 -0.043122567044709487 0 -0.033630017438009932 -0.042757185116371631 0 -0.032996960643455794 -0.043128273492972519 0 -0.029161715752596278 -0.044939257841209286 0 -0.029333730252445935 -0.044633654835662472 0 -0.031013437326489503 -0.044243121699068445 0 -0.026978356721811869 -0.04499462980958932 0 -0.029844120686060231 -0.045438342486950146 0 -0.033382256346567676 -0.045000258507046233 0 -0.033630017438009932 -0.042757185116371631 0 -0.033747033782249941 -0.042834250626306379 0 -0.034038772325978801 -0.042088101283179705 0 -0.033630017438009932 -0.042757185116371631 0 -0.033747033782249941 -0.042834250626306379 0 -0.032996960643455794 -0.043128273492972519 0 -0.033747033782249941 -0.042834250626306379 0 -0.034773929314342332 -0.042762755066216088 0 -0.035195917613232569 -0.042364797015004202 0 -0.033747033782249941 -0.042834250626306379 0 -0.035195917613232569 -0.042364797015004202 0 -0.034038772325978801 -0.042088101283179705 0 -0.032674469824507064 -0.043206509375448648 0 -0.033975304633759973 -0.042593631386391426 0 -0.034773929314342332 -0.042762755066216088 0 -0.033747033782249941 -0.042834250626306379 0 -0.032674469824507064 -0.043206509375448648 0 -0.034773929314342332 -0.042762755066216088 0 -0.033747033782249941 -0.042834250626306379 0 -0.032674469824507064 -0.043206509375448648 0 -0.032996960643455794 -0.043128273492972519 0 -0.030842601384834925 -0.043670825032749362 0 -0.032674469824507064 -0.043206509375448648 0 -0.032996960643455794 -0.043128273492972519 0 -0.032674469824507064 -0.043206509375448648 0 -0.031075792382760443 -0.043540934039700635 0 -0.033975304633759973 -0.042593631386391426 0 -0.030842601384834925 -0.043670825032749362 0 -0.032674469824507064 -0.043206509375448648 0 -0.031075792382760443 -0.043540934039700635 0 -0.028308636663014201 -0.044567500555421323 0 -0.031075792382760443 -0.043540934039700635 0 -0.032820601128641783 -0.041735948179008255 0 -0.02879759346732292 -0.044315494614541227 0 -0.031377324619600709 -0.043726648550866269 0 -0.026978356721811869 -0.04499462980958932 0 -0.028308636663014201 -0.044567500555421323 0 -0.029844120686060231 -0.045438342486950146 0 -0.031377324619600709 -0.043726648550866269 0 -0.033618855969426001 -0.043616818778996765 0 -0.032820601128641783 -0.041735948179008255 0 -0.033975304633759973 -0.042593631386391426 0 -0.035377245805772416 -0.041487659757763341 0 -0.031075792382760443 -0.043540934039700635 0 -0.032820601128641783 -0.041735948179008255 0 -0.033975304633759973 -0.042593631386391426 0 -0.029844120686060231 -0.045438342486950146 0 -0.031880233571204827 -0.045693214438229032 0 -0.033382256346567676 -0.045000258507046233 0 -0.033975304633759973 -0.042593631386391426 0 -0.036270448921901434 -0.042441514237646159 0 -0.034773929314342332 -0.042762755066216088 0 -0.033975304633759973 -0.042593631386391426 0 -0.035377245805772416 -0.041487659757763341 0 -0.036270448921901434 -0.042441514237646159 0 -0.034070317081472914 -0.045618245524903185 0 -0.031880233571204827 -0.045693214438229032 0 -0.033382256346567676 -0.045000258507046233 0 -0.035487417698204043 -0.043911332015178647 0 -0.033618855969426001 -0.043616818778996765 0 -0.037144447025356769 -0.042223254488276032 0 -0.03733105536925764 -0.042549793809251071 0 -0.036270448921901434 -0.042441514237646159 0 -0.037144447025356769 -0.042223254488276032 0 -0.035377245805772416 -0.041487659757763341 0 -0.036270448921901434 -0.042441514237646159 0 -0.03778573749512365 -0.042263582311812979 0 -0.036270448921901434 -0.042441514237646159 0 -0.036519054059177269 -0.042444832885108467 0 -0.036270448921901434 -0.042441514237646159 0 -0.034773929314342332 -0.042762755066216088 0 -0.036519054059177269 -0.042444832885108467 0 -0.034773929314342332 -0.042762755066216088 0 -0.036519054059177269 -0.042444832885108467 0 -0.035195917613232569 -0.042364797015004202 0 -0.036519054059177269 -0.042444832885108467 0 -0.037154089379966122 -0.042493119735427805 0 -0.035195917613232569 -0.042364797015004202 0 -0.037154089379966122 -0.042493119735427805 0 -0.035195917613232569 -0.042364797015004202 0 -0.036734996601227435 -0.04215939264883535 0 -0.035195917613232569 -0.042364797015004202 0 -0.036734996601227435 -0.04215939264883535 0 -0.034596035790232932 -0.041968436058528964 0 -0.036734996601227435 -0.04215939264883535 0 -0.03802377658729069 -0.041527123246821632 0 -0.034596035790232932 -0.041968436058528964 0 -0.037154089379966122 -0.042493119735427805 0 -0.036734996601227435 -0.04215939264883535 0 -0.037587681819269053 -0.041950805109409829 0 -0.038330511112093311 -0.040401397141226189 0 -0.037587681819269053 -0.041950805109409829 0 -0.038334266120416786 -0.040601543424754617 0 -0.037587681819269053 -0.041950805109409829 0 -0.038334266120416786 -0.040601543424754617 0 -0.03802377658729069 -0.041527123246821632 0 -0.038330511112093311 -0.040401397141226189 0 -0.038334266120416786 -0.040601543424754617 0 -0.038806440750580429 -0.039244338673240724 0 -0.038334266120416786 -0.040601543424754617 0 -0.03802377658729069 -0.041527123246821632 0 -0.038781070409762426 -0.039719078433694363 0 -0.034227169690211626 -0.040224210488295969 0 -0.038997208738100406 -0.034556692285973134 0 -0.036734996601227435 -0.04215939264883535 0 -0.037587681819269053 -0.041950805109409829 0 -0.03802377658729069 -0.041527123246821632 0