<?xml version="1.0"?>
<VTKFile type="UnstructuredGrid" version="0.1" byte_order="LittleEndian">
<UnstructuredGrid>
<Piece NumberOfPoints="30881" NumberOfCells="10862">
<Points>
<DataArray type="Float64" NumberOfComponents="3" format="ascii">
-0.49999999999999828 -0.48677703703187492 0 -0.5 -0.5 0 -0.48129281494584059 -0.49338851851593718 0 -0.5 -0.5 0 -0.48129281494584059 -0.49338851851593718 0 -0.46258562989168328 -0.5 0 -0.49999999999999828 -0.48677703703187492 0 -0.48129281494584059 -0.49338851851593718 0 -0.49999999999999828 -0.48677703703187492 0 -0.4824545428279598 -0.47451624516148783 0 -0.48129281494584059 -0.49338851851593718 0 -0.49999999999999828 -0.48677703703187492 0 -0.4824545428279598 -0.47451624516148783 0 -0.5 -0.46599539173150673 0 -0.4824545428279598 -0.47451624516148783 0 -0.46853075243710779 -0.48354990242643758 0 -0.46411508256092049 -0.46598235294430129 0 -0.4824545428279598 -0.47451624516148783 0 -0.48129281494584059 -0.49338851851593718 0 -0.46853075243710779 -0.48354990242643758 0 -0.48129281494584059 -0.49338851851593718 0 -0.46258562989168328 -0.5 0 -0.48129281494584059 -0.49338851851593718 0 -0.46258562989168328 -0.5 0 -0.46853075243710779 -0.48354990242643758 0 -0.46258562989168328 -0.5 0 -0.46853075243710779 -0.48354990242643758 0 -0.45147378687733691 -0.48362213557840178 0 -0.46853075243710779 -0.48354990242643758 0 -0.45147378687733691 -0.48362213557840178 0 -0.46411508256092049 -0.46598235294430129 0 -0.4457251648104853 -0.47020164095208389 0 -0.45147378687733691 -0.48362213557840178 0 -0.46411508256092049 -0.46598235294430129 0 -0.4457251648104853 -0.47020164095208389 0 -0.45147378687733691 -0.48362213557840178 0 -0.43513446131126993 -0.48199891714758791 0 -0.45147378687733691 -0.48362213557840178 0 -0.43275163025255442 -0.5 0 -0.43513446131126993 -0.48199891714758791 0 -0.46258562989168328 -0.5 0 -0.45147378687733691 -0.48362213557840178 0 -0.43275163025255442 -0.5 0 -0.4467190029717853 -0.45478934699519452 0 -0.4422915115958943 -0.43555510214664611 0 -0.43246707723660932 -0.44794326854796312 0 -0.4457251648104853 -0.47020164095208389 0 -0.4467190029717853 -0.45478934699519452 0 -0.46411508256092049 -0.46598235294430129 0 -0.4457251648104853 -0.47020164095208389 0 -0.4467190029717853 -0.45478934699519452 0 -0.43016578207734568 -0.46313500011938619 0 -0.4467190029717853 -0.45478934699519452 0 -0.46411508256092049 -0.46598235294430129 0 -0.47114575579794699 -0.4403844242888923 0 -0.4467190029717853 -0.45478934699519452 0 -0.47114575579794699 -0.4403844242888923 0 -0.4422915115958943 -0.43555510214664611 0 -0.47114575579794699 -0.4403844242888923 0 -0.4422915115958943 -0.43555510214664611 0 -0.46411508256092049 -0.46598235294430129 0 -0.47114575579794699 -0.4403844242888923 0 -0.48354307623736548 -0.45841843211146538 0 -0.4824545428279598 -0.47451624516148783 0 -0.46411508256092049 -0.46598235294430129 0 -0.48354307623736548 -0.45841843211146538 0 -0.4824545428279598 -0.47451624516148783 0 -0.48354307623736548 -0.45841843211146538 0 -0.5 -0.46599539173150673 0 -0.48354307623736548 -0.45841843211146538 0 -0.5 -0.46599539173150673 0 -0.49999999999999972 -0.44521374643113848 0 -0.47114575579794699 -0.4403844242888923 0 -0.49999999999999972 -0.44521374643113848 0 -0.47114575579794699 -0.4403844242888923 0 -0.49999999999999972 -0.44521374643113848 0 -0.48704432221743971 -0.42935617662229603 0 -0.47114575579794699 -0.4403844242888923 0 -0.48354307623736548 -0.45841843211146538 0 -0.49999999999999972 -0.44521374643113848 0 -0.49999999999999972 -0.44521374643113848 0 -0.48704432221743971 -0.42935617662229603 0 -0.5 -0.41591957503128979 0 -0.48704432221743971 -0.42935617662229603 0 -0.5 -0.41591957503128979 0 -0.47703153307181151 -0.41590696073786332 0 -0.5 -0.41591957503128979 0 -0.47703153307181151 -0.41590696073786332 0 -0.48817838912021821 -0.4022119694541284 0 -0.47114575579794699 -0.4403844242888923 0 -0.48704432221743971 -0.42935617662229603 0 -0.47703153307181151 -0.41590696073786332 0 -0.5 -0.38662540363144121 0 -0.47568202340906118 -0.39039593841591919 0 -0.4947615751445838 -0.37332156409002909 0 -0.47568202340906118 -0.39039593841591919 0 -0.4947615751445838 -0.37332156409002909 0 -0.5 -0.38662540363144121 0 -0.48817838912021821 -0.4022119694541284 0 -0.47568202340906118 -0.39039593841591919 0 -0.5 -0.41591957503128979 0 -0.5 -0.38662540363144121 0 -0.48817838912021821 -0.4022119694541284 0 -0.47703153307181151 -0.41590696073786332 0 -0.48817838912021821 -0.4022119694541284 0 -0.47568202340906118 -0.39039593841591919 0 -0.47703153307181151 -0.41590696073786332 0 -0.47568202340906118 -0.39039593841591919 0 -0.45660247167353862 -0.40747031274180939 0 -0.47568202340906118 -0.39039593841591919 0 -0.48030931097003587 -0.37191064435083931 0 -0.46669490250066459 -0.37481721741951951 0 -0.47568202340906118 -0.39039593841591919 0 -0.4947615751445838 -0.37332156409002909 0 -0.48030931097003587 -0.37191064435083931 0 -0.45332061783919553 -0.38729481725706361 0 -0.46669490250066459 -0.37481721741951951 0 -0.45095991715087752 -0.36968037302039969 0 -0.47568202340906118 -0.39039593841591919 0 -0.45332061783919553 -0.38729481725706361 0 -0.46669490250066459 -0.37481721741951951 0 -0.47568202340906118 -0.39039593841591919 0 -0.45660247167353862 -0.40747031274180939 0 -0.47568202340906118 -0.39039593841591919 0 -0.45332061783919553 -0.38729481725706361 0 -0.45660247167353862 -0.40747031274180939 0 -0.44332653075004852 -0.401690115615219 0 -0.44646247228389868 -0.41654464256061052 0 -0.42870657106664078 -0.39987574649354879 0 -0.45332061783919553 -0.38729481725706361 0 -0.44332653075004852 -0.401690115615219 0 -0.43479631603355468 -0.39077639303142497 0 -0.45332061783919553 -0.38729481725706361 0 -0.44332653075004852 -0.401690115615219 0 -0.45660247167353862 -0.40747031274180939 0 -0.45332061783919553 -0.38729481725706361 0 -0.43421362475025049 -0.37527491429266319 0 -0.43479631603355468 -0.39077639303142497 0 -0.45332061783919553 -0.38729481725706361 0 -0.43421362475025049 -0.37527491429266319 0 -0.45095991715087752 -0.36968037302039969 0 -0.47114575579794699 -0.4403844242888923 0 -0.45663439814062529 -0.42533932462455271 0 -0.4422915115958943 -0.43555510214664611 0 -0.47114575579794699 -0.4403844242888923 0 -0.47703153307181151 -0.41590696073786332 0 -0.45663439814062529 -0.42533932462455271 0 -0.45663439814062529 -0.42533932462455271 0 -0.45660247167353862 -0.40747031274180939 0 -0.44646247228389868 -0.41654464256061052 0 -0.47703153307181151 -0.41590696073786332 0 -0.45663439814062529 -0.42533932462455271 0 -0.45660247167353862 -0.40747031274180939 0 -0.44332653075004852 -0.401690115615219 0 -0.45660247167353862 -0.40747031274180939 0 -0.44646247228389868 -0.41654464256061052 0 -0.45660247167353862 -0.40747031274180939 0 -0.44646247228389868 -0.41654464256061052 0 -0.44646247228389868 -0.41654464256061052 0 -0.4375229199380159 -0.42454468706769971 0 -0.45663439814062529 -0.42533932462455271 0 -0.4375229199380159 -0.42454468706769971 0 -0.4422915115958943 -0.43555510214664611 0 -0.45663439814062529 -0.42533932462455271 0 -0.44646247228389868 -0.41654464256061052 0 -0.4375229199380159 -0.42454468706769971 0 -0.4375229199380159 -0.42454468706769971 0 -0.4422915115958943 -0.43555510214664611 0 -0.43077617074680319 -0.43406335077952207 0 -0.43077617074680319 -0.43406335077952207 0 -0.42550232634077589 -0.42345940056268039 0 -0.41950844772475421 -0.43888456563633732 0 -0.4375229199380159 -0.42454468706769971 0 -0.43077617074680319 -0.43406335077952207 0 -0.42550232634077589 -0.42345940056268039 0 -0.44646247228389868 -0.41654464256061052 0 -0.41657232816672918 -0.41306671883907142 0 -0.42870657106664078 -0.39987574649354879 0 -0.44646247228389868 -0.41654464256061052 0 -0.4375229199380159 -0.42454468706769971 0 -0.42550232634077589 -0.42345940056268039 0 -0.44646247228389868 -0.41654464256061052 0 -0.42550232634077589 -0.42345940056268039 0 -0.41657232816672918 -0.41306671883907142 0 -0.44646247228389868 -0.41654464256061052 0 -0.41657232816672918 -0.41306671883907142 0 -0.42550232634077589 -0.42345940056268039 0 -0.41657232816672918 -0.41306671883907142 0 -0.41333489101611293 -0.42699700567040988 0 -0.41657232816672918 -0.41306671883907142 0 -0.41333489101611293 -0.42699700567040988 0 -0.39893236021425188 -0.42931692235905211 0 -0.41333489101611293 -0.42699700567040988 0 -0.39893236021425188 -0.42931692235905211 0 -0.41950844772475421 -0.43888456563633732 0 -0.42550232634077589 -0.42345940056268039 0 -0.41333489101611293 -0.42699700567040988 0 -0.41950844772475421 -0.43888456563633732 0 -0.43421362475025049 -0.37527491429266319 0 -0.42478231784314502 -0.38643128255249681 0 -0.41656514696884139 -0.37636588688318029 0 -0.43421362475025049 -0.37527491429266319 0 -0.42478231784314502 -0.38643128255249681 0 -0.43479631603355468 -0.39077639303142497 0 -0.42478231784314502 -0.38643128255249681 0 -0.43479631603355468 -0.39077639303142497 0 -0.42870657106664078 -0.39987574649354879 0 -0.44332653075004852 -0.401690115615219 0 -0.43479631603355468 -0.39077639303142497 0 -0.42870657106664078 -0.39987574649354879 0 -0.41657232816672918 -0.41306671883907142 0 -0.40962993039643741 -0.3898634720616666 0 -0.3946356370269814 -0.39577424904278191 0 -0.42478231784314502 -0.38643128255249681 0 -0.42870657106664078 -0.39987574649354879 0 -0.40962993039643741 -0.3898634720616666 0 -0.41657232816672918 -0.41306671883907142 0 -0.42870657106664078 -0.39987574649354879 0 -0.40962993039643741 -0.3898634720616666 0 -0.42478231784314502 -0.38643128255249681 0 -0.40962993039643741 -0.3898634720616666 0 -0.41656514696884139 -0.37636588688318029 0 -0.40962993039643741 -0.3898634720616666 0 -0.41656514696884139 -0.37636588688318029 0 -0.40465459864295228 -0.37650109000307358 0 -0.39431275766669582 -0.38061373190328529 0 -0.40465459864295228 -0.37650109000307358 0 -0.3968495855878465 -0.36923685638487008 0 -0.40962993039643741 -0.3898634720616666 0 -0.39431275766669582 -0.38061373190328529 0 -0.40465459864295228 -0.376501090003
[...]
<PointData Scalars="" Vectors="displacement," Tensors="">
<DataArray type="Float64" Name="displacement" NumberOfComponents="3" format="ascii">
-1.3213065658662419e-06 0.09249590104239086 0 8.811466696717666e-07 0.094994697964929889 0 -4.3035491106999336e-07 0.094924486513886935 0 8.811466696717666e-07 0.094994697964929889 0 -4.3035491106999336e-07 0.094924486513886935 0 -4.3713648957503487e-07 0.095002334729096735 0 -3.0764515388245229e-07 0.092489580461709076 0 7.8912550774266096e-06 0.093674857900424277 0 3.2435820266265538e-07 0.092481807960815426 0 0.0004904088684274336 0.091037817950466005 0 0.0004613350887195797 0.091953419666967615 0 3.2435820266265538e-07 0.092481807960815426 0 0.0004904088684274336 0.091037817950466005 0 2.7678978686225664e-06 0.088540041969365976 0 0.0004904088684274336 0.091037817950466005 0 0.00027699038939858278 0.092917292403866966 0 0.00038629337641958334 0.092242177629161107 0 0.0004904088684274336 0.091037817950466005 0 0.0004613350887195797 0.091953419666967615 0 0.00027699038939858278 0.092917292403866966 0 7.8912550774266096e-06 0.093674857900424277 0 4.453334626398059e-07 0.094997758079314557 0 0.0004613350887195797 0.091953419666967615 0 3.2199012307355904e-06 0.09499350476087394 0 0.00027699038939858278 0.092917292403866966 0 3.2199012307355904e-06 0.09499350476087394 0 0.00027699038939858278 0.092917292403866966 0 0.00026087836528098068 0.093753469693246883 0 0.00027699038939858278 0.092917292403866966 0 0.00026087836528098068 0.093753469693246883 0 0.00038629337641958334 0.092242177629161107 0 0.00041348118518350313 0.09299881079068241 0 0.00026087836528098068 0.093753469693246883 0 0.00038629337641958334 0.092242177629161107 0 0.00041348118518350313 0.09299881079068241 0 0.00026087836528098068 0.093753469693246883 0 0.00016778789784815503 0.093786367961919304 0 0.00026087836528098068 0.093753469693246883 0 -9.5284180315224298e-07 0.09499848630684235 0 0.00016778789784815503 0.093786367961919304 0 3.2199012307355904e-06 0.09499350476087394 0 0.00026087836528098068 0.093753469693246883 0 -9.5284180315224298e-07 0.09499848630684235 0 0.00054119131128270556 0.092096605550022997 0 0.0018882093470710757 0.090512138936603578 0 0.0012269463866272214 0.091699322730188382 0 0.00041348118518350313 0.09299881079068241 0 0.00054119131128270556 0.092096605550022997 0 0.00038629337641958334 0.092242177629161107 0 0.00041348118518350313 0.09299881079068241 0 0.00054119131128270556 0.092096605550022997 0 0.00066393024080079713 0.092607202079973625 0 0.00054119131128270556 0.092096605550022997 0 0.00038629337641958334 0.092242177629161107 0 -0.00072163539383082026 0.091611531119432432 0 0.00054119131128270556 0.092096605550022997 0 -0.00072163539383082026 0.091611531119432432 0 0.0018882093470710757 0.090512138936603578 0 0.00039903490969086012 0.086821282163067143 0 0.00058004787650215188 0.088268739375056984 0 0.00038629337641958334 0.092242177629161107 0 -0.00072163539383082026 0.091611531119432432 0 0.00045659935514992289 0.08966336541444285 0 0.0004904088684274336 0.091037817950466005 0 0.00038629337641958334 0.092242177629161107 0 0.00045659935514992289 0.08966336541444285 0 0.0004904088684274336 0.091037817950466005 0 0.00045659935514992289 0.08966336541444285 0 2.7678978686225664e-06 0.088540041969365976 0 0.00045659935514992289 0.08966336541444285 0 2.7678978686225664e-06 0.088540041969365976 0 -5.2602746149890921e-06 0.084599650819784739 0 0.00039903490969086012 0.086821282163067143 0 9.9697969177757187e-07 0.084592917604941184 0 0.0022163731843854928 0.081952796806683409 0 5.808654614882032e-07 0.084581408659320997 0 0.0009112065948788954 0.081543324464661199 0 -0.00072163539383082026 0.091611531119432432 0 0.00045659935514992289 0.08966336541444285 0 -5.2602746149890921e-06 0.084599650819784739 0 5.808654614882032e-07 0.084581408659320997 0 0.0009112065948788954 0.081543324464661199 0 2.4094990213459381e-06 0.079028013514475401 0 0.0009112065948788954 0.081543324464661199 0 2.4094990213459381e-06 0.079028013514475401 0 9.232759638429736e-05 0.080916199826728236 0 2.4094990213459381e-06 0.079028013514475401 0 9.232759638429736e-05 0.080916199826728236 0 -0.00021700233052972053 0.077983793144194555 0 0.0022163731843854928 0.081952796806683409 0 0.0009112065948788954 0.081543324464661199 0 9.232759638429736e-05 0.080916199826728236 0 -4.2533988860610603e-06 0.073458488746532408 0 -0.0017681905239519747 0.079149481845363134 0 -0.00069703926922062506 0.070537451849928906 0 -0.00016442287100928648 0.074545957271810417 0 -0.00016479410264848119 0.073949026497445641 0 -4.2533988860610603e-06 0.073458488746532408 0 -0.00021700233052972053 0.077983793144194555 0 -0.0017681905239519747 0.079149481845363134 0 2.4094990213459381e-06 0.079028013514475401 0 -4.2533988860610603e-06 0.073458488746532408 0 -0.00021700233052972053 0.077983793144194555 0 9.232759638429736e-05 0.080916199826728236 0 -0.00021700233052972053 0.077983793144194555 0 -0.0017681905239519747 0.079149481845363134 0 9.232759638429736e-05 0.080916199826728236 0 -0.0017681905239519747 0.079149481845363134 0 -0.0017105333447519097 0.084573843475815189 0 -0.0012293541053554182 0.064578695505046954 0 -0.000543052970885149 0.066034035683723999 0 -0.00080726119837130298 0.064672578835999181 0 -0.0012293541053554182 0.064578695505046954 0 -0.00069703926922062506 0.070537451849928906 0 -0.000543052970885149 0.066034035683723999 0 -6.5796239627080065e-05 0.06524229566152033 0 -0.00080726119837130298 0.064672578835999181 0 -0.001017633805754018 0.065184192491145251 0 -0.0012293541053554182 0.064578695505046954 0 -6.5796239627080065e-05 0.06524229566152033 0 -0.00080726119837130298 0.064672578835999181 0 -0.00016442287100928648 0.074545957271810417 0 0.00045206562682264232 0.076632106293101188 0 -0.0012293541053554182 0.064578695505046954 0 -6.5796239627080065e-05 0.06524229566152033 0 0.0021055697146436523 0.064959743733906769 0 0.0019088120715383846 0.066364494974831545 0 0.0038599746538196381 0.065949627280894277 0 0.0021896603187340647 0.068321401336306334 0 -6.5796239627080065e-05 0.06524229566152033 0 0.0019088120715383846 0.066364494974831545 0 0.00070394175394194157 0.067339866228463538 0 -6.5796239627080065e-05 0.06524229566152033 0 0.0019088120715383846 0.066364494974831545 0 0.0021055697146436523 0.064959743733906769 0 -6.5796239627080065e-05 0.06524229566152033 0 -0.0010240518570637314 0.067091179163407996 0 0.00070394175394194157 0.067339866228463538 0 -6.5796239627080065e-05 0.06524229566152033 0 -0.0010240518570637314 0.067091179163407996 0 -0.001017633805754018 0.065184192491145251 0 0.0022163731843854928 0.081952796806683409 0 0.00038042534108552613 0.085546877282231842 0 0.0018882093470710757 0.090512138936603578 0 0.0022163731843854928 0.081952796806683409 0 9.232759638429736e-05 0.080916199826728236 0 0.00038042534108552613 0.085546877282231842 0 0.00038042534108552613 0.085546877282231842 0 -0.0017105333447519097 0.084573843475815189 0 -0.0010574994092439865 0.087797875268409126 0 9.232759638429736e-05 0.080916199826728236 0 0.00038042534108552613 0.085546877282231842 0 -0.0017105333447519097 0.084573843475815189 0 0.0019088120715383846 0.066364494974831545 0 0.0021055697146436523 0.064959743733906769 0 0.0038599746538196381 0.065949627280894277 0 0.00045206562682264232 0.076632106293101188 0 0.00087099498479985011 0.078169696291860144 0 0.00087099498479985011 0.078169696291860144 0 0.0017506994386606862 0.079849448780755311 0 0.00038042534108552613 0.085546877282231842 0 0.00088203985465336494 0.090882083922921894 0 0.0018882093470710757 0.090512138936603578 0 0.00038042534108552613 0.085546877282231842 0 -0.0010574994092439865 0.087797875268409126 0 0.00088203985465336494 0.090882083922921894 0 0.00088203985465336494 0.090882083922921894 0 0.0018882093470710757 0.090512138936603578 0 0.0015158788514717406 0.091331150188259047 0 0.0015158788514717406 0.091331150188259047 0 0.0014801065800050138 0.091245450681476881 0 0.0015023741541684114 0.091565419643194923 0 0.00088203985465336494 0.090882083922921894 0 0.0015158788514717406 0.091331150188259047 0 0.0014801065800050138 0.091245450681476881 0 0.0038599746538196381 0.065949627280894277 0 0.0048193288222625032 0.070352075911097198 0 0.0021896603187340647 0.068321401336306334 0 0.00068629875793249195 0.09078594927893513 0 0.00088203985465336494 0.090882083922921894 0 0.0014801065800050138 0.091245450681476881 0 0.00068629875793249195 0.09078594927893513 0 0.0014801065800050138 0.091245450681476881 0 0.002026726558654502 0.091353044391270025 0 0.00087099498479985011 0.078169696291860144 0 0.0024582250408755443 0.080806592948975367 0 0.0014801065800050138 0.091245450681476881 0 0.002026726558654502 0.091353044391270025 0 0.0017853358050753834 0.091237397332806364 0 0.002026726558654502 0.091353044391270025 0 0.0017853358050753834 0.091237397332806364 0 0.0020361095831980241 0.090713925772631626 0 0.0017853358050753834 0.091237397332806364 0 0.0020361095831980241 0.090713925772631626 0 0.0015023741541684114 0.091565419643194923 0 0.0014801065800050138 0.091245450681476881 0 0.0017853358050753834 0.091237397332806364 0 0.0015023741541684114 0.091565419643194923 0 -0.0010240518570637314 0.067091179163407996 0 0.00019137063473057591 0.068807870538370022 0 -0.0013682611529617157 0.07002066004902785 0 -0.0010240518570637314 0.067091179163407996 0 0.00019137063473057591 0.068807870538370022 0 0.00070394175394194157 0.067339866228463538 0 0.00019137063473057591 0.068807870538370022 0 0.00070394175394194157 0.067339866228463538 0 0.0021896603187340647 0.068321401336306334 0 0.0019088120715383846 0.066364494974831545 0 0.00070394175394194157 0.067339866228463538 0 0.0021896603187340647 0.068321401336306334 0 0.0048193288222625032 0.070352075911097198 0 0.00077505632203407734 0.071736039956743908 0 0.0019935949297932329 0.075283991802712863 0 0.00019137063473057591 0.068807870538370022 0 0.0021896603187340647 0.068321401336306334 0 0.00077505632203407734 0.071736039956743908 0 0.0048193288222625032 0.070352075911097198 0 0.0021896603187340647 0.068321401336306334 0 0.00077505632203407734 0.071736039956743908 0 0.00019137063473057591 0.068807870538370022 0 0.00077505632203407734 0.071736039956743908 0 -0.0013682611529617157 0.07002066004902785 0 0.00077505632203407734 0.071736039956743908 0 -0.0013682611529617157 0.07002066004902785 0 -0.0017596065141567948 0.072781317026856515 0 -0.0012046999891740476 0.075390375643263993 0 -0.0017596065141567948 0.072781317026856515 0 -0.003588006646245982 0.074782880067226498 0 0.00077505632203407734 0.071736039956743908 0 -0.0012046999891740476 0.075390375643263993 0 -0.0017596065141567948 0.072781317026856515 0 0.00077505632203407734 0.071736039956743908 0 -0.0012046999891740476 0.075390375643263993 0 0.0019935949297932329 0.075283991802712863 0 0.0019935949297932329 0.075283991802712863 0 0.005396789941847141 0.077195915841775598 0 0.0018909122267415091 0.08075164837055239 0 0.0019935949297932329 0.075283991802712863 0 -0.0015991289420713482 0.080415176712739275 0 0.0018909122267415091 0.08075164837055239 0 -0.0012046999891740476 0.075390375643263993 0 0.0019935949297932329 0.075283991802712863 0 -0.0015991289420713482 0.080415176712739275 0 -0.0012046999891740476 0.075390375643263993 0 -0.0015991289420713482 0.080415176712739275 0 -0.0036488991544196712 0.077715519536782032 0 0.002026726558654502 0.091353044391270025 0 0.0020361095831980241 0.090713925772631626 0 0.0035421140817358445 0.089892500078231422 0 0.0048193288222625032 0.070352075911097198 0 0.0019935949297932329 0.075283991802712863 0 0.005396789941847141 0.077195915841775598 0 0.0024582250408755443 0.080806592948975367 0 0.0032899985599453997 0.083178249646963326 0 0.0035421140817358445 0.089892500078231422 0 0.0024322343280614727 0.089370982882549466 0 0.0030481413510306888 0.087440079842650897 0 0.0024322343280614727 0.089370982882549466 0 0.0015533815210768747 0.089775380285148476 0 0.0023115213194344507 0.088234435969404654 0 0.0020361095831980241 0.090713925772631626 0 0.0024322343280614727 0.089370982882549466 0 0.0015533815210768747 0.089775380285148476 0 0.0020361095831980241 0.090713925772631626 0 0.0035421140817358445 0.089892500078231422 0 0.0024322343280614727 0.089370982882549466 0 0.0015533815210768747 0.089775380285148476 0 0.0012186285772388728 0.091339434876457029 0 0.00065529479151187368 0.090562107840459996 0 0.0020361095831980241 0.090713925772631626 0 0.0015533815210768747 0.089775380285148476 0 0.0012186285772388728 0.091339434876457029 0 0.0012186285772388728 0.091339434876457029 0 0.00065529479151187368 0.090562107840459996 0 0.00039406177347804867 0.091831144688839308 0 0.0015533815210768747 0.089775380285148476 0 0.00065529479151187368 0.090562107840459996 0 0.00076390111119594654 0.089231157934182959 0 0.00065529479151187368 0.090562107840459996 0 -0.00025860756925483468 0.08989085799617863 0 0.00076390111119594654 0.089231157934182959 0 -0.00025860756925483468 0.08989085799617863 0 -0.0015264625715922951 0.090999605154578403 0 -6.2019493090534621e-05 0.091158827061146142 0 0.00065529479151187368 0.090562107840459996 0 -0.00025860756925483468 0.08989085799617863 0 -6.2019493090534621e-05 0.091158827061146142 0 -0.00012349843479620258 0.093296693799572714 0 0.00022367120957129778 0.094088194430463332 0 -5.8907070508724331e-05 0.09510137462039113 0 -9.1251840116072436e-08 0.094998272374536397 0 -6.1051609528777609e-08 0.095001162320511118 0 -5.8907070508724331e-05 0.09510137462039113 0 2.3683255639481731e-05 0.094990494231362188 0 -6.1051609528777609e-08 0.095001162320511118 0 -0.00025860756925483468 0.08989085799617863 0 -0.0015264625715922951 0.090999605154578403 0 -0.0016732115004859415 0.089107333100003266 0 -0.00012349843479620258 0.093296693799572714 0 -0.00019046852244149291 0.093373413037696695 0 -0.0015264625715922951 0.090999605154578403 0 -6.2019493090534621e-05 0.091158827061146142 0 -0.00015240859368935506 0.092435202428676533 0 -5.8907070508724331e-05 0.09510137462039113 0 -9.1251840116072436e-08 0.094998272374536397 0 -0.00039603839055159294 0.094220416894073331 0 -0.0015264625715922951 0.090999605154578403 0 -0.00015240859368935506 0.092435202428676533 0 -0.00039603839055159294 0.094220416894073331 0 0.00065529479151187368 0.090562107840459996 0 -6.2019493090534621e-05 0.091158827061146142 0 0.00039406177347804867 0.091831144688839308 0 -6.2019493090534621e-05 0.091158827061146142 0 -0.00015240859368935506 0.092435202428676533 0 0.00039406177347804867 0.091831144688839308 0 0.00039406177347804867 0.091831144688839308 0 0.00024905649680261743 0.09314186356086733 0 0.00077510005358417738 0.092234606273644631 0 -0.00015240859368935506 0.092435202428676533 0 0.00024905649680261743 0.09314186356086733 0 -0.00039603839055159294 0.094220416894073331 0 -0.00015240859368935506 0.092435202428676533 0 0.00039406177347804867 0.091831144688839308 0 0.00024905649680261743 0.09314186356086733 0 0.00024905649680261743 0.09314186356086733 0 -0.00039603839055159294 0.094220416894073331 0 -3.6910048902423625e-05 0.094067478571918564 0 -9.1251840116072436e-08 0.094998272374536397 0 -0.00039603839055159294 0.094220416894073331 0 -9.5284180315224298e-07 0.09499848630684235 0 -0.00039603839055159294 0.094220416894073331 0 -3.6910048902423625e-05 0.094067478571918564 0 -9.5284180315224298e-07 0.09499848630684235 0 -3.6910048902423625e-05 0.094067478571918564 0 -9.5284180315224298e-07 0.09499848630684235 0 0.00016778789784815503 0.093786367961919304 0 0.00041348118518350313 0.09299881079068241 0 0.00016778789784815503 0.093786367961919304 0 0.00066393024080079713 0.092607202079973625 0 0.00024905649680261743 0.09314186356086733 0 0.00016778789784815503 0.093786367961919304 0 0.00066393024080079713 0.092607202079973625 0 0.00024905649680261743 0.09314186356086733 0 -3.6910048902423625e-05 0.094067478571918564 0 0.00016778789784815503 0.093786367961919304 0 0.00054119131128270556 0.092096605550022997 0 0.00066393024080079713 0.092607202079973625 0 0.0012269463866272214 0.091699322730188382 0 0.00066393024080079713 0.092607202079973625 0 0.0011335813848843137 0.09193924123989268 0 0.00077510005358417738 0.092234606273644631 0 0.00066393024080079713 0.092607202079973625 0 0.0012269463866272214 0.091699322730188382 0 0.0011335813848843137 0.09193924123989268 0 0.0018882093470710757 0.090512138936603578 0 0.0015158788514717406 0.091331150188259047 0 0.0012269463866272214 0.091699322730188382 0 0.0015158788514717406 0.091331150188259047 0 0.0012269463866272214 0.091699322730188382 0 0.0015023741541684114 0.091565419643194923 0 0.0012269463866272214 0.091699322730188382 0 0.0011335813848843137 0.09193924123989268 0 0.0015023741541684114 0.091565419643194923 0 0.0020361095831980241 0.090713925772631626 0 0.0012186285772388728 0.091339434876457029 0 0.0015023741541684114 0.091565419643194923 0 0.0012186285772388728 0.091339434876457029 0 0.0011335813848843137 0.09193924123989268 0 0.0015023741541684114 0.091565419643194923 0 0.0012186285772388728 0.091339434876457029 0 0.0011335813848843137 0.09193924123989268 0 0.00077510005358417738 0.092234606273644631 0 0.0012186285772388728 0.091339434876457029 0 0.00039406177347804867 0.091831144688839308 0 0.00077510005358417738 0.092234606273644631 0 0.00024905649680261743 0.09314186356086733 0 0.00066393024080079713 0.092607202079973625 0 0.00077510005358417738 0.092234606273644631 0 0.00041627593667007979 0.054286981245981122 0 0.0005387036425819028 0.055806340255098653 0 -0.00031632797630554594 0.055434594297943049 0 0.00041627593667007979 0.054286981245981122 0 0.001002200900105674 0.055654106140665613 0 0.0005387036425819028 0.055806340255098653 0 0.00041627593667007979 0.054286981245981122 0 -0.00031632797630554594 0.055434594297943049 0 -0.00036408919332115856 0.05381875812697879 0 0.00041627593667007979 0.054286981245981122 0 0.001002200900105674 0.055654106140665613 0 0.00099834598541687558 0.054339101397169784 0 0.001002200900105674 0.055654106140665613 0 0.00099834598541687558 0.054339101397169784 0 0.001193415584347935 0.056290882109499958 0 0.00099834598541687558 0.054339101397169784 0 0.00036757580636700548 0.050563629288960264 0 -1.0324178032598675e-05 0.052248938988743665 0 0.00041627593667007979 0.054286981245981122 0 0.00099834598541687558 0.054339101397169784 0 -1.0324178032598675e-05 0.052248938988743665 0 0.00041627593667007979 0.054286981245981122 0 -1.0324178032598675e-05 0.052248938988743665 0 -0.00036408919332115856 0.05381875812697879 0 0.00036757580636700548 0.050563629288960264 0 1.0071967590517449e-06 0.051196684823945654 0 1.1405068284252054e-06 0.045628913462912847 0 0.00036757580636700548 0.050563629288960264 0 1.0071967590517449e-06 0.051196684823945654 0 0.00065828183425168123 0.054173526329660035 0 0.00099834598541687558 0.054339101397169784 0 0.00036757580636700548 0.050563629288960264 0 0.00065828183425168123 0.054173526329660035 0 0.00099834598541687558 0.054339101397169784 0 0.00065828183425168123 0.054173526329660035 0 0.00090536378373767194 0.056978873724099169 0 0.00065828183425168123 0.054173526329660035 0 1.5516181508357319e-06 0.056761705506277974 0 0.00090536378373767194 0.056978873724099169 0 1.0071967590517449e-06 0.051196684823945654 0 0.00065828183425168123 0.054173526329660035 0 1.5516181508357319e-06 0.056761705506277974 0 1.5516181508357319e-06 0.056761705506277974 0 0.00090536378373767194 0.056978873724099169 0 0.00021589650714883726 0.060495903690447855 0 0.00090536378373767194 0.056978873724099169 0 0.001193415584347935 0.056290882109499958 0 0.00037739499105060966 0.058578709791518448 0 0.00099834598541687558 0.054339101397169784 0 0.00090536378373767194 0.056978873724099169 0 0.001193415584347935 0.056290882109499958 0 0.001002200900105674 0.055654106140665613 0 0.001193415584347935 0.056290882109499958 0 0.0011254249332621352 0.05602418520181246 0 0.001193415584347935 0.056290882109499958 0 0.00037739499105060966 0.058578709791518448 0 0.00094720473492240569 0.0561531171