<?xml version="1.0"?>
<VTKFile type="UnstructuredGrid" version="0.1" byte_order="LittleEndian">
<UnstructuredGrid>
<Piece NumberOfPoints="30881" NumberOfCells="10862">
<Points>
<DataArray type="Float64" NumberOfComponents="3" format="ascii">
-0.49999999999999828 -0.48677703703187492 0 -0.5 -0.5 0 -0.48129281494584059 -0.49338851851593718 0 -0.5 -0.5 0 -0.48129281494584059 -0.49338851851593718 0 -0.46258562989168328 -0.5 0 -0.49999999999999828 -0.48677703703187492 0 -0.48129281494584059 -0.49338851851593718 0 -0.49999999999999828 -0.48677703703187492 0 -0.4824545428279598 -0.47451624516148783 0 -0.48129281494584059 -0.49338851851593718 0 -0.49999999999999828 -0.48677703703187492 0 -0.4824545428279598 -0.47451624516148783 0 -0.5 -0.46599539173150673 0 -0.4824545428279598 -0.47451624516148783 0 -0.46853075243710779 -0.48354990242643758 0 -0.46411508256092049 -0.46598235294430129 0 -0.4824545428279598 -0.47451624516148783 0 -0.48129281494584059 -0.49338851851593718 0 -0.46853075243710779 -0.48354990242643758 0 -0.48129281494584059 -0.49338851851593718 0 -0.46258562989168328 -0.5 0 -0.48129281494584059 -0.49338851851593718 0 -0.46258562989168328 -0.5 0 -0.46853075243710779 -0.48354990242643758 0 -0.46258562989168328 -0.5 0 -0.46853075243710779 -0.48354990242643758 0 -0.45147378687733691 -0.48362213557840178 0 -0.46853075243710779 -0.48354990242643758 0 -0.45147378687733691 -0.48362213557840178 0 -0.46411508256092049 -0.46598235294430129 0 -0.4457251648104853 -0.47020164095208389 0 -0.45147378687733691 -0.48362213557840178 0 -0.46411508256092049 -0.46598235294430129 0 -0.4457251648104853 -0.47020164095208389 0 -0.45147378687733691 -0.48362213557840178 0 -0.43513446131126993 -0.48199891714758791 0 -0.45147378687733691 -0.48362213557840178 0 -0.43275163025255442 -0.5 0 -0.43513446131126993 -0.48199891714758791 0 -0.46258562989168328 -0.5 0 -0.45147378687733691 -0.48362213557840178 0 -0.43275163025255442 -0.5 0 -0.4467190029717853 -0.45478934699519452 0 -0.4422915115958943 -0.43555510214664611 0 -0.43246707723660932 -0.44794326854796312 0 -0.4457251648104853 -0.47020164095208389 0 -0.4467190029717853 -0.45478934699519452 0 -0.46411508256092049 -0.46598235294430129 0 -0.4457251648104853 -0.47020164095208389 0 -0.4467190029717853 -0.45478934699519452 0 -0.43016578207734568 -0.46313500011938619 0 -0.4467190029717853 -0.45478934699519452 0 -0.46411508256092049 -0.46598235294430129 0 -0.47114575579794699 -0.4403844242888923 0 -0.4467190029717853 -0.45478934699519452 0 -0.47114575579794699 -0.4403844242888923 0 -0.4422915115958943 -0.43555510214664611 0 -0.47114575579794699 -0.4403844242888923 0 -0.4422915115958943 -0.43555510214664611 0 -0.46411508256092049 -0.46598235294430129 0 -0.47114575579794699 -0.4403844242888923 0 -0.48354307623736548 -0.45841843211146538 0 -0.4824545428279598 -0.47451624516148783 0 -0.46411508256092049 -0.46598235294430129 0 -0.48354307623736548 -0.45841843211146538 0 -0.4824545428279598 -0.47451624516148783 0 -0.48354307623736548 -0.45841843211146538 0 -0.5 -0.46599539173150673 0 -0.48354307623736548 -0.45841843211146538 0 -0.5 -0.46599539173150673 0 -0.49999999999999972 -0.44521374643113848 0 -0.47114575579794699 -0.4403844242888923 0 -0.49999999999999972 -0.44521374643113848 0 -0.47114575579794699 -0.4403844242888923 0 -0.49999999999999972 -0.44521374643113848 0 -0.48704432221743971 -0.42935617662229603 0 -0.47114575579794699 -0.4403844242888923 0 -0.48354307623736548 -0.45841843211146538 0 -0.49999999999999972 -0.44521374643113848 0 -0.49999999999999972 -0.44521374643113848 0 -0.48704432221743971 -0.42935617662229603 0 -0.5 -0.41591957503128979 0 -0.48704432221743971 -0.42935617662229603 0 -0.5 -0.41591957503128979 0 -0.47703153307181151 -0.41590696073786332 0 -0.5 -0.41591957503128979 0 -0.47703153307181151 -0.41590696073786332 0 -0.48817838912021821 -0.4022119694541284 0 -0.47114575579794699 -0.4403844242888923 0 -0.48704432221743971 -0.42935617662229603 0 -0.47703153307181151 -0.41590696073786332 0 -0.5 -0.38662540363144121 0 -0.47568202340906118 -0.39039593841591919 0 -0.4947615751445838 -0.37332156409002909 0 -0.47568202340906118 -0.39039593841591919 0 -0.4947615751445838 -0.37332156409002909 0 -0.5 -0.38662540363144121 0 -0.48817838912021821 -0.4022119694541284 0 -0.47568202340906118 -0.39039593841591919 0 -0.5 -0.41591957503128979 0 -0.5 -0.38662540363144121 0 -0.48817838912021821 -0.4022119694541284 0 -0.47703153307181151 -0.41590696073786332 0 -0.48817838912021821 -0.4022119694541284 0 -0.47568202340906118 -0.39039593841591919 0 -0.47703153307181151 -0.41590696073786332 0 -0.47568202340906118 -0.39039593841591919 0 -0.45660247167353862 -0.40747031274180939 0 -0.47568202340906118 -0.39039593841591919 0 -0.48030931097003587 -0.37191064435083931 0 -0.46669490250066459 -0.37481721741951951 0 -0.47568202340906118 -0.39039593841591919 0 -0.4947615751445838 -0.37332156409002909 0 -0.48030931097003587 -0.37191064435083931 0 -0.45332061783919553 -0.38729481725706361 0 -0.46669490250066459 -0.37481721741951951 0 -0.45095991715087752 -0.36968037302039969 0 -0.47568202340906118 -0.39039593841591919 0 -0.45332061783919553 -0.38729481725706361 0 -0.46669490250066459 -0.37481721741951951 0 -0.47568202340906118 -0.39039593841591919 0 -0.45660247167353862 -0.40747031274180939 0 -0.47568202340906118 -0.39039593841591919 0 -0.45332061783919553 -0.38729481725706361 0 -0.45660247167353862 -0.40747031274180939 0 -0.44332653075004852 -0.401690115615219 0 -0.44646247228389868 -0.41654464256061052 0 -0.42870657106664078 -0.39987574649354879 0 -0.45332061783919553 -0.38729481725706361 0 -0.44332653075004852 -0.401690115615219 0 -0.43479631603355468 -0.39077639303142497 0 -0.45332061783919553 -0.38729481725706361 0 -0.44332653075004852 -0.401690115615219 0 -0.45660247167353862 -0.40747031274180939 0 -0.45332061783919553 -0.38729481725706361 0 -0.43421362475025049 -0.37527491429266319 0 -0.43479631603355468 -0.39077639303142497 0 -0.45332061783919553 -0.38729481725706361 0 -0.43421362475025049 -0.37527491429266319 0 -0.45095991715087752 -0.36968037302039969 0 -0.47114575579794699 -0.4403844242888923 0 -0.45663439814062529 -0.42533932462455271 0 -0.4422915115958943 -0.43555510214664611 0 -0.47114575579794699 -0.4403844242888923 0 -0.47703153307181151 -0.41590696073786332 0 -0.45663439814062529 -0.42533932462455271 0 -0.45663439814062529 -0.42533932462455271 0 -0.45660247167353862 -0.40747031274180939 0 -0.44646247228389868 -0.41654464256061052 0 -0.47703153307181151 -0.41590696073786332 0 -0.45663439814062529 -0.42533932462455271 0 -0.45660247167353862 -0.40747031274180939 0 -0.44332653075004852 -0.401690115615219 0 -0.45660247167353862 -0.40747031274180939 0 -0.44646247228389868 -0.41654464256061052 0 -0.45660247167353862 -0.40747031274180939 0 -0.44646247228389868 -0.41654464256061052 0 -0.44646247228389868 -0.41654464256061052 0 -0.4375229199380159 -0.42454468706769971 0 -0.45663439814062529 -0.42533932462455271 0 -0.4375229199380159 -0.42454468706769971 0 -0.4422915115958943 -0.43555510214664611 0 -0.45663439814062529 -0.42533932462455271 0 -0.44646247228389868 -0.41654464256061052 0 -0.4375229199380159 -0.42454468706769971 0 -0.4375229199380159 -0.42454468706769971 0 -0.4422915115958943 -0.43555510214664611 0 -0.43077617074680319 -0.43406335077952207 0 -0.43077617074680319 -0.43406335077952207 0 -0.42550232634077589 -0.42345940056268039 0 -0.41950844772475421 -0.43888456563633732 0 -0.4375229199380159 -0.42454468706769971 0 -0.43077617074680319 -0.43406335077952207 0 -0.42550232634077589 -0.42345940056268039 0 -0.44646247228389868 -0.41654464256061052 0 -0.41657232816672918 -0.41306671883907142 0 -0.42870657106664078 -0.39987574649354879 0 -0.44646247228389868 -0.41654464256061052 0 -0.4375229199380159 -0.42454468706769971 0 -0.42550232634077589 -0.42345940056268039 0 -0.44646247228389868 -0.41654464256061052 0 -0.42550232634077589 -0.42345940056268039 0 -0.41657232816672918 -0.41306671883907142 0 -0.44646247228389868 -0.41654464256061052 0 -0.41657232816672918 -0.41306671883907142 0 -0.42550232634077589 -0.42345940056268039 0 -0.41657232816672918 -0.41306671883907142 0 -0.41333489101611293 -0.42699700567040988 0 -0.41657232816672918 -0.41306671883907142 0 -0.41333489101611293 -0.42699700567040988 0 -0.39893236021425188 -0.42931692235905211 0 -0.41333489101611293 -0.42699700567040988 0 -0.39893236021425188 -0.42931692235905211 0 -0.41950844772475421 -0.43888456563633732 0 -0.42550232634077589 -0.42345940056268039 0 -0.41333489101611293 -0.42699700567040988 0 -0.41950844772475421 -0.43888456563633732 0 -0.43421362475025049 -0.37527491429266319 0 -0.42478231784314502 -0.38643128255249681 0 -0.41656514696884139 -0.37636588688318029 0 -0.43421362475025049 -0.37527491429266319 0 -0.42478231784314502 -0.38643128255249681 0 -0.43479631603355468 -0.39077639303142497 0 -0.42478231784314502 -0.38643128255249681 0 -0.43479631603355468 -0.39077639303142497 0 -0.42870657106664078 -0.39987574649354879 0 -0.44332653075004852 -0.401690115615219 0 -0.43479631603355468 -0.39077639303142497 0 -0.42870657106664078 -0.39987574649354879 0 -0.41657232816672918 -0.41306671883907142 0 -0.40962993039643741 -0.3898634720616666 0 -0.3946356370269814 -0.39577424904278191 0 -0.42478231784314502 -0.38643128255249681 0 -0.42870657106664078 -0.39987574649354879 0 -0.40962993039643741 -0.3898634720616666 0 -0.41657232816672918 -0.41306671883907142 0 -0.42870657106664078 -0.39987574649354879 0 -0.40962993039643741 -0.3898634720616666 0 -0.42478231784314502 -0.38643128255249681 0 -0.40962993039643741 -0.3898634720616666 0 -0.41656514696884139 -0.37636588688318029 0 -0.40962993039643741 -0.3898634720616666 0 -0.41656514696884139 -0.37636588688318029 0 -0.40465459864295228 -0.37650109000307358 0 -0.39431275766669582 -0.38061373190328529 0 -0.40465459864295228 -0.37650109000307358 0 -0.3968495855878465 -0.36923685638487008 0 -0.40962993039643741 -0.3898634720616666 0 -0.39431275766669582 -0.38061373190328529 0 -0.40465459864295228 -0.376501090003
[...]
<PointData Scalars="" Vectors="displacement," Tensors="">
<DataArray type="Float64" Name="displacement" NumberOfComponents="3" format="ascii">
0.092496197773097297 0.09499842556166567 0 0.094994999894025559 0.094999619241035796 0 0.095750261356361777 0.091863280292811572 0 0.094994999894025559 0.094999619241035796 0 0.095750261356361777 0.091863280292811572 0 0.095001424544413487 0.087893607038510929 0 0.092491528613384263 0.094993455673679492 0 0.09368926952598515 0.091373707914392061 0 0.092479957599087073 0.094995957029096537 0 0.090536623972743244 0.091931774476879294 0 0.091002713690738049 0.090672573698403092 0 0.092479957599087073 0.094995957029096537 0 0.090536623972743244 0.091931774476879294 0 0.088539965345309959 0.094996757232877121 0 0.090536623972743244 0.091931774476879294 0 0.09164558934913547 0.088947505262967408 0 0.090189309140266113 0.088846111270890496 0 0.090536623972743244 0.091931774476879294 0 0.091002713690738049 0.090672573698403092 0 0.09164558934913547 0.088947505262967408 0 0.09368926952598515 0.091373707914392061 0 0.094995803710011789 0.087897574865015995 0 0.091002713690738049 0.090672573698403092 0 0.094987048073045727 0.087888892163399124 0 0.09164558934913547 0.088947505262967408 0 0.094987048073045727 0.087888892163399124 0 0.09164558934913547 0.088947505262967408 0 0.092620112644073133 0.086626918818528048 0 0.09164558934913547 0.088947505262967408 0 0.092620112644073133 0.086626918818528048 0 0.090189309140266113 0.088846111270890496 0 0.09105000308597308 0.086479052420023406 0 0.092620112644073133 0.086626918818528048 0 0.090189309140266113 0.088846111270890496 0 0.09105000308597308 0.086479052420023406 0 0.092620112644073133 0.086626918818528048 0 0.092672987421101499 0.084225875256640631 0 0.092620112644073133 0.086626918818528048 0 0.094998082191704802 0.082227723637212563 0 0.092672987421101499 0.084225875256640631 0 0.094987048073045727 0.087888892163399124 0 0.092620112644073133 0.086626918818528048 0 0.094998082191704802 0.082227723637212563 0 0.089389465131633747 0.087439901915801796 0 0.086147940816353921 0.088778005435172239 0 0.088022944978237594 0.08686806838164339 0 0.09105000308597308 0.086479052420023406 0 0.089389465131633747 0.087439901915801796 0 0.090189309140266113 0.088846111270890496 0 0.09105000308597308 0.086479052420023406 0 0.089389465131633747 0.087439901915801796 0 0.089953497679349612 0.085455424277429581 0 0.089389465131633747 0.087439901915801796 0 0.090189309140266113 0.088846111270890496 0 0.089683223712285154 0.089797373003041844 0 0.089389465131633747 0.087439901915801796 0 0.089683223712285154 0.089797373003041844 0 0.086147940816353921 0.088778005435172239 0 0.085307470628243884 0.092647689882054213 0 0.085532983294410087 0.09179100087294749 0 0.090189309140266113 0.088846111270890496 0 0.089683223712285154 0.089797373003041844 0 0.088623880779091266 0.092464461284791119 0 0.090536623972743244 0.091931774476879294 0 0.090189309140266113 0.088846111270890496 0 0.088623880779091266 0.092464461284791119 0 0.090536623972743244 0.091931774476879294 0 0.088623880779091266 0.092464461284791119 0 0.088539965345309959 0.094996757232877121 0 0.088623880779091266 0.092464461284791119 0 0.088539965345309959 0.094996757232877121 0 0.084602841153119709 0.09499685004114998 0 0.085307470628243884 0.092647689882054213 0 0.084591869661693436 0.094996364078354698 0 0.08192929476477169 0.09549256615831693 0 0.084585030102029918 0.094999356463914525 0 0.081696272744242154 0.095654167009129279 0 0.089683223712285154 0.089797373003041844 0 0.088623880779091266 0.092464461284791119 0 0.084602841153119709 0.09499685004114998 0 0.084585030102029918 0.094999356463914525 0 0.081696272744242154 0.095654167009129279 0 0.079028529339990869 0.094998131295541369 0 0.081696272744242154 0.095654167009129279 0 0.079028529339990869 0.094998131295541369 0 0.081332210420704043 0.095650763697353661 0 0.079028529339990869 0.094998131295541369 0 0.081332210420704043 0.095650763697353661 0 0.077804402257267979 0.095648900310911528 0 0.08192929476477169 0.09549256615831693 0 0.081696272744242154 0.095654167009129279 0 0.081332210420704043 0.095650763697353661 0 0.073462184854090687 0.094998558552032722 0 0.07700722011948509 0.096793833479128275 0 0.071357805262556362 0.095793629143814465 0 0.076606105249122883 0.094990138269912067 0 0.075071714172201112 0.09454766884594118 0 0.073462184854090687 0.094998558552032722 0 0.077804402257267979 0.095648900310911528 0 0.07700722011948509 0.096793833479128275 0 0.079028529339990869 0.094998131295541369 0 0.073462184854090687 0.094998558552032722 0 0.077804402257267979 0.095648900310911528 0 0.081332210420704043 0.095650763697353661 0 0.077804402257267979 0.095648900310911528 0 0.07700722011948509 0.096793833479128275 0 0.081332210420704043 0.095650763697353661 0 0.07700722011948509 0.096793833479128275 0 0.082603206918175742 0.09457101356247713 0 0.074569588001374518 0.098882303672613289 0 0.071773563341710769 0.098003161620096341 0 0.07295789036829961 0.099635153719996483 0 0.074569588001374518 0.098882303672613289 0 0.071357805262556362 0.095793629143814465 0 0.071773563341710769 0.098003161620096341 0 0.074578208503460613 0.10059602540478872 0 0.07295789036829961 0.099635153719996483 0 0.073524425645405095 0.100575975533155 0 0.074569588001374518 0.098882303672613289 0 0.074578208503460613 0.10059602540478872 0 0.07295789036829961 0.099635153719996483 0 0.076606105249122883 0.094990138269912067 0 0.079271974234164405 0.094605244573050001 0 0.074569588001374518 0.098882303672613289 0 0.074578208503460613 0.10059602540478872 0 0.075037039175817694 0.10060510554984696 0 0.074897427785736825 0.10073249610103349 0 0.074331749990326601 0.10090965350438773 0 0.074855805191684763 0.10011720327147065 0 0.074578208503460613 0.10059602540478872 0 0.074897427785736825 0.10073249610103349 0 0.075383784900181675 0.10058648538616541 0 0.074578208503460613 0.10059602540478872 0 0.074897427785736825 0.10073249610103349 0 0.075037039175817694 0.10060510554984696 0 0.074578208503460613 0.10059602540478872 0 0.075628977122317975 0.10086173588307759 0 0.075383784900181675 0.10058648538616541 0 0.074578208503460613 0.10059602540478872 0 0.075628977122317975 0.10086173588307759 0 0.073524425645405095 0.100575975533155 0 0.08192929476477169 0.09549256615831693 0 0.084130119228381442 0.092908193701708816 0 0.086147940816353921 0.088778005435172239 0 0.08192929476477169 0.09549256615831693 0 0.081332210420704043 0.095650763697353661 0 0.084130119228381442 0.092908193701708816 0 0.084130119228381442 0.092908193701708816 0 0.082603206918175742 0.09457101356247713 0 0.084897765372250938 0.091758272415659398 0 0.081332210420704043 0.095650763697353661 0 0.084130119228381442 0.092908193701708816 0 0.082603206918175742 0.09457101356247713 0 0.074897427785736825 0.10073249610103349 0 0.075037039175817694 0.10060510554984696 0 0.074331749990326601 0.10090965350438773 0 0.079271974234164405 0.094605244573050001 0 0.081075267987686134 0.09406527403158825 0 0.081075267987686134 0.09406527403158825 0 0.081145125132411969 0.093563464053616457 0 0.084130119228381442 0.092908193701708816 0 0.086350069035702567 0.088777263205677887 0 0.086147940816353921 0.088778005435172239 0 0.084130119228381442 0.092908193701708816 0 0.084897765372250938 0.091758272415659398 0 0.086350069035702567 0.088777263205677887 0 0.086350069035702567 0.088777263205677887 0 0.086147940816353921 0.088778005435172239 0 0.086647557229618005 0.087395424363595042 0 0.086647557229618005 0.087395424363595042 0 0.086688863615753703 0.08696069441022504 0 0.087080058698280949 0.086063609937513122 0 0.086350069035702567 0.088777263205677887 0 0.086647557229618005 0.087395424363595042 0 0.086688863615753703 0.08696069441022504 0 0.074331749990326601 0.10090965350438773 0 0.073174384833482181 0.098786793814138935 0 0.074855805191684763 0.10011720327147065 0 0.087551184053765926 0.08985136572901864 0 0.086350069035702567 0.088777263205677887 0 0.086688863615753703 0.08696069441022504 0 0.087551184053765926 0.08985136572901864 0 0.086688863615753703 0.08696069441022504 0 0.087295702859255753 0.085847207411856516 0 0.081075267987686134 0.09406527403158825 0 0.08034898193382356 0.092125306339549823 0 0.086688863615753703 0.08696069441022504 0 0.087295702859255753 0.085847207411856516 0 0.086614987605659041 0.085815575218595175 0 0.087295702859255753 0.085847207411856516 0 0.086614987605659041 0.085815575218595175 0 0.086075468234871791 0.085007621799411764 0 0.086614987605659041 0.085815575218595175 0 0.086075468234871791 0.085007621799411764 0 0.087080058698280949 0.086063609937513122 0 0.086688863615753703 0.08696069441022504 0 0.086614987605659041 0.085815575218595175 0 0.087080058698280949 0.086063609937513122 0 0.075628977122317975 0.10086173588307759 0 0.076209983115160029 0.099987977623139157 0 0.077661467168602366 0.099649569459772561 0 0.075628977122317975 0.10086173588307759 0 0.076209983115160029 0.099987977623139157 0 0.075383784900181675 0.10058648538616541 0 0.076209983115160029 0.099987977623139157 0 0.075383784900181675 0.10058648538616541 0 0.074855805191684763 0.10011720327147065 0 0.074897427785736825 0.10073249610103349 0 0.075383784900181675 0.10058648538616541 0 0.074855805191684763 0.10011720327147065 0 0.073174384833482181 0.098786793814138935 0 0.076717249602702209 0.097666872572413771 0 0.076434073590809185 0.093688176908562154 0 0.076209983115160029 0.099987977623139157 0 0.074855805191684763 0.10011720327147065 0 0.076717249602702209 0.097666872572413771 0 0.073174384833482181 0.098786793814138935 0 0.074855805191684763 0.10011720327147065 0 0.076717249602702209 0.097666872572413771 0 0.076209983115160029 0.099987977623139157 0 0.076717249602702209 0.097666872572413771 0 0.077661467168602366 0.099649569459772561 0 0.076717249602702209 0.097666872572413771 0 0.077661467168602366 0.099649569459772561 0 0.079188009161899997 0.097032352336008681 0 0.079407334653289016 0.093867650618002091 0 0.079188009161899997 0.097032352336008681 0 0.081949816884291177 0.094892797164783368 0 0.076717249602702209 0.097666872572413771 0 0.079407334653289016 0.093867650618002091 0 0.079188009161899997 0.097032352336008681 0 0.076717249602702209 0.097666872572413771 0 0.079407334653289016 0.093867650618002091 0 0.076434073590809185 0.093688176908562154 0 0.076434073590809185 0.093688176908562154 0 0.073645332923245779 0.091304011978524988 0 0.077800210088696489 0.087744798732119739 0 0.076434073590809185 0.093688176908562154 0 0.080696763790162801 0.087740291202342585 0 0.077800210088696489 0.087744798732119739 0 0.079407334653289016 0.093867650618002091 0 0.076434073590809185 0.093688176908562154 0 0.080696763790162801 0.087740291202342585 0 0.079407334653289016 0.093867650618002091 0 0.080696763790162801 0.087740291202342585 0 0.082823354922236539 0.091089064109669896 0 0.087295702859255753 0.085847207411856516 0 0.086075468234871791 0.085007621799411764 0 0.084882363511605205 0.084461510386935973 0 0.073174384833482181 0.098786793814138935 0 0.076434073590809185 0.093688176908562154 0 0.073645332923245779 0.091304011978524988 0 0.08034898193382356 0.092125306339549823 0 0.079863166170691557 0.089640572602723997 0 0.084882363511605205 0.084461510386935973 0 0.085031692740220405 0.084773763610787825 0 0.082738463875139043 0.08475279248094468 0 0.085031692740220405 0.084773763610787825 0 0.086637505144056992 0.085167816849624392 0 0.08478461327828922 0.085180246219949241 0 0.086075468234871791 0.085007621799411764 0 0.085031692740220405 0.084773763610787825 0 0.086637505144056992 0.085167816849624392 0 0.086075468234871791 0.085007621799411764 0 0.084882363511605205 0.084461510386935973 0 0.085031692740220405 0.084773763610787825 0 0.086637505144056992 0.085167816849624392 0 0.087801518764051387 0.085076054256021827 0 0.088898257460813368 0.085280206818126897 0 0.086075468234871791 0.085007621799411764 0 0.086637505144056992 0.085167816849624392 0 0.087801518764051387 0.085076054256021827 0 0.087801518764051387 0.085076054256021827 0 0.088898257460813368 0.085280206818126897 0 0.090112483641394944 0.084444510427291369 0 0.086637505144056992 0.085167816849624392 0 0.088898257460813368 0.085280206818126897 0 0.08827099454867085 0.08609955372307368 0 0.088898257460813368 0.085280206818126897 0 0.090513526601674499 0.086068888276470343 0 0.08827099454867085 0.08609955372307368 0 0.090513526601674499 0.086068888276470343 0 0.092934209442341986 0.085302271222096424 0 0.090771425464346939 0.084962532771855878 0 0.088898257460813368 0.085280206818126897 0 0.090513526601674499 0.086068888276470343 0 0.090771425464346939 0.084962532771855878 0 0.094071475309130792 0.07720462216336306 0 0.093589466206331531 0.072557473037669504 0 0.096452801433096147 0.07437195199004365 0 0.09499699424864555 0.076559786032654287 0 0.095001737096538669 0.070882784909340177 0 0.096452801433096147 0.07437195199004365 0 0.096070733208117431 0.070411517463771181 0 0.095001737096538669 0.070882784909340177 0 0.090513526601674499 0.086068888276470343 0 0.092934209442341986 0.085302271222096424 0 0.092348661834451257 0.087069550505101817 0 0.094071475309130792 0.07720462216336306 0 0.094196881804010993 0.078133633397670973 0 0.092934209442341986 0.085302271222096424 0 0.090771425464346939 0.084962532771855878 0 0.091828749764486031 0.083544442642767142 0 0.096452801433096147 0.07437195199004365 0 0.09499699424864555 0.076559786032654287 0 0.094700051580076716 0.080469254624583611 0 0.092934209442341986 0.085302271222096424 0 0.091828749764486031 0.083544442642767142 0 0.094700051580076716 0.080469254624583611 0 0.088898257460813368 0.085280206818126897 0 0.090771425464346939 0.084962532771855878 0 0.090112483641394944 0.084444510427291369 0 0.090771425464346939 0.084962532771855878 0 0.091828749764486031 0.083544442642767142 0 0.090112483641394944 0.084444510427291369 0 0.090112483641394944 0.084444510427291369 0 0.091491737756945912 0.083350537238518763 0 0.089382650333170485 0.084691772792050882 0 0.091828749764486031 0.083544442642767142 0 0.091491737756945912 0.083350537238518763 0 0.094700051580076716 0.080469254624583611 0 0.091828749764486031 0.083544442642767142 0 0.090112483641394944 0.084444510427291369 0 0.091491737756945912 0.083350537238518763 0 0.091491737756945912 0.083350537238518763 0 0.094700051580076716 0.080469254624583611 0 0.093623603380024178 0.082500862371832642 0 0.09499699424864555 0.076559786032654287 0 0.094700051580076716 0.080469254624583611 0 0.094998082191704802 0.082227723637212563 0 0.094700051580076716 0.080469254624583611 0 0.093623603380024178 0.082500862371832642 0 0.094998082191704802 0.082227723637212563 0 0.093623603380024178 0.082500862371832642 0 0.094998082191704802 0.082227723637212563 0 0.092672987421101499 0.084225875256640631 0 0.09105000308597308 0.086479052420023406 0 0.092672987421101499 0.084225875256640631 0 0.089953497679349612 0.085455424277429581 0 0.091491737756945912 0.083350537238518763 0 0.092672987421101499 0.084225875256640631 0 0.089953497679349612 0.085455424277429581 0 0.091491737756945912 0.083350537238518763 0 0.093623603380024178 0.082500862371832642 0 0.092672987421101499 0.084225875256640631 0 0.089389465131633747 0.087439901915801796 0 0.089953497679349612 0.085455424277429581 0 0.088022944978237594 0.08686806838164339 0 0.089953497679349612 0.085455424277429581 0 0.088315092523991195 0.085596241573438731 0 0.089382650333170485 0.084691772792050882 0 0.089953497679349612 0.085455424277429581 0 0.088022944978237594 0.08686806838164339 0 0.088315092523991195 0.085596241573438731 0 0.086147940816353921 0.088778005435172239 0 0.086647557229618005 0.087395424363595042 0 0.088022944978237594 0.08686806838164339 0 0.086647557229618005 0.087395424363595042 0 0.088022944978237594 0.08686806838164339 0 0.087080058698280949 0.086063609937513122 0 0.088022944978237594 0.08686806838164339 0 0.088315092523991195 0.085596241573438731 0 0.087080058698280949 0.086063609937513122 0 0.086075468234871791 0.085007621799411764 0 0.087801518764051387 0.085076054256021827 0 0.087080058698280949 0.086063609937513122 0 0.087801518764051387 0.085076054256021827 0 0.088315092523991195 0.085596241573438731 0 0.087080058698280949 0.086063609937513122 0 0.087801518764051387 0.085076054256021827 0 0.088315092523991195 0.085596241573438731 0 0.089382650333170485 0.084691772792050882 0 0.087801518764051387 0.085076054256021827 0 0.090112483641394944 0.084444510427291369 0 0.089382650333170485 0.084691772792050882 0 0.091491737756945912 0.083350537238518763 0 0.089953497679349612 0.085455424277429581 0 0.089382650333170485 0.084691772792050882 0 0.048501754598335924 0.10467753048087006 0 0.049525543130876794 0.10885246007276608 0 0.046526139880893519 0.10760066656865305 0 0.048501754598335924 0.10467753048087006 0 0.052198874709066388 0.10723372727258697 0 0.049525543130876794 0.10885246007276608 0 0.048501754598335924 0.10467753048087006 0 0.046526139880893519 0.10760066656865305 0 0.046472387103255242 0.10447329406039185 0 0.048501754598335924 0.10467753048087006 0 0.052198874709066388 0.10723372727258697 0 0.051634924121400173 0.1021742158389663 0 0.052198874709066388 0.10723372727258697 0 0.051634924121400173 0.1021742158389663 0 0.056052571365511325 0.10508820128883617 0 0.051634924121400173 0.1021742158389663 0 0.048274426665329571 0.098420182769224929 0 0.046728045390521486 0.10209408557823893 0 0.048501754598335924 0.10467753048087006 0 0.051634924121400173 0.1021742158389663 0 0.046728045390521486 0.10209408557823893 0 0.048501754598335924 0.10467753048087006 0 0.046728045390521486 0.10209408557823893 0 0.046472387103255242 0.10447329406039185 0 0.048274426665329571 0.098420182769224929 0 0.051195555601330225 0.095000008901722499 0 0.045627442724363566 0.094998862171744206 0 0.048274426665329571 0.098420182769224929 0 0.051195555601330225 0.095000008901722499 0 0.053426062824044732 0.098118116080358878 0 0.051634924121400173 0.1021742158389663 0 0.048274426665329571 0.098420182769224929 0 0.053426062824044732 0.098118116080358878 0 0.051634924121400173 0.1021742158389663 0 0.053426062824044732 0.098118116080358878 0 0.057101386786921261 0.10046978031201577 0 0.053426062824044732 0.098118116080358878 0 0.056761508443703715 0.094999454116520624 0 0.057101386786921261 0.10046978031201577 0 0.051195555601330225 0.095000008901722499 0 0.053426062824044732 0.098118116080358878 0 0.056761508443703715 0.094999454116520624 0 0.056761508443703715 0.094999454116520624 0 0.057101386786921261 0.10046978031201577 0 0.062258405774447696 0.098745422941253602 0 0.057101386786921261 0.10046978031201577 0 0.056052571365511325 0.10508820128883617 0 0.06264594965925295 0.1043487625169936 0 0.051634924121400173 0.1021742158389663 0 0.057101386786921261 0.10046978031201577 0 0.056052571365511325 0.10508820128883617 0 0.052198874709066388 0.10723372727258697 0 0.056052571365511325 0.10508820128883617 0 0.055499109974198671 0.1083501170186936 0 0.056052571365511325 0.10508820128883617 0 0.06264594965925295 0.1043487625169936 0 0.058731020761601811 0.10858586132766673 0 0.058808186544207004 0.10328503316259766 0 0.058155039635361311 0.1025149132499647 0 0.06264594965925295 0.1043487625169936 0 0.068295924283894721 0.10090036990760332 0 0.066942793921685131 0.1081073045676529 0 0.073367640501148593 0.1019242392609972 0 0.074768508417031185 0.10236985841155848 0 0.06264594965925295 0.1043487625169936 0 0.068295924283894721 0.10090036990760332 0 0.062258405774447696 0.098745422941253602 0 0.057101386786921261 0.10046978031201577 0 0.06264594965925295 0.1043487625169936 0 0.062258405774447696 0.098745422941253602 0 0.056761508443703715 0.094999454116520624 0 0.062258405774447696 0.098745422941253602 0 0.062329044424547966 0.094999168635968412 0 0.062258405774447696 0.098745422941253602 0 0.062329044424547966 0.094999168635968412 0 0.066510026588904245 0.097153422668251485 0 0.062329044424547966 0.094999168635968412 0 0.06789500739824