<?xml version="1.0"?>
<VTKFile type="UnstructuredGrid" version="0.1" byte_order="LittleEndian">
<UnstructuredGrid>
<Piece NumberOfPoints="30881" NumberOfCells="10862">
<Points>
<DataArray type="Float64" NumberOfComponents="3" format="ascii">
-0.49999999999999828 -0.48677703703187492 0 -0.5 -0.5 0 -0.48129281494584059 -0.49338851851593718 0 -0.5 -0.5 0 -0.48129281494584059 -0.49338851851593718 0 -0.46258562989168328 -0.5 0 -0.49999999999999828 -0.48677703703187492 0 -0.48129281494584059 -0.49338851851593718 0 -0.49999999999999828 -0.48677703703187492 0 -0.4824545428279598 -0.47451624516148783 0 -0.48129281494584059 -0.49338851851593718 0 -0.49999999999999828 -0.48677703703187492 0 -0.4824545428279598 -0.47451624516148783 0 -0.5 -0.46599539173150673 0 -0.4824545428279598 -0.47451624516148783 0 -0.46853075243710779 -0.48354990242643758 0 -0.46411508256092049 -0.46598235294430129 0 -0.4824545428279598 -0.47451624516148783 0 -0.48129281494584059 -0.49338851851593718 0 -0.46853075243710779 -0.48354990242643758 0 -0.48129281494584059 -0.49338851851593718 0 -0.46258562989168328 -0.5 0 -0.48129281494584059 -0.49338851851593718 0 -0.46258562989168328 -0.5 0 -0.46853075243710779 -0.48354990242643758 0 -0.46258562989168328 -0.5 0 -0.46853075243710779 -0.48354990242643758 0 -0.45147378687733691 -0.48362213557840178 0 -0.46853075243710779 -0.48354990242643758 0 -0.45147378687733691 -0.48362213557840178 0 -0.46411508256092049 -0.46598235294430129 0 -0.4457251648104853 -0.47020164095208389 0 -0.45147378687733691 -0.48362213557840178 0 -0.46411508256092049 -0.46598235294430129 0 -0.4457251648104853 -0.47020164095208389 0 -0.45147378687733691 -0.48362213557840178 0 -0.43513446131126993 -0.48199891714758791 0 -0.45147378687733691 -0.48362213557840178 0 -0.43275163025255442 -0.5 0 -0.43513446131126993 -0.48199891714758791 0 -0.46258562989168328 -0.5 0 -0.45147378687733691 -0.48362213557840178 0 -0.43275163025255442 -0.5 0 -0.4467190029717853 -0.45478934699519452 0 -0.4422915115958943 -0.43555510214664611 0 -0.43246707723660932 -0.44794326854796312 0 -0.4457251648104853 -0.47020164095208389 0 -0.4467190029717853 -0.45478934699519452 0 -0.46411508256092049 -0.46598235294430129 0 -0.4457251648104853 -0.47020164095208389 0 -0.4467190029717853 -0.45478934699519452 0 -0.43016578207734568 -0.46313500011938619 0 -0.4467190029717853 -0.45478934699519452 0 -0.46411508256092049 -0.46598235294430129 0 -0.47114575579794699 -0.4403844242888923 0 -0.4467190029717853 -0.45478934699519452 0 -0.47114575579794699 -0.4403844242888923 0 -0.4422915115958943 -0.43555510214664611 0 -0.47114575579794699 -0.4403844242888923 0 -0.4422915115958943 -0.43555510214664611 0 -0.46411508256092049 -0.46598235294430129 0 -0.47114575579794699 -0.4403844242888923 0 -0.48354307623736548 -0.45841843211146538 0 -0.4824545428279598 -0.47451624516148783 0 -0.46411508256092049 -0.46598235294430129 0 -0.48354307623736548 -0.45841843211146538 0 -0.4824545428279598 -0.47451624516148783 0 -0.48354307623736548 -0.45841843211146538 0 -0.5 -0.46599539173150673 0 -0.48354307623736548 -0.45841843211146538 0 -0.5 -0.46599539173150673 0 -0.49999999999999972 -0.44521374643113848 0 -0.47114575579794699 -0.4403844242888923 0 -0.49999999999999972 -0.44521374643113848 0 -0.47114575579794699 -0.4403844242888923 0 -0.49999999999999972 -0.44521374643113848 0 -0.48704432221743971 -0.42935617662229603 0 -0.47114575579794699 -0.4403844242888923 0 -0.48354307623736548 -0.45841843211146538 0 -0.49999999999999972 -0.44521374643113848 0 -0.49999999999999972 -0.44521374643113848 0 -0.48704432221743971 -0.42935617662229603 0 -0.5 -0.41591957503128979 0 -0.48704432221743971 -0.42935617662229603 0 -0.5 -0.41591957503128979 0 -0.47703153307181151 -0.41590696073786332 0 -0.5 -0.41591957503128979 0 -0.47703153307181151 -0.41590696073786332 0 -0.48817838912021821 -0.4022119694541284 0 -0.47114575579794699 -0.4403844242888923 0 -0.48704432221743971 -0.42935617662229603 0 -0.47703153307181151 -0.41590696073786332 0 -0.5 -0.38662540363144121 0 -0.47568202340906118 -0.39039593841591919 0 -0.4947615751445838 -0.37332156409002909 0 -0.47568202340906118 -0.39039593841591919 0 -0.4947615751445838 -0.37332156409002909 0 -0.5 -0.38662540363144121 0 -0.48817838912021821 -0.4022119694541284 0 -0.47568202340906118 -0.39039593841591919 0 -0.5 -0.41591957503128979 0 -0.5 -0.38662540363144121 0 -0.48817838912021821 -0.4022119694541284 0 -0.47703153307181151 -0.41590696073786332 0 -0.48817838912021821 -0.4022119694541284 0 -0.47568202340906118 -0.39039593841591919 0 -0.47703153307181151 -0.41590696073786332 0 -0.47568202340906118 -0.39039593841591919 0 -0.45660247167353862 -0.40747031274180939 0 -0.47568202340906118 -0.39039593841591919 0 -0.48030931097003587 -0.37191064435083931 0 -0.46669490250066459 -0.37481721741951951 0 -0.47568202340906118 -0.39039593841591919 0 -0.4947615751445838 -0.37332156409002909 0 -0.48030931097003587 -0.37191064435083931 0 -0.45332061783919553 -0.38729481725706361 0 -0.46669490250066459 -0.37481721741951951 0 -0.45095991715087752 -0.36968037302039969 0 -0.47568202340906118 -0.39039593841591919 0 -0.45332061783919553 -0.38729481725706361 0 -0.46669490250066459 -0.37481721741951951 0 -0.47568202340906118 -0.39039593841591919 0 -0.45660247167353862 -0.40747031274180939 0 -0.47568202340906118 -0.39039593841591919 0 -0.45332061783919553 -0.38729481725706361 0 -0.45660247167353862 -0.40747031274180939 0 -0.44332653075004852 -0.401690115615219 0 -0.44646247228389868 -0.41654464256061052 0 -0.42870657106664078 -0.39987574649354879 0 -0.45332061783919553 -0.38729481725706361 0 -0.44332653075004852 -0.401690115615219 0 -0.43479631603355468 -0.39077639303142497 0 -0.45332061783919553 -0.38729481725706361 0 -0.44332653075004852 -0.401690115615219 0 -0.45660247167353862 -0.40747031274180939 0 -0.45332061783919553 -0.38729481725706361 0 -0.43421362475025049 -0.37527491429266319 0 -0.43479631603355468 -0.39077639303142497 0 -0.45332061783919553 -0.38729481725706361 0 -0.43421362475025049 -0.37527491429266319 0 -0.45095991715087752 -0.36968037302039969 0 -0.47114575579794699 -0.4403844242888923 0 -0.45663439814062529 -0.42533932462455271 0 -0.4422915115958943 -0.43555510214664611 0 -0.47114575579794699 -0.4403844242888923 0 -0.47703153307181151 -0.41590696073786332 0 -0.45663439814062529 -0.42533932462455271 0 -0.45663439814062529 -0.42533932462455271 0 -0.45660247167353862 -0.40747031274180939 0 -0.44646247228389868 -0.41654464256061052 0 -0.47703153307181151 -0.41590696073786332 0 -0.45663439814062529 -0.42533932462455271 0 -0.45660247167353862 -0.40747031274180939 0 -0.44332653075004852 -0.401690115615219 0 -0.45660247167353862 -0.40747031274180939 0 -0.44646247228389868 -0.41654464256061052 0 -0.45660247167353862 -0.40747031274180939 0 -0.44646247228389868 -0.41654464256061052 0 -0.44646247228389868 -0.41654464256061052 0 -0.4375229199380159 -0.42454468706769971 0 -0.45663439814062529 -0.42533932462455271 0 -0.4375229199380159 -0.42454468706769971 0 -0.4422915115958943 -0.43555510214664611 0 -0.45663439814062529 -0.42533932462455271 0 -0.44646247228389868 -0.41654464256061052 0 -0.4375229199380159 -0.42454468706769971 0 -0.4375229199380159 -0.42454468706769971 0 -0.4422915115958943 -0.43555510214664611 0 -0.43077617074680319 -0.43406335077952207 0 -0.43077617074680319 -0.43406335077952207 0 -0.42550232634077589 -0.42345940056268039 0 -0.41950844772475421 -0.43888456563633732 0 -0.4375229199380159 -0.42454468706769971 0 -0.43077617074680319 -0.43406335077952207 0 -0.42550232634077589 -0.42345940056268039 0 -0.44646247228389868 -0.41654464256061052 0 -0.41657232816672918 -0.41306671883907142 0 -0.42870657106664078 -0.39987574649354879 0 -0.44646247228389868 -0.41654464256061052 0 -0.4375229199380159 -0.42454468706769971 0 -0.42550232634077589 -0.42345940056268039 0 -0.44646247228389868 -0.41654464256061052 0 -0.42550232634077589 -0.42345940056268039 0 -0.41657232816672918 -0.41306671883907142 0 -0.44646247228389868 -0.41654464256061052 0 -0.41657232816672918 -0.41306671883907142 0 -0.42550232634077589 -0.42345940056268039 0 -0.41657232816672918 -0.41306671883907142 0 -0.41333489101611293 -0.42699700567040988 0 -0.41657232816672918 -0.41306671883907142 0 -0.41333489101611293 -0.42699700567040988 0 -0.39893236021425188 -0.42931692235905211 0 -0.41333489101611293 -0.42699700567040988 0 -0.39893236021425188 -0.42931692235905211 0 -0.41950844772475421 -0.43888456563633732 0 -0.42550232634077589 -0.42345940056268039 0 -0.41333489101611293 -0.42699700567040988 0 -0.41950844772475421 -0.43888456563633732 0 -0.43421362475025049 -0.37527491429266319 0 -0.42478231784314502 -0.38643128255249681 0 -0.41656514696884139 -0.37636588688318029 0 -0.43421362475025049 -0.37527491429266319 0 -0.42478231784314502 -0.38643128255249681 0 -0.43479631603355468 -0.39077639303142497 0 -0.42478231784314502 -0.38643128255249681 0 -0.43479631603355468 -0.39077639303142497 0 -0.42870657106664078 -0.39987574649354879 0 -0.44332653075004852 -0.401690115615219 0 -0.43479631603355468 -0.39077639303142497 0 -0.42870657106664078 -0.39987574649354879 0 -0.41657232816672918 -0.41306671883907142 0 -0.40962993039643741 -0.3898634720616666 0 -0.3946356370269814 -0.39577424904278191 0 -0.42478231784314502 -0.38643128255249681 0 -0.42870657106664078 -0.39987574649354879 0 -0.40962993039643741 -0.3898634720616666 0 -0.41657232816672918 -0.41306671883907142 0 -0.42870657106664078 -0.39987574649354879 0 -0.40962993039643741 -0.3898634720616666 0 -0.42478231784314502 -0.38643128255249681 0 -0.40962993039643741 -0.3898634720616666 0 -0.41656514696884139 -0.37636588688318029 0 -0.40962993039643741 -0.3898634720616666 0 -0.41656514696884139 -0.37636588688318029 0 -0.40465459864295228 -0.37650109000307358 0 -0.39431275766669582 -0.38061373190328529 0 -0.40465459864295228 -0.37650109000307358 0 -0.3968495855878465 -0.36923685638487008 0 -0.40962993039643741 -0.3898634720616666 0 -0.39431275766669582 -0.38061373190328529 0 -0.40465459864295228 -0.376501090003
[...]
<PointData Scalars="" Vectors="displacement," Tensors="">
<DataArray type="Float64" Name="displacement" NumberOfComponents="3" format="ascii">
0.094999430490089992 -2.6231160720091519e-07 0 0.094998119155344729 5.2992349059906572e-07 0 0.092156160996700182 -8.9066586571158465e-08 0 0.094998119155344729 5.2992349059906572e-07 0 0.092156160996700182 -8.9066586571158465e-08 0 0.087895595325730505 -7.9590240474332489e-07 0 0.09499159524954541 1.3720632082008069e-06 0 0.091502069143056294 0.00012713170297053229 0 0.094994589447543049 1.6606683719975242e-06 0 0.092658840809593759 0.0006822333043316497 0 0.091262802223183073 0.00080722334219933758 0 0.094994589447543049 1.6606683719975242e-06 0 0.092658840809593759 0.0006822333043316497 0 0.094998595095471719 1.2116704318907431e-07 0 0.092658840809593759 0.0006822333043316497 0 0.090244348510137337 0.00057495599493493678 0 0.091020628743292281 0.00078549288619520277 0 0.092658840809593759 0.0006822333043316497 0 0.091262802223183073 0.00080722334219933758 0 0.090244348510137337 0.00057495599493493678 0 0.091502069143056294 0.00012713170297053229 0 0.087899925663422196 -9.0512266438919477e-07 0 0.091262802223183073 0.00080722334219933758 0 0.087890012590066763 3.0347449892553021e-06 0 0.090244348510137337 0.00057495599493493678 0 0.087890012590066763 3.0347449892553021e-06 0 0.090244348510137337 0.00057495599493493678 0 0.087913468459277624 0.00051089552363235583 0 0.090244348510137337 0.00057495599493493678 0 0.087913468459277624 0.00051089552363235583 0 0.091020628743292281 0.00078549288619520277 0 0.088824125726312764 0.0004326960015684242 0 0.087913468459277624 0.00051089552363235583 0 0.091020628743292281 0.00078549288619520277 0 0.088824125726312764 0.0004326960015684242 0 0.087913468459277624 0.00051089552363235583 0 0.086127769639983046 0.00017574680133234714 0 0.087913468459277624 0.00051089552363235583 0 0.082227362595246406 6.3629668618201255e-07 0 0.086127769639983046 0.00017574680133234714 0 0.087890012590066763 3.0347449892553021e-06 0 0.087913468459277624 0.00051089552363235583 0 0.082227362595246406 6.3629668618201255e-07 0 0.090372613410052108 0.00038000574128813628 0 0.091682039872912249 -6.3114632601094574e-05 0 0.090278089354151422 -0.00036226454525809193 0 0.088824125726312764 0.0004326960015684242 0 0.090372613410052108 0.00038000574128813628 0 0.091020628743292281 0.00078549288619520277 0 0.088824125726312764 0.0004326960015684242 0 0.090372613410052108 0.00038000574128813628 0 0.088656391511036853 -0.00027958505327318827 0 0.090372613410052108 0.00038000574128813628 0 0.091020628743292281 0.00078549288619520277 0 0.092227409756258441 0.0009239006683961884 0 0.090372613410052108 0.00038000574128813628 0 0.092227409756258441 0.0009239006683961884 0 0.091682039872912249 -6.3114632601094574e-05 0 0.09388722168076169 0.00035215824138014752 0 0.093434863032482898 9.8910594873881857e-05 0 0.091020628743292281 0.00078549288619520277 0 0.092227409756258441 0.0009239006683961884 0 0.093223976174249795 0.00057404611329963512 0 0.092658840809593759 0.0006822333043316497 0 0.091020628743292281 0.00078549288619520277 0 0.093223976174249795 0.00057404611329963512 0 0.092658840809593759 0.0006822333043316497 0 0.093223976174249795 0.00057404611329963512 0 0.094998595095471719 1.2116704318907431e-07 0 0.093223976174249795 0.00057404611329963512 0 0.094998595095471719 1.2116704318907431e-07 0 0.094995985912790473 7.9268234303347755e-07 0 0.09388722168076169 0.00035215824138014752 0 0.094997942088892326 6.4995594729499097e-07 0 0.093921367079824181 0.00022688294646867603 0 0.094999320191384379 9.6906798957690447e-08 0 0.094549852886041938 0.00012311000520726713 0 0.092227409756258441 0.0009239006683961884 0 0.093223976174249795 0.00057404611329963512 0 0.094995985912790473 7.9268234303347755e-07 0 0.094999320191384379 9.6906798957690447e-08 0 0.094549852886041938 0.00012311000520726713 0 0.094999135577395061 2.3881723198051769e-07 0 0.094549852886041938 0.00012311000520726713 0 0.094999135577395061 2.3881723198051769e-07 0 0.09427551096588567 0.00020939997655997102 0 0.094999135577395061 2.3881723198051769e-07 0 0.09427551096588567 0.00020939997655997102 0 0.094769035472086635 0.00014095230505783808 0 0.093921367079824181 0.00022688294646867603 0 0.094549852886041938 0.00012311000520726713 0 0.09427551096588567 0.00020939997655997102 0 0.094999181454581166 1.8899700038203918e-07 0 0.0947780881395206 0.00016097350988282318 0 0.094630866493691873 0.00012469238396889144 0 0.09289343909406135 -0.000503257716492746 0 0.093283355415231875 -0.00025423537153350232 0 0.094999181454581166 1.8899700038203918e-07 0 0.094769035472086635 0.00014095230505783808 0 0.0947780881395206 0.00016097350988282318 0 0.094999135577395061 2.3881723198051769e-07 0 0.094999181454581166 1.8899700038203918e-07 0 0.094769035472086635 0.00014095230505783808 0 0.09427551096588567 0.00020939997655997102 0 0.094769035472086635 0.00014095230505783808 0 0.0947780881395206 0.00016097350988282318 0 0.09427551096588567 0.00020939997655997102 0 0.0947780881395206 0.00016097350988282318 0 0.094049189888720935 -4.2495952438790412e-06 0 0.091472842680955679 -0.00041316216419639548 0 0.093602385323409046 -0.00029953854811991118 0 0.092661931745404727 -0.0010731755815012007 0 0.091472842680955679 -0.00041316216419639548 0 0.094630866493691873 0.00012469238396889144 0 0.093602385323409046 -0.00029953854811991118 0 0.091144832693113034 -0.0021412762938747684 0 0.092661931745404727 -0.0010731755815012007 0 0.092267939440442426 -0.0020417765794262235 0 0.091472842680955679 -0.00041316216419639548 0 0.091144832693113034 -0.0021412762938747684 0 0.092661931745404727 -0.0010731755815012007 0 0.09289343909406135 -0.000503257716492746 0 0.092184607180911718 -0.0010933023480614683 0 0.091472842680955679 -0.00041316216419639548 0 0.091144832693113034 -0.0021412762938747684 0 0.089644331244216099 -0.0019779777006838717 0 0.089951615761813333 -0.0029133781975060032 0 0.089159843971951466 -0.0027801231400181791 0 0.089968596859489811 -0.0037237401610287985 0 0.091144832693113034 -0.0021412762938747684 0 0.089951615761813333 -0.0029133781975060032 0 0.090365326119891634 -0.0033944710139989591 0 0.091144832693113034 -0.0021412762938747684 0 0.089951615761813333 -0.0029133781975060032 0 0.089644331244216099 -0.0019779777006838717 0 0.091144832693113034 -0.0021412762938747684 0 0.091068097409205365 -0.003349807320507458 0 0.090365326119891634 -0.0033944710139989591 0 0.091144832693113034 -0.0021412762938747684 0 0.091068097409205365 -0.003349807320507458 0 0.092267939440442426 -0.0020417765794262235 0 0.093921367079824181 0.00022688294646867603 0 0.093196466516976453 0.00014615961359803342 0 0.091682039872912249 -6.3114632601094574e-05 0 0.093921367079824181 0.00022688294646867603 0 0.09427551096588567 0.00020939997655997102 0 0.093196466516976453 0.00014615961359803342 0 0.093196466516976453 0.00014615961359803342 0 0.094049189888720935 -4.2495952438790412e-06 0 0.09328629176293772 -0.00023059095972752954 0 0.09427551096588567 0.00020939997655997102 0 0.093196466516976453 0.00014615961359803342 0 0.094049189888720935 -4.2495952438790412e-06 0 0.089951615761813333 -0.0029133781975060032 0 0.089644331244216099 -0.0019779777006838717 0 0.089159843971951466 -0.0027801231400181791 0 0.092184607180911718 -0.0010933023480614683 0 0.091818172486390084 -0.0014850473952530338 0 0.091818172486390084 -0.0014850473952530338 0 0.092009061560829983 -0.001237468219023898 0 0.093196466516976453 0.00014615961359803342 0 0.092017227473587621 -0.00044538819590990165 0 0.091682039872912249 -6.3114632601094574e-05 0 0.093196466516976453 0.00014615961359803342 0 0.09328629176293772 -0.00023059095972752954 0 0.092017227473587621 -0.00044538819590990165 0 0.092017227473587621 -0.00044538819590990165 0 0.091682039872912249 -6.3114632601094574e-05 0 0.091234814287337013 -0.00059424501437932084 0 0.091234814287337013 -0.00059424501437932084 0 0.091565640878076643 -0.00085868996723570629 0 0.090488140785781573 -0.0010947411553541139 0 0.092017227473587621 -0.00044538819590990165 0 0.091234814287337013 -0.00059424501437932084 0 0.091565640878076643 -0.00085868996723570629 0 0.089159843971951466 -0.0027801231400181791 0 0.089728783043197202 -0.0041490057143816371 0 0.089968596859489811 -0.0037237401610287985 0 0.09227455855896434 -0.00014868067719137095 0 0.092017227473587621 -0.00044538819590990165 0 0.091565640878076643 -0.00085868996723570629 0 0.09227455855896434 -0.00014868067719137095 0 0.091565640878076643 -0.00085868996723570629 0 0.091620945913275909 -0.0012522564805389541 0 0.091818172486390084 -0.0014850473952530338 0 0.091081723061282122 -0.0021398341802447581 0 0.091565640878076643 -0.00085868996723570629 0 0.091620945913275909 -0.0012522564805389541 0 0.090977929561633794 -0.001419029453305787 0 0.091620945913275909 -0.0012522564805389541 0 0.090977929561633794 -0.001419029453305787 0 0.090495245634966054 -0.0021166724594418903 0 0.090977929561633794 -0.001419029453305787 0 0.090495245634966054 -0.0021166724594418903 0 0.090488140785781573 -0.0010947411553541139 0 0.091565640878076643 -0.00085868996723570629 0 0.090977929561633794 -0.001419029453305787 0 0.090488140785781573 -0.0010947411553541139 0 0.091068097409205365 -0.003349807320507458 0 0.090195589588048922 -0.0039087324132288607 0 0.090056848469067641 -0.0043717130710833971 0 0.091068097409205365 -0.003349807320507458 0 0.090195589588048922 -0.0039087324132288607 0 0.090365326119891634 -0.0033944710139989591 0 0.090195589588048922 -0.0039087324132288607 0 0.090365326119891634 -0.0033944710139989591 0 0.089968596859489811 -0.0037237401610287985 0 0.089951615761813333 -0.0029133781975060032 0 0.090365326119891634 -0.0033944710139989591 0 0.089968596859489811 -0.0037237401610287985 0 0.089728783043197202 -0.0041490057143816371 0 0.08979451575461421 -0.004243433794340442 0 0.08973887686221424 -0.0038194751471073351 0 0.090195589588048922 -0.0039087324132288607 0 0.089968596859489811 -0.0037237401610287985 0 0.08979451575461421 -0.004243433794340442 0 0.089728783043197202 -0.0041490057143816371 0 0.089968596859489811 -0.0037237401610287985 0 0.08979451575461421 -0.004243433794340442 0 0.090195589588048922 -0.0039087324132288607 0 0.08979451575461421 -0.004243433794340442 0 0.090056848469067641 -0.0043717130710833971 0 0.08979451575461421 -0.004243433794340442 0 0.090056848469067641 -0.0043717130710833971 0 0.089382768776271604 -0.004385462449362415 0 0.08907056929797573 -0.0038571255386812189 0 0.089382768776271604 -0.004385462449362415 0 0.088504477677328844 -0.0040961181495475672 0 0.08979451575461421 -0.004243433794340442 0 0.08907056929797573 -0.0038571255386812189 0 0.089382768776271604 -0.004385462449362415 0 0.08979451575461421 -0.004243433794340442 0 0.08907056929797573 -0.0038571255386812189 0 0.08973887686221424 -0.0038194751471073351 0 0.08973887686221424 -0.0038194751471073351 0 0.090181240822598513 -0.0034284244496833958 0 0.089557183651243766 -0.0026315691392288535 0 0.08973887686221424 -0.0038194751471073351 0 0.08846232747441557 -0.002509017056678903 0 0.089557183651243766 -0.0026315691392288535 0 0.08907056929797573 -0.0038571255386812189 0 0.08973887686221424 -0.0038194751471073351 0 0.08846232747441557 -0.002509017056678903 0 0.08907056929797573 -0.0038571255386812189 0 0.08846232747441557 -0.002509017056678903 0 0.087917879679120653 -0.0032048505723941256 0 0.091620945913275909 -0.0012522564805389541 0 0.090495245634966054 -0.0021166724594418903 0 0.090727709635495535 -0.0025827358602087598 0 0.089728783043197202 -0.0041490057143816371 0 0.08973887686221424 -0.0038194751471073351 0 0.090181240822598513 -0.0034284244496833958 0 0.091081723061282122 -0.0021398341802447581 0 0.09071084284987152 -0.0024198914934366478 0 0.090727709635495535 -0.0025827358602087598 0 0.09028861827395851 -0.0026617337769465582 0 0.090227916649525522 -0.0024488302869906018 0 0.09028861827395851 -0.0026617337769465582 0 0.089448765057747556 -0.0028587192365417523 0 0.089964868025403377 -0.002864592030494259 0 0.090495245634966054 -0.0021166724594418903 0 0.09028861827395851 -0.0026617337769465582 0 0.089448765057747556 -0.0028587192365417523 0 0.090495245634966054 -0.0021166724594418903 0 0.090727709635495535 -0.0025827358602087598 0 0.09028861827395851 -0.0026617337769465582 0 0.089448765057747556 -0.0028587192365417523 0 0.08917055723458267 -0.0019287084766977333 0 0.087732390398126997 -0.0029250665734523998 0 0.090495245634966054 -0.0021166724594418903 0 0.089448765057747556 -0.0028587192365417523 0 0.08917055723458267 -0.0019287084766977333 0 0.08917055723458267 -0.0019287084766977333 0 0.087732390398126997 -0.0029250665734523998 0 0.086878415954304303 -0.0021578610429673997 0 0.089448765057747556 -0.0028587192365417523 0 0.087732390398126997 -0.0029250665734523998 0 0.088164872215504245 -0.0035341297840609932 0 0.087732390398126997 -0.0029250665734523998 0 0.086293116306732739 -0.003654040417940165 0 0.088164872215504245 -0.0035341297840609932 0 0.086293116306732739 -0.003654040417940165 0 0.084281829448108483 -0.0032530629734877198 0 0.085964255225272526 -0.0029171117144843333 0 0.087732390398126997 -0.0029250665734523998 0 0.086293116306732739 -0.003654040417940165 0 0.085964255225272526 -0.0029171117144843333 0 0.074356943322044899 0.0002798546529386096 0 0.071152800219523277 -0.0014939528397172029 0 0.074600895690378824 -3.1765953787788405e-05 0 0.07655685913400595 -2.6580296794839891e-06 0 0.070888273758230008 6.0706483630897846e-07 0 0.074600895690378824 -3.1765953787788405e-05 0 0.071173406030295525 -0.00013057606589414946 0 0.070888273758230008 6.0706483630897846e-07 0 0.086293116306732739 -0.003654040417940165 0 0.084281829448108483 -0.0032530629734877198 0 0.084899920257460904 -0.0044186185982126253 0 0.074356943322044899 0.0002798546529386096 0 0.075454958979473463 0.0012413370204357301 0 0.084281829448108483 -0.0032530629734877198 0 0.085964255225272526 -0.0029171117144843333 0 0.084778780799408635 -0.0021592529962569983 0 0.074600895690378824 -3.1765953787788405e-05 0 0.07655685913400595 -2.6580296794839891e-06 0 0.081299255150962951 -0.0004694629721263882 0 0.084281829448108483 -0.0032530629734877198 0 0.084778780799408635 -0.0021592529962569983 0 0.081299255150962951 -0.0004694629721263882 0 0.087732390398126997 -0.0029250665734523998 0 0.085964255225272526 -0.0029171117144843333 0 0.086878415954304303 -0.0021578610429673997 0 0.085964255225272526 -0.0029171117144843333 0 0.084778780799408635 -0.0021592529962569983 0 0.086878415954304303 -0.0021578610429673997 0 0.086878415954304303 -0.0021578610429673997 0 0.08615654634173657 -0.00072588717577919603 0 0.088182848907440145 -0.0011938163972753505 0 0.084778780799408635 -0.0021592529962569983 0 0.08615654634173657 -0.00072588717577919603 0 0.081299255150962951 -0.0004694629721263882 0 0.084778780799408635 -0.0021592529962569983 0 0.086878415954304303 -0.0021578610429673997 0 0.08615654634173657 -0.00072588717577919603 0 0.08615654634173657 -0.00072588717577919603 0 0.081299255150962951 -0.0004694629721263882 0 0.083818008088023269 -0.00018086867074047482 0 0.07655685913400595 -2.6580296794839891e-06 0 0.081299255150962951 -0.0004694629721263882 0 0.082227362595246406 6.3629668618201255e-07 0 0.081299255150962951 -0.0004694629721263882 0 0.083818008088023269 -0.00018086867074047482 0 0.082227362595246406 6.3629668618201255e-07 0 0.083818008088023269 -0.00018086867074047482 0 0.082227362595246406 6.3629668618201255e-07 0 0.086127769639983046 0.00017574680133234714 0 0.088824125726312764 0.0004326960015684242 0 0.086127769639983046 0.00017574680133234714 0 0.088656391511036853 -0.00027958505327318827 0 0.08615654634173657 -0.00072588717577919603 0 0.086127769639983046 0.00017574680133234714 0 0.088656391511036853 -0.00027958505327318827 0 0.08615654634173657 -0.00072588717577919603 0 0.083818008088023269 -0.00018086867074047482 0 0.086127769639983046 0.00017574680133234714 0 0.090372613410052108 0.00038000574128813628 0 0.088656391511036853 -0.00027958505327318827 0 0.090278089354151422 -0.00036226454525809193 0 0.088656391511036853 -0.00027958505327318827 0 0.089448088181011007 -0.00095755838068609198 0 0.088182848907440145 -0.0011938163972753505 0 0.088656391511036853 -0.00027958505327318827 0 0.090278089354151422 -0.00036226454525809193 0 0.089448088181011007 -0.00095755838068609198 0 0.091682039872912249 -6.3114632601094574e-05 0 0.091234814287337013 -0.00059424501437932084 0 0.090278089354151422 -0.00036226454525809193 0 0.091234814287337013 -0.00059424501437932084 0 0.090278089354151422 -0.00036226454525809193 0 0.090488140785781573 -0.0010947411553541139 0 0.090278089354151422 -0.00036226454525809193 0 0.089448088181011007 -0.00095755838068609198 0 0.090488140785781573 -0.0010947411553541139 0 0.090495245634966054 -0.0021166724594418903 0 0.08917055723458267 -0.0019287084766977333 0 0.090488140785781573 -0.0010947411553541139 0 0.08917055723458267 -0.0019287084766977333 0 0.089448088181011007 -0.00095755838068609198 0 0.090488140785781573 -0.0010947411553541139 0 0.08917055723458267 -0.0019287084766977333 0 0.089448088181011007 -0.00095755838068609198 0 0.088182848907440145 -0.0011938163972753505 0 0.08917055723458267 -0.0019287084766977333 0 0.086878415954304303 -0.0021578610429673997 0 0.088182848907440145 -0.0011938163972753505 0 0.08615654634173657 -0.00072588717577919603 0 0.088656391511036853 -0.00027958505327318827 0 0.088182848907440145 -0.0011938163972753505 0 0.094686732733711892 9.8257418582894493e-05 0 0.09470583060128375 3.2314501660738716e-05 0 0.094678251247650655 7.8648652137483036e-05 0 0.094686732733711892 9.8257418582894493e-05 0 0.094760058402905745 -1.4869306357007717e-05 0 0.09470583060128375 3.2314501660738716e-05 0 0.094686732733711892 9.8257418582894493e-05 0 0.094678251247650655 7.8648652137483036e-05 0 0.094612003098021841 0.0001673419423530313 0 0.094686732733711892 9.8257418582894493e-05 0 0.094760058402905745 -1.4869306357007717e-05 0 0.094837664739059482 -2.3980155934354714e-05 0 0.094760058402905745 -1.4869306357007717e-05 0 0.094837664739059482 -2.3980155934354714e-05 0 0.094852117982397788 -0.00015245097871075748 0 0.094837664739059482 -2.3980155934354714e-05 0 0.094798170154875017 -5.9845103280546916e-05 0 0.094622598378702197 0.00013135958753705652 0 0.094686732733711892 9.8257418582894493e-05 0 0.094837664739059482 -2.3980155934354714e-05 0 0.094622598378702197 0.00013135958753705652 0 0.094686732733711892 9.8257418582894493e-05 0 0.094622598378702197 0.00013135958753705652 0 0.094612003098021841 0.0001673419423530313 0 0.094798170154875017 -5.9845103280546916e-05 0 0.094999997282220819 4.2332616975777385e-08 0 0.094999013089474449 -5.8626831676263263e-07 0 0.094798170154875017 -5.9845103280546916e-05 0 0.094999997282220819 4.2332616975777385e-08 0 0.094946945839137487 -7.0089503479119642e-05 0 0.094837664739059482 -2.3980155934354714e-05 0 0.094798170154875017 -5.9845103280546916e-05 0 0.094946945839137487 -7.0089503479119642e-05 0 0.094837664739059482 -2.3980155934354714e-05 0 0.094946945839137487 -7.0089503479119642e-05 0 0.094932029902732237 -0.00016200466595060325 0 0.094946945839137487 -7.0089503479119642e-05 0 0.094999916501498513 -1.0699408950803296e-07 0 0.094932029902732237 -0.00016200466595060325 0 0.094999997282220819 4.2332616975777385e-08 0 0.094946945839137487 -7.0089503479119642e-05 0 0.094999916501498513 -1.0699408950803296e-07 0 0.094999916501498513 -1.0699408950803296e-07 0 0.094932029902732237 -0.00016200466595060325 0 0.094923422319352677 -0.0002275556260613029 0 0.094932029902732237 -0.00016200466595060325 0 0.094852117982397788 -0.00015245097871075748 0 0.09482037918881718 -0.00046920722778042437 0 0.094837664739059482 -2.3980155934354714e-05 0 0.094932029902732237 -0.00016200466595060325 0 0.094852117982397788 -0.00015245097871075748 0 0.094760058402905745 -1.4869306357007717e-05 0 0.094852117982397788 -0.00015245097871075748 0 0.094812905355086532 -6.454220038158624