<?xml version="1.0"?>
<VTKFile type="UnstructuredGrid" version="0.1" byte_order="LittleEndian">
<UnstructuredGrid>
<Piece NumberOfPoints="31048" NumberOfCells="10933">
<Points>
<DataArray type="Float64" NumberOfComponents="3" format="ascii">
-0.5 -0.5 0 -0.45966401123466488 -0.49658733248650311 0 -0.40896344978824928 -0.5 0 -0.5 -0.5 0 -0.49999999999999772 -0.47600230024017931 0 -0.47846481948080899 -0.47835377823494579 0 -0.5 -0.5 0 -0.47846481948080899 -0.47835377823494579 0 -0.45966401123466488 -0.49658733248650311 0 -0.49999999999999772 -0.47600230024017931 0 -0.47846481948080899 -0.47835377823494579 0 -0.48663031278447982 -0.45896074991701058 0 -0.49999999999999772 -0.47600230024017931 0 -0.47846481948080899 -0.47835377823494579 0 -0.47846481948080899 -0.47835377823494579 0 -0.45966401123466488 -0.49658733248650311 0 -0.45692963896162048 -0.48070525622971388 0 -0.45966401123466488 -0.49658733248650311 0 -0.45692963896162048 -0.48070525622971388 0 -0.47846481948080899 -0.47835377823494579 0 -0.45692963896162048 -0.48070525622971388 0 -0.46588888375070592 -0.46675240324930273 0 -0.45692963896162048 -0.48070525622971388 0 -0.45291178277604027 -0.45736831013892187 0 -0.47846481948080899 -0.47835377823494579 0 -0.45692963896162048 -0.48070525622971388 0 -0.45692963896162048 -0.48070525622971388 0 -0.44630962018671372 -0.46961798428304857 0 -0.45291178277604027 -0.45736831013892187 0 -0.45692963896162048 -0.48070525622971388 0 -0.44630962018671372 -0.46961798428304857 0 -0.43000179547083378 -0.48364557202407898 0 -0.45692963896162048 -0.48070525622971388 0 -0.43000179547083378 -0.48364557202407898 0 -0.45966401123466488 -0.49658733248650311 0 -0.45692963896162048 -0.48070525622971388 0 -0.43000179547083378 -0.48364557202407898 0 -0.45291178277604027 -0.45736831013892187 0 -0.44889392659046018 -0.43403136404812981 0 -0.44576964967754928 -0.44775750114313551 0 -0.45291178277604027 -0.45736831013892187 0 -0.44889392659046018 -0.43403136404812981 0 -0.44576964967754928 -0.44775750114313551 0 -0.4420236995768253 -0.43889794657762188 0 -0.44889392659046018 -0.43403136404812981 0 -0.4420236995768253 -0.43889794657762188 0 -0.43795457363143991 -0.44704478416018989 0 -0.4353432285932719 -0.4354544262594332 0 -0.44576964967754928 -0.44775750114313551 0 -0.4420236995768253 -0.43889794657762188 0 -0.43795457363143991 -0.44704478416018989 0 -0.44576964967754928 -0.44775750114313551 0 -0.43795457363143991 -0.44704478416018989 0 -0.44144336127146788 -0.45782316793564931 0 -0.44630962018671372 -0.46961798428304857 0 -0.44144336127146788 -0.45782316793564931 0 -0.4342616214588958 -0.46725457514822838 0 -0.44630962018671372 -0.46961798428304857 0 -0.44144336127146788 -0.45782316793564931 0 -0.45291178277604027 -0.45736831013892187 0 -0.44576964967754928 -0.44775750114313551 0 -0.44144336127146788 -0.45782316793564931 0 -0.45291178277604027 -0.45736831013892187 0 -0.45692963896162048 -0.48070525622971388 0 -0.45291178277604027 -0.45736831013892187 0 -0.46588888375070592 -0.46675240324930273 0 -0.45291178277604027 -0.45736831013892187 0 -0.45966933447960318 -0.45572426184337628 0 -0.46575185313353917 -0.45925153041176398 0 -0.45291178277604027 -0.45736831013892187 0 -0.46588888375070592 -0.46675240324930273 0 -0.46575185313353917 -0.45925153041176398 0 -0.46588888375070592 -0.46675240324930273 0 -0.46575185313353917 -0.45925153041176398 0 -0.47444295785175589 -0.4593023255142048 0 -0.45966933447960318 -0.45572426184337628 0 -0.46575185313353917 -0.45925153041176398 0 -0.46790989392199378 -0.45216716007609492 0 -0.45966933447960318 -0.45572426184337628 0 -0.46599162139971789 -0.43886018175947239 0 -0.46397647541351938 -0.44185953462894217 0 -0.46599162139971789 -0.43886018175947239 0 -0.46790989392199378 -0.45216716007609492 0 -0.47105949878466319 -0.43114296985480949 0 -0.45966933447960318 -0.45572426184337628 0 -0.46599162139971789 -0.43886018175947239 0 -0.46790989392199378 -0.45216716007609492 0 -0.45966933447960318 -0.45572426184337628 0 -0.46599162139971789 -0.43886018175947239 0 -0.45291178277604027 -0.45736831013892187 0 -0.46397647541351938 -0.44185953462894217 0 -0.44889392659046018 -0.43403136404812981 0 -0.45291178277604027 -0.45736831013892187 0 -0.45966933447960318 -0.45572426184337628 0 -0.46397647541351938 -0.44185953462894217 0 -0.46790989392199378 -0.45216716007609492 0 -0.47710204910637383 -0.42416254534193581 0 -0.46790989392199378 -0.45216716007609492 0 -0.48005421812543569 -0.43942908164429162 0 -0.47710204910637383 -0.42416254534193581 0 -0.46790989392199378 -0.45216716007609492 0 -0.47962785556108539 -0.45003824052489749 0 -0.48005421812543569 -0.43942908164429162 0 -0.47962785556108539 -0.45003824052489749 0 -0.48005421812543569 -0.43942908164429162 0 -0.48868798392767793 -0.44201763362024438 0 -0.47846481948080899 -0.47835377823494579 0 -0.46588888375070592 -0.46675240324930273 0 -0.47444295785175589 -0.4593023255142048 0 -0.47846481948080899 -0.47835377823494579 0 -0.47444295785175589 -0.4593023255142048 0 -0.48663031278447982 -0.45896074991701058 0 -0.46790989392199378 -0.45216716007609492 0 -0.47962785556108539 -0.45003824052489749 0 -0.47444295785175589 -0.4593023255142048 0 -0.46575185313353917 -0.45925153041176398 0 -0.46790989392199378 -0.45216716007609492 0 -0.47444295785175589 -0.4593023255142048 0 -0.47962785556108539 -0.45003824052489749 0 -0.47444295785175589 -0.4593023255142048 0 -0.48663031278447982 -0.45896074991701058 0 -0.49999999999999772 -0.47600230024017931 0 -0.48663031278447982 -0.45896074991701058 0 -0.5 -0.45043107386881692 0 -0.5 -0.45043107386881692 0 -0.48868798392767793 -0.44201763362024438 0 -0.5 -0.42485984749745448 0 -0.47962785556108539 -0.45003824052489749 0 -0.48663031278447982 -0.45896074991701058 0 -0.48868798392767793 -0.44201763362024438 0 -0.48663031278447982 -0.45896074991701058 0 -0.5 -0.45043107386881692 0 -0.48868798392767793 -0.44201763362024438 0 -0.48868798392767793 -0.44201763362024438 0 -0.48879895941858131 -0.42945493301215171 0 -0.5 -0.42485984749745448 0 -0.48005421812543569 -0.43942908164429162 0 -0.48868798392767793 -0.44201763362024438 0 -0.48879895941858131 -0.42945493301215171 0 -0.48879895941858131 -0.42945493301215171 0 -0.48637954663565369 -0.42293705884680671 0 -0.49075502247517022 -0.42076817690049412 0 -0.48879895941858131 -0.42945493301215171 0 -0.5 -0.42485984749745448 0 -0.49075502247517022 -0.42076817690049412 0 -0.5 -0.42485984749745448 0 -0.49178400022208502 -0.41002789218281499 0 -0.5 -0.39928862112609209 0 -0.5 -0.42485984749745448 0 -0.49178400022208502 -0.41002789218281499 0 -0.49075502247517022 -0.42076817690049412 0 -0.49178400022208502 -0.41002789218281499 0 -0.48508458381982911 -0.41298753957730511 0 -0.48463967985132689 -0.40119856782122698 0 -0.49178400022208502 -0.41002789218281499 0 -0.48508458381982911 -0.41298753957730511 0 -0.4868126060995307 -0.41656115296324231 0 -0.49178400022208502 -0.41002789218281499 0 -0.49075502247517022 -0.42076817690049412 0 -0.4868126060995307 -0.41656115296324231 0 -0.48637954663565369 -0.42293705884680671 0 -0.49075502247517022 -0.42076817690049412 0 -0.4868126060995307 -0.41656115296324231 0 -0.47710204910637383 -0.42416254534193581 0 -0.48463967985132689 -0.40119856782122698 0 -0.47231390831983278 -0.42199610167556861 0 -0.48154260554655492 -0.39737945724483481 0 -0.48508458381982911 -0.41298753957730511 0 -0.47710204910637383 -0.42416254534193581 0 -0.48463967985132689 -0.40119856782122698 0 -0.48637954663565369 -0.42293705884680671 0 -0.4868126060995307 -0.41656115296324231 0 -0.47710204910637383 -0.42416254534193581 0 -0.47553249120311331 -0.40762552545486341 0 -0.47231390831983278 -0.42199610167556861 0 -0.48154260554655492 -0.39737945724483481 0 -0.47231390831983278 -0.42199610167556861 0 -0.48463967985132689 -0.40119856782122698 0 -0.48154260554655492 -0.39737945724483481 0 -0.47231390831983278 -0.42199610167556861 0 -0.47710204910637383 -0.42416254534193581 0 -0.48463967985132689 -0.40119856782122698 0 -0.48508458381982911 -0.41298753957730511 0 -0.4868126060995307 -0.41656115296324231 0 -0.47710204910637383 -0.42416254534193581 0 -0.47553249120311331 -0.40762552545486341 0 -0.47148754737094928 -0.41024777641391352 0 -0.47188226019967122 -0.41422254246750029 0 -0.46925429150769538 -0.41284899187400492 0 -0.47148754737094928 -0.41024777641391352 0 -0.47188226019967122 -0.41422254246750029 0 -0.46925429150769538 -0.41284899187400492 0 -0.47148754737094928 -0.41024777641391352 0 -0.46865892537956277 -0.40941828865034202 0 -0.47553249120311331 -0.40762552545486341 0 -0.47148754737094928 -0.41024777641391352 0 -0.47091700398815578 -0.40664614660913562 0 -0.47148754737094928 -0.41024777641391352 0 -0.47091700398815578 -0.40664614660913562 0 -0.46865892537956277 -0.40941828865034202 0 -0.47091700398815578 -0.40664614660913562 0 -0.46760452559658178 -0.40599474626548587 0 -0.46865892537956277 -0.40941828865034202 0 -0.47553249120311331 -0.40762552545486341 0 -0.47188226019967122 -0.41422254246750029 0 -0.47231390831983278 -0.42199610167556861 0 -0.46925429150769538 -0.41284899187400492 0 -0.47188226019967122 -0.41422254246750029 0 -0.46871474998237039 -0.41726916442086359 0 -0.47188226019967122 -0.41422254246750029 0 -0.47231390831983278 -0.42199610167556861 0 -0.46871474998237039 -0.41726916442086359 0 -0.46599162139971789 -0.43886018175947239 0 -0.47231390831983278 -0.42199610167556861 0 -0.46790989392199378 -0.45216716007609492 0 -0.47105949878466319 -0.43114296985480949 0 -0.47710204910637383 -0.42416254534193581 0 -0.47231390831983278 -0.42199610167556861 0 -0.47105949878466319 -0.43114296985480949 0 -0.47710204910637383 -0.42416254534193581 0 -0.46599162139971789 -0.43886018175947239 0 -0.47231390831983278 -0.42199610167556861 0 -0.47105949878466319 -0.43114296985480949 0 -0.47231390831983278 -0.42199610167556861 0 -0.47710204910637383 -0.42416254534193581 0 -0.48005421812543569 -0.43942908164429162 0 -0.48879895941858131 -0.42945493301215171 0 -0.47710204910637383 -0.42416254534193581 0
[...]
<PointData Scalars="" Vectors="displacement," Tensors="">
<DataArray type="Float64" Name="displacement" NumberOfComponents="3" format="ascii">
-8.7150100485575832e-07 -0.034997182224206662 0 -8.5280234121098281e-07 -0.034977601837725768 0 3.4795619283039834e-07 -0.035000556721266868 0 -8.7150100485575832e-07 -0.034997182224206662 0 1.3848290723529678e-06 -0.033324709403013693 0 4.0794851559941583e-05 -0.034675760525228125 0 -8.7150100485575832e-07 -0.034997182224206662 0 4.0794851559941583e-05 -0.034675760525228125 0 -8.5280234121098281e-07 -0.034977601837725768 0 2.005042995577976e-06 -0.033317064901006534 0 0.00066207764803091599 -0.031355719574700347 0 -0.00014334166599716999 -0.031579357986420316 0 2.4508738645545213e-07 -0.033319456719628306 0 0.00022656591722792517 -0.033489284694090425 0 4.0794851559941583e-05 -0.034675760525228125 0 -8.5280234121098281e-07 -0.034977601837725768 0 0.00010187928205930441 -0.034931656159621585 0 -7.6690303469215481e-05 -0.034704343349574583 0 0.0012781879985599074 -0.030249221833385683 0 0.00066207764803091599 -0.031355719574700347 0 0.00075354150989209007 -0.030450953503533221 0 0.0002222261284707278 -0.030789603354031969 0 0.0012781879985599074 -0.030249221833385683 0 0.0012095841837763534 -0.025471848939508764 0 0.00022656591722792517 -0.033489284694090425 0 0.0012781879985599074 -0.030249221833385683 0 0.0021925239791550726 -0.021410978081951602 0 0.0023549221552801869 -0.021504692840927854 0 0.0025746694705836418 -0.021431622837872668 0 0.0021925239791550726 -0.021410978081951602 0 0.0023549221552801869 -0.021504692840927854 0 0.0020118125901846442 -0.02164503833928666 0 0.0012781879985599074 -0.030249221833385683 0 0.00099003478264960451 -0.027855240729419452 0 -8.5280234121098281e-07 -0.034977601837725768 0 1.9551568789999176e-05 -0.034937901189435537 0 1.4659509761774287e-05 -0.034953424133167842 0 0.0012095841837763534 -0.025471848939508764 0 0.0012605040024157048 -0.026144206093342753 0 0.0027448877532572223 -0.021597750927874311 0 0.0025746694705836418 -0.021431622837872668 0 0.0029411835621164311 -0.021677164865726455 0 0.0027448877532572223 -0.021597750927874311 0 0.0028799927586881987 -0.021699550255532513 0 0.0029411835621164311 -0.021677164865726455 0 0.0028799927586881987 -0.021699550255532513 0 0.002784014212197245 -0.021687544275367086 0 0.0029311826194778389 -0.021778479783549177 0 0.0027448877532572223 -0.021597750927874311 0 0.0028799927586881987 -0.021699550255532513 0 0.002784014212197245 -0.021687544275367086 0 0.0027448877532572223 -0.021597750927874311 0 0.002784014212197245 -0.021687544275367086 0 0.002583512184891982 -0.021593674105034346 0 0.0023549221552801869 -0.021504692840927854 0 0.002583512184891982 -0.021593674105034346 0 0.0023946891598667624 -0.021639451766798292 0 0.0023549221552801869 -0.021504692840927854 0 0.002583512184891982 -0.021593674105034346 0 0.0025746694705836418 -0.021431622837872668 0 0.0027448877532572223 -0.021597750927874311 0 0.002583512184891982 -0.021593674105034346 0 0.0025746694705836418 -0.021431622837872668 0 0.00075354150989209007 -0.030450953503533221 0 -0.00010015867772118465 -0.030350925573802874 0 0.0002222261284707278 -0.030789603354031969 0 -0.00010015867772118465 -0.030350925573802874 0 -0.00011576808625695765 -0.030519170329447298 0 -2.1605411735098131e-05 -0.030766129557306784 0 -0.00010015867772118465 -0.030350925573802874 0 0.0002222261284707278 -0.030789603354031969 0 -2.1605411735098131e-05 -0.030766129557306784 0 0.0002222261284707278 -0.030789603354031969 0 -2.1605411735098131e-05 -0.030766129557306784 0 -6.6561492780888118e-05 -0.031065806533435488 0 -0.00011576808625695765 -0.030519170329447298 0 -2.1605411735098131e-05 -0.030766129557306784 0 -0.00024521684512821836 -0.030887637095285633 0 -0.00011576808625695765 -0.030519170329447298 0 -0.00025772179071607463 -0.030372166936778459 0 -0.00023197489194456923 -0.030392546785847747 0 -0.00060709986540479302 -0.030802677107204569 0 -0.00024521684512821836 -0.030887637095285633 0 -0.00079334375846669468 -0.030900519851301263 0 -0.00011576808625695765 -0.030519170329447298 0 -0.00060709986540479302 -0.030802677107204569 0 -0.00024521684512821836 -0.030887637095285633 0 7.0452102678585451e-05 -0.030432428843662471 0 -0.0009956856554004525 -0.030836484740063261 0 -0.00010015867772118465 -0.030350925573802874 0 -0.00023197489194456923 -0.030392546785847747 0 -0.0002738815442127987 -0.030213644649322247 0 -0.00010015867772118465 -0.030350925573802874 0 -0.00011576808625695765 -0.030519170329447298 0 -0.00023197489194456923 -0.030392546785847747 0 -0.00065156458118418702 -0.031523667888469213 0 0.00030723806332969971 -0.028833966248576037 0 -0.00024521684512821836 -0.030887637095285633 0 -0.00014378157903321531 -0.030804750086342064 0 0.00013244229132139922 -0.030770623683941855 0 -0.00024521684512821836 -0.030887637095285633 0 -0.00020011681435221738 -0.031049079280726491 0 -0.00014378157903321531 -0.030804750086342064 0 -0.00020011681435221738 -0.031049079280726491 0 -0.00014378157903321531 -0.030804750086342064 0 -0.0001248004633438047 -0.030822428604939969 0 0.00066207764803091599 -0.031355719574700347 0 0.0002222261284707278 -0.030789603354031969 0 -6.6561492780888118e-05 -0.031065806533435488 0 0.00066207764803091599 -0.031355719574700347 0 -6.6561492780888118e-05 -0.031065806533435488 0 -0.00014334166599716999 -0.031579357986420316 0 -0.00024521684512821836 -0.030887637095285633 0 -0.00020011681435221738 -0.031049079280726491 0 -6.6561492780888118e-05 -0.031065806533435488 0 -2.1605411735098131e-05 -0.030766129557306784 0 -0.00024521684512821836 -0.030887637095285633 0 -6.6561492780888118e-05 -0.031065806533435488 0 -0.00020011681435221738 -0.031049079280726491 0 -6.6561492780888118e-05 -0.031065806533435488 0 -0.00014334166599716999 -0.031579357986420316 0 2.005042995577976e-06 -0.033317064901006534 0 -0.00014334166599716999 -0.031579357986420316 0 -1.0903898562954267e-06 -0.031530507451073379 0 -1.0903898562954267e-06 -0.031530507451073379 0 -0.0001248004633438047 -0.030822428604939969 0 1.3966442657160227e-07 -0.029740092536693963 0 -0.00020011681435221738 -0.031049079280726491 0 -0.00014334166599716999 -0.031579357986420316 0 -0.0001248004633438047 -0.030822428604939969 0 -0.00014334166599716999 -0.031579357986420316 0 -1.0903898562954267e-06 -0.031530507451073379 0 -0.0001248004633438047 -0.030822428604939969 0 -0.0001248004633438047 -0.030822428604939969 0 2.2712135653416223e-05 -0.030101749751136456 0 1.3966442657160227e-07 -0.029740092536693963 0 -0.00014378157903321531 -0.030804750086342064 0 -0.0001248004633438047 -0.030822428604939969 0 2.2712135653416223e-05 -0.030101749751136456 0 2.2712135653416223e-05 -0.030101749751136456 0 -3.3502654037593343e-05 -0.029612758599869681 0 -3.5123390172195763e-05 -0.029513682703092185 0 2.2712135653416223e-05 -0.030101749751136456 0 1.3966442657160227e-07 -0.029740092536693963 0 -3.5123390172195763e-05 -0.029513682703092185 0 1.3966442657160227e-07 -0.029740092536693963 0 -6.6978222395151077e-05 -0.028840550157494829 0 -2.7788372253134213e-07 -0.027950644257658471 0 1.3966442657160227e-07 -0.029740092536693963 0 -6.6978222395151077e-05 -0.028840550157494829 0 -3.5123390172195763e-05 -0.029513682703092185 0 -6.6978222395151077e-05 -0.028840550157494829 0 -6.2345302776421502e-05 -0.029074860818884472 0 -4.1675265960939209e-05 -0.028629866655764391 0 -6.6978222395151077e-05 -0.028840550157494829 0 -6.2345302776421502e-05 -0.029074860818884472 0 -6.3450555949383491e-05 -0.029262306372696317 0 -6.6978222395151077e-05 -0.028840550157494829 0 -3.5123390172195763e-05 -0.029513682703092185 0 -6.3450555949383491e-05 -0.029262306372696317 0 -3.3502654037593343e-05 -0.029612758599869681 0 -3.5123390172195763e-05 -0.029513682703092185 0 -6.3450555949383491e-05 -0.029262306372696317 0 0.00030723806332969971 -0.028833966248576037 0 9.8317039698600473e-05 -0.027071261814852487 0 0.0014932306424944961 -0.026866836318449664 0 0.0026996156739988518 -0.023748400278650734 0 -6.2345302776421502e-05 -0.029074860818884472 0 -4.1790583618178644e-05 -0.029425586707754758 0 -4.1675265960939209e-05 -0.028629866655764391 0 -3.3502654037593343e-05 -0.029612758599869681 0 -6.3450555949383491e-05 -0.029262306372696317 0 -4.1790583618178644e-05 -0.029425586707754758 0 0.0049350027272178961 -0.022141687944628428 0 0.0060047689503506555 -0.021897186829306386 0 0.0041768937811858366 -0.022610842558747093 0 0.00055227764410721971 -0.025739591628424589 0 0.00031543267407670671 -0.025821801958533612 0 0.00027709928195137061 -0.025782649888124485 0 0.00055227764410721971 -0.025739591628424589 0 0.00057390184012092002 -0.025793765068492718 0 0.00031543267407670671 -0.025821801958533612 0 -6.2345302776421502e-05 -0.029074860818884472 0 -6.3450555949383491e-05 -0.029262306372696317 0 -4.1790583618178644e-05 -0.029425586707754758 0 0.0049350027272178961 -0.022141687944628428 0 0.0051260381513847644 -0.021821478022399685 0 0.0054234699858669274 -0.02185657657830337 0 0.0053175547904428843 -0.021646437233413262 0 0.0051260381513847644 -0.021821478022399685 0 0.0054234699858669274 -0.02185657657830337 0 0.0053175547904428843 -0.021646437233413262 0 0.0051260381513847644 -0.021821478022399685 0 0.005060471712473107 -0.02159516908663818 0 0.0049350027272178961 -0.022141687944628428 0 0.0051260381513847644 -0.021821478022399685 0 0.0048562984850303833 -0.021772379815499406 0 0.0051260381513847644 -0.021821478022399685 0 0.0048562984850303833 -0.021772379815499406 0 0.005060471712473107 -0.02159516908663818 0 0.0048562984850303833 -0.021772379815499406 0 0.0048030280040543419 -0.021506322357193523 0 0.005060471712473107 -0.02159516908663818 0 0.0049350027272178961 -0.022141687944628428 0 0.0054234699858669274 -0.02185657657830337 0 0.0060047689503506555 -0.021897186829306386 0 0.0053175547904428843 -0.021646437233413262 0 0.0054234699858669274 -0.02185657657830337 0 0.0056469831022333706 -0.021607998414041027 0 0.0054234699858669274 -0.02185657657830337 0 0.0060047689503506555 -0.021897186829306386 0 0.0056469831022333706 -0.021607998414041027 0 -0.0009956856554004525 -0.030836484740063261 0 0.0014932306424944961 -0.026866836318449664 0 -0.00024521684512821836 -0.030887637095285633 0 -0.00079334375846669468 -0.030900519851301263 0 -0.00096911650034605117 -0.031024510662920442 0 -0.0010112623715720938 -0.030907641180900818 0 -0.00079334375846669468 -0.030900519851301263 0 -0.00096911650034605117 -0.031024510662920442 0 -0.00060709986540479302 -0.030802677107204569 0 -0.0010112623715720938 -0.030907641180900818 0 -0.00079334375846669468 -0.030900519851301263 0 0.0014932306424944961 -0.026866836318449664 0 0.00030723806332969971 -0.028833966248576037 0 -0.00014378157903321531 -0.030804750086342064 0 2.2712135653416223e-05 -0.030101749751136456 0 0.00013244229132139922 -0.030770623683941855 0 2.2712135653416223e-05 -0.030101749751136456 0 -3.3502654037593343e-05 -0.029612758599869681 0 -4.1790583618178644e-05 -0.029425586707754758 0 0.00025746727773619227 -0.030199389989338382 0 0.00030723806332969971 -0.028833966248576037 0 5.9561977750318536e-05 -0.026837347602561172 0 2.864302265498619e-06 -0.027545588832869273 0 2.4388910438851668e-07 -0.026160725756087227 0 0.0026996156739988518 -0.023748400278650734 0 0.00095064926127240977 -0.02465412099978883 0 2.864302265498619e-06 -0.027545588832869273 0 -2.7788372253134213e-07 -0.027950644257658471 0 2.4388910438851668e-07 -0.026160725756087227 0 -2.4410374092099435e-05 -0.026261116474642555 0 9.8317039698600473e-05 -0.027071261814852487 0 7.8461056923368112e-05 -0.025753885884013061 0 0.00027709928195137061 -0.025782649888124485 0 5.565914394679817e-05 -0.025678480796809216 0 5.9561977750318536e-05 -0.026837347602561172 0 2.864302265498619e-06 -0.027545588832869273 0 -4.1675265960939209e-05 -0.028629866655764391 0 7.8461056923368112e-05 -0.025753885884013061 0 0.00031543267407670671 -0.025821801958533612 0 0.00027709928195137061 -0.025782649888124485 0 2.864302265498619e-06 -0.027545588832869273 0 -2.3728512466311896e-05 -0.028238822698326355 0 -4.1675265960939209e-05 -0.028629866655764391 0 2.864302265498619e-06 -0.027545588832869273 0 -2.3728512466311896e-05 -0.028238822698326355 0 -2.7788372253134213e-07 -0.027950644257658471 0 -6.6978222395151077e-05 -0.028840550157494829 0 -2.3728512466311896e-05 -0.028238822698326355 0 -2.7788372253134213e-07 -0.027950644257658471 0 -6.6978222395151077e-05 -0.028840550157494829 0 -2.3728512466311896e-05 -0.028238822698326355 0 -4.1675265960939209e-05 -0.028629866655764391 0 0.0049350027272178961 -0.022141687944628428 0 0.0044317159570057291 -0.022154941698219559 0 0.0041768937811858366 -0.022610842558747093 0 0.0049350027272178961 -0.022141687944628428 0 0.0046277325028538522 -0.02192747056074041 0 0.0044317159570057291 -0.022154941698219559 0 0.0049350027272178961 -0.022141687944628428 0 0.0048562984850303833 -0.021772379815499406 0 0.0046277325028538522 -0.02192747056074041 0 0.0048562984850303833 -0.021772379815499406 0 0.0046277325028538522 -0.02192747056074041 0 0.0045840952437774495 -0.021641087435277824 0 0.0048562984850303833 -0.021772379815499406 0 0.0045840952437774495 -0.021641087435277824 0 0.0048030280040543419 -0.021506322357193523 0 0.0045840952437774495 -0.021641087435277824 0 0.004292638445266542 -0.021830179162979201 0 0.0042990308894921133 -0.021319064576538944 0 0.0046277325028538522 -0.02192747056074041 0 0.0045840952437774495 -0.021641087435277824 0 0.004292638445266542 -0.021830179162979201 0 0.0046277325028538522 -0.02192747056074041 0 0.004292638445266542 -0.021830179162979201 0 0.0044317159570057291 -0.022154941698219559 0 0.004292638445266542 -0.021830179162979201 0 0.0044317159570057291 -0.022154941698219559 0 0.0040614852901396051 -0.022197426685143747 0 0.004292638445266542 -0.021830179162979201 0 0.0040614852901396051 -0.022197426685143747 0 0.003899576843882078 -0.02187382584102095 0 0.004292638445266542 -0.021830179162979201 0 0.003899576843882078 -0.02187382584102095 0 0.0039931310219789755 -0.02152827716956578 0 0.003899576843882078 -0.02187382584102095 0 0.0035133994735211294 -0.021549135451259416 0 0.0039931310219789755 -0.02152827716956578 0 0.003899576843882078 -0.02187382584102095 0 0.0036370747964239942 -0.022169429251711149 0 0.0035133994735211294 -0.021549135451259416 0 0.0040614852901396051 -0.022197426685143747 0 0.003899576843882078 -0.02187382584102095 0 0.0036370747964239942 -0.022169429251711149 0 0.0038298297383121938 -0.02238164720627309 0 0.0041768937811858366 -0.022610842558747093 0 0.0033030682881340701 -0.022574532640159399 0 0.0040614852901396051 -0.022197426685143747 0 0.0038298297383121938 -0.02238164720627309 0 0.0036370747964239942 -0.022169429251711149 0 0.0044317159570057291 -0.022154941698219559 0 0.0040614852901396051 -0.022197426685143747 0 0.0041768937811858366 -0.022610842558747093 0 0.0040614852901396051 -0.022197426685143747 0 0.0038298297383121938 -0.02238164720627309 0 0.0041768937811858366 -0.022610842558747093 0 0.0041768937811858366 -0.022610842558747093 0 0.0033030682881340701 -0.022574532640159399 0 0.0021928629115804169 -0.023556962418847697 0 0.0033030682881340701 -0.022574532640159399 0 0.0031812778367312578 -0.022123499631461496 0 0.0027594858921883747 -0.022574759161832318 0 0.0038298297383121938 -0.02238164720627309 0 0.0033030682881340701 -0.022574532640159399 0 0.0036370747964239942 -0.022169429251711149 0 0.0033030682881340701 -0.022574532640159399 0 0.0036370747964239942 -0.022169429251711149 0 0.0031812778367312578 -0.022123499631461496 0 0.0036370747964239942 -0.022169429251711149 0 0.0031812778367312578 -0.022123499631461496 0 0.0035133994735211294 -0.021549135451259416 0 0.0031812778367312578 -0.022123499631461496 0 0.0026731731724223507 -0.021773286982320911 0 0.0035133994735211294 -0.021549135451259416 0 0.0031812778367312578 -0.022123499631461496 0 0.0026731731724223507 -0.021773286982320911 0 0.0027594858921883747 -0.022574759161832318 0 0.0033030682881340701 -0.022574532640159399 0 0.0027594858921883747 -0.022574759161832318 0 0.0021928629115804169 -0.023556962418847697 0 0.0026731731724223507 -0.021773286982320911 0 0.0027594858921883747 -0.022574759161832318 0 0.0021667048200317432 -0.022661450067269488 0 0.0033480542265326434 -0.020662837797627086 0 0.0029528096373400521 -0.019736037552212149 0 0.0021479987214354287 -0.020312987350952633 0 0.0026731731724223507 -0.021773286982320911 0 0.0033480542265326434 -0.020662837797627086 0 0.0021479987214354287 -0.020312987350952633 0 0.0035133994735211294 -0.021549135451259416 0 0.0033480542265326434 -0.020662837797627086 0 0.003955584712179965 -0.021066128194473708 0 0.0026731731724223507 -0.021773286982320911 0 0.0035133994735211294 -0.021549135451259416 0 0.0033480542265326434 -0.020662837797627086 0 0.0033480542265326434 -0.020662837797627086 0 0.0039806433201297576 -0.020500299555021886 0 0.003955584712179965 -0.021066128194473708 0 0.0033480542265326434 -0.020662837797627086 0 0.0039806433201297576 -0.020500299555021886 0 0.0036002457300953138 -0.020019023008259376 0 0.0039806433201297576 -0.020500299555021886 0 0.003955584712179965 -0.021066128194473708 0 0.0043934885024583944 -0.020872422096858412 0 0.0035133994735211294 -0.021549135451259416 0 0.0039931310219789755 -0.02152827716956578 0 0.003955584712179965 -0.021066128194473708 0 0.004292638445266542 -0.021830179162979201 0 0.0039931310219789755 -0.02152827716956578 0 0.0042990308894921133 -0.021319064576538944 0 0.0039931310219789755 -0.02152827716956578 0 0.003955584712179965 -0.021066128194473708 0 0.0042990308894921133 -0.021319064576538944 0 0.003955584712179965 -0.021066128194473708 0 0.0042990308894921133 -0.021319064576538944 0 0.0043934885024583944 -0.020872422096858412 0 0.0042990308894921133 -0.021319064576538944 0 0.0045238181996455221 -0.021152129092751368 0 0.0043934885024583944 -0.020872422096858412 0 0.0042990308894921133 -0.021319064576538944 0 0.0045768604414052278 -0.021370954720972484 0 0.0045238181996455221 -0.021152129092751368 0 0.0045840952437774495 -0.021641087435277824 0 0.0042990308894921133 -0.021319064576538944 0 0.0045768604414052278 -0.021370954720972484 0 0.0045840952437774495 -0.021641087435277824 0 0.0048030280040543419 -0.021506322357193523 0 0.0045768604414052278 -0.021370954720972484 0 0.0048030280040543419 -0.021506322357193523 0 0.0045768604414052278 -0.021370954720972484 0 0.0047103055745213963 -0.021214974920889713 0 0.0045768604414052278 -0.021370954720972484 0 0.0047103055745213963 -0.021214974920889713 0 0.0045238181996455221 -0.021152129092751368 0 0.0047103055745213963 -0.021214974920889713 0 0.0045238181996455221 -0.021152129092751368 0 0.0046388446413792106 -0.020982474146095532 0 0.0045238181996455221 -0.021152129092751368 0 0.0046388446413792106 -0.020982474146095532 0 0.0043934885024583944 -0.020872422096858412 0 0.0047103055745213963 -0.021214974920889713 0 0.0046388446413792106 -0.020982474146095532 0 0.0048445374387494087 -0.020963472456264402 0 0.0046388446413792106 -0.020982474146095532 0 0.0047568971725224368 -0.020690080577578738 0 0.0043934885024583944 -0.020872422096858412 0 0.0046388446413792106 -0.020982474146095532 0 0.0047568971725224368 -0.020690080577578738 0 0.0048445374387494087 -0.020963472456264402 0 0.0039806433201297576 -0.020500299555021886 0 0.0043934885024583944 -0.020872422096858412 0 0.0045229574665121459 -0.020356379856481793 0 0.0047568971725224368 -0.020690080577578738 0 0.0043934885024583944 -0.020872422096858412 0 0.0045229574665121459 -0.020356379856481793 0 0.0047568971725224368 -0.020690080577578738 0 0.0045229574665121459 -0.020356379856481793 0 0.0047982968368301231 -0.020395917954032838 0 0.0045092111253654081 -0.019936982700786473 0 0.003741573879941017 -0.019513153099221251 0 0.0050673719709765849 -0.019777448054779073 0 0.0017104268043700833 -0.023831200429940101 0 0.0028528580508685414 -0.01813310175670137 0 0.003741573879941017 -0.019513153099221251 0 0.0050673719709765849 -0.0197