<?xml version="1.0"?>
<VTKFile type="UnstructuredGrid" version="0.1" byte_order="LittleEndian">
<UnstructuredGrid>
<Piece NumberOfPoints="31048" NumberOfCells="10933">
<Points>
<DataArray type="Float64" NumberOfComponents="3" format="ascii">
-0.5 -0.5 0 -0.45966401123466488 -0.49658733248650311 0 -0.40896344978824928 -0.5 0 -0.5 -0.5 0 -0.49999999999999772 -0.47600230024017931 0 -0.47846481948080899 -0.47835377823494579 0 -0.5 -0.5 0 -0.47846481948080899 -0.47835377823494579 0 -0.45966401123466488 -0.49658733248650311 0 -0.49999999999999772 -0.47600230024017931 0 -0.47846481948080899 -0.47835377823494579 0 -0.48663031278447982 -0.45896074991701058 0 -0.49999999999999772 -0.47600230024017931 0 -0.47846481948080899 -0.47835377823494579 0 -0.47846481948080899 -0.47835377823494579 0 -0.45966401123466488 -0.49658733248650311 0 -0.45692963896162048 -0.48070525622971388 0 -0.45966401123466488 -0.49658733248650311 0 -0.45692963896162048 -0.48070525622971388 0 -0.47846481948080899 -0.47835377823494579 0 -0.45692963896162048 -0.48070525622971388 0 -0.46588888375070592 -0.46675240324930273 0 -0.45692963896162048 -0.48070525622971388 0 -0.45291178277604027 -0.45736831013892187 0 -0.47846481948080899 -0.47835377823494579 0 -0.45692963896162048 -0.48070525622971388 0 -0.45692963896162048 -0.48070525622971388 0 -0.44630962018671372 -0.46961798428304857 0 -0.45291178277604027 -0.45736831013892187 0 -0.45692963896162048 -0.48070525622971388 0 -0.44630962018671372 -0.46961798428304857 0 -0.43000179547083378 -0.48364557202407898 0 -0.45692963896162048 -0.48070525622971388 0 -0.43000179547083378 -0.48364557202407898 0 -0.45966401123466488 -0.49658733248650311 0 -0.45692963896162048 -0.48070525622971388 0 -0.43000179547083378 -0.48364557202407898 0 -0.45291178277604027 -0.45736831013892187 0 -0.44889392659046018 -0.43403136404812981 0 -0.44576964967754928 -0.44775750114313551 0 -0.45291178277604027 -0.45736831013892187 0 -0.44889392659046018 -0.43403136404812981 0 -0.44576964967754928 -0.44775750114313551 0 -0.4420236995768253 -0.43889794657762188 0 -0.44889392659046018 -0.43403136404812981 0 -0.4420236995768253 -0.43889794657762188 0 -0.43795457363143991 -0.44704478416018989 0 -0.4353432285932719 -0.4354544262594332 0 -0.44576964967754928 -0.44775750114313551 0 -0.4420236995768253 -0.43889794657762188 0 -0.43795457363143991 -0.44704478416018989 0 -0.44576964967754928 -0.44775750114313551 0 -0.43795457363143991 -0.44704478416018989 0 -0.44144336127146788 -0.45782316793564931 0 -0.44630962018671372 -0.46961798428304857 0 -0.44144336127146788 -0.45782316793564931 0 -0.4342616214588958 -0.46725457514822838 0 -0.44630962018671372 -0.46961798428304857 0 -0.44144336127146788 -0.45782316793564931 0 -0.45291178277604027 -0.45736831013892187 0 -0.44576964967754928 -0.44775750114313551 0 -0.44144336127146788 -0.45782316793564931 0 -0.45291178277604027 -0.45736831013892187 0 -0.45692963896162048 -0.48070525622971388 0 -0.45291178277604027 -0.45736831013892187 0 -0.46588888375070592 -0.46675240324930273 0 -0.45291178277604027 -0.45736831013892187 0 -0.45966933447960318 -0.45572426184337628 0 -0.46575185313353917 -0.45925153041176398 0 -0.45291178277604027 -0.45736831013892187 0 -0.46588888375070592 -0.46675240324930273 0 -0.46575185313353917 -0.45925153041176398 0 -0.46588888375070592 -0.46675240324930273 0 -0.46575185313353917 -0.45925153041176398 0 -0.47444295785175589 -0.4593023255142048 0 -0.45966933447960318 -0.45572426184337628 0 -0.46575185313353917 -0.45925153041176398 0 -0.46790989392199378 -0.45216716007609492 0 -0.45966933447960318 -0.45572426184337628 0 -0.46599162139971789 -0.43886018175947239 0 -0.46397647541351938 -0.44185953462894217 0 -0.46599162139971789 -0.43886018175947239 0 -0.46790989392199378 -0.45216716007609492 0 -0.47105949878466319 -0.43114296985480949 0 -0.45966933447960318 -0.45572426184337628 0 -0.46599162139971789 -0.43886018175947239 0 -0.46790989392199378 -0.45216716007609492 0 -0.45966933447960318 -0.45572426184337628 0 -0.46599162139971789 -0.43886018175947239 0 -0.45291178277604027 -0.45736831013892187 0 -0.46397647541351938 -0.44185953462894217 0 -0.44889392659046018 -0.43403136404812981 0 -0.45291178277604027 -0.45736831013892187 0 -0.45966933447960318 -0.45572426184337628 0 -0.46397647541351938 -0.44185953462894217 0 -0.46790989392199378 -0.45216716007609492 0 -0.47710204910637383 -0.42416254534193581 0 -0.46790989392199378 -0.45216716007609492 0 -0.48005421812543569 -0.43942908164429162 0 -0.47710204910637383 -0.42416254534193581 0 -0.46790989392199378 -0.45216716007609492 0 -0.47962785556108539 -0.45003824052489749 0 -0.48005421812543569 -0.43942908164429162 0 -0.47962785556108539 -0.45003824052489749 0 -0.48005421812543569 -0.43942908164429162 0 -0.48868798392767793 -0.44201763362024438 0 -0.47846481948080899 -0.47835377823494579 0 -0.46588888375070592 -0.46675240324930273 0 -0.47444295785175589 -0.4593023255142048 0 -0.47846481948080899 -0.47835377823494579 0 -0.47444295785175589 -0.4593023255142048 0 -0.48663031278447982 -0.45896074991701058 0 -0.46790989392199378 -0.45216716007609492 0 -0.47962785556108539 -0.45003824052489749 0 -0.47444295785175589 -0.4593023255142048 0 -0.46575185313353917 -0.45925153041176398 0 -0.46790989392199378 -0.45216716007609492 0 -0.47444295785175589 -0.4593023255142048 0 -0.47962785556108539 -0.45003824052489749 0 -0.47444295785175589 -0.4593023255142048 0 -0.48663031278447982 -0.45896074991701058 0 -0.49999999999999772 -0.47600230024017931 0 -0.48663031278447982 -0.45896074991701058 0 -0.5 -0.45043107386881692 0 -0.5 -0.45043107386881692 0 -0.48868798392767793 -0.44201763362024438 0 -0.5 -0.42485984749745448 0 -0.47962785556108539 -0.45003824052489749 0 -0.48663031278447982 -0.45896074991701058 0 -0.48868798392767793 -0.44201763362024438 0 -0.48663031278447982 -0.45896074991701058 0 -0.5 -0.45043107386881692 0 -0.48868798392767793 -0.44201763362024438 0 -0.48868798392767793 -0.44201763362024438 0 -0.48879895941858131 -0.42945493301215171 0 -0.5 -0.42485984749745448 0 -0.48005421812543569 -0.43942908164429162 0 -0.48868798392767793 -0.44201763362024438 0 -0.48879895941858131 -0.42945493301215171 0 -0.48879895941858131 -0.42945493301215171 0 -0.48637954663565369 -0.42293705884680671 0 -0.49075502247517022 -0.42076817690049412 0 -0.48879895941858131 -0.42945493301215171 0 -0.5 -0.42485984749745448 0 -0.49075502247517022 -0.42076817690049412 0 -0.5 -0.42485984749745448 0 -0.49178400022208502 -0.41002789218281499 0 -0.5 -0.39928862112609209 0 -0.5 -0.42485984749745448 0 -0.49178400022208502 -0.41002789218281499 0 -0.49075502247517022 -0.42076817690049412 0 -0.49178400022208502 -0.41002789218281499 0 -0.48508458381982911 -0.41298753957730511 0 -0.48463967985132689 -0.40119856782122698 0 -0.49178400022208502 -0.41002789218281499 0 -0.48508458381982911 -0.41298753957730511 0 -0.4868126060995307 -0.41656115296324231 0 -0.49178400022208502 -0.41002789218281499 0 -0.49075502247517022 -0.42076817690049412 0 -0.4868126060995307 -0.41656115296324231 0 -0.48637954663565369 -0.42293705884680671 0 -0.49075502247517022 -0.42076817690049412 0 -0.4868126060995307 -0.41656115296324231 0 -0.47710204910637383 -0.42416254534193581 0 -0.48463967985132689 -0.40119856782122698 0 -0.47231390831983278 -0.42199610167556861 0 -0.48154260554655492 -0.39737945724483481 0 -0.48508458381982911 -0.41298753957730511 0 -0.47710204910637383 -0.42416254534193581 0 -0.48463967985132689 -0.40119856782122698 0 -0.48637954663565369 -0.42293705884680671 0 -0.4868126060995307 -0.41656115296324231 0 -0.47710204910637383 -0.42416254534193581 0 -0.47553249120311331 -0.40762552545486341 0 -0.47231390831983278 -0.42199610167556861 0 -0.48154260554655492 -0.39737945724483481 0 -0.47231390831983278 -0.42199610167556861 0 -0.48463967985132689 -0.40119856782122698 0 -0.48154260554655492 -0.39737945724483481 0 -0.47231390831983278 -0.42199610167556861 0 -0.47710204910637383 -0.42416254534193581 0 -0.48463967985132689 -0.40119856782122698 0 -0.48508458381982911 -0.41298753957730511 0 -0.4868126060995307 -0.41656115296324231 0 -0.47710204910637383 -0.42416254534193581 0 -0.47553249120311331 -0.40762552545486341 0 -0.47148754737094928 -0.41024777641391352 0 -0.47188226019967122 -0.41422254246750029 0 -0.46925429150769538 -0.41284899187400492 0 -0.47148754737094928 -0.41024777641391352 0 -0.47188226019967122 -0.41422254246750029 0 -0.46925429150769538 -0.41284899187400492 0 -0.47148754737094928 -0.41024777641391352 0 -0.46865892537956277 -0.40941828865034202 0 -0.47553249120311331 -0.40762552545486341 0 -0.47148754737094928 -0.41024777641391352 0 -0.47091700398815578 -0.40664614660913562 0 -0.47148754737094928 -0.41024777641391352 0 -0.47091700398815578 -0.40664614660913562 0 -0.46865892537956277 -0.40941828865034202 0 -0.47091700398815578 -0.40664614660913562 0 -0.46760452559658178 -0.40599474626548587 0 -0.46865892537956277 -0.40941828865034202 0 -0.47553249120311331 -0.40762552545486341 0 -0.47188226019967122 -0.41422254246750029 0 -0.47231390831983278 -0.42199610167556861 0 -0.46925429150769538 -0.41284899187400492 0 -0.47188226019967122 -0.41422254246750029 0 -0.46871474998237039 -0.41726916442086359 0 -0.47188226019967122 -0.41422254246750029 0 -0.47231390831983278 -0.42199610167556861 0 -0.46871474998237039 -0.41726916442086359 0 -0.46599162139971789 -0.43886018175947239 0 -0.47231390831983278 -0.42199610167556861 0 -0.46790989392199378 -0.45216716007609492 0 -0.47105949878466319 -0.43114296985480949 0 -0.47710204910637383 -0.42416254534193581 0 -0.47231390831983278 -0.42199610167556861 0 -0.47105949878466319 -0.43114296985480949 0 -0.47710204910637383 -0.42416254534193581 0 -0.46599162139971789 -0.43886018175947239 0 -0.47231390831983278 -0.42199610167556861 0 -0.47105949878466319 -0.43114296985480949 0 -0.47231390831983278 -0.42199610167556861 0 -0.47710204910637383 -0.42416254534193581 0 -0.48005421812543569 -0.43942908164429162 0 -0.48879895941858131 -0.42945493301215171 0 -0.47710204910637383 -0.42416254534193581 0
[...]
<PointData Scalars="" Vectors="displacement," Tensors="">
<DataArray type="Float64" Name="displacement" NumberOfComponents="3" format="ascii">
-0.034999272034422289 3.7784313365315199e-08 0 -0.032202745226984471 2.1480885445312683e-05 0 -0.028628159715941074 -2.3292285041234124e-07 0 -0.034999272034422289 3.7784313365315199e-08 0 -0.034998711965010317 -1.4015506751179753e-07 0 -0.033982336497257432 -0.00016230316273085731 0 -0.034999272034422289 3.7784313365315199e-08 0 -0.033982336497257432 -0.00016230316273085731 0 -0.032202745226984471 2.1480885445312683e-05 0 -0.035000076727309731 3.6545083341507191e-08 0 -0.035040121694663057 -4.8503323242134231e-05 0 -0.034957788059599537 -1.7561703280934675e-05 0 -0.034999734286642277 -3.6299843359294121e-07 0 -0.034787483453330825 -2.9780124555648184e-05 0 -0.033982336497257432 -0.00016230316273085731 0 -0.032202745226984471 2.1480885445312683e-05 0 -0.033305209008379501 0.00043241395712567292 0 -0.032793435792852953 0.00017293377555383622 0 -0.030532876881044071 -0.00085935352412618514 0 -0.035040121694663057 -4.8503323242134231e-05 0 -0.035112031190440575 -0.00027233655536601834 0 -0.034968560478829604 -0.0001552258222962752 0 -0.030532876881044071 -0.00085935352412618514 0 -0.029365095307279276 -0.0029805396703924689 0 -0.034787483453330825 -2.9780124555648184e-05 0 -0.030532876881044071 -0.00085935352412618514 0 -0.023073131970911976 -0.0052871811443859652 0 -0.023700059522499223 -0.0046755414114561028 0 -0.02445921456515204 -0.0050919329104959594 0 -0.023073131970911976 -0.0052871811443859652 0 -0.023700059522499223 -0.0046755414114561028 0 -0.022775848009684505 -0.0036770351000025995 0 -0.030532876881044071 -0.00085935352412618514 0 -0.026028705491738635 -0.0023017548828423505 0 -0.032202745226984471 2.1480885445312683e-05 0 -0.031267788771565018 0.00013741040651104431 0 -0.030122849642298794 -0.00010315242769938263 0 -0.029365095307279276 -0.0029805396703924689 0 -0.029410735592994439 -0.0031022477939248415 0 -0.025053973877065819 -0.0046909052418488278 0 -0.02445921456515204 -0.0050919329104959594 0 -0.025925004087219743 -0.0049421035185473828 0 -0.025053973877065819 -0.0046909052418488278 0 -0.025623202390465036 -0.0044707950046361531 0 -0.025925004087219743 -0.0049421035185473828 0 -0.025623202390465036 -0.0044707950046361531 0 -0.025090508200059935 -0.0042035074609387685 0 -0.02586340552335013 -0.0040422518865345664 0 -0.025053973877065819 -0.0046909052418488278 0 -0.025623202390465036 -0.0044707950046361531 0 -0.025090508200059935 -0.0042035074609387685 0 -0.025053973877065819 -0.0046909052418488278 0 -0.025090508200059935 -0.0042035074609387685 0 -0.024409394551378961 -0.0044029961260112441 0 -0.023700059522499223 -0.0046755414114561028 0 -0.024409394551378961 -0.0044029961260112441 0 -0.023802449615637523 -0.0039487264590859494 0 -0.023700059522499223 -0.0046755414114561028 0 -0.024409394551378961 -0.0044029961260112441 0 -0.02445921456515204 -0.0050919329104959594 0 -0.025053973877065819 -0.0046909052418488278 0 -0.024409394551378961 -0.0044029961260112441 0 -0.02445921456515204 -0.0050919329104959594 0 -0.035112031190440575 -0.00027233655536601834 0 -0.034846478830405272 -0.00048356141172197994 0 -0.034968560478829604 -0.0001552258222962752 0 -0.034846478830405272 -0.00048356141172197994 0 -0.034778854112006007 -0.00022582435054432909 0 -0.034871462698830423 -0.00012654546816290589 0 -0.034846478830405272 -0.00048356141172197994 0 -0.034968560478829604 -0.0001552258222962752 0 -0.034871462698830423 -0.00012654546816290589 0 -0.034968560478829604 -0.0001552258222962752 0 -0.034871462698830423 -0.00012654546816290589 0 -0.034916628334653206 -6.637938507917083e-05 0 -0.034778854112006007 -0.00022582435054432909 0 -0.034871462698830423 -0.00012654546816290589 0 -0.034829220498796012 -8.960743383377603e-05 0 -0.034778854112006007 -0.00022582435054432909 0 -0.033796764700904126 0.0001580984279478725 0 -0.033970160139870115 3.9124179439150218e-05 0 -0.03467203801404279 -0.00010404754176436175 0 -0.034829220498796012 -8.960743383377603e-05 0 -0.034577763954875336 -3.9455548542475827e-05 0 -0.034778854112006007 -0.00022582435054432909 0 -0.03467203801404279 -0.00010404754176436175 0 -0.034829220498796012 -8.960743383377603e-05 0 -0.034734540936569566 -0.00019353017767238884 0 -0.034221612491188075 2.1291785395590123e-05 0 -0.034846478830405272 -0.00048356141172197994 0 -0.033970160139870115 3.9124179439150218e-05 0 -0.033446005404346509 -0.00088479845617938345 0 -0.034846478830405272 -0.00048356141172197994 0 -0.034778854112006007 -0.00022582435054432909 0 -0.033970160139870115 3.9124179439150218e-05 0 -0.034897997463137723 -0.00011573884131549715 0 -0.034601368957348083 0.00012274934898358331 0 -0.034829220498796012 -8.960743383377603e-05 0 -0.034927964188056833 -3.2937094525550663e-05 0 -0.034984068154374 5.7964092443547359e-06 0 -0.034829220498796012 -8.960743383377603e-05 0 -0.034911780560855241 -4.1715754835485698e-05 0 -0.034927964188056833 -3.2937094525550663e-05 0 -0.034911780560855241 -4.1715754835485698e-05 0 -0.034927964188056833 -3.2937094525550663e-05 0 -0.034957419525024194 -2.0269203880008181e-05 0 -0.035040121694663057 -4.8503323242134231e-05 0 -0.034968560478829604 -0.0001552258222962752 0 -0.034916628334653206 -6.637938507917083e-05 0 -0.035040121694663057 -4.8503323242134231e-05 0 -0.034916628334653206 -6.637938507917083e-05 0 -0.034957788059599537 -1.7561703280934675e-05 0 -0.034829220498796012 -8.960743383377603e-05 0 -0.034911780560855241 -4.1715754835485698e-05 0 -0.034916628334653206 -6.637938507917083e-05 0 -0.034871462698830423 -0.00012654546816290589 0 -0.034829220498796012 -8.960743383377603e-05 0 -0.034916628334653206 -6.637938507917083e-05 0 -0.034911780560855241 -4.1715754835485698e-05 0 -0.034916628334653206 -6.637938507917083e-05 0 -0.034957788059599537 -1.7561703280934675e-05 0 -0.035000076727309731 3.6545083341507191e-08 0 -0.034957788059599537 -1.7561703280934675e-05 0 -0.034999858281379422 -3.0851032985902973e-08 0 -0.034999858281379422 -3.0851032985902973e-08 0 -0.034957419525024194 -2.0269203880008181e-05 0 -0.034999969230317229 -2.2470415880259378e-08 0 -0.034911780560855241 -4.1715754835485698e-05 0 -0.034957788059599537 -1.7561703280934675e-05 0 -0.034957419525024194 -2.0269203880008181e-05 0 -0.034957788059599537 -1.7561703280934675e-05 0 -0.034999858281379422 -3.0851032985902973e-08 0 -0.034957419525024194 -2.0269203880008181e-05 0 -0.034957419525024194 -2.0269203880008181e-05 0 -0.034974023188276235 -1.4152884532595316e-05 0 -0.034999969230317229 -2.2470415880259378e-08 0 -0.034927964188056833 -3.2937094525550663e-05 0 -0.034957419525024194 -2.0269203880008181e-05 0 -0.034974023188276235 -1.4152884532595316e-05 0 -0.034974023188276235 -1.4152884532595316e-05 0 -0.034987190928021945 -4.816384274418511e-06 0 -0.034992545946337626 -5.6005516370823816e-06 0 -0.034974023188276235 -1.4152884532595316e-05 0 -0.034999969230317229 -2.2470415880259378e-08 0 -0.034992545946337626 -5.6005516370823816e-06 0 -0.034999969230317229 -2.2470415880259378e-08 0 -0.034996789469874293 -2.6742255096841128e-06 0 -0.035000002248214403 1.9513159845795032e-09 0 -0.034999969230317229 -2.2470415880259378e-08 0 -0.034996789469874293 -2.6742255096841128e-06 0 -0.034992545946337626 -5.6005516370823816e-06 0 -0.034996789469874293 -2.6742255096841128e-06 0 -0.034994170124747058 -4.4723681327862885e-07 0 -0.034999955948307272 -5.5898285106198133e-07 0 -0.034996789469874293 -2.6742255096841128e-06 0 -0.034994170124747058 -4.4723681327862885e-07 0 -0.034992867464494676 -2.5754417609121111e-06 0 -0.034996789469874293 -2.6742255096841128e-06 0 -0.034992545946337626 -5.6005516370823816e-06 0 -0.034992867464494676 -2.5754417609121111e-06 0 -0.034987190928021945 -4.816384274418511e-06 0 -0.034992545946337626 -5.6005516370823816e-06 0 -0.034992867464494676 -2.5754417609121111e-06 0 -0.034601368957348083 0.00012274934898358331 0 -0.034848298920676257 3.7461147405744667e-05 0 -0.033854878051738473 0.00040119258093059755 0 -0.034022246604798828 0.00016263418222281116 0 -0.034994170124747058 -4.4723681327862885e-07 0 -0.03498614560530508 7.1768131476385332e-06 0 -0.034999955948307272 -5.5898285106198133e-07 0 -0.034987190928021945 -4.816384274418511e-06 0 -0.034992867464494676 -2.5754417609121111e-06 0 -0.03498614560530508 7.1768131476385332e-06 0 -0.033233488635610063 0.00033642904903367335 0 -0.033030101207598125 0.00040303876425570574 0 -0.033375741860176875 0.00022639167545594922 0 -0.034395480056495127 0.00024560034351797416 0 -0.034665964541788941 8.5127204514314636e-05 0 -0.034710105376248843 0.00012080442100752835 0 -0.034395480056495127 0.00024560034351797416 0 -0.034367829546855015 0.00018338203654767336 0 -0.034665964541788941 8.5127204514314636e-05 0 -0.034994170124747058 -4.4723681327862885e-07 0 -0.034992867464494676 -2.5754417609121111e-06 0 -0.03498614560530508 7.1768131476385332e-06 0 -0.033233488635610063 0.00033642904903367335 0 -0.03319838770379907 0.00040466637080091973 0 -0.033141291521253495 0.00040128281146491624 0 -0.033162656795369817 0.00044087764618238505 0 -0.03319838770379907 0.00040466637080091973 0 -0.033141291521253495 0.00040128281146491624 0 -0.033162656795369817 0.00044087764618238505 0 -0.03319838770379907 0.00040466637080091973 0 -0.033212348755334097 0.00044915835493269251 0 -0.033233488635610063 0.00033642904903367335 0 -0.03319838770379907 0.00040466637080091973 0 -0.033251228277647052 0.00041298011342289404 0 -0.03319838770379907 0.00040466637080091973 0 -0.033251228277647052 0.00041298011342289404 0 -0.033212348755334097 0.00044915835493269251 0 -0.033251228277647052 0.00041298011342289404 0 -0.033263237191391168 0.0004662295905573666 0 -0.033212348755334097 0.00044915835493269251 0 -0.033233488635610063 0.00033642904903367335 0 -0.033141291521253495 0.00040128281146491624 0 -0.033030101207598125 0.00040303876425570574 0 -0.033162656795369817 0.00044087764618238505 0 -0.033141291521253495 0.00040128281146491624 0 -0.033100145819564497 0.00045194154548249113 0 -0.033141291521253495 0.00040128281146491624 0 -0.033030101207598125 0.00040303876425570574 0 -0.033100145819564497 0.00045194154548249113 0 -0.034221612491188075 2.1291785395590123e-05 0 -0.033854878051738473 0.00040119258093059755 0 -0.034829220498796012 -8.960743383377603e-05 0 -0.034577763954875336 -3.9455548542475827e-05 0 -0.034493697146849828 3.7736816718415471e-05 0 -0.034464986168743911 -2.1431243397660576e-05 0 -0.034577763954875336 -3.9455548542475827e-05 0 -0.034493697146849828 3.7736816718415471e-05 0 -0.03467203801404279 -0.00010404754176436175 0 -0.034464986168743911 -2.1431243397660576e-05 0 -0.034577763954875336 -3.9455548542475827e-05 0 -0.033854878051738473 0.00040119258093059755 0 -0.034601368957348083 0.00012274934898358331 0 -0.034927964188056833 -3.2937094525550663e-05 0 -0.034974023188276235 -1.4152884532595316e-05 0 -0.034984068154374 5.7964092443547359e-06 0 -0.034974023188276235 -1.4152884532595316e-05 0 -0.034987190928021945 -4.816384274418511e-06 0 -0.03498614560530508 7.1768131476385332e-06 0 -0.034903461678354529 3.5089233316277101e-05 0 -0.034601368957348083 0.00012274934898358331 0 -0.034999734622496191 -9.3470210049236222e-08 0 -0.034999851222683058 -2.8390916125685912e-07 0 -0.034999998097984812 -8.7024763511108548e-10 0 -0.034022246604798828 0.00016263418222281116 0 -0.034458264695430847 7.914176091792629e-06 0 -0.034999851222683058 -2.8390916125685912e-07 0 -0.035000002248214403 1.9513159845795032e-09 0 -0.034999998097984812 -8.7024763511108548e-10 0 -0.034944756032038657 9.7967372049358965e-06 0 -0.034848298920676257 3.7461147405744667e-05 0 -0.034900522315784513 1.4696070814804774e-05 0 -0.034710105376248843 0.00012080442100752835 0 -0.0349389817309489 2.4714266848438817e-05 0 -0.034999734622496191 -9.3470210049236222e-08 0 -0.034999851222683058 -2.8390916125685912e-07 0 -0.034999955948307272 -5.5898285106198133e-07 0 -0.034900522315784513 1.4696070814804774e-05 0 -0.034665964541788941 8.5127204514314636e-05 0 -0.034710105376248843 0.00012080442100752835 0 -0.034999851222683058 -2.8390916125685912e-07 0 -0.034999585184992257 -9.0542301783279115e-07 0 -0.034999955948307272 -5.5898285106198133e-07 0 -0.034999851222683058 -2.8390916125685912e-07 0 -0.034999585184992257 -9.0542301783279115e-07 0 -0.035000002248214403 1.9513159845795032e-09 0 -0.034996789469874293 -2.6742255096841128e-06 0 -0.034999585184992257 -9.0542301783279115e-07 0 -0.035000002248214403 1.9513159845795032e-09 0 -0.034996789469874293 -2.6742255096841128e-06 0 -0.034999585184992257 -9.0542301783279115e-07 0 -0.034999955948307272 -5.5898285106198133e-07 0 -0.033233488635610063 0.00033642904903367335 0 -0.033332927474982246 0.0003308423824901978 0 -0.033375741860176875 0.00022639167545594922 0 -0.033233488635610063 0.00033642904903367335 0 -0.033295545749315814 0.00038011798758261992 0 -0.033332927474982246 0.0003308423824901978 0 -0.033233488635610063 0.00033642904903367335 0 -0.033251228277647052 0.00041298011342289404 0 -0.033295545749315814 0.00038011798758261992 0 -0.033251228277647052 0.00041298011342289404 0 -0.033295545749315814 0.00038011798758261992 0 -0.033306398300251734 0.00043963131688205988 0 -0.033251228277647052 0.00041298011342289404 0 -0.033306398300251734 0.00043963131688205988 0 -0.033263237191391168 0.0004662295905573666 0 -0.033306398300251734 0.00043963131688205988 0 -0.033366469642029946 0.0004023357080134689 0 -0.033366122478757781 0.0005057678478866274 0 -0.033295545749315814 0.00038011798758261992 0 -0.033306398300251734 0.00043963131688205988 0 -0.033366469642029946 0.0004023357080134689 0 -0.033295545749315814 0.00038011798758261992 0 -0.033366469642029946 0.0004023357080134689 0 -0.033332927474982246 0.0003308423824901978 0 -0.033366469642029946 0.0004023357080134689 0 -0.033332927474982246 0.0003308423824901978 0 -0.033415846453259353 0.0003237286193402365 0 -0.033366469642029946 0.0004023357080134689 0 -0.033415846453259353 0.0003237286193402365 0 -0.033456704221957664 0.00039629146269655507 0 -0.033366469642029946 0.0004023357080134689 0 -0.033456704221957664 0.00039629146269655507 0 -0.033433175253954589 0.00046697506117527107 0 -0.033456704221957664 0.00039629146269655507 0 -0.033545708945462736 0.00046940674495361828 0 -0.033433175253954589 0.00046697506117527107 0 -0.033456704221957664 0.00039629146269655507 0 -0.033525765274563107 0.00033321224407158726 0 -0.033545708945462736 0.00046940674495361828 0 -0.033415846453259353 0.0003237286193402365 0 -0.033456704221957664 0.00039629146269655507 0 -0.033525765274563107 0.00033321224407158726 0 -0.033475154435028291 0.00028194152195674721 0 -0.033375741860176875 0.00022639167545594922 0 -0.033626876257148414 0.00023270486885006451 0 -0.033415846453259353 0.0003237286193402365 0 -0.033475154435028291 0.00028194152195674721 0 -0.033525765274563107 0.00033321224407158726 0 -0.033332927474982246 0.0003308423824901978 0 -0.033415846453259353 0.0003237286193402365 0 -0.033375741860176875 0.00022639167545594922 0 -0.033415846453259353 0.0003237286193402365 0 -0.033475154435028291 0.00028194152195674721 0 -0.033375741860176875 0.00022639167545594922 0 -0.033375741860176875 0.00022639167545594922 0 -0.033626876257148414 0.00023270486885006451 0 -0.033976178193858279 -5.8030475491984259e-05 0 -0.033626876257148414 0.00023270486885006451 0 -0.033647234975445292 0.00034813042625479453 0 -0.033782862828528902 0.00023899801448150411 0 -0.033475154435028291 0.00028194152195674721 0 -0.033626876257148414 0.00023270486885006451 0 -0.033525765274563107 0.00033321224407158726 0 -0.033626876257148414 0.00023270486885006451 0 -0.033525765274563107 0.00033321224407158726 0 -0.033647234975445292 0.00034813042625479453 0 -0.033525765274563107 0.00033321224407158726 0 -0.033647234975445292 0.00034813042625479453 0 -0.033545708945462736 0.00046940674495361828 0 -0.033647234975445292 0.00034813042625479453 0 -0.033767578971518435 0.0004410308119835142 0 -0.033545708945462736 0.00046940674495361828 0 -0.033647234975445292 0.00034813042625479453 0 -0.033767578971518435 0.0004410308119835142 0 -0.033782862828528902 0.00023899801448150411 0 -0.033626876257148414 0.00023270486885006451 0 -0.033782862828528902 0.00023899801448150411 0 -0.033976178193858279 -5.8030475491984259e-05 0 -0.033767578971518435 0.0004410308119835142 0 -0.033782862828528902 0.00023899801448150411 0 -0.033973570396101736 0.00023422484765048791 0 -0.033552047345064409 0.00063392460953208411 0 -0.033572085856708428 0.00077760989936049782 0 -0.033748288467816273 0.0006876783840880224 0 -0.033767578971518435 0.0004410308119835142 0 -0.033552047345064409 0.00063392460953208411 0 -0.033748288467816273 0.0006876783840880224 0 -0.033545708945462736 0.00046940674495361828 0 -0.033552047345064409 0.00063392460953208411 0 -0.033435859480802473 0.00055672883775037378 0 -0.033767578971518435 0.0004410308119835142 0 -0.033545708945462736 0.00046940674495361828 0 -0.033552047345064409 0.00063392460953208411 0 -0.033552047345064409 0.00063392460953208411 0 -0.033420378335156098 0.00065604311420556605 0 -0.033435859480802473 0.00055672883775037378 0 -0.033552047345064409 0.00063392460953208411 0 -0.033420378335156098 0.00065604311420556605 0 -0.03347761645662363 0.00073379968516977762 0 -0.033420378335156098 0.00065604311420556605 0 -0.033435859480802473 0.00055672883775037378 0 -0.033345129167571624 0.00058840533160059417 0 -0.033545708945462736 0.00046940674495361828 0 -0.033433175253954589 0.00046697506117527107 0 -0.033435859480802473 0.00055672883775037378 0 -0.033366469642029946 0.0004023357080134689 0 -0.033433175253954589 0.00046697506117527107 0 -0.033366122478757781 0.0005057678478866274 0 -0.033433175253954589 0.00046697506117527107 0 -0.033435859480802473 0.00055672883775037378 0 -0.033366122478757781 0.0005057678478866274 0 -0.033435859480802473 0.00055672883775037378 0 -0.033366122478757781 0.0005057678478866274 0 -0.033345129167571624 0.00058840533160059417 0 -0.033366122478757781 0.0005057678478866274 0 -0.033319999140311286 0.00053560254691215785 0 -0.033345129167571624 0.00058840533160059417 0 -0.033366122478757781 0.0005057678478866274 0 -0.033308876641737872 0.00049340120081832494 0 -0.033319999140311286 0.00053560254691215785 0 -0.033306398300251734 0.00043963131688205988 0 -0.033366122478757781 0.0005057678478866274 0 -0.033308876641737872 0.00049340120081832494 0 -0.033306398300251734 0.00043963131688205988 0 -0.033263237191391168 0.0004662295905573666 0 -0.033308876641737872 0.00049340120081832494 0 -0.033263237191391168 0.0004662295905573666 0 -0.033308876641737872 0.00049340120081832494 0 -0.033282830355223898 0.00052267493309287607 0 -0.033308876641737872 0.00049340120081832494 0 -0.033282830355223898 0.00052267493309287607 0 -0.033319999140311286 0.00053560254691215785 0 -0.033282830355223898 0.00052267493309287607 0 -0.033319999140311286 0.00053560254691215785 0 -0.033297500603701562 0.00056630086509411673 0 -0.033319999140311286 0.00053560254691215785 0 -0.033297500603701562 0.00056630086509411673 0 -0.033345129167571624 0.00058840533160059417 0 -0.033282830355223898 0.00052267493309287607 0 -0.033297500603701562 0.00056630086509411673 0 -0.033257674546487821 0.00056844250118320448 0 -0.033297500603701562 0.00056630086509411673 0 -0.033275380267961681 0.00061790298476858312 0 -0.033345129167571624 0.00058840533160059417 0 -0.033297500603701562 0.00056630086509411673 0 -0.033275380267961681 0.00061790298476858312 0 -0.033257674546487821 0.00056844250118320448 0 -0.033420378335156098 0.00065604311420556605 0 -0.033345129167571624 0.00058840533160059417 0 -0.033318519170465619 0.0006771316201797541 0 -0.033275380267961681 0.00061790298476858312 0 -0.033345129167571624 0.00058840533160059417 0 -0.033318519170465619 0.0006771316201797541 0 -0.033275380267961681 0.00061790298476858312 0 -0.033318519170465619 0.0006771316201797541 0 -0.033268569781681558 0.00066856983193531332 0 -0.033318574562024202 0.0007454598418130461 0 -0.033438334739