<?xml version="1.0"?>
<VTKFile type="UnstructuredGrid" version="0.1" byte_order="LittleEndian">
<UnstructuredGrid>
<Piece NumberOfPoints="31048" NumberOfCells="10933">
<Points>
<DataArray type="Float64" NumberOfComponents="3" format="ascii">
-0.5 -0.5 0 -0.45966401123466488 -0.49658733248650311 0 -0.40896344978824928 -0.5 0 -0.5 -0.5 0 -0.49999999999999772 -0.47600230024017931 0 -0.47846481948080899 -0.47835377823494579 0 -0.5 -0.5 0 -0.47846481948080899 -0.47835377823494579 0 -0.45966401123466488 -0.49658733248650311 0 -0.49999999999999772 -0.47600230024017931 0 -0.47846481948080899 -0.47835377823494579 0 -0.48663031278447982 -0.45896074991701058 0 -0.49999999999999772 -0.47600230024017931 0 -0.47846481948080899 -0.47835377823494579 0 -0.47846481948080899 -0.47835377823494579 0 -0.45966401123466488 -0.49658733248650311 0 -0.45692963896162048 -0.48070525622971388 0 -0.45966401123466488 -0.49658733248650311 0 -0.45692963896162048 -0.48070525622971388 0 -0.47846481948080899 -0.47835377823494579 0 -0.45692963896162048 -0.48070525622971388 0 -0.46588888375070592 -0.46675240324930273 0 -0.45692963896162048 -0.48070525622971388 0 -0.45291178277604027 -0.45736831013892187 0 -0.47846481948080899 -0.47835377823494579 0 -0.45692963896162048 -0.48070525622971388 0 -0.45692963896162048 -0.48070525622971388 0 -0.44630962018671372 -0.46961798428304857 0 -0.45291178277604027 -0.45736831013892187 0 -0.45692963896162048 -0.48070525622971388 0 -0.44630962018671372 -0.46961798428304857 0 -0.43000179547083378 -0.48364557202407898 0 -0.45692963896162048 -0.48070525622971388 0 -0.43000179547083378 -0.48364557202407898 0 -0.45966401123466488 -0.49658733248650311 0 -0.45692963896162048 -0.48070525622971388 0 -0.43000179547083378 -0.48364557202407898 0 -0.45291178277604027 -0.45736831013892187 0 -0.44889392659046018 -0.43403136404812981 0 -0.44576964967754928 -0.44775750114313551 0 -0.45291178277604027 -0.45736831013892187 0 -0.44889392659046018 -0.43403136404812981 0 -0.44576964967754928 -0.44775750114313551 0 -0.4420236995768253 -0.43889794657762188 0 -0.44889392659046018 -0.43403136404812981 0 -0.4420236995768253 -0.43889794657762188 0 -0.43795457363143991 -0.44704478416018989 0 -0.4353432285932719 -0.4354544262594332 0 -0.44576964967754928 -0.44775750114313551 0 -0.4420236995768253 -0.43889794657762188 0 -0.43795457363143991 -0.44704478416018989 0 -0.44576964967754928 -0.44775750114313551 0 -0.43795457363143991 -0.44704478416018989 0 -0.44144336127146788 -0.45782316793564931 0 -0.44630962018671372 -0.46961798428304857 0 -0.44144336127146788 -0.45782316793564931 0 -0.4342616214588958 -0.46725457514822838 0 -0.44630962018671372 -0.46961798428304857 0 -0.44144336127146788 -0.45782316793564931 0 -0.45291178277604027 -0.45736831013892187 0 -0.44576964967754928 -0.44775750114313551 0 -0.44144336127146788 -0.45782316793564931 0 -0.45291178277604027 -0.45736831013892187 0 -0.45692963896162048 -0.48070525622971388 0 -0.45291178277604027 -0.45736831013892187 0 -0.46588888375070592 -0.46675240324930273 0 -0.45291178277604027 -0.45736831013892187 0 -0.45966933447960318 -0.45572426184337628 0 -0.46575185313353917 -0.45925153041176398 0 -0.45291178277604027 -0.45736831013892187 0 -0.46588888375070592 -0.46675240324930273 0 -0.46575185313353917 -0.45925153041176398 0 -0.46588888375070592 -0.46675240324930273 0 -0.46575185313353917 -0.45925153041176398 0 -0.47444295785175589 -0.4593023255142048 0 -0.45966933447960318 -0.45572426184337628 0 -0.46575185313353917 -0.45925153041176398 0 -0.46790989392199378 -0.45216716007609492 0 -0.45966933447960318 -0.45572426184337628 0 -0.46599162139971789 -0.43886018175947239 0 -0.46397647541351938 -0.44185953462894217 0 -0.46599162139971789 -0.43886018175947239 0 -0.46790989392199378 -0.45216716007609492 0 -0.47105949878466319 -0.43114296985480949 0 -0.45966933447960318 -0.45572426184337628 0 -0.46599162139971789 -0.43886018175947239 0 -0.46790989392199378 -0.45216716007609492 0 -0.45966933447960318 -0.45572426184337628 0 -0.46599162139971789 -0.43886018175947239 0 -0.45291178277604027 -0.45736831013892187 0 -0.46397647541351938 -0.44185953462894217 0 -0.44889392659046018 -0.43403136404812981 0 -0.45291178277604027 -0.45736831013892187 0 -0.45966933447960318 -0.45572426184337628 0 -0.46397647541351938 -0.44185953462894217 0 -0.46790989392199378 -0.45216716007609492 0 -0.47710204910637383 -0.42416254534193581 0 -0.46790989392199378 -0.45216716007609492 0 -0.48005421812543569 -0.43942908164429162 0 -0.47710204910637383 -0.42416254534193581 0 -0.46790989392199378 -0.45216716007609492 0 -0.47962785556108539 -0.45003824052489749 0 -0.48005421812543569 -0.43942908164429162 0 -0.47962785556108539 -0.45003824052489749 0 -0.48005421812543569 -0.43942908164429162 0 -0.48868798392767793 -0.44201763362024438 0 -0.47846481948080899 -0.47835377823494579 0 -0.46588888375070592 -0.46675240324930273 0 -0.47444295785175589 -0.4593023255142048 0 -0.47846481948080899 -0.47835377823494579 0 -0.47444295785175589 -0.4593023255142048 0 -0.48663031278447982 -0.45896074991701058 0 -0.46790989392199378 -0.45216716007609492 0 -0.47962785556108539 -0.45003824052489749 0 -0.47444295785175589 -0.4593023255142048 0 -0.46575185313353917 -0.45925153041176398 0 -0.46790989392199378 -0.45216716007609492 0 -0.47444295785175589 -0.4593023255142048 0 -0.47962785556108539 -0.45003824052489749 0 -0.47444295785175589 -0.4593023255142048 0 -0.48663031278447982 -0.45896074991701058 0 -0.49999999999999772 -0.47600230024017931 0 -0.48663031278447982 -0.45896074991701058 0 -0.5 -0.45043107386881692 0 -0.5 -0.45043107386881692 0 -0.48868798392767793 -0.44201763362024438 0 -0.5 -0.42485984749745448 0 -0.47962785556108539 -0.45003824052489749 0 -0.48663031278447982 -0.45896074991701058 0 -0.48868798392767793 -0.44201763362024438 0 -0.48663031278447982 -0.45896074991701058 0 -0.5 -0.45043107386881692 0 -0.48868798392767793 -0.44201763362024438 0 -0.48868798392767793 -0.44201763362024438 0 -0.48879895941858131 -0.42945493301215171 0 -0.5 -0.42485984749745448 0 -0.48005421812543569 -0.43942908164429162 0 -0.48868798392767793 -0.44201763362024438 0 -0.48879895941858131 -0.42945493301215171 0 -0.48879895941858131 -0.42945493301215171 0 -0.48637954663565369 -0.42293705884680671 0 -0.49075502247517022 -0.42076817690049412 0 -0.48879895941858131 -0.42945493301215171 0 -0.5 -0.42485984749745448 0 -0.49075502247517022 -0.42076817690049412 0 -0.5 -0.42485984749745448 0 -0.49178400022208502 -0.41002789218281499 0 -0.5 -0.39928862112609209 0 -0.5 -0.42485984749745448 0 -0.49178400022208502 -0.41002789218281499 0 -0.49075502247517022 -0.42076817690049412 0 -0.49178400022208502 -0.41002789218281499 0 -0.48508458381982911 -0.41298753957730511 0 -0.48463967985132689 -0.40119856782122698 0 -0.49178400022208502 -0.41002789218281499 0 -0.48508458381982911 -0.41298753957730511 0 -0.4868126060995307 -0.41656115296324231 0 -0.49178400022208502 -0.41002789218281499 0 -0.49075502247517022 -0.42076817690049412 0 -0.4868126060995307 -0.41656115296324231 0 -0.48637954663565369 -0.42293705884680671 0 -0.49075502247517022 -0.42076817690049412 0 -0.4868126060995307 -0.41656115296324231 0 -0.47710204910637383 -0.42416254534193581 0 -0.48463967985132689 -0.40119856782122698 0 -0.47231390831983278 -0.42199610167556861 0 -0.48154260554655492 -0.39737945724483481 0 -0.48508458381982911 -0.41298753957730511 0 -0.47710204910637383 -0.42416254534193581 0 -0.48463967985132689 -0.40119856782122698 0 -0.48637954663565369 -0.42293705884680671 0 -0.4868126060995307 -0.41656115296324231 0 -0.47710204910637383 -0.42416254534193581 0 -0.47553249120311331 -0.40762552545486341 0 -0.47231390831983278 -0.42199610167556861 0 -0.48154260554655492 -0.39737945724483481 0 -0.47231390831983278 -0.42199610167556861 0 -0.48463967985132689 -0.40119856782122698 0 -0.48154260554655492 -0.39737945724483481 0 -0.47231390831983278 -0.42199610167556861 0 -0.47710204910637383 -0.42416254534193581 0 -0.48463967985132689 -0.40119856782122698 0 -0.48508458381982911 -0.41298753957730511 0 -0.4868126060995307 -0.41656115296324231 0 -0.47710204910637383 -0.42416254534193581 0 -0.47553249120311331 -0.40762552545486341 0 -0.47148754737094928 -0.41024777641391352 0 -0.47188226019967122 -0.41422254246750029 0 -0.46925429150769538 -0.41284899187400492 0 -0.47148754737094928 -0.41024777641391352 0 -0.47188226019967122 -0.41422254246750029 0 -0.46925429150769538 -0.41284899187400492 0 -0.47148754737094928 -0.41024777641391352 0 -0.46865892537956277 -0.40941828865034202 0 -0.47553249120311331 -0.40762552545486341 0 -0.47148754737094928 -0.41024777641391352 0 -0.47091700398815578 -0.40664614660913562 0 -0.47148754737094928 -0.41024777641391352 0 -0.47091700398815578 -0.40664614660913562 0 -0.46865892537956277 -0.40941828865034202 0 -0.47091700398815578 -0.40664614660913562 0 -0.46760452559658178 -0.40599474626548587 0 -0.46865892537956277 -0.40941828865034202 0 -0.47553249120311331 -0.40762552545486341 0 -0.47188226019967122 -0.41422254246750029 0 -0.47231390831983278 -0.42199610167556861 0 -0.46925429150769538 -0.41284899187400492 0 -0.47188226019967122 -0.41422254246750029 0 -0.46871474998237039 -0.41726916442086359 0 -0.47188226019967122 -0.41422254246750029 0 -0.47231390831983278 -0.42199610167556861 0 -0.46871474998237039 -0.41726916442086359 0 -0.46599162139971789 -0.43886018175947239 0 -0.47231390831983278 -0.42199610167556861 0 -0.46790989392199378 -0.45216716007609492 0 -0.47105949878466319 -0.43114296985480949 0 -0.47710204910637383 -0.42416254534193581 0 -0.47231390831983278 -0.42199610167556861 0 -0.47105949878466319 -0.43114296985480949 0 -0.47710204910637383 -0.42416254534193581 0 -0.46599162139971789 -0.43886018175947239 0 -0.47231390831983278 -0.42199610167556861 0 -0.47105949878466319 -0.43114296985480949 0 -0.47231390831983278 -0.42199610167556861 0 -0.47710204910637383 -0.42416254534193581 0 -0.48005421812543569 -0.43942908164429162 0 -0.48879895941858131 -0.42945493301215171 0 -0.47710204910637383 -0.42416254534193581 0
[...]
<PointData Scalars="" Vectors="displacement," Tensors="">
<DataArray type="Float64" Name="displacement" NumberOfComponents="3" format="ascii">
-0.034996584676452336 -0.035000890176215237 0 -0.035144871336239558 -0.032237631150000008 0 -0.035000531492019815 -0.028627730572891228 0 -0.034996584676452336 -0.035000890176215237 0 -0.033326227332335756 -0.034997652584443775 0 -0.035118725847878937 -0.033958851684550963 0 -0.034996584676452336 -0.035000890176215237 0 -0.035118725847878937 -0.033958851684550963 0 -0.035144871336239558 -0.032237631150000008 0 -0.03331976529916604 -0.034999963915032455 0 -0.033300322211463236 -0.036306499883945832 0 -0.032116475373405687 -0.035842367290313031 0 -0.033320479444886419 -0.034998954582813366 0 -0.034162037863297745 -0.03558612169415204 0 -0.035118725847878937 -0.033958851684550963 0 -0.035144871336239558 -0.032237631150000008 0 -0.035570970550524494 -0.032407963877219156 0 -0.035630609184575106 -0.03217519174944225 0 -0.034529860081423489 -0.031996080941611778 0 -0.033300322211463236 -0.036306499883945832 0 -0.033374454001905036 -0.037484230757947469 0 -0.032573894253543054 -0.037010110161028308 0 -0.034529860081423489 -0.031996080941611778 0 -0.032979337369262382 -0.031819688585337978 0 -0.034162037863297745 -0.03558612169415204 0 -0.034529860081423489 -0.031996080941611778 0 -0.0356149597075993 -0.025802397207775225 0 -0.034948207079126124 -0.026406759968868185 0 -0.03420222938498315 -0.025950771703564995 0 -0.0356149597075993 -0.025802397207775225 0 -0.034948207079126124 -0.026406759968868185 0 -0.035766868984062276 -0.027464089485942957 0 -0.034529860081423489 -0.031996080941611778 0 -0.036071843773274985 -0.028111981471481504 0 -0.035144871336239558 -0.032237631150000008 0 -0.036285382725615545 -0.032039060930103343 0 -0.036112537723604066 -0.0301147460136321 0 -0.032979337369262382 -0.031819688585337978 0 -0.03224605809556879 -0.031513839487718874 0 -0.033578752994733778 -0.026286221218231182 0 -0.03420222938498315 -0.025950771703564995 0 -0.032662865729271941 -0.025921816746363974 0 -0.033578752994733778 -0.026286221218231182 0 -0.032970609093092663 -0.026461384659110434 0 -0.032662865729271941 -0.025921816746363974 0 -0.032970609093092663 -0.026461384659110434 0 -0.033541856079823483 -0.026783444429879975 0 -0.032696560181317211 -0.026894273421399488 0 -0.033578752994733778 -0.026286221218231182 0 -0.032970609093092663 -0.026461384659110434 0 -0.033541856079823483 -0.026783444429879975 0 -0.033578752994733778 -0.026286221218231182 0 -0.033541856079823483 -0.026783444429879975 0 -0.034239024598676004 -0.026634682417490989 0 -0.034948207079126124 -0.026406759968868185 0 -0.034239024598676004 -0.026634682417490989 0 -0.034822584565816439 -0.027135696051359678 0 -0.034948207079126124 -0.026406759968868185 0 -0.034239024598676004 -0.026634682417490989 0 -0.03420222938498315 -0.025950771703564995 0 -0.033578752994733778 -0.026286221218231182 0 -0.034239024598676004 -0.026634682417490989 0 -0.03420222938498315 -0.025950771703564995 0 -0.033374454001905036 -0.037484230757947469 0 -0.032028303683591441 -0.0376950404656161 0 -0.032573894253543054 -0.037010110161028308 0 -0.032028303683591441 -0.0376950404656161 0 -0.031925704090566213 -0.03732898062790576 0 -0.032127743769818265 -0.037019528543325055 0 -0.032028303683591441 -0.0376950404656161 0 -0.032573894253543054 -0.037010110161028308 0 -0.032127743769818265 -0.037019528543325055 0 -0.032573894253543054 -0.037010110161028308 0 -0.032127743769818265 -0.037019528543325055 0 -0.032129634558230667 -0.036548573854561638 0 -0.031925704090566213 -0.03732898062790576 0 -0.032127743769818265 -0.037019528543325055 0 -0.031700955356697792 -0.036931187751583189 0 -0.031925704090566213 -0.03732898062790576 0 -0.030913022187020384 -0.036855092936718424 0 -0.031099183000215351 -0.036994329614199704 0 -0.03092101101549773 -0.037041847422309079 0 -0.031700955356697792 -0.036931187751583189 0 -0.030458502380524645 -0.036739024962892608 0 -0.031925704090566213 -0.03732898062790576 0 -0.03092101101549773 -0.037041847422309079 0 -0.031700955356697792 -0.036931187751583189 0 -0.031688788048609057 -0.037239650133367677 0 -0.031260851494179849 -0.037068269895120784 0 -0.032028303683591441 -0.0376950404656161 0 -0.031099183000215351 -0.036994329614199704 0 -0.030664930672909825 -0.037798965167089124 0 -0.032028303683591441 -0.0376950404656161 0 -0.031925704090566213 -0.03732898062790576 0 -0.031099183000215351 -0.036994329614199704 0 -0.031864558017159164 -0.037000518838419184 0 -0.02934683846732437 -0.036241231837655263 0 -0.031700955356697792 -0.036931187751583189 0 -0.030818036936670248 -0.036262938555576073 0 -0.02979534408780506 -0.036495083743282968 0 -0.031700955356697792 -0.036931187751583189 0 -0.031530755713428206 -0.036265038965462418 0 -0.030818036936670248 -0.036262938555576073 0 -0.031530755713428206 -0.036265038965462418 0 -0.030818036936670248 -0.036262938555576073 0 -0.030974927238193995 -0.035726667709399341 0 -0.033300322211463236 -0.036306499883945832 0 -0.032573894253543054 -0.037010110161028308 0 -0.032129634558230667 -0.036548573854561638 0 -0.033300322211463236 -0.036306499883945832 0 -0.032129634558230667 -0.036548573854561638 0 -0.032116475373405687 -0.035842367290313031 0 -0.031700955356697792 -0.036931187751583189 0 -0.031530755713428206 -0.036265038965462418 0 -0.032129634558230667 -0.036548573854561638 0 -0.032127743769818265 -0.037019528543325055 0 -0.031700955356697792 -0.036931187751583189 0 -0.032129634558230667 -0.036548573854561638 0 -0.031530755713428206 -0.036265038965462418 0 -0.032129634558230667 -0.036548573854561638 0 -0.032116475373405687 -0.035842367290313031 0 -0.03331976529916604 -0.034999963915032455 0 -0.032116475373405687 -0.035842367290313031 0 -0.03153030295212627 -0.034999916019723257 0 -0.03153030295212627 -0.034999916019723257 0 -0.030974927238193995 -0.035726667709399341 0 -0.029740263722789186 -0.03499995780125742 0 -0.031530755713428206 -0.036265038965462418 0 -0.032116475373405687 -0.035842367290313031 0 -0.030974927238193995 -0.035726667709399341 0 -0.032116475373405687 -0.035842367290313031 0 -0.03153030295212627 -0.034999916019723257 0 -0.030974927238193995 -0.035726667709399341 0 -0.030974927238193995 -0.035726667709399341 0 -0.030104629016242748 -0.03573927054151043 0 -0.029740263722789186 -0.03499995780125742 0 -0.030818036936670248 -0.036262938555576073 0 -0.030974927238193995 -0.035726667709399341 0 -0.030104629016242748 -0.03573927054151043 0 -0.030104629016242748 -0.03573927054151043 0 -0.029623500133311519 -0.035929293789781554 0 -0.029464270585909464 -0.035626368958161146 0 -0.030104629016242748 -0.03573927054151043 0 -0.029740263722789186 -0.03499995780125742 0 -0.029464270585909464 -0.035626368958161146 0 -0.029740263722789186 -0.03499995780125742 0 -0.028706087951565547 -0.035563817112303331 0 -0.027950190465075703 -0.034999993517126828 0 -0.029740263722789186 -0.03499995780125742 0 -0.028706087951565547 -0.035563817112303331 0 -0.029464270585909464 -0.035626368958161146 0 -0.028706087951565547 -0.035563817112303331 0 -0.028915215141745755 -0.036031475717127698 0 -0.028081933805150824 -0.036065181090806045 0 -0.028706087951565547 -0.035563817112303331 0 -0.028915215141745755 -0.036031475717127698 0 -0.029167904399100639 -0.035906351979740389 0 -0.028706087951565547 -0.035563817112303331 0 -0.029464270585909464 -0.035626368958161146 0 -0.029167904399100639 -0.035906351979740389 0 -0.029623500133311519 -0.035929293789781554 0 -0.029464270585909464 -0.035626368958161146 0 -0.029167904399100639 -0.035906351979740389 0 -0.02934683846732437 -0.036241231837655263 0 -0.027678550529018749 -0.035975324273304021 0 -0.027807401218601556 -0.036419391708434355 0 -0.02505431640834541 -0.035607393608947033 0 -0.028915215141745755 -0.036031475717127698 0 -0.02970663164472408 -0.036596921880964632 0 -0.028081933805150824 -0.036065181090806045 0 -0.029623500133311519 -0.035929293789781554 0 -0.029167904399100639 -0.035906351979740389 0 -0.02970663164472408 -0.036596921880964632 0 -0.02374986360273184 -0.035437904607791719 0 -0.023913272769772075 -0.035424393917984326 0 -0.023630150489140505 -0.035429020826669488 0 -0.028311652747984119 -0.036417869310396603 0 -0.027372441297508827 -0.035866771897203956 0 -0.027193406427938473 -0.036011833204572172 0 -0.028311652747984119 -0.036417869310396603 0 -0.028410594733306437 -0.036202657066765308 0 -0.027372441297508827 -0.035866771897203956 0 -0.028915215141745755 -0.036031475717127698 0 -0.029167904399100639 -0.035906351979740389 0 -0.02970663164472408 -0.036596921880964632 0 -0.02374986360273184 -0.035437904607791719 0 -0.023781799718272708 -0.035455507834692555 0 -0.023826264868129436 -0.035445780633388255 0 -0.023812973843966356 -0.035466709448135937 0 -0.023781799718272708 -0.035455507834692555 0 -0.023826264868129436 -0.035445780633388255 0 -0.023812973843966356 -0.035466709448135937 0 -0.023781799718272708 -0.035455507834692555 0 -0.02377471146849338 -0.035474616993098035 0 -0.02374986360273184 -0.035437904607791719 0 -0.023781799718272708 -0.035455507834692555 0 -0.023742787499035224 -0.035462990873033735 0 -0.023781799718272708 -0.035455507834692555 0 -0.023742787499035224 -0.035462990873033735 0 -0.02377471146849338 -0.035474616993098035 0 -0.023742787499035224 -0.035462990873033735 0 -0.023738079594990774 -0.035483244910410279 0 -0.02377471146849338 -0.035474616993098035 0 -0.02374986360273184 -0.035437904607791719 0 -0.023826264868129436 -0.035445780633388255 0 -0.023913272769772075 -0.035424393917984326 0 -0.023812973843966356 -0.035466709448135937 0 -0.023826264868129436 -0.035445780633388255 0 -0.023863841025606614 -0.035463443506096079 0 -0.023826264868129436 -0.035445780633388255 0 -0.023913272769772075 -0.035424393917984326 0 -0.023863841025606614 -0.035463443506096079 0 -0.031260851494179849 -0.037068269895120784 0 -0.027807401218601556 -0.036419391708434355 0 -0.031700955356697792 -0.036931187751583189 0 -0.030458502380524645 -0.036739024962892608 0 -0.030043034622154245 -0.036379278552785575 0 -0.029909605044082289 -0.0366635672587367 0 -0.030458502380524645 -0.036739024962892608 0 -0.030043034622154245 -0.036379278552785575 0 -0.03092101101549773 -0.037041847422309079 0 -0.029909605044082289 -0.0366635672587367 0 -0.030458502380524645 -0.036739024962892608 0 -0.027807401218601556 -0.036419391708434355 0 -0.02934683846732437 -0.036241231837655263 0 -0.030818036936670248 -0.036262938555576073 0 -0.030104629016242748 -0.03573927054151043 0 -0.02979534408780506 -0.036495083743282968 0 -0.030104629016242748 -0.03573927054151043 0 -0.029623500133311519 -0.035929293789781554 0 -0.02970663164472408 -0.036596921880964632 0 -0.029936982273882581 -0.035864585639544783 0 -0.02934683846732437 -0.036241231837655263 0 -0.026476908695261876 -0.035545746704271172 0 -0.027312919937486382 -0.035432029578279109 0 -0.02616022341314047 -0.034999997079538644 0 -0.02505431640834541 -0.035607393608947033 0 -0.024930096373180829 -0.035559454529799868 0 -0.027312919937486382 -0.035432029578279109 0 -0.027950190465075703 -0.034999993517126828 0 -0.02616022341314047 -0.034999997079538644 0 -0.026352757251827272 -0.035514091691565733 0 -0.027678550529018749 -0.035975324273304021 0 -0.026257962455974102 -0.035504332086540517 0 -0.027193406427938473 -0.036011833204572172 0 -0.025958163797454904 -0.035582500813873798 0 -0.026476908695261876 -0.035545746704271172 0 -0.027312919937486382 -0.035432029578279109 0 -0.028081933805150824 -0.036065181090806045 0 -0.026257962455974102 -0.035504332086540517 0 -0.027372441297508827 -0.035866771897203956 0 -0.027193406427938473 -0.036011833204572172 0 -0.027312919937486382 -0.035432029578279109 0 -0.028012004197070856 -0.03551519426585073 0 -0.028081933805150824 -0.036065181090806045 0 -0.027312919937486382 -0.035432029578279109 0 -0.028012004197070856 -0.03551519426585073 0 -0.027950190465075703 -0.034999993517126828 0 -0.028706087951565547 -0.035563817112303331 0 -0.028012004197070856 -0.03551519426585073 0 -0.027950190465075703 -0.034999993517126828 0 -0.028706087951565547 -0.035563817112303331 0 -0.028012004197070856 -0.03551519426585073 0 -0.028081933805150824 -0.036065181090806045 0 -0.02374986360273184 -0.035437904607791719 0 -0.02367943928853302 -0.035445733238275677 0 -0.023630150489140505 -0.035429020826669488 0 -0.02374986360273184 -0.035437904607791719 0 -0.023709102491342813 -0.035455616012585379 0 -0.02367943928853302 -0.035445733238275677 0 -0.02374986360273184 -0.035437904607791719 0 -0.023742787499035224 -0.035462990873033735 0 -0.023709102491342813 -0.035455616012585379 0 -0.023742787499035224 -0.035462990873033735 0 -0.023709102491342813 -0.035455616012585379 0 -0.02370659792122766 -0.035473600193489739 0 -0.023742787499035224 -0.035462990873033735 0 -0.02370659792122766 -0.035473600193489739 0 -0.023738079594990774 -0.035483244910410279 0 -0.02370659792122766 -0.035473600193489739 0 -0.023670489972299088 -0.035461631233388691 0 -0.023672039065810491 -0.035494620754005009 0 -0.023709102491342813 -0.035455616012585379 0 -0.02370659792122766 -0.035473600193489739 0 -0.023670489972299088 -0.035461631233388691 0 -0.023709102491342813 -0.035455616012585379 0 -0.023670489972299088 -0.035461631233388691 0 -0.02367943928853302 -0.035445733238275677 0 -0.023670489972299088 -0.035461631233388691 0 -0.02367943928853302 -0.035445733238275677 0 -0.02364622137621911 -0.035445449189795683 0 -0.023670489972299088 -0.035461631233388691 0 -0.02364622137621911 -0.035445449189795683 0 -0.023640059323831956 -0.035459436554438006 0 -0.023670489972299088 -0.035461631233388691 0 -0.023640059323831956 -0.035459436554438006 0 -0.023642255960460528 -0.035478745527478844 0 -0.023640059323831956 -0.035459436554438006 0 -0.023610932059218003 -0.03547462349672037 0 -0.023642255960460528 -0.035478745527478844 0 -0.023640059323831956 -0.035459436554438006 0 -0.023639188695586722 -0.035451683069873521 0 -0.023610932059218003 -0.03547462349672037 0 -0.02364622137621911 -0.035445449189795683 0 -0.023640059323831956 -0.035459436554438006 0 -0.023639188695586722 -0.035451683069873521 0 -0.023641909902103866 -0.035444024251324112 0 -0.023630150489140505 -0.035429020826669488 0 -0.023665794540754799 -0.035465237412015453 0 -0.02364622137621911 -0.035445449189795683 0 -0.023641909902103866 -0.035444024251324112 0 -0.023639188695586722 -0.035451683069873521 0 -0.02367943928853302 -0.035445733238275677 0 -0.02364622137621911 -0.035445449189795683 0 -0.023630150489140505 -0.035429020826669488 0 -0.02364622137621911 -0.035445449189795683 0 -0.023641909902103866 -0.035444024251324112 0 -0.023630150489140505 -0.035429020826669488 0 -0.023630150489140505 -0.035429020826669488 0 -0.023665794540754799 -0.035465237412015453 0 -0.023775480065920254 -0.035574738694388562 0 -0.023665794540754799 -0.035465237412015453 0 -0.023638861395595005 -0.035459979503594259 0 -0.023686057987864797 -0.035478949539701071 0 -0.023641909902103866 -0.035444024251324112 0 -0.023665794540754799 -0.035465237412015453 0 -0.023639188695586722 -0.035451683069873521 0 -0.023665794540754799 -0.035465237412015453 0 -0.023639188695586722 -0.035451683069873521 0 -0.023638861395595005 -0.035459979503594259 0 -0.023639188695586722 -0.035451683069873521 0 -0.023638861395595005 -0.035459979503594259 0 -0.023610932059218003 -0.03547462349672037 0 -0.023638861395595005 -0.035459979503594259 0 -0.023607210840725538 -0.03546273947387512 0 -0.023610932059218003 -0.03547462349672037 0 -0.023638861395595005 -0.035459979503594259 0 -0.023607210840725538 -0.03546273947387512 0 -0.023686057987864797 -0.035478949539701071 0 -0.023665794540754799 -0.035465237412015453 0 -0.023686057987864797 -0.035478949539701071 0 -0.023775480065920254 -0.035574738694388562 0 -0.023607210840725538 -0.03546273947387512 0 -0.023686057987864797 -0.035478949539701071 0 -0.023744426337147986 -0.035483573026081086 0 -0.023541837465126093 -0.035528957431141567 0 -0.023403886798091751 -0.035666352313526002 0 -0.023373749853204923 -0.035512836750031224 0 -0.023607210840725538 -0.03546273947387512 0 -0.023541837465126093 -0.035528957431141567 0 -0.023373749853204923 -0.035512836750031224 0 -0.023610932059218003 -0.03547462349672037 0 -0.023541837465126093 -0.035528957431141567 0 -0.023627034615358502 -0.035509503990359667 0 -0.023607210840725538 -0.03546273947387512 0 -0.023610932059218003 -0.03547462349672037 0 -0.023541837465126093 -0.035528957431141567 0 -0.023541837465126093 -0.035528957431141567 0 -0.023613963456872073 -0.035570188433485188 0 -0.023627034615358502 -0.035509503990359667 0 -0.023541837465126093 -0.035528957431141567 0 -0.023613963456872073 -0.035570188433485188 0 -0.023530956029110543 -0.035634720666884223 0 -0.023613963456872073 -0.035570188433485188 0 -0.023627034615358502 -0.035509503990359667 0 -0.023682280362748206 -0.035536420032095208 0 -0.023610932059218003 -0.03547462349672037 0 -0.023642255960460528 -0.035478745527478844 0 -0.023627034615358502 -0.035509503990359667 0 -0.023670489972299088 -0.035461631233388691 0 -0.023642255960460528 -0.035478745527478844 0 -0.023672039065810491 -0.035494620754005009 0 -0.023642255960460528 -0.035478745527478844 0 -0.023627034615358502 -0.035509503990359667 0 -0.023672039065810491 -0.035494620754005009 0 -0.023627034615358502 -0.035509503990359667 0 -0.023672039065810491 -0.035494620754005009 0 -0.023682280362748206 -0.035536420032095208 0 -0.023672039065810491 -0.035494620754005009 0 -0.023701429701858002 -0.035512005360022199 0 -0.023682280362748206 -0.035536420032095208 0 -0.023672039065810491 -0.035494620754005009 0 -0.023707620600234704 -0.035493562688254772 0 -0.023701429701858002 -0.035512005360022199 0 -0.02370659792122766 -0.035473600193489739 0 -0.023672039065810491 -0.035494620754005009 0 -0.023707620600234704 -0.035493562688254772 0 -0.02370659792122766 -0.035473600193489739 0 -0.023738079594990774 -0.035483244910410279 0 -0.023707620600234704 -0.035493562688254772 0 -0.023738079594990774 -0.035483244910410279 0 -0.023707620600234704 -0.035493562688254772 0 -0.023727618929479853 -0.035508109888999502 0 -0.023707620600234704 -0.035493562688254772 0 -0.023727618929479853 -0.035508109888999502 0 -0.023701429701858002 -0.035512005360022199 0 -0.023727618929479853 -0.035508109888999502 0 -0.023701429701858002 -0.035512005360022199 0 -0.023718993404167141 -0.03552994121990679 0 -0.023701429701858002 -0.035512005360022199 0 -0.023718993404167141 -0.03552994121990679 0 -0.023682280362748206 -0.035536420032095208 0 -0.023727618929479853 -0.035508109888999502 0 -0.023718993404167141 -0.03552994121990679 0 -0.023750455175264751 -0.035535017154002875 0 -0.023718993404167141 -0.03552994121990679 0 -0.023739731327942784 -0.035564521424608135 0 -0.023682280362748206 -0.035536420032095208 0 -0.023718993404167141 -0.03552994121990679 0 -0.023739731327942784 -0.035564521424608135 0 -0.023750455175264751 -0.035535017154002875 0 -0.023613963456872073 -0.035570188433485188 0 -0.023682280362748206 -0.035536420032095208 0 -0.023701470216856202 -0.035600735567066027 0 -0.023739731327942784 -0.035564521424608135 0 -0.023682280362748206 -0.035536420032095208 0 -0.023701470216856202 -0.035600735567066027 0 -0.023739731327942784 -0.035564521424608135 0 -0.023701470216856202 -0.035600735567066027 0 -0.023750300515711469 -0.035602173137924305 0 -0.023696582385510465 -0.035661795459661576 0 -0.023519309220067095 -0.035732429210509148 0 -0.023816697093359242 -0.035692026771778879 0 -0.027144035996672485 -0.034883330830977416 0 -0.02209218055086867 -0.035787510652168258 0 -0.023519309220067095 -0.035732429210509148 0 -0.023816697093359242 -0.035692026771778879 0 -0.023361800227795479 -0.03587468009909843 0 -0.023701470216856202 -0.035600735567066027 0 -0.023744794894940378 -0.035629455036373422 0 -0.023696582385510465 -0.035661795459661576 0 -0.023701470216856202 -0.035600735567066027 0 -0.023744794894940378 -0.035629455036373422 0 -0.023750300515711469 -0.035602173137924305 0 -0.023701