<?xml version="1.0"?>
<VTKFile type="UnstructuredGrid" version="0.1" byte_order="LittleEndian">
<UnstructuredGrid>
<Piece NumberOfPoints="30214" NumberOfCells="10566">
<Points>
<DataArray type="Float64" NumberOfComponents="3" format="ascii">
-0.5 -0.5 0 -0.47127450964123302 -0.48033552846658562 0 -0.45758054275359911 -0.5 0 -0.5 -0.5 0 -0.47127450964123302 -0.48033552846658562 0 -0.48263055333194022 -0.46361072537293863 0 -0.5 -0.5 0 -0.48263055333194022 -0.46361072537293863 0 -0.5 -0.4430499581005044 0 -0.47127450964123302 -0.48033552846658562 0 -0.46952517697566148 -0.4661851678083439 0 -0.48263055333194022 -0.46361072537293863 0 -0.45758054275359911 -0.5 0 -0.45905921249339909 -0.47464795541041183 0 -0.44381103759202051 -0.47926905309511381 0 -0.47127450964123302 -0.48033552846658562 0 -0.45758054275359911 -0.5 0 -0.45905921249339909 -0.47464795541041183 0 -0.45758054275359911 -0.5 0 -0.44381103759202051 -0.47926905309511381 0 -0.42630188882038228 -0.49999999999999672 0 -0.45905921249339909 -0.47464795541041183 0 -0.44381103759202051 -0.47926905309511381 0 -0.46132018636366018 -0.45853810619023228 0 -0.47127450964123302 -0.48033552846658562 0 -0.45905921249339909 -0.47464795541041183 0 -0.46952517697566148 -0.4661851678083439 0 -0.44381103759202051 -0.47926905309511381 0 -0.46132018636366018 -0.45853810619023228 0 -0.44381103759202051 -0.47926905309511381 0 -0.44507287182711169 -0.46283954219636791 0 -0.42890665913302728 -0.47055117934507551 0 -0.45954132961929911 -0.45528482499783712 0 -0.43178514642755172 -0.4505545473535808 0 -0.45199239526185309 -0.44339962139611783 0 -0.43536086998342072 -0.42964840588022479 0 -0.43178514642755172 -0.4505545473535808 0 -0.45199239526185309 -0.44339962139611783 0 -0.45954132961929911 -0.45528482499783712 0 -0.43178514642755172 -0.4505545473535808 0 -0.44381103759202051 -0.47926905309511381 0 -0.44507287182711169 -0.46283954219636791 0 -0.46132018636366018 -0.45853810619023228 0 -0.44507287182711169 -0.46283954219636791 0 -0.45954132961929911 -0.45528482499783712 0 -0.43178514642755172 -0.4505545473535808 0 -0.45905921249339909 -0.47464795541041183 0 -0.46132018636366018 -0.45853810619023228 0 -0.46952517697566148 -0.4661851678083439 0 -0.44507287182711169 -0.46283954219636791 0 -0.45954132961929911 -0.45528482499783712 0 -0.46132018636366018 -0.45853810619023228 0 -0.45954132961929911 -0.45528482499783712 0 -0.46132018636366018 -0.45853810619023228 0 -0.45965612412188028 -0.45000002436498149 0 -0.46132018636366018 -0.45853810619023228 0 -0.46952517697566148 -0.4661851678083439 0 -0.47307631295164049 -0.4565352896642163 0 -0.46132018636366018 -0.45853810619023228 0 -0.45965612412188028 -0.45000002436498149 0 -0.4657705852427087 -0.442777544875739 0 -0.46132018636366018 -0.45853810619023228 0 -0.4657705852427087 -0.442777544875739 0 -0.47882933513530013 -0.43780715928535058 0 -0.45199239526185309 -0.44339962139611783 0 -0.45965612412188028 -0.45000002436498149 0 -0.4657705852427087 -0.442777544875739 0 -0.45199239526185309 -0.44339962139611783 0 -0.45954132961929911 -0.45528482499783712 0 -0.45965612412188028 -0.45000002436498149 0 -0.45199239526185309 -0.44339962139611783 0 -0.4657705852427087 -0.442777544875739 0 -0.45567021320113849 -0.4317489934516614 0 -0.46132018636366018 -0.45853810619023228 0 -0.47882933513530013 -0.43780715928535058 0 -0.47307631295164049 -0.4565352896642163 0 -0.47882933513530013 -0.43780715928535058 0 -0.47307631295164049 -0.4565352896642163 0 -0.48263055333194022 -0.46361072537293863 0 -0.46132018636366018 -0.45853810619023228 0 -0.47882933513530013 -0.43780715928535058 0 -0.46952517697566148 -0.4661851678083439 0 -0.47307631295164049 -0.4565352896642163 0 -0.48263055333194022 -0.46361072537293863 0 -0.47882933513530013 -0.43780715928535058 0 -0.48263055333194022 -0.46361072537293863 0 -0.5 -0.4430499581005044 0 -0.47882933513530013 -0.43780715928535058 0 -0.5 -0.4430499581005044 0 -0.48426088284062402 -0.42367696973549501 0 -0.5 -0.4430499581005044 0 -0.48426088284062402 -0.42367696973549501 0 -0.5 -0.39914568597315508 0 -0.47324378435070569 -0.41162700818862369 0 -0.48426088284062402 -0.42367696973549501 0 -0.5 -0.39914568597315508 0 -0.47324378435070569 -0.41162700818862369 0 -0.46923129471711422 -0.42675503712984131 0 -0.48426088284062402 -0.42367696973549501 0 -0.4657705852427087 -0.442777544875739 0 -0.47882933513530013 -0.43780715928535058 0 -0.46923129471711422 -0.42675503712984131 0 -0.47882933513530013 -0.43780715928535058 0 -0.46923129471711422 -0.42675503712984131 0 -0.48426088284062402 -0.42367696973549501 0 -0.5 -0.39914568597315508 0 -0.48367716904948888 -0.38489307389878691 0 -0.48066550668491581 -0.36286601695989168 0 -0.5 -0.39914568597315508 0 -0.47160852519057 -0.39558594731469171 0 -0.48367716904948888 -0.38489307389878691 0 -0.47324378435070569 -0.41162700818862369 0 -0.5 -0.39914568597315508 0 -0.47160852519057 -0.39558594731469171 0 -0.47160852519057 -0.39558594731469171 0 -0.48367716904948888 -0.38489307389878691 0 -0.45905322954349592 -0.37188095106008678 0 -0.48367716904948888 -0.38489307389878691 0 -0.45905322954349592 -0.37188095106008678 0 -0.47160852519057 -0.39558594731469171 0 -0.4557487315451077 -0.39267791498933391 0 -0.45905322954349592 -0.37188095106008678 0 -0.47324378435070569 -0.41162700818862369 0 -0.47160852519057 -0.39558594731469171 0 -0.4557487315451077 -0.39267791498933391 0 -0.4557487315451077 -0.39267791498933391 0 -0.45393808638695071 -0.41579764607192837 0 -0.43576172097429577 -0.40462852275608707 0 -0.4557487315451077 -0.39267791498933391 0 -0.43567430200286927 -0.38631782896401551 0 -0.43576172097429577 -0.40462852275608707 0 -0.4557487315451077 -0.39267791498933391 0 -0.43567430200286927 -0.38631782896401551 0 -0.44252406106880099 -0.37457734739501891 0 -0.4557487315451077 -0.39267791498933391 0 -0.45905322954349592 -0.37188095106008678 0 -0.44252406106880099 -0.37457734739501891 0 -0.4657705852427087 -0.442777544875739 0 -0.46923129471711422 -0.42675503712984131 0 -0.45567021320113849 -0.4317489934516614 0 -0.46923129471711422 -0.42675503712984131 0 -0.45567021320113849 -0.4317489934516614 0 -0.45393808638695071 -0.41579764607192837 0 -0.47324378435070569 -0.41162700818862369 0 -0.4557487315451077 -0.39267791498933391 0 -0.45393808638695071 -0.41579764607192837 0 -0.47324378435070569 -0.41162700818862369 0 -0.46923129471711422 -0.42675503712984131 0 -0.45393808638695071 -0.41579764607192837 0 -0.45393808638695071 -0.41579764607192837 0 -0.43536086998342072 -0.42964840588022479 0 -0.43576172097429577 -0.40462852275608707 0 -0.45567021320113849 -0.4317489934516614 0 -0.45393808638695071 -0.41579764607192837 0 -0.43536086998342072 -0.42964840588022479 0 -0.45199239526185309 -0.44339962139611783 0 -0.45567021320113849 -0.4317489934516614 0 -0.43536086998342072 -0.42964840588022479 0 -0.43536086998342072 -0.42964840588022479 0 -0.41755154048708298 -0.4317322927968813 0 -0.43178514642755172 -0.4505545473535808 0 -0.43536086998342072 -0.42964840588022479 0 -0.41635835196957038 -0.41149131273481609 0 -0.41755154048708298 -0.4317322927968813 0 -0.43536086998342072 -0.42964840588022479 0 -0.41635835196957038 -0.41149131273481609 0 -0.43576172097429577 -0.40462852275608707 0 -0.41635835196957038 -0.41149131273481609 0 -0.41755154048708298 -0.4317322927968813 0 -0.40022437081906809 -0.42114292830646022 0 -0.41755154048708298 -0.4317322927968813 0 -0.40022437081906809 -0.42114292830646022 0 -0.40402896323580439 -0.44582426970932448 0 -0.43567430200286927 -0.38631782896401551 0 -0.44252406106880099 -0.37457734739501891 0 -0.4248533911271779 -0.3744211112476899 0 -0.43567430200286927 -0.38631782896401551 0 -0.41748998395785653 -0.39183802789620348 0 -0.4248533911271779 -0.3744211112476899 0 -0.41635835196957038 -0.41149131273481609 0 -0.43576172097429577 -0.40462852275608707 0 -0.41748998395785653 -0.39183802789620348 0 -0.43567430200286927 -0.38631782896401551 0 -0.43576172097429577 -0.40462852275608707 0 -0.41748998395785653 -0.39183802789620348 0 -0.41635835196957038 -0.41149131273481609 0 -0.41748998395785653 -0.39183802789620348 0 -0.39063958477392979 -0.40155216245461622 0 -0.41748998395785653 -0.39183802789620348 0 -0.40280646380296281 -0.38037039167060982 0 -0.4248533911271779 -0.3744211112476899 0 -0.40280646380296281 -0.38037039167060982 0 -0.39063958477392979 -0.40155216245461622 0 -0.38351075703234289 -0.38068755050282788 0 -0.41748998395785653 -0.39183802789620348 0 -0.40280646380296281 -0.38037039167060982 0 -0.39063958477392979 -0.40155216245461622 0 -0.40280646380296281 -0.38037039167060982 0 -0.39063958477392979 -0.40155216245461622 0 -0.38099173138862252 -0.4017107418707262 0 -0.38351075703234289 -0.38068755050282788 0 -0.36419536828546012 -0.3930720201760311 0 -0.38099173138862252 -0.4017107418707262 0 -0.38351075703234289 -0.38068755050282788 0 -0.39063958477392979 -0.40155216245461622 0 -0.38099173138862252 -0.4017107418707262 0 -0.38351075703234289 -0.38068755050282788 0 -0.40022437081906809 -0.42114292830646022 0 -0.38974970496095768 -0.43269878082987029 0 -0.40402896323580439 -0.44582426970932448 0 -0.41635835196957038 -0.41149131273481609 0 -0.39063958477392979 -0.40155216245461622 0 -0.40022437081906809 -0.42114292830646022 0 -0.39063958477392979 -0.40155216245461622 0 -0.38099173138862252 -0.4017107418707262 0 -0.37847270574489938 -0.42273393323862418 0 -0.39063958477392979 -0.40155216245461622 0 -0.37847270574489938 -0.42273393323862418 0 -0.38099173138862252 -0.4017107418707262 0 -0.37847270574489938 -0.42273393323862418 0 -0.39063958477392979 -0.40155216245461622 0 -0.40022437081906809 -0.42114292830646022 0 -0.37847270574489938 -0.42273393323862418 0 -0.38974970496095768 -0.43269878082987029 0 -0.37847270574489938 -0.42273393323862418 0 -0.37627278004405651 -0.44109399206507222 0 -0.37847270574489938 -0.42273393323862418 0 -0.37627278004405651 -0.44109399206507222 0 -0.40022437081906809 -0.42114292830646022 0 -0.38974970496095768 -0.43269878082987029 0 -0.37847270574489938 
[...]
<PointData Scalars="" Vectors="displacement," Tensors="">
<DataArray type="Float64" Name="displacement" NumberOfComponents="3" format="ascii">
-0.0049998607594681681 -0.0049997362765220313 0 -0.0049167933005318624 -0.0048246476727067909 0 -0.0049996980740838149 -0.0045762493405238176 0 -0.0049998607594681681 -0.0049997362765220313 0 -0.0049167933005318624 -0.0048246476727067909 0 -0.0047389630916974601 -0.0049453842409833268 0 -0.0049998607594681681 -0.0049997362765220313 0 -0.0047389630916974601 -0.0049453842409833268 0 -0.0044309646002721054 -0.0049996877048487914 0 -0.0049167933005318624 -0.0048246476727067909 0 -0.0048266050310684103 -0.0048834549579066912 0 -0.0047389630916974601 -0.0049453842409833268 0 -0.0049996980740838149 -0.0045762493405238176 0 -0.0049270468783194233 -0.0047636347259739399 0 -0.0050101464859940497 -0.0045969240100111157 0 -0.0049167933005318624 -0.0048246476727067909 0 -0.0049996980740838149 -0.0045762493405238176 0 -0.0049270468783194233 -0.0047636347259739399 0 -0.0049996980740838149 -0.0045762493405238176 0 -0.0050101464859940497 -0.0045969240100111157 0 -0.0050000521138271296 -0.0042631030661112526 0 -0.0049270468783194233 -0.0047636347259739399 0 -0.0050101464859940497 -0.0045969240100111157 0 -0.0048145487677838279 -0.0049083962139417547 0 -0.0049167933005318624 -0.0048246476727067909 0 -0.0049270468783194233 -0.0047636347259739399 0 -0.0048266050310684103 -0.0048834549579066912 0 -0.0050048575372021965 -0.0045985362617392712 0 -0.0049099057409399171 -0.004961965223674274 0 -0.0050084594790050707 -0.0045861746866371969 0 -0.0050982059325041041 -0.0047121589072482662 0 -0.0051198102009758287 -0.0043992774631785251 0 -0.0050166984888394047 -0.0050473313211250254 0 -0.0050509771992526317 -0.0049819742805354951 0 -0.0046774873985600436 -0.0052623975182581042 0 -0.0044430014207240713 -0.0055252410082431364 0 -0.0047446677961217841 -0.0055912883334066788 0 -0.0046774873985600436 -0.0052623975182581042 0 -0.005002895617438336 -0.0050586903316071812 0 -0.0047446677961217841 -0.0055912883334066788 0 -0.0050084594790050707 -0.0045861746866371969 0 -0.0050982059325041041 -0.0047121589072482662 0 -0.0050338212155061667 -0.0050337869975965082 0 -0.0050982059325041041 -0.0047121589072482662 0 -0.005002895617438336 -0.0050586903316071812 0 -0.0053740631526183131 -0.00444998735191091 0 -0.0049270468783194233 -0.0047636347259739399 0 -0.0048145487677838279 -0.0049083962139417547 0 -0.0048266050310684103 -0.0048834549579066912 0 -0.0050982059325041041 -0.0047121589072482662 0 -0.005002895617438336 -0.0050586903316071812 0 -0.0050338212155061667 -0.0050337869975965082 0 -0.005002895617438336 -0.0050586903316071812 0 -0.0050338212155061667 -0.0050337869975965082 0 -0.0048593214882032276 -0.0051000021130261294 0 -0.0048145487677838279 -0.0049083962139417547 0 -0.0048266050310684103 -0.0048834549579066912 0 -0.0047238202567654831 -0.0049379921240932422 0 -0.0050338212155061667 -0.0050337869975965082 0 -0.0048593214882032276 -0.0051000021130261294 0 -0.0046637661901094817 -0.0050868721801484145 0 -0.0050338212155061667 -0.0050337869975965082 0 -0.0046637661901094817 -0.0050868721801484145 0 -0.004499459693848855 -0.0050141514751325614 0 -0.0046774873985600436 -0.0052623975182581042 0 -0.0048593214882032276 -0.0051000021130261294 0 -0.0046637661901094817 -0.0050868721801484145 0 -0.0046774873985600436 -0.0052623975182581042 0 -0.005002895617438336 -0.0050586903316071812 0 -0.0048593214882032276 -0.0051000021130261294 0 -0.0046774873985600436 -0.0052623975182581042 0 -0.0046637661901094817 -0.0050868721801484145 0 -0.0044764191676625251 -0.0052526572134344628 0 -0.0048145487677838279 -0.0049083962139417547 0 -0.004499459693848855 -0.0050141514751325614 0 -0.0047238202567654831 -0.0049379921240932422 0 -0.004499459693848855 -0.0050141514751325614 0 -0.0047238202567654831 -0.0049379921240932422 0 -0.0047389630916974601 -0.0049453842409833268 0 -0.0049099057409399171 -0.004961965223674274 0 -0.0045520967843540594 -0.0049898911778245136 0 -0.0048266050310684103 -0.0048834549579066912 0 -0.0047238202567654831 -0.0049379921240932422 0 -0.0047389630916974601 -0.0049453842409833268 0 -0.004499459693848855 -0.0050141514751325614 0 -0.0047389630916974601 -0.0049453842409833268 0 -0.0044309646002721054 -0.0049996877048487914 0 -0.004499459693848855 -0.0050141514751325614 0 -0.0044309646002721054 -0.0049996877048487914 0 -0.0043025038291026156 -0.0050424752789838684 0 -0.0044309646002721054 -0.0049996877048487914 0 -0.0043025038291026156 -0.0050424752789838684 0 -0.0039915244251651251 -0.004999898962617092 0 -0.0041788682589151719 -0.005141671426226623 0 -0.0043025038291026156 -0.0050424752789838684 0 -0.0039915244251651251 -0.004999898962617092 0 -0.0041788682589151719 -0.005141671426226623 0 -0.0043772647144743352 -0.0051259753231477044 0 -0.0043025038291026156 -0.0050424752789838684 0 -0.0046637661901094817 -0.0050868721801484145 0 -0.004499459693848855 -0.0050141514751325614 0 -0.0043772647144743352 -0.0051259753231477044 0 -0.004499459693848855 -0.0050141514751325614 0 -0.0043772647144743352 -0.0051259753231477044 0 -0.0043025038291026156 -0.0050424752789838684 0 -0.0039915244251651251 -0.004999898962617092 0 -0.0038721459733391367 -0.0051217232663856175 0 -0.0036402618173952761 -0.0051608863710635401 0 -0.0039915244251651251 -0.004999898962617092 0 -0.0039994377355324125 -0.0051847964861193759 0 -0.0038721459733391367 -0.0051217232663856175 0 -0.0041788682589151719 -0.005141671426226623 0 -0.0039915244251651251 -0.004999898962617092 0 -0.0039994377355324125 -0.0051847964861193759 0 -0.0039994377355324125 -0.0051847964861193759 0 -0.0038721459733391367 -0.0051217232663856175 0 -0.0037947226718122373 -0.0052886533985323121 0 -0.0038619099701529313 -0.0051337749274460416 0 -0.0037754787514950616 -0.0053225329040306702 0 -0.0039994377355324125 -0.0051847964861193759 0 -0.0039882626177866675 -0.0053157896718572725 0 -0.0037947226718122373 -0.0052886533985323121 0 -0.0041788682589151719 -0.005141671426226623 0 -0.0039994377355324125 -0.0051847964861193759 0 -0.0039882626177866675 -0.0053157896718572725 0 -0.0039882626177866675 -0.0053157896718572725 0 -0.0042514385969463714 -0.0053079929389916276 0 -0.0041340236427525271 -0.0055167866063103805 0 -0.0039882626177866675 -0.0053157896718572725 0 -0.0039360429271526947 -0.0055176559823493909 0 -0.0041340236427525271 -0.0055167866063103805 0 -0.0039882626177866675 -0.0053157896718572725 0 -0.0039360429271526947 -0.0055176559823493909 0 -0.003816417644237183 -0.005448426261832103 0 -0.0039882626177866675 -0.0053157896718572725 0 -0.0037947226718122373 -0.0052886533985323121 0 -0.003816417644237183 -0.005448426261832103 0 -0.0046637661901094817 -0.0050868721801484145 0 -0.0043772647144743352 -0.0051259753231477044 0 -0.0044764191676625251 -0.0052526572134344628 0 -0.0043772647144743352 -0.0051259753231477044 0 -0.0044764191676625251 -0.0052526572134344628 0 -0.0042514385969463714 -0.0053079929389916276 0 -0.0041788682589151719 -0.005141671426226623 0 -0.0039882626177866675 -0.0053157896718572725 0 -0.0042514385969463714 -0.0053079929389916276 0 -0.0041788682589151719 -0.005141671426226623 0 -0.0043772647144743352 -0.0051259753231477044 0 -0.0042514385969463714 -0.0053079929389916276 0 -0.0042514385969463714 -0.0053079929389916276 0 -0.0044430014207240713 -0.0055252410082431364 0 -0.0041340236427525271 -0.0055167866063103805 0 -0.0044764191676625251 -0.0052526572134344628 0 -0.0042514385969463714 -0.0053079929389916276 0 -0.0044430014207240713 -0.0055252410082431364 0 -0.0046774873985600436 -0.0052623975182581042 0 -0.0044764191676625251 -0.0052526572134344628 0 -0.0044430014207240713 -0.0055252410082431364 0 -0.0044430014207240713 -0.0055252410082431364 0 -0.0044702345529331498 -0.005728739181044034 0 -0.0047446677961217841 -0.0055912883334066788 0 -0.0044430014207240713 -0.0055252410082431364 0 -0.0042254875285591426 -0.0057308315039713564 0 -0.0044702345529331498 -0.005728739181044034 0 -0.0044430014207240713 -0.0055252410082431364 0 -0.0042254875285591426 -0.0057308315039713564 0 -0.0041340236427525271 -0.0055167866063103805 0 -0.0042254875285591426 -0.0057308315039713564 0 -0.0044702345529331498 -0.005728739181044034 0 -0.0043406101149649724 -0.0059014842827589571 0 -0.0044702345529331498 -0.005728739181044034 0 -0.0043406101149649724 -0.0059014842827589571 0 -0.0046187411050333943 -0.0058645366703065759 0 -0.0039360429271526947 -0.0055176559823493909 0 -0.003816417644237183 -0.005448426261832103 0 -0.0038127479643764017 -0.0056291052764980776 0 -0.0039360429271526947 -0.0055176559823493909 0 -0.0040011243356747822 -0.0057111240983033756 0 -0.0038127479643764017 -0.0056291052764980776 0 -0.0042254875285591426 -0.0057308315039713564 0 -0.0041340236427525271 -0.0055167866063103805 0 -0.0040011243356747822 -0.0057111240983033756 0 -0.0039360429271526947 -0.0055176559823493909 0 -0.0041340236427525271 -0.0055167866063103805 0 -0.0040011243356747822 -0.0057111240983033756 0 -0.0042254875285591426 -0.0057308315039713564 0 -0.0040011243356747822 -0.0057111240983033756 0 -0.0041166623293594617 -0.0060000768422378099 0 -0.0040011243356747822 -0.0057111240983033756 0 -0.0038753123413924773 -0.0058648821335277011 0 -0.0038127479643764017 -0.0056291052764980776 0 -0.0032027322509653134 -0.0044538474426651853 0 -0.0031653722701172511 -0.0044221786973097296 0 -0.0032002043485879258 -0.0044055718638374456 0 -0.0040011243356747822 -0.0057111240983033756 0 -0.0038753123413924773 -0.0058648821335277011 0 -0.0041166623293594617 -0.0060000768422378099 0 -0.0035561987531594176 -0.0051545006202703353 0 -0.0037489725131340927 -0.005355345324718006 0 -0.0024437551254067394 -0.0024740880382437074 0 -0.0023538107102739378 -0.0024741578905922994 0 -0.0024014683269842031 -0.00253762974626839 0 -0.0026794017658287482 -0.0033794851590562176 0 -0.0028209943743274114 -0.0034349629082476873 0 -0.0031653722701172511 -0.0044221786973097296 0 -0.0031645454294184023 -0.0044033105919427948 0 -0.0032002043485879258 -0.0044055718638374456 0 -0.0043406101149649724 -0.0059014842827589571 0 -0.0044662288628972016 -0.0060040556031859703 0 -0.0046187411050333943 -0.0058645366703065759 0 -0.0042254875285591426 -0.0057308315039713564 0 -0.0041166623293594617 -0.0060000768422378099 0 -0.0043406101149649724 -0.0059014842827589571 0 -0.0031653722701172511 -0.0044221786973097296 0 -0.0031645454294184023 -0.0044033105919427948 0 -0.0031403041113727513 -0.0043950002771058413 0 -0.0037489725131340927 -0.005355345324718006 0 -0.0033944043002926564 -0.0042308887418291115 0 -0.0026794017658287482 -0.0033794851590562176 0 -0.0033944043002926564 -0.0042308887418291115 0 -0.0041166623293594617 -0.0060000768422378099 0 -0.0043406101149649724 -0.0059014842827589571 0 -0.0043548535563072708 -0.0061172038461327774 0 -0.0044662288628972016 -0.0060040556031859703 0 -0.0043548535563072708 -0.0061172038461327774 0 -0.0045483619896461184 -0.0061296486433599024 0 -0.0033944043002926564 -0.0042308887418291115 0 -0.0047300771035980339 -0.004442964309852037 0 -0.0043406101149649724 -0.0059014842827589571 0 -0.0044662288628972016 -0.0060040556031859703 0 -0.0043548535563072708 -0.0061172038461327774 0 -0.0044662288628972016 -0.0060040556031859703 0 -0.0045483619896461184 -0.0061296486433599024 0 -0.0046187411050333943 -0.0058645366703065759 0 -0.0047300771035980339 -0.004442964309852037 0 -0.0050645200804094641 -0.0050992294242234414 0 -0.0054791686228099212 -0.0038217770977962001 0 -0.0054457557477274997 -0.0041027208633251681 0 -0.0053285458516910689 -0.0039263915860457878 0 -0.0054457557477274997 -0.0041027208633251681 0 -0.0053285458516910689 -0.0039263915860457878 0 -0.0051604300216683005 -0.0041534173012939503 0 -0.0054791686228099212 -0.0038217770977962001 0 -0.0053285458516910689 -0.0039263915860457878 0 -0.0052147076385630807 -0.0037798505999038137 0 -0.0051323871228282228 -0.0039507218899906696 0 -0.0049999258850934184 -0.0036922776602466576 0 -0.0052147076385630807 -0.0037798505999038137 0 -0.0053285458516910689 -0.0039263915860457878 0 -0.0051323871228282228 -0.0039507218899906696 0 -0.0052147076385630807 -0.0037798505999038137 0 -0.0050000252154721947 -0.0039775896049109001 0 -0.0051323871228282228 -0.0039507218899906696 0 -0.0049999258850934184 -0.0036922776602466576 0 -0.0050000252154721947 -0.0039775896049109001 0 -0.0051323871228282228 -0.0039507218899906696 0 -0.0051604300216683005 -0.0041534173012939503 0 -0.0053285458516910689 -0.0039263915860457878 0 -0.0051323871228282228 -0.0039507218899906696 0 -0.0051604300216683005 -0.0041534173012939503 0 -0.0051604300216683005 -0.0041534173012939503 0 -0.0049996615226187971 -0.0042631930895103099 0 -0.0051198102009758287 -0.0043992774631785251 0 -0.0050000252154721947 -0.0039775896049109001 0 -0.0051604300216683005 -0.0041534173012939503 0 -0.0049996615226187971 -0.0042631930895103099 0 -0.0050048575372021965 -0.0045985362617392712 0 -0.0049999724650087876 -0.0042631082564401433 0 -0.0050084594790050707 -0.0045861746866371969 0 -0.0049996615226187971 -0.0042631930895103099 0 -0.0051198102009758287 -0.0043992774631785251 0 -0.0050982059325041041 -0.0047121589072482662 0 -0.0051198102009758287 -0.0043992774631785251 0 -0.0053740631526183131 -0.00444998735191091 0 -0.0051604300216683005 -0.0041534173012939503 0 -0.0051198102009758287 -0.0043992774631785251 0 -0.0053740631526183131 -0.00444998735191091 0 -0.0044702345529331498 -0.005728739181044034 0 -0.0046187411050333943 -0.0058645366703065759 0 -0.0047446677961217841 -0.0055912883334066788 0 -0.0050645200804094641 -0.0050992294242234414 0 -0.0050509771992526317 -0.0049819742805354951 0 -0.0054457557477274997 -0.0041027208633251681 0 -0.0051604300216683005 -0.0041534173012939503 0 -0.0053740631526183131 -0.00444998735191091 0 -0.0022270771977603667 -0.0050796379722400278 0 -0.0023070333186050109 -0.0051221585016643931 0 -0.0023228532796417197 -0.005070311122517367 0 -0.0022270771977603667 -0.0050796379722400278 0 -0.0022346151326226959 -0.0049505336705322027 0 -0.0023228532796417197 -0.005070311122517367 0 -0.0022270771977603667 -0.0050796379722400278 0 -0.0020870917699353248 -0.004952202828943447 0 -0.0022346151326226959 -0.0049505336705322027 0 -0.0022270771977603667 -0.0050796379722400278 0 -0.0021091307733289168 -0.0050585830057532652 0 -0.0020870917699353248 -0.004952202828943447 0 -0.0021091307733289168 -0.0050585830057532652 0 -0.0021288744739958927 -0.0052149245202747453 0 -0.0019796949180608489 -0.005048479765279318 0 -0.0022270771977603667 -0.0050796379722400278 0 -0.0021091307733289168 -0.0050585830057532652 0 -0.0021288744739958927 -0.0052149245202747453 0 -0.0021091307733289168 -0.0050585830057532652 0 -0.0019796949180608489 -0.005048479765279318 0 -0.0020870917699353248 -0.004952202828943447 0 -0.0022270771977603667 -0.0050796379722400278 0 -0.0021288744739958927 -0.0052149245202747453 0 -0.0023126478835245336 -0.0051612158840543126 0 -0.0022270771977603667 -0.0050796379722400278 0 -0.0023126478835245336 -0.0051612158840543126 0 -0.0023070333186050109 -0.0051221585016643931 0 -0.0027172358541812016 -0.0053625447821954633 0 -0.0026755648517848714 -0.0051663888367701255 0 -0.0023921188454885233 -0.0051977589744428782 0 -0.0021288744739958927 -0.0052149245202747453 0 -0.0023126478835245336 -0.0051612158840543126 0 -0.0023921188454885233 -0.0051977589744428782 0 -0.0024350311938601495 -0.0052879323492228906 0 -0.0023766266081645376 -0.005201747422030732 0 -0.0026755648517848714 -0.0051663888367701255 0 -0.0024641764355727452 -0.0049999743295441402 0 -0.0023921188454885233 -0.0051977589744428782 0 -0.0027413847714122153 -0.0049999942598547417 0 -0.0026755648517848714 -0.0051663888367701255 0 -0.0024641764355727452 -0.0049999743295441402 0 -0.0027413847714122153 -0.0049999942598547417 0 -0.0026755648517848714 -0.0051663888367701255 0 -0.0029370629548611223 -0.0051701694876862478 0 -0.0027172358541812016 -0.0053625447821954633 0 -0.0026755648517848714 -0.0051663888367701255 0 -0.0028670303336873798 -0.0053177133548079807 0 -0.0029370629548611223 -0.0051701694876862478 0 -0.0029984351648767258 -0.0053751776242984143 0 -0.0028670303336873798 -0.0053177133548079807 0 -0.0026755648517848714 -0.0051663888367701255 0 -0.0029370629548611223 -0.0051701694876862478 0 -0.0028670303336873798 -0.0053177133548079807 0 -0.0027413847714122153 -0.0049999942598547417 0 -0.0029370629548611223 -0.0051701694876862478 0 -0.0030184698359929435 -0.0049999991774363275 0 -0.0029370629548611223 -0.0051701694876862478 0 -0.0030184698359929435 -0.0049999991774363275 0 -0.0031365742229027024 -0.0051032656037269079 0 -0.0029370629548611223 -0.0051701694876862478 0 -0.003145973435036995 -0.005240945381219172 0 -0.0031365742229027024 -0.0051032656037269079 0 -0.0029370629548611223 -0.0051701694876862478 0 -0.0029984351648767258 -0.0053751776242984143 0 -0.003145973435036995 -0.005240945381219172 0 -0.0030135941185049581 -0.0053622460103624134 0 -0.0031081899600711592 -0.0052717378739931741 0 -0.0029984351648767258 -0.0053751776242984143 0 -0.003078436953133405 -0.005382487238321498 0 -0.0030859340870831387 -0.0052876956970708301 0 -0.0030335873749738631 -0.0054238465766475981 0 -0.0029984351648767258 -0.0053751776242984143 0 -0.003078436953133405 -0.005382487238321498 0 -0.0030335873749738631 -0.0054238465766475981 0 -0.0030850124836707851 -0.0054662533683606795 0 -0.003078436953133405 -0.005382487238321498 0 -0.0030335873749738631 -0.0054238465766475981 0 -0.0029984351648767258 -0.0053751776242984143 0 -0.0029683197486152844 -0.0054735327532857659 0 -0.0027172358541812016 -0.0053625447821954633 0 -0.0028670303336873798 -0.0053177133548079807 0 -0.0029683197486152844 -0.0054735327532857659 0 -0.0029984351648767258 -0.0053751776242984143 0 -0.0028670303336873798 -0.0053177133548079807 0 -0.0029683197486152844 -0.0054735327532857659 0 -0.0024350311938601495 -0.0052879323492228906 0 -0.0023127114040535448 -0.0052671578128070176 0 -0.0021288744739958927 -0.0052149245202747453 0 -0.0019796949180608489 -0.005048479765279318 0 -0.0018108705462063677 -0.0051155969758701616 0 -0.0019796949180608489 -0.005048479765279318 0 -0.0019188023562352915 -0.0049203842943225176 0 -0.0020870917699353248 -0.004952202828943447 0 -0.0019796949180608489 -0.005048479765279318 0 -0.0018406381908763392 -0.0049859432333279573 0 -0.0018108705462063677 -0.0051155969758701616 0 -0.0019796949180608489 -0.005048479765279318 0 -0.0018406381908763392 -0.0049859432333279573 0 -0.0019188023562352915 -0.0049203842943225176 0 -0.0018108705462063677 -0.0051155969758701616 0 -0.001468652220215844 -0.0049530703767550347 0 -0.0016912323589134603 -0.0049471111870639378 0 -0.0030335873749738631 -0.0054238465766475981 0 -0.0029683197486152844 -0.0054735327532857659 0 -0.0030850124836707851 -0.0054662533683606795 0 -0.0023127114040535448 -0.0052671578128070176 0 -0.0026430050442392754 -0.0053302931577020752 0 -0.0018406381908763392 -0.0049859432333279573 0 -0.0018108705462063677 -0.0051155969758701616 0 -0.0016912323589134603 -0.0049471111870639378 0 -0.0032885788630375411 -0.0054124085468080247 0 -0.0026430050442392754 -0.0053302931577020752 0 -0.0032812205190400671 -0.0055545835448103419 0 -0.0032858181240320444 -0.0053381882238459485 0 -0.0032613436200715153 -0.0055822886679192654 0 -0.0030850124836707851 -0.0054662533683606795 0 -0.0031607054725482338 -0.0053801677950065996 0 -0.0031406617028328673 -0.0055585424112588877 0 -0.0029683197486152844 -0.0054735327532857659 0 -0.0030850124836707851 -0.0054662533683606795 0 -0.0031406617028328673 -0.0055585424112588877 0 -0.0032812205190400671 -0.0055545835448103419 0 -0.0033677372029952447 -0.0054546662685846592 0 -0.0033779621956553786 -0.0055766507061264766 0 -0.0032812205190400671 -0.0055545835448103419 0 -0.0033677372029952447 -0.0054546662685846592 0 -0.0032858181240320444 -0.0053381882238459485 0 -0.0034411486907770278 -0.0055505315887075975 0 -0.0033677372029952447 -0.0054546662685846592 0 -0.0033779621956553786 -0.0055766507061264766 0 -0.00344114