<?xml version="1.0"?>
<VTKFile type="UnstructuredGrid" version="0.1" byte_order="LittleEndian">
<UnstructuredGrid>
<Piece NumberOfPoints="30214" NumberOfCells="10566">
<Points>
<DataArray type="Float64" NumberOfComponents="3" format="ascii">
-0.5 -0.5 0 -0.47127450964123302 -0.48033552846658562 0 -0.45758054275359911 -0.5 0 -0.5 -0.5 0 -0.47127450964123302 -0.48033552846658562 0 -0.48263055333194022 -0.46361072537293863 0 -0.5 -0.5 0 -0.48263055333194022 -0.46361072537293863 0 -0.5 -0.4430499581005044 0 -0.47127450964123302 -0.48033552846658562 0 -0.46952517697566148 -0.4661851678083439 0 -0.48263055333194022 -0.46361072537293863 0 -0.45758054275359911 -0.5 0 -0.45905921249339909 -0.47464795541041183 0 -0.44381103759202051 -0.47926905309511381 0 -0.47127450964123302 -0.48033552846658562 0 -0.45758054275359911 -0.5 0 -0.45905921249339909 -0.47464795541041183 0 -0.45758054275359911 -0.5 0 -0.44381103759202051 -0.47926905309511381 0 -0.42630188882038228 -0.49999999999999672 0 -0.45905921249339909 -0.47464795541041183 0 -0.44381103759202051 -0.47926905309511381 0 -0.46132018636366018 -0.45853810619023228 0 -0.47127450964123302 -0.48033552846658562 0 -0.45905921249339909 -0.47464795541041183 0 -0.46952517697566148 -0.4661851678083439 0 -0.44381103759202051 -0.47926905309511381 0 -0.46132018636366018 -0.45853810619023228 0 -0.44381103759202051 -0.47926905309511381 0 -0.44507287182711169 -0.46283954219636791 0 -0.42890665913302728 -0.47055117934507551 0 -0.45954132961929911 -0.45528482499783712 0 -0.43178514642755172 -0.4505545473535808 0 -0.45199239526185309 -0.44339962139611783 0 -0.43536086998342072 -0.42964840588022479 0 -0.43178514642755172 -0.4505545473535808 0 -0.45199239526185309 -0.44339962139611783 0 -0.45954132961929911 -0.45528482499783712 0 -0.43178514642755172 -0.4505545473535808 0 -0.44381103759202051 -0.47926905309511381 0 -0.44507287182711169 -0.46283954219636791 0 -0.46132018636366018 -0.45853810619023228 0 -0.44507287182711169 -0.46283954219636791 0 -0.45954132961929911 -0.45528482499783712 0 -0.43178514642755172 -0.4505545473535808 0 -0.45905921249339909 -0.47464795541041183 0 -0.46132018636366018 -0.45853810619023228 0 -0.46952517697566148 -0.4661851678083439 0 -0.44507287182711169 -0.46283954219636791 0 -0.45954132961929911 -0.45528482499783712 0 -0.46132018636366018 -0.45853810619023228 0 -0.45954132961929911 -0.45528482499783712 0 -0.46132018636366018 -0.45853810619023228 0 -0.45965612412188028 -0.45000002436498149 0 -0.46132018636366018 -0.45853810619023228 0 -0.46952517697566148 -0.4661851678083439 0 -0.47307631295164049 -0.4565352896642163 0 -0.46132018636366018 -0.45853810619023228 0 -0.45965612412188028 -0.45000002436498149 0 -0.4657705852427087 -0.442777544875739 0 -0.46132018636366018 -0.45853810619023228 0 -0.4657705852427087 -0.442777544875739 0 -0.47882933513530013 -0.43780715928535058 0 -0.45199239526185309 -0.44339962139611783 0 -0.45965612412188028 -0.45000002436498149 0 -0.4657705852427087 -0.442777544875739 0 -0.45199239526185309 -0.44339962139611783 0 -0.45954132961929911 -0.45528482499783712 0 -0.45965612412188028 -0.45000002436498149 0 -0.45199239526185309 -0.44339962139611783 0 -0.4657705852427087 -0.442777544875739 0 -0.45567021320113849 -0.4317489934516614 0 -0.46132018636366018 -0.45853810619023228 0 -0.47882933513530013 -0.43780715928535058 0 -0.47307631295164049 -0.4565352896642163 0 -0.47882933513530013 -0.43780715928535058 0 -0.47307631295164049 -0.4565352896642163 0 -0.48263055333194022 -0.46361072537293863 0 -0.46132018636366018 -0.45853810619023228 0 -0.47882933513530013 -0.43780715928535058 0 -0.46952517697566148 -0.4661851678083439 0 -0.47307631295164049 -0.4565352896642163 0 -0.48263055333194022 -0.46361072537293863 0 -0.47882933513530013 -0.43780715928535058 0 -0.48263055333194022 -0.46361072537293863 0 -0.5 -0.4430499581005044 0 -0.47882933513530013 -0.43780715928535058 0 -0.5 -0.4430499581005044 0 -0.48426088284062402 -0.42367696973549501 0 -0.5 -0.4430499581005044 0 -0.48426088284062402 -0.42367696973549501 0 -0.5 -0.39914568597315508 0 -0.47324378435070569 -0.41162700818862369 0 -0.48426088284062402 -0.42367696973549501 0 -0.5 -0.39914568597315508 0 -0.47324378435070569 -0.41162700818862369 0 -0.46923129471711422 -0.42675503712984131 0 -0.48426088284062402 -0.42367696973549501 0 -0.4657705852427087 -0.442777544875739 0 -0.47882933513530013 -0.43780715928535058 0 -0.46923129471711422 -0.42675503712984131 0 -0.47882933513530013 -0.43780715928535058 0 -0.46923129471711422 -0.42675503712984131 0 -0.48426088284062402 -0.42367696973549501 0 -0.5 -0.39914568597315508 0 -0.48367716904948888 -0.38489307389878691 0 -0.48066550668491581 -0.36286601695989168 0 -0.5 -0.39914568597315508 0 -0.47160852519057 -0.39558594731469171 0 -0.48367716904948888 -0.38489307389878691 0 -0.47324378435070569 -0.41162700818862369 0 -0.5 -0.39914568597315508 0 -0.47160852519057 -0.39558594731469171 0 -0.47160852519057 -0.39558594731469171 0 -0.48367716904948888 -0.38489307389878691 0 -0.45905322954349592 -0.37188095106008678 0 -0.48367716904948888 -0.38489307389878691 0 -0.45905322954349592 -0.37188095106008678 0 -0.47160852519057 -0.39558594731469171 0 -0.4557487315451077 -0.39267791498933391 0 -0.45905322954349592 -0.37188095106008678 0 -0.47324378435070569 -0.41162700818862369 0 -0.47160852519057 -0.39558594731469171 0 -0.4557487315451077 -0.39267791498933391 0 -0.4557487315451077 -0.39267791498933391 0 -0.45393808638695071 -0.41579764607192837 0 -0.43576172097429577 -0.40462852275608707 0 -0.4557487315451077 -0.39267791498933391 0 -0.43567430200286927 -0.38631782896401551 0 -0.43576172097429577 -0.40462852275608707 0 -0.4557487315451077 -0.39267791498933391 0 -0.43567430200286927 -0.38631782896401551 0 -0.44252406106880099 -0.37457734739501891 0 -0.4557487315451077 -0.39267791498933391 0 -0.45905322954349592 -0.37188095106008678 0 -0.44252406106880099 -0.37457734739501891 0 -0.4657705852427087 -0.442777544875739 0 -0.46923129471711422 -0.42675503712984131 0 -0.45567021320113849 -0.4317489934516614 0 -0.46923129471711422 -0.42675503712984131 0 -0.45567021320113849 -0.4317489934516614 0 -0.45393808638695071 -0.41579764607192837 0 -0.47324378435070569 -0.41162700818862369 0 -0.4557487315451077 -0.39267791498933391 0 -0.45393808638695071 -0.41579764607192837 0 -0.47324378435070569 -0.41162700818862369 0 -0.46923129471711422 -0.42675503712984131 0 -0.45393808638695071 -0.41579764607192837 0 -0.45393808638695071 -0.41579764607192837 0 -0.43536086998342072 -0.42964840588022479 0 -0.43576172097429577 -0.40462852275608707 0 -0.45567021320113849 -0.4317489934516614 0 -0.45393808638695071 -0.41579764607192837 0 -0.43536086998342072 -0.42964840588022479 0 -0.45199239526185309 -0.44339962139611783 0 -0.45567021320113849 -0.4317489934516614 0 -0.43536086998342072 -0.42964840588022479 0 -0.43536086998342072 -0.42964840588022479 0 -0.41755154048708298 -0.4317322927968813 0 -0.43178514642755172 -0.4505545473535808 0 -0.43536086998342072 -0.42964840588022479 0 -0.41635835196957038 -0.41149131273481609 0 -0.41755154048708298 -0.4317322927968813 0 -0.43536086998342072 -0.42964840588022479 0 -0.41635835196957038 -0.41149131273481609 0 -0.43576172097429577 -0.40462852275608707 0 -0.41635835196957038 -0.41149131273481609 0 -0.41755154048708298 -0.4317322927968813 0 -0.40022437081906809 -0.42114292830646022 0 -0.41755154048708298 -0.4317322927968813 0 -0.40022437081906809 -0.42114292830646022 0 -0.40402896323580439 -0.44582426970932448 0 -0.43567430200286927 -0.38631782896401551 0 -0.44252406106880099 -0.37457734739501891 0 -0.4248533911271779 -0.3744211112476899 0 -0.43567430200286927 -0.38631782896401551 0 -0.41748998395785653 -0.39183802789620348 0 -0.4248533911271779 -0.3744211112476899 0 -0.41635835196957038 -0.41149131273481609 0 -0.43576172097429577 -0.40462852275608707 0 -0.41748998395785653 -0.39183802789620348 0 -0.43567430200286927 -0.38631782896401551 0 -0.43576172097429577 -0.40462852275608707 0 -0.41748998395785653 -0.39183802789620348 0 -0.41635835196957038 -0.41149131273481609 0 -0.41748998395785653 -0.39183802789620348 0 -0.39063958477392979 -0.40155216245461622 0 -0.41748998395785653 -0.39183802789620348 0 -0.40280646380296281 -0.38037039167060982 0 -0.4248533911271779 -0.3744211112476899 0 -0.40280646380296281 -0.38037039167060982 0 -0.39063958477392979 -0.40155216245461622 0 -0.38351075703234289 -0.38068755050282788 0 -0.41748998395785653 -0.39183802789620348 0 -0.40280646380296281 -0.38037039167060982 0 -0.39063958477392979 -0.40155216245461622 0 -0.40280646380296281 -0.38037039167060982 0 -0.39063958477392979 -0.40155216245461622 0 -0.38099173138862252 -0.4017107418707262 0 -0.38351075703234289 -0.38068755050282788 0 -0.36419536828546012 -0.3930720201760311 0 -0.38099173138862252 -0.4017107418707262 0 -0.38351075703234289 -0.38068755050282788 0 -0.39063958477392979 -0.40155216245461622 0 -0.38099173138862252 -0.4017107418707262 0 -0.38351075703234289 -0.38068755050282788 0 -0.40022437081906809 -0.42114292830646022 0 -0.38974970496095768 -0.43269878082987029 0 -0.40402896323580439 -0.44582426970932448 0 -0.41635835196957038 -0.41149131273481609 0 -0.39063958477392979 -0.40155216245461622 0 -0.40022437081906809 -0.42114292830646022 0 -0.39063958477392979 -0.40155216245461622 0 -0.38099173138862252 -0.4017107418707262 0 -0.37847270574489938 -0.42273393323862418 0 -0.39063958477392979 -0.40155216245461622 0 -0.37847270574489938 -0.42273393323862418 0 -0.38099173138862252 -0.4017107418707262 0 -0.37847270574489938 -0.42273393323862418 0 -0.39063958477392979 -0.40155216245461622 0 -0.40022437081906809 -0.42114292830646022 0 -0.37847270574489938 -0.42273393323862418 0 -0.38974970496095768 -0.43269878082987029 0 -0.37847270574489938 -0.42273393323862418 0 -0.37627278004405651 -0.44109399206507222 0 -0.37847270574489938 -0.42273393323862418 0 -0.37627278004405651 -0.44109399206507222 0 -0.40022437081906809 -0.42114292830646022 0 -0.38974970496095768 -0.43269878082987029 0 -0.37847270574489938 
[...]
<PointData Scalars="" Vectors="displacement," Tensors="">
<DataArray type="Float64" Name="displacement" NumberOfComponents="3" format="ascii">
-4.6302619568618679e-08 -0.0049997670858625319 0 -1.464066737204814e-05 -0.0048674486632027071 0 -4.8416547002205264e-08 -0.0049997843400191701 0 -4.6302619568618679e-08 -0.0049997670858625319 0 -1.464066737204814e-05 -0.0048674486632027071 0 -8.9839370086144433e-07 -0.0046885536746210455 0 -4.6302619568618679e-08 -0.0049997670858625319 0 -8.9839370086144433e-07 -0.0046885536746210455 0 7.3796605665001549e-08 -0.0044306814784110761 0 -1.464066737204814e-05 -0.0048674486632027071 0 1.2075947961729724e-06 -0.0047823660132367482 0 -8.9839370086144433e-07 -0.0046885536746210455 0 -4.8416547002205264e-08 -0.0049997843400191701 0 -5.4123665812423072e-06 -0.0048880123022832424 0 -6.3083644560746933e-06 -0.0049662331950538624 0 -1.464066737204814e-05 -0.0048674486632027071 0 -4.8416547002205264e-08 -0.0049997843400191701 0 -5.4123665812423072e-06 -0.0048880123022832424 0 -4.8416547002205264e-08 -0.0049997843400191701 0 -6.3083644560746933e-06 -0.0049662331950538624 0 2.1012784015213885e-08 -0.005000068826565519 0 -5.4123665812423072e-06 -0.0048880123022832424 0 -6.3083644560746933e-06 -0.0049662331950538624 0 3.9285381864991987e-05 -0.0048276505664188608 0 -1.464066737204814e-05 -0.0048674486632027071 0 -5.4123665812423072e-06 -0.0048880123022832424 0 1.2075947961729724e-06 -0.0047823660132367482 0 2.4975870361847989e-06 -0.0048456697194121483 0 7.7868995030546314e-05 -0.0046141622594917803 0 -1.0922382293071949e-05 -0.0047414902722126475 0 0.00010294132070395734 -0.0046556957925831133 0 5.9058177290590794e-05 -0.0048600638052024425 0 0.00014649872906284434 -0.0044164632137142839 0 0.00014466386670611902 -0.0045311444006428834 0 6.9740362273232998e-05 -0.0043264377171372123 0 2.8945183525130387e-05 -0.0042529050253022546 0 8.3019387486022095e-05 -0.0042429197122285899 0 6.9740362273232998e-05 -0.0043264377171372123 0 0.0001483185638567714 -0.0044060482408297772 0 8.3019387486022095e-05 -0.0042429197122285899 0 -1.0922382293071949e-05 -0.0047414902722126475 0 0.00010294132070395734 -0.0046556957925831133 0 0.00014079574707277927 -0.0044027616022434771 0 0.00010294132070395734 -0.0046556957925831133 0 0.0001483185638567714 -0.0044060482408297772 0 0.00020998444901936534 -0.0048303704871128471 0 -5.4123665812423072e-06 -0.0048880123022832424 0 3.9285381864991987e-05 -0.0048276505664188608 0 1.2075947961729724e-06 -0.0047823660132367482 0 0.00010294132070395734 -0.0046556957925831133 0 0.0001483185638567714 -0.0044060482408297772 0 0.00014079574707277927 -0.0044027616022434771 0 0.0001483185638567714 -0.0044060482408297772 0 0.00014079574707277927 -0.0044027616022434771 0 0.00011545960257953922 -0.0043855107565998058 0 3.9285381864991987e-05 -0.0048276505664188608 0 1.2075947961729724e-06 -0.0047823660132367482 0 1.855051971031649e-05 -0.0046794731784117914 0 0.00014079574707277927 -0.0044027616022434771 0 0.00011545960257953922 -0.0043855107565998058 0 7.0285641596011856e-05 -0.0043781570532081685 0 0.00014079574707277927 -0.0044027616022434771 0 7.0285641596011856e-05 -0.0043781570532081685 0 3.9037526141314137e-05 -0.0044308900339558822 0 6.9740362273232998e-05 -0.0043264377171372123 0 0.00011545960257953922 -0.0043855107565998058 0 7.0285641596011856e-05 -0.0043781570532081685 0 6.9740362273232998e-05 -0.0043264377171372123 0 0.0001483185638567714 -0.0044060482408297772 0 0.00011545960257953922 -0.0043855107565998058 0 6.9740362273232998e-05 -0.0043264377171372123 0 7.0285641596011856e-05 -0.0043781570532081685 0 2.8275915566572264e-05 -0.0043025302544175952 0 3.9285381864991987e-05 -0.0048276505664188608 0 3.9037526141314137e-05 -0.0044308900339558822 0 1.855051971031649e-05 -0.0046794731784117914 0 3.9037526141314137e-05 -0.0044308900339558822 0 1.855051971031649e-05 -0.0046794731784117914 0 -8.9839370086144433e-07 -0.0046885536746210455 0 7.7868995030546314e-05 -0.0046141622594917803 0 4.6222016500865458e-05 -0.0044660921781910033 0 1.2075947961729724e-06 -0.0047823660132367482 0 1.855051971031649e-05 -0.0046794731784117914 0 -8.9839370086144433e-07 -0.0046885536746210455 0 3.9037526141314137e-05 -0.0044308900339558822 0 -8.9839370086144433e-07 -0.0046885536746210455 0 7.3796605665001549e-08 -0.0044306814784110761 0 3.9037526141314137e-05 -0.0044308900339558822 0 7.3796605665001549e-08 -0.0044306814784110761 0 -1.5081582304255211e-06 -0.00428689452001058 0 7.3796605665001549e-08 -0.0044306814784110761 0 -1.5081582304255211e-06 -0.00428689452001058 0 -7.0384739296600892e-08 -0.0039913981477181486 0 -1.7293028980835346e-05 -0.0042090462255409489 0 -1.5081582304255211e-06 -0.00428689452001058 0 -7.0384739296600892e-08 -0.0039913981477181486 0 -1.7293028980835346e-05 -0.0042090462255409489 0 2.5134628016921955e-06 -0.0043067030090541162 0 -1.5081582304255211e-06 -0.00428689452001058 0 7.0285641596011856e-05 -0.0043781570532081685 0 3.9037526141314137e-05 -0.0044308900339558822 0 2.5134628016921955e-06 -0.0043067030090541162 0 3.9037526141314137e-05 -0.0044308900339558822 0 2.5134628016921955e-06 -0.0043067030090541162 0 -1.5081582304255211e-06 -0.00428689452001058 0 -7.0384739296600892e-08 -0.0039913981477181486 0 2.0689395590056756e-05 -0.0039292817956779634 0 -6.8657921282415219e-06 -0.003745546883570454 0 -7.0384739296600892e-08 -0.0039913981477181486 0 -4.3237593219381035e-06 -0.0041108134708036648 0 2.0689395590056756e-05 -0.0039292817956779634 0 -1.7293028980835346e-05 -0.0042090462255409489 0 -7.0384739296600892e-08 -0.0039913981477181486 0 -4.3237593219381035e-06 -0.0041108134708036648 0 -4.3237593219381035e-06 -0.0041108134708036648 0 2.0689395590056756e-05 -0.0039292817956779634 0 9.7798204451841092e-05 -0.0041778491855525568 0 2.1463082536620379e-05 -0.0039228149733009495 0 4.2857036828458983e-05 -0.0039654529818061715 0 -4.3237593219381035e-06 -0.0041108134708036648 0 1.5646090509886907e-05 -0.0041963296035879673 0 9.7798204451841092e-05 -0.0041778491855525568 0 -1.7293028980835346e-05 -0.0042090462255409489 0 -4.3237593219381035e-06 -0.0041108134708036648 0 1.5646090509886907e-05 -0.0041963296035879673 0 1.5646090509886907e-05 -0.0041963296035879673 0 -1.1066344472617874e-06 -0.0042547005389683206 0 1.5733900184686771e-05 -0.0042398632748504505 0 1.5646090509886907e-05 -0.0041963296035879673 0 4.1544704405933296e-05 -0.0042308328382663169 0 1.5733900184686771e-05 -0.0042398632748504505 0 1.5646090509886907e-05 -0.0041963296035879673 0 4.1544704405933296e-05 -0.0042308328382663169 0 7.0335265799144681e-05 -0.0042168864429884597 0 1.5646090509886907e-05 -0.0041963296035879673 0 9.7798204451841092e-05 -0.0041778491855525568 0 7.0335265799144681e-05 -0.0042168864429884597 0 7.0285641596011856e-05 -0.0043781570532081685 0 2.5134628016921955e-06 -0.0043067030090541162 0 2.8275915566572264e-05 -0.0043025302544175952 0 2.5134628016921955e-06 -0.0043067030090541162 0 2.8275915566572264e-05 -0.0043025302544175952 0 -1.1066344472617874e-06 -0.0042547005389683206 0 -1.7293028980835346e-05 -0.0042090462255409489 0 1.5646090509886907e-05 -0.0041963296035879673 0 -1.1066344472617874e-06 -0.0042547005389683206 0 -1.7293028980835346e-05 -0.0042090462255409489 0 2.5134628016921955e-06 -0.0043067030090541162 0 -1.1066344472617874e-06 -0.0042547005389683206 0 -1.1066344472617874e-06 -0.0042547005389683206 0 2.8945183525130387e-05 -0.0042529050253022546 0 1.5733900184686771e-05 -0.0042398632748504505 0 2.8275915566572264e-05 -0.0043025302544175952 0 -1.1066344472617874e-06 -0.0042547005389683206 0 2.8945183525130387e-05 -0.0042529050253022546 0 6.9740362273232998e-05 -0.0043264377171372123 0 2.8275915566572264e-05 -0.0043025302544175952 0 2.8945183525130387e-05 -0.0042529050253022546 0 2.8945183525130387e-05 -0.0042529050253022546 0 4.1998777916955021e-05 -0.0042363844328297861 0 8.3019387486022095e-05 -0.0042429197122285899 0 2.8945183525130387e-05 -0.0042529050253022546 0 2.889281266209436e-05 -0.0042387799332743595 0 4.1998777916955021e-05 -0.0042363844328297861 0 2.8945183525130387e-05 -0.0042529050253022546 0 2.889281266209436e-05 -0.0042387799332743595 0 1.5733900184686771e-05 -0.0042398632748504505 0 2.889281266209436e-05 -0.0042387799332743595 0 4.1998777916955021e-05 -0.0042363844328297861 0 3.8550218244030123e-05 -0.0042337628240951327 0 4.1998777916955021e-05 -0.0042363844328297861 0 3.8550218244030123e-05 -0.0042337628240951327 0 5.3011012695302489e-05 -0.0042318392235229582 0 4.1544704405933296e-05 -0.0042308328382663169 0 7.0335265799144681e-05 -0.0042168864429884597 0 5.9616969862536276e-05 -0.0042367950378676567 0 4.1544704405933296e-05 -0.0042308328382663169 0 3.643054708803134e-05 -0.0042416266544892814 0 5.9616969862536276e-05 -0.0042367950378676567 0 2.889281266209436e-05 -0.0042387799332743595 0 1.5733900184686771e-05 -0.0042398632748504505 0 3.643054708803134e-05 -0.0042416266544892814 0 4.1544704405933296e-05 -0.0042308328382663169 0 1.5733900184686771e-05 -0.0042398632748504505 0 3.643054708803134e-05 -0.0042416266544892814 0 2.889281266209436e-05 -0.0042387799332743595 0 3.643054708803134e-05 -0.0042416266544892814 0 3.5327477989552835e-05 -0.0042367707161975413 0 3.643054708803134e-05 -0.0042416266544892814 0 4.690488021729125e-05 -0.0042468699506705244 0 5.9616969862536276e-05 -0.0042367950378676567 0 0.00017126988259442448 -0.0036654331916245804 0 0.0002338036063342546 -0.0036293091245252224 0 0.00017277515985997932 -0.0036056686458363135 0 3.643054708803134e-05 -0.0042416266544892814 0 4.690488021729125e-05 -0.0042468699506705244 0 3.5327477989552835e-05 -0.0042367707161975413 0 0.00010556936590091112 -0.0039767436027457028 0 0.00010588881193643193 -0.0039603412083969915 0 0.00042504791126023075 -0.0030728058068673777 0 0.0003830980857403989 -0.0030807725535715361 0 0.00041041361496962811 -0.0030368749707000565 0 0.00035194258126492768 -0.003310572308134958 0 0.00027541435146370062 -0.0033519174624513626 0 0.0002338036063342546 -0.0036293091245252224 0 0.00023454605469867945 -0.0036005736088361232 0 0.00017277515985997932 -0.0036056686458363135 0 3.8550218244030123e-05 -0.0042337628240951327 0 4.6262706592530565e-05 -0.0042292499142552176 0 5.3011012695302489e-05 -0.0042318392235229582 0 2.889281266209436e-05 -0.0042387799332743595 0 3.5327477989552835e-05 -0.0042367707161975413 0 3.8550218244030123e-05 -0.0042337628240951327 0 0.0002338036063342546 -0.0036293091245252224 0 0.00023454605469867945 -0.0036005736088361232 0 0.00029470007286372835 -0.0035948298607970139 0 0.00010588881193643193 -0.0039603412083969915 0 0.0002940198614632773 -0.003716243396800174 0 0.00035194258126492768 -0.003310572308134958 0 0.0002940198614632773 -0.003716243396800174 0 3.5327477989552835e-05 -0.0042367707161975413 0 3.8550218244030123e-05 -0.0042337628240951327 0 4.3231883047913891e-05 -0.0042255748112709065 0 4.6262706592530565e-05 -0.0042292499142552176 0 4.3231883047913891e-05 -0.0042255748112709065 0 4.901737036625437e-05 -0.0042273530569340431 0 0.0002940198614632773 -0.003716243396800174 0 0.00013395070174256928 -0.0045905193584377928 0 3.8550218244030123e-05 -0.0042337628240951327 0 4.6262706592530565e-05 -0.0042292499142552176 0 4.3231883047913891e-05 -0.0042255748112709065 0 4.6262706592530565e-05 -0.0042292499142552176 0 4.901737036625437e-05 -0.0042273530569340431 0 5.3011012695302489e-05 -0.0042318392235229582 0 0.00013395070174256928 -0.0045905193584377928 0 0.00011148167965213154 -0.0046056045157837795 0 0.00016238977465248312 -0.0050448979508330863 0 0.00017132810110219706 -0.0049631357796077191 0 0.00011195134540707035 -0.0050121856343313901 0 0.00017132810110219706 -0.0049631357796077191 0 0.00011195134540707035 -0.0050121856343313901 0 5.3621115805130419e-05 -0.0049569651748945596 0 0.00016238977465248312 -0.0050448979508330863 0 0.00011195134540707035 -0.0050121856343313901 0 6.4831473090888787e-05 -0.0050412850878678219 0 3.7070474671295558e-05 -0.0050000673322017353 0 -2.4276916493538129e-08 -0.005000050730797732 0 6.4831473090888787e-05 -0.0050412850878678219 0 0.00011195134540707035 -0.0050121856343313901 0 3.7070474671295558e-05 -0.0050000673322017353 0 6.4831473090888787e-05 -0.0050412850878678219 0 7.9090305993389517e-08 -0.0050000547715273293 0 3.7070474671295558e-05 -0.0050000673322017353 0 -2.4276916493538129e-08 -0.005000050730797732 0 7.9090305993389517e-08 -0.0050000547715273293 0 3.7070474671295558e-05 -0.0050000673322017353 0 5.3621115805130419e-05 -0.0049569651748945596 0 0.00011195134540707035 -0.0050121856343313901 0 3.7070474671295558e-05 -0.0050000673322017353 0 5.3621115805130419e-05 -0.0049569651748945596 0 5.3621115805130419e-05 -0.0049569651748945596 0 -1.9343932099356534e-07 -0.0049996469994349167 0 5.9058177290590794e-05 -0.0048600638052024425 0 7.9090305993389517e-08 -0.0050000547715273293 0 5.3621115805130419e-05 -0.0049569651748945596 0 -1.9343932099356534e-07 -0.0049996469994349167 0 2.4975870361847989e-06 -0.0048456697194121483 0 3.4459580893282992e-10 -0.0049999422690819697 0 -1.0922382293071949e-05 -0.0047414902722126475 0 -1.9343932099356534e-07 -0.0049996469994349167 0 5.9058177290590794e-05 -0.0048600638052024425 0 0.00010294132070395734 -0.0046556957925831133 0 5.9058177290590794e-05 -0.0048600638052024425 0 0.00020998444901936534 -0.0048303704871128471 0 5.3621115805130419e-05 -0.0049569651748945596 0 5.9058177290590794e-05 -0.0048600638052024425 0 0.00020998444901936534 -0.0048303704871128471 0 4.1998777916955021e-05 -0.0042363844328297861 0 5.3011012695302489e-05 -0.0042318392235229582 0 8.3019387486022095e-05 -0.0042429197122285899 0 0.00011148167965213154 -0.0046056045157837795 0 0.00014466386670611902 -0.0045311444006428834 0 0.00017132810110219706 -0.0049631357796077191 0 5.3621115805130419e-05 -0.0049569651748945596 0 0.00020998444901936534 -0.0048303704871128471 0 0.00022139196861683898 -0.0020990462314774343 0 0.00013497077196717664 -0.0021397201955505093 0 0.00020945443440278363 -0.0020216160935218799 0 0.00022139196861683898 -0.0020990462314774343 0 0.00021795677082833722 -0.0020860284727955251 0 0.00020945443440278363 -0.0020216160935218799 0 0.00022139196861683898 -0.0020990462314774343 0 0.00022035939224660176 -0.002110902217887743 0 0.00021795677082833722 -0.0020860284727955251 0 0.00022139196861683898 -0.0020990462314774343 0 0.00023196618367924757 -0.0021139232605449036 0 0.00022035939224660176 -0.002110902217887743 0 0.00023196618367924757 -0.0021139232605449036 0 0.00027802923844815841 -0.002177461604740531 0 0.00021966101286557385 -0.0021150995835945161 0 0.00022139196861683898 -0.0020990462314774343 0 0.00023196618367924757 -0.0021139232605449036 0 0.00027802923844815841 -0.002177461604740531 0 0.00023196618367924757 -0.0021139232605449036 0 0.00021966101286557385 -0.0021150995835945161 0 0.00022035939224660176 -0.002110902217887743 0 0.00022139196861683898 -0.0020990462314774343 0 0.00027802923844815841 -0.002177461604740531 0 0.00014136601844405978 -0.0022349818223946355 0 0.00022139196861683898 -0.0020990462314774343 0 0.00014136601844405978 -0.0022349818223946355 0 0.00013497077196717664 -0.0021397201955505093 0 -7.4620979369429182e-06 -0.0027784774729549002 0 -4.7679221490553895e-07 -0.0026715436682297508 0 6.1236187544709967e-05 -0.0024659810946209885 0 0.00027802923844815841 -0.002177461604740531 0 0.00014136601844405978 -0.0022349818223946355 0 6.1236187544709967e-05 -0.0024659810946209885 0 0.00011100840026306007 -0.002493479158148799 0 5.7517909285556238e-05 -0.0024756745683801444 0 -4.7679221490553895e-07 -0.0026715436682297508 0 2.2276938612325949e-08 -0.0024642149955298141 0 6.1236187544709967e-05 -0.0024659810946209885 0 -9.5602286387805839e-09 -0.0027413722416129555 0 -4.7679221490553895e-07 -0.0026715436682297508 0 2.2276938612325949e-08 -0.0024642149955298141 0 -9.5602286387805839e-09 -0.0027413722416129555 0 -4.7679221490553895e-07 -0.0026715436682297508 0 -2.4305612303441692e-05 -0.0028652909214845869 0 -7.4620979369429182e-06 -0.0027784774729549002 0 -4.7679221490553895e-07 -0.0026715436682297508 0 -2.6364232523490971e-05 -0.0028063210472898648 0 -2.4305612303441692e-05 -0.0028652909214845869 0 -9.4311203834025178e-06 -0.002824926468238011 0 -2.6364232523490971e-05 -0.0028063210472898648 0 -4.7679221490553895e-07 -0.0026715436682297508 0 -2.4305612303441692e-05 -0.0028652909214845869 0 -2.6364232523490971e-05 -0.0028063210472898648 0 -9.5602286387805839e-09 -0.0027413722416129555 0 -2.4305612303441692e-05 -0.0028652909214845869 0 -1.2671948097952762e-07 -0.0030184336554840521 0 -2.4305612303441692e-05 -0.0028652909214845869 0 -1.2671948097952762e-07 -0.0030184336554840521 0 3.6061473440625706e-06 -0.0030337397214363713 0 -2.4305612303441692e-05 -0.0028652909214845869 0 2.1147992950341381e-05 -0.0029127147977228928 0 3.6061473440625706e-06 -0.0030337397214363713 0 -2.4305612303441692e-05 -0.0028652909214845869 0 -9.4311203834025178e-06 -0.002824926468238011 0 2.1147992950341381e-05 -0.0029127147977228928 0 -4.1282309539341034e-06 -0.0028423358057025443 0 1.1473223823953028e-06 -0.0028737036474142247 0 -9.4311203834025178e-06 -0.002824926468238011 0 2.066491738419286e-05 -0.0028344514748783085 0 2.2580659273036798e-05 -0.0028818260419637581 0 3.3059277033507438e-06 -0.0028183784930161694 0 -9.4311203834025178e-06 -0.002824926468238011 0 2.066491738419286e-05 -0.0028344514748783085 0 3.3059277033507438e-06 -0.0028183784930161694 0 2.3751669236725746e-05 -0.0028051506644315057 0 2.066491738419286e-05 -0.0028344514748783085 0 3.3059277033507438e-06 -0.0028183784930161694 0 -9.4311203834025178e-06 -0.002824926468238011 0 -1.7143174435220285e-05 -0.0028092924290775158 0 -7.4620979369429182e-06 -0.0027784774729549002 0 -2.6364232523490971e-05 -0.0028063210472898648 0 -1.7143174435220285e-05 -0.0028092924290775158 0 -9.4311203834025178e-06 -0.002824926468238011 0 -2.6364232523490971e-05 -0.0028063210472898648 0 -1.7143174435220285e-05 -0.0028092924290775158 0 0.00011100840026306007 -0.002493479158148799 0 0.0001006827724466035 -0.0023652461422845579 0 0.00027802923844815841 -0.002177461604740531 0 0.00021966101286557385 -0.0021150995835945161 0 0.00018295903229354702 -0.0020948577946187596 0 0.00021966101286557385 -0.0021150995835945161 0 0.00019479933553205733 -0.0021272741626464186 0 0.00022035939224660176 -0.002110902217887743 0 0.00021966101286557385 -0.0021150995835945161 0 0.00018216552810494422 -0.0021197841172749341 0 0.00018295903229354702 -0.0020948577946187596 0 0.00021966101286557385 -0.0021150995835945161 0 0.00018216552810494422 -0.0021197841172749341 0 0.00019479933553205733 -0.0021272741626464186 0 0.00018295903229354702 -0.0020948577946187596 0 7.2297506028687488e-05 -0.0021243464975848336 0 0.00013930260128044286 -0.002127271164450187 0 3.3059277033507438e-06 -0.0028183784930161694 0 -1.7143174435220285e-05 -0.0028092924290775158 0 2.3751669236725746e-05 -0.0028051506644315057 0 0.0001006827724466035 -0.0023652461422845579 0 7.6937880639517511e-05 -0.003001611615688475 0 0.00018216552810494422 -0.0021197841172749341 0 0.00018295903229354702 -0.0020948577946187596 0 0.00013930260128044286 -0.002127271164450187 0 9.0750128175984539e-05 -0.0033489501877442579 0 7.6937880639517511e-05 -0.003001611615688475 0 9.1105921566625369e-05 -0.0037791396292894269 0 0.00011101781304431328 -0.0037378320162116388 0 9.2236639728059239e-05 -0.0037835312148925965 0 2.3751669236725746e-05 -0.0028051506644315057 0 5.6689754786493227e-05 -0.0028389355406157361 0 4.5761963515548106e-05 -0.0027692931854677743 0 -1.7143174435220285e-05 -0.0028092924290775158 0 2.3751669236725746e-05 -0.0028051506644315057 0 4.5761963515548106e-05 -0.0027692931854677743 0 9.1105921566625369e-05 -0.0037791396292894269 0 7.5087659176294991e-05 -0.0037628257195550193 0 6.9316341169176038e-05 -0.0037855176894074391 0 9.1105921566625369e-05 -0.0037791396292894269 0 7.5087659176294991e-05 -0.0037628257195550193 0 0.00011101781304431328 -0.0037378320162116388 0 5.4332525139702252e-05 -0.0037808745046294702 0 7.5087659176294