<?xml version="1.0"?>
<VTKFile type="UnstructuredGrid" version="0.1" byte_order="LittleEndian">
<UnstructuredGrid>
<Piece NumberOfPoints="29558" NumberOfCells="10381">
<Points>
<DataArray type="Float64" NumberOfComponents="3" format="ascii">
-0.5 -0.5 0 -0.47090232915261637 -0.4704768069041298 0 -0.44553013156639432 -0.5 0 -0.5 -0.5 0 -0.47090232915261637 -0.4704768069041298 0 -0.5 -0.43863998971076668 0 -0.47090232915261637 -0.4704768069041298 0 -0.44553013156639432 -0.5 0 -0.44812262496393962 -0.46666460052765141 0 -0.44553013156639432 -0.5 0 -0.44812262496393962 -0.46666460052765141 0 -0.42966516510445862 -0.47493785375449787 0 -0.43859953004751662 -0.44338025104756779 0 -0.46237382682180173 -0.44819266019555509 0 -0.45821215504689827 -0.42434516182733228 0 -0.43859953004751662 -0.44338025104756779 0 -0.44812262496393962 -0.46666460052765141 0 -0.46237382682180173 -0.44819266019555509 0 -0.43859953004751662 -0.44338025104756779 0 -0.44812262496393962 -0.46666460052765141 0 -0.4318534075676273 -0.45968213530707969 0 -0.47090232915261637 -0.4704768069041298 0 -0.44812262496393962 -0.46666460052765141 0 -0.46237382682180173 -0.44819266019555509 0 -0.47090232915261637 -0.4704768069041298 0 -0.46237382682180173 -0.44819266019555509 0 -0.5 -0.43863998971076668 0 -0.46237382682180173 -0.44819266019555509 0 -0.5 -0.43863998971076668 0 -0.45821215504689827 -0.42434516182733228 0 -0.5 -0.43863998971076668 0 -0.47750567453972392 -0.40852635851073449 0 -0.45821215504689827 -0.42434516182733228 0 -0.5 -0.43863998971076668 0 -0.47750567453972392 -0.40852635851073449 0 -0.5 -0.39181759546499362 0 -0.47750567453972392 -0.40852635851073449 0 -0.47209455863023031 -0.38705765678553983 0 -0.45722165902149109 -0.4007713887650402 0 -0.47750567453972392 -0.40852635851073449 0 -0.5 -0.39181759546499362 0 -0.47209455863023031 -0.38705765678553983 0 -0.5 -0.39181759546499362 0 -0.47209455863023031 -0.38705765678553983 0 -0.47853861946806869 -0.36707326441363841 0 -0.47209455863023031 -0.38705765678553983 0 -0.46237967713699429 -0.37714856317698459 0 -0.47853861946806869 -0.36707326441363841 0 -0.47209455863023031 -0.38705765678553983 0 -0.46237967713699429 -0.37714856317698459 0 -0.45158375521532551 -0.3864451481281978 0 -0.46237967713699429 -0.37714856317698459 0 -0.45158375521532551 -0.3864451481281978 0 -0.45066696737299938 -0.37295651524511042 0 -0.47209455863023031 -0.38705765678553983 0 -0.45722165902149109 -0.4007713887650402 0 -0.45158375521532551 -0.3864451481281978 0 -0.44346230006838111 -0.3963900529637881 0 -0.43238805296116911 -0.40908560025935448 0 -0.4370735921082044 -0.38573497627603048 0 -0.45722165902149109 -0.4007713887650402 0 -0.44346230006838111 -0.3963900529637881 0 -0.44582030122175442 -0.40855064000586577 0 -0.44346230006838111 -0.3963900529637881 0 -0.43790044695761132 -0.40726358474257868 0 -0.43238805296116911 -0.40908560025935448 0 -0.44346230006838111 -0.3963900529637881 0 -0.44582030122175442 -0.40855064000586577 0 -0.43790044695761132 -0.40726358474257868 0 -0.45722165902149109 -0.4007713887650402 0 -0.44346230006838111 -0.3963900529637881 0 -0.45158375521532551 -0.3864451481281978 0 -0.44523408858185248 -0.37690149056122402 0 -0.4370735921082044 -0.38573497627603048 0 -0.4416120396308808 -0.36246932259555742 0 -0.45158375521532551 -0.3864451481281978 0 -0.44523408858185248 -0.37690149056122402 0 -0.4370735921082044 -0.38573497627603048 0 -0.44346230006838111 -0.3963900529637881 0 -0.45158375521532551 -0.3864451481281978 0 -0.4370735921082044 -0.38573497627603048 0 -0.45158375521532551 -0.3864451481281978 0 -0.44523408858185248 -0.37690149056122402 0 -0.45066696737299938 -0.37295651524511042 0 -0.45722165902149109 -0.4007713887650402 0 -0.45821215504689827 -0.42434516182733228 0 -0.44582030122175442 -0.40855064000586577 0 -0.47750567453972392 -0.40852635851073449 0 -0.45722165902149109 -0.4007713887650402 0 -0.45821215504689827 -0.42434516182733228 0 -0.45821215504689827 -0.42434516182733228 0 -0.44582030122175442 -0.40855064000586577 0 -0.43253540755181352 -0.41555222417072912 0 -0.45821215504689827 -0.42434516182733228 0 -0.43253540755181352 -0.41555222417072912 0 -0.44582030122175442 -0.40855064000586577 0 -0.43790044695761132 -0.40726358474257868 0 -0.43253540755181352 -0.41555222417072912 0 -0.43859953004751662 -0.44338025104756779 0 -0.45821215504689827 -0.42434516182733228 0 -0.42857561061970589 -0.42966067495978361 0 -0.45821215504689827 -0.42434516182733228 0 -0.42857561061970589 -0.42966067495978361 0 -0.43253540755181352 -0.41555222417072912 0 -0.43859953004751662 -0.44338025104756779 0 -0.42857561061970589 -0.42966067495978361 0 -0.41990167697746822 -0.43858121456767568 0 -0.42857561061970589 -0.42966067495978361 0 -0.43253540755181352 -0.41555222417072912 0 -0.42118011556146362 -0.42258305396164969 0 -0.43253540755181352 -0.41555222417072912 0 -0.41283038837641622 -0.41783136866044501 0 -0.42118011556146362 -0.42258305396164969 0 -0.43790044695761132 -0.40726358474257868 0 -0.43253540755181352 -0.41555222417072912 0 -0.43482990403277733 -0.40937413313740562 0 -0.43790044695761132 -0.40726358474257868 0 -0.43482990403277733 -0.40937413313740562 0 -0.43238805296116911 -0.40908560025935448 0 -0.43253540755181352 -0.41555222417072912 0 -0.43482990403277733 -0.40937413313740562 0 -0.43321463686432932 -0.41051649511209959 0 -0.43482990403277733 -0.40937413313740562 0 -0.43321463686432932 -0.41051649511209959 0 -0.43238805296116911 -0.40908560025935448 0 -0.43321463686432932 -0.41051649511209959 0 -0.43238805296116911 -0.40908560025935448 0 -0.43253540755181352 -0.41555222417072912 0 -0.43321463686432932 -0.41051649511209959 0 -0.42350160717396401 -0.40572207709216401 0 -0.43321463686432932 -0.41051649511209959 0 -0.43238805296116911 -0.40908560025935448 0 -0.42350160717396401 -0.40572207709216401 0 -0.43253540755181352 -0.41555222417072912 0 -0.40685866005672883 -0.40675928651412591 0 -0.43253540755181352 -0.41555222417072912 0 -0.40685866005672883 -0.40675928651412591 0 -0.42350160717396401 -0.40572207709216401 0 -0.43253540755181352 -0.41555222417072912 0 -0.40685866005672883 -0.40675928651412591 0 -0.41283038837641622 -0.41783136866044501 0 -0.42857561061970589 -0.42966067495978361 0 -0.41161332360240022 -0.42847472097169992 0 -0.42118011556146362 -0.42258305396164969 0 -0.41283038837641622 -0.41783136866044501 0 -0.41161332360240022 -0.42847472097169992 0 -0.39596892105118531 -0.42148406768110269 0 -0.42857561061970589 -0.42966067495978361 0 -0.41161332360240022 -0.42847472097169992 0 -0.41990167697746822 -0.43858121456767568 0 -0.41161332360240022 -0.42847472097169992 0 -0.41990167697746822 -0.43858121456767568 0 -0.40737259347131649 -0.43946529467799111 0 -0.41283038837641622 -0.41783136866044501 0 -0.41161332360240022 -0.42847472097169992 0 -0.42118011556146362 -0.42258305396164969 0 -0.4370735921082044 -0.38573497627603048 0 -0.42139772422298449 -0.39006030257170132 0 -0.42615508220917647 -0.37274546335519909 0 -0.43238805296116911 -0.40908560025935448 0 -0.42350160717396401 -0.40572207709216401 0 -0.42139772422298449 -0.39006030257170132 0 -0.43238805296116911 -0.40908560025935448 0 -0.42139772422298449 -0.39006030257170132 0 -0.43238805296116911 -0.40908560025935448 0 -0.4370735921082044 -0.38573497627603048 0 -0.42139772422298449 -0.39006030257170132 0 -0.43238805296116911 -0.40908560025935448 0 -0.4370735921082044 -0.38573497627603048 0 -0.40685866005672883 -0.40675928651412591 0 -0.42350160717396401 -0.40572207709216401 0 -0.42139772422298449 -0.39006030257170132 0 -0.40685866005672883 -0.40675928651412591 0 -0.42139772422298449 -0.39006030257170132 0 -0.40184411310429918 -0.38771459213197013 0 -0.42139772422298449 -0.39006030257170132 0 -0.40958081158163978 -0.36960411003130289 0 -0.42139772422298449 -0.39006030257170132 0 -0.42615508220917647 -0.37274546335519909 0 -0.40958081158163978 -0.36960411003130289 0 -0.42139772422298449 -0.39006030257170132 0 -0.40184411310429918 -0.38771459213197013 0 -0.40958081158163978 -0.36960411003130289 0 -0.40184411310429918 -0.38771459213197013 0 -0.38118191256164402 -0.39796634885752269 0 -0.38956438601736298 -0.37407075850006588 0 -0.40184411310429918 -0.38771459213197013 0 -0.40958081158163978 -0.36960411003130289 0 -0.38956438601736298 -0.37407075850006588 0 -0.40685866005672883 -0.40675928651412591 0 -0.38118191256164402 -0.39796634885752269 0 -0.38727879121263292 -0.41086075103603631 0 -0.40685866005672883 -0.40675928651412591 0 -0.40184411310429918 -0.38771459213197013 0 -0.38118191256164402 -0.39796634885752269 0 -0.40685866005672883 -0.40675928651412591 0 -0.38118191256164402 -0.39796634885752269 0 -0.38118191256164402 -0.39796634885752269 0 -0.38727879121263292 -0.41086075103603631 0 -0.37028009626003638 -0.40862256529757612 0 -0.38118191256164402 -0.39796634885752269 0 -0.38956438601736298 -0.37407075850006588 0 -0.37153564175596138 -0.37906794085086831 0 -0.41161332360240022 -0.42847472097169992 0 -0.39657919142058629 -0.43358398703702861 0 -0.39596892105118531 -0.42148406768110269 0 -0.39657919142058629 -0.43358398703702861 0 -0.39596892105118531 -0.42148406768110269 0 -0.38233150034515673 -0.43024990898818288 0 -0.41161332360240022 -0.42847472097169992 0 -0.39657919142058629 -0.43358398703702861 0 -0.40737259347131649 -0.43946529467799111 0 -0.40685866005672883 -0.40675928651412591 0 -0.41283038837641622 -0.41783136866044501 0 -0.39596892105118531 -0.42148406768110269 0 -0.40685866005672883 -0.40675928651412591 0 -0.39596892105118531 -0.42148406768110269 0 -0.38727879121263292 -0.41086075103603631 0 -0.38727879121263292 -0.41086075103603631 0 -0.37637438270178791 -0.42005484761235917 0 -0.37028009626003638 -0.40862256529757612 0 -0.39596892105118531 -0.42148406768110269 0 -0.38727879121263292 -0.41086075103603631 0 -0.37637438270178791 -0.42005484761235917 0 -0.37637438270178791 -0.42005484761235917 0 -0.38233150034515673 -0.43024990898818288 0 -0.37084531619776401 -0.43037911208167451 0 -0.39596892105118531 -0.42148406768110269 0
[...]
<PointData Scalars="" Vectors="displacement," Tensors="">
<DataArray type="Float64" Name="displacement" NumberOfComponents="3" format="ascii">
-3.6583283246183434e-08 -0.0049997009077110202 0 -1.6563064056663742e-05 -0.004748818715789754 0 -5.9554676913196374e-08 -0.0049996420560286968 0 -3.6583283246183434e-08 -0.0049997009077110202 0 -1.6563064056663742e-05 -0.004748818715789754 0 6.4055886857704422e-08 -0.0043865322427966745 0 -1.6563064056663742e-05 -0.004748818715789754 0 -5.9554676913196374e-08 -0.0049996420560286968 0 -2.15122127292337e-05 -0.0047829770015152193 0 -5.9554676913196374e-08 -0.0049996420560286968 0 -2.15122127292337e-05 -0.0047829770015152193 0 -2.183759787193759e-05 -0.0048889052124516837 0 1.8332573148673938e-05 -0.0047054453210845391 0 1.0921299627149486e-05 -0.0045670274738485858 0 9.5173914872368975e-05 -0.0043399405842866803 0 1.8332573148673938e-05 -0.0047054453210845391 0 -2.15122127292337e-05 -0.0047829770015152193 0 1.0921299627149486e-05 -0.0045670274738485858 0 1.8332573148673938e-05 -0.0047054453210845391 0 -2.15122127292337e-05 -0.0047829770015152193 0 -7.7709371277292142e-06 -0.0048192388739274443 0 -1.6563064056663742e-05 -0.004748818715789754 0 -2.15122127292337e-05 -0.0047829770015152193 0 1.0921299627149486e-05 -0.0045670274738485858 0 -1.6563064056663742e-05 -0.004748818715789754 0 1.0921299627149486e-05 -0.0045670274738485858 0 6.4055886857704422e-08 -0.0043865322427966745 0 1.0921299627149486e-05 -0.0045670274738485858 0 6.4055886857704422e-08 -0.0043865322427966745 0 9.5173914872368975e-05 -0.0043399405842866803 0 6.4055886857704422e-08 -0.0043865322427966745 0 2.256471016734371e-05 -0.0041457693134536811 0 9.5173914872368975e-05 -0.0043399405842866803 0 6.4055886857704422e-08 -0.0043865322427966745 0 2.256471016734371e-05 -0.0041457693134536811 0 -8.5650779164964308e-08 -0.0039181706212685777 0 2.256471016734371e-05 -0.0041457693134536811 0 -8.8241831671258816e-06 -0.0039417358802125877 0 -6.3967244425772288e-06 -0.004055808307728827 0 2.256471016734371e-05 -0.0041457693134536811 0 -8.5650779164964308e-08 -0.0039181706212685777 0 -8.8241831671258816e-06 -0.0039417358802125877 0 -8.5650779164964308e-08 -0.0039181706212685777 0 -8.8241831671258816e-06 -0.0039417358802125877 0 -2.1710066302468548e-05 -0.0037906234805873003 0 -8.8241831671258816e-06 -0.0039417358802125877 0 -2.3508230493876971e-05 -0.003830551926308449 0 -2.1710066302468548e-05 -0.0037906234805873003 0 -8.8241831671258816e-06 -0.0039417358802125877 0 -2.3508230493876971e-05 -0.003830551926308449 0 -4.0125061554472924e-05 -0.0039103506844354414 0 -2.3508230493876971e-05 -0.003830551926308449 0 -4.0125061554472924e-05 -0.0039103506844354414 0 -2.8473326203787415e-05 -0.0037719017165219566 0 -8.8241831671258816e-06 -0.0039417358802125877 0 -6.3967244425772288e-06 -0.004055808307728827 0 -4.0125061554472924e-05 -0.0039103506844354414 0 -3.3322592567843559e-05 -0.003971701367343811 0 2.4706232178799739e-05 -0.0039460062499908416 0 -6.7619080856678196e-05 -0.0039190271328513951 0 -6.3967244425772288e-06 -0.004055808307728827 0 -3.3322592567843559e-05 -0.003971701367343811 0 1.3886093529221591e-05 -0.0040620839895985899 0 -3.3322592567843559e-05 -0.003971701367343811 0 1.3771140117625501e-05 -0.0039763432652080337 0 2.4706232178799739e-05 -0.0039460062499908416 0 -3.3322592567843559e-05 -0.003971701367343811 0 1.3886093529221591e-05 -0.0040620839895985899 0 1.3771140117625501e-05 -0.0039763432652080337 0 -6.3967244425772288e-06 -0.004055808307728827 0 -3.3322592567843559e-05 -0.003971701367343811 0 -4.0125061554472924e-05 -0.0039103506844354414 0 -3.8831787739811696e-05 -0.0038515620770837498 0 -6.7619080856678196e-05 -0.0039190271328513951 0 4.4104229148821334e-05 -0.0038593529659098451 0 -4.0125061554472924e-05 -0.0039103506844354414 0 -3.8831787739811696e-05 -0.0038515620770837498 0 -6.7619080856678196e-05 -0.0039190271328513951 0 -3.3322592567843559e-05 -0.003971701367343811 0 -4.0125061554472924e-05 -0.0039103506844354414 0 -6.7619080856678196e-05 -0.0039190271328513951 0 -4.0125061554472924e-05 -0.0039103506844354414 0 -3.8831787739811696e-05 -0.0038515620770837498 0 -2.8473326203787415e-05 -0.0037719017165219566 0 -6.3967244425772288e-06 -0.004055808307728827 0 9.5173914872368975e-05 -0.0043399405842866803 0 1.3886093529221591e-05 -0.0040620839895985899 0 2.256471016734371e-05 -0.0041457693134536811 0 -6.3967244425772288e-06 -0.004055808307728827 0 9.5173914872368975e-05 -0.0043399405842866803 0 9.5173914872368975e-05 -0.0043399405842866803 0 1.3886093529221591e-05 -0.0040620839895985899 0 8.2389352725710985e-05 -0.0039311616944064584 0 0.00010636519487128644 -0.0043302626134791109 0 0.0001460210003503015 -0.0043280885858163415 0 1.3886093529221591e-05 -0.0040620839895985899 0 1.3771140117625501e-05 -0.0039763432652080337 0 8.2389352725710985e-05 -0.0039311616944064584 0 1.8332573148673938e-05 -0.0047054453210845391 0 9.5173914872368975e-05 -0.0043399405842866803 0 0.00010581609227997911 -0.0047747060582242536 0 9.5173914872368975e-05 -0.0043399405842866803 0 0.00010581609227997911 -0.0047747060582242536 0 0.0002343716671004506 -0.0047238614663034596 0 1.8332573148673938e-05 -0.0047054453210845391 0 0.00010581609227997911 -0.0047747060582242536 0 6.5060684547706759e-05 -0.0048378244678809763 0 0.00010581609227997911 -0.0047747060582242536 0 0.0002343716671004506 -0.0047238614663034596 0 0.00015283920609002934 -0.0048127183880752661 0 0.0002343716671004506 -0.0047238614663034596 0 0.00016472724956136814 -0.0048603926885150616 0 0.00015283920609002934 -0.0048127183880752661 0 1.3771140117625501e-05 -0.0039763432652080337 0 8.2389352725710985e-05 -0.0039311616944064584 0 3.1804470851861992e-05 -0.0039562957768288637 0 1.3771140117625501e-05 -0.0039763432652080337 0 3.1804470851861992e-05 -0.0039562957768288637 0 2.4706232178799739e-05 -0.0039460062499908416 0 8.2389352725710985e-05 -0.0039311616944064584 0 3.1804470851861992e-05 -0.0039562957768288637 0 4.4369296665813634e-05 -0.0039431042409415655 0 3.1804470851861992e-05 -0.0039562957768288637 0 4.4369296665813634e-05 -0.0039431042409415655 0 2.4706232178799739e-05 -0.0039460062499908416 0 5.4882926034905788e-05 -0.0037939678535605782 0 4.9733568628449549e-05 -0.0037866544240489513 0 8.2389352725710985e-05 -0.0039311616944064584 0 4.4369296665813634e-05 -0.0039431042409415655 0 2.3909937749508051e-05 -0.0038964157759023474 0 4.4369296665813634e-05 -0.0039431042409415655 0 3.8531894193442443e-05 -0.003938873615961366 0 2.3909937749508051e-05 -0.0038964157759023474 0 0.0001460210003503015 -0.0043280885858163415 0 0.00011533457018762431 -0.0043496825250785125 0 8.2389352725710985e-05 -0.0039311616944064584 0 2.7742678486593405e-05 -0.0038230289833983428 0 2.3909937749508051e-05 -0.0038964157759023474 0 0.0002343716671004506 -0.0047238614663034596 0 0.00020001967560977118 -0.0048898057863558664 0 0.00016472724956136814 -0.0048603926885150616 0 0.00010581609227997911 -0.0047747060582242536 0 0.00011363588838033612 -0.0048711544488309229 0 0.00015283920609002934 -0.0048127183880752661 0 0.00016472724956136814 -0.0048603926885150616 0 0.00011363588838033612 -0.0048711544488309229 0 0.000133551651354435 -0.0049275786003675562 0 0.00010581609227997911 -0.0047747060582242536 0 0.00011363588838033612 -0.0048711544488309229 0 6.5060684547706759e-05 -0.0048378244678809763 0 0.00011363588838033612 -0.0048711544488309229 0 6.5060684547706759e-05 -0.0048378244678809763 0 6.5352916747442316e-05 -0.0048947030450048959 0 0.00016472724956136814 -0.0048603926885150616 0 0.00011363588838033612 -0.0048711544488309229 0 0.00015283920609002934 -0.0048127183880752661 0 -2.0577852510440011e-05 -0.0036726078332002979 0 -1.9502271314259329e-06 -0.0036056252038778437 0 -7.6352823787667276e-05 -0.003624581587058316 0 3.8531894193442443e-05 -0.003938873615961366 0 2.3909937749508051e-05 -0.0038964157759023474 0 -5.4023424482927162e-05 -0.0038913829265806248 0 4.9733568628449549e-05 -0.0037866544240489513 0 -2.6029776382889355e-05 -0.0037504806608203013 0 7.8909073453186851e-05 -0.0036544046270574806 0 -2.0577852510440011e-05 -0.0036726078332002979 0 -1.9502271314259329e-06 -0.0036056252038778437 0 4.9733568628449549e-05 -0.0037866544240489513 0 -3.3075795090336991e-05 -0.0038125104047763828 0 2.7742678486593405e-05 -0.0038230289833983428 0 2.3909937749508051e-05 -0.0038964157759023474 0 -5.4023424482927162e-05 -0.0038913829265806248 0 2.7742678486593405e-05 -0.0038230289833983428 0 -5.4023424482927162e-05 -0.0038913829265806248 0 -6.8559701395336294e-05 -0.0037959629079718903 0 -2.6029776382889355e-05 -0.0037504806608203013 0 -0.00013278505316440242 -0.0036902378044536069 0 -1.9502271314259329e-06 -0.0036056252038778437 0 -7.6352823787667276e-05 -0.003624581587058316 0 -8.9710089126220462e-05 -0.0035521691692329202 0 -5.4023424482927162e-05 -0.0038913829265806248 0 -6.8559701395336294e-05 -0.0037959629079718903 0 -0.00016755495573310636 -0.0038379628222880743 0 -6.8559701395336294e-05 -0.0037959629079718903 0 -1.2043680146574821e-05 -0.0036890247863174967 0 -0.00014434392712439997 -0.0037289379215313745 0 -6.8559701395336294e-05 -0.0037959629079718903 0 -0.00016755495573310636 -0.0038379628222880743 0 -0.00014434392712439997 -0.0037289379215313745 0 0.00020001967560977118 -0.0048898057863558664 0 0.00019358535264768571 -0.0049644746473361404 0 0.00016346955873002911 -0.0049501889753752358 0 2.7742678486593405e-05 -0.0038230289833983428 0 -6.8559701395336294e-05 -0.0037959629079718903 0 -1.2043680146574821e-05 -0.0036890247863174967 0 0.00011533457018762431 -0.0043496825250785125 0 0.00010318765900442166 -0.0043323559424306391 0 0.00019358535264768571 -0.0049644746473361404 0 0.00016346955873002911 -0.0049501889753752358 0 0.00016121697554715355 -0.0049977463957713072 0 -1.2043680146574821e-05 -0.0036890247863174967 0 -0.00014434392712439997 -0.0037289379215313745 0 -0.00011706538782923274 -0.0036293491701351864 0 0.00011363588838033612 -0.0048711544488309229 0 8.6462237504834281e-05 -0.0049294955525442559 0 0.000133551651354435 -0.0049275786003675562 0 8.6462237504834281e-05 -0.0049294955525442559 0 0.000133551651354435 -0.0049275786003675562 0 9.1869060032277364e-05 -0.0049699492055372083 0 0.00011363588838033612 -0.0048711544488309229 0 8.6462237504834281e-05 -0.0049294955525442559 0 6.5352916747442316e-05 -0.0048947030450048959 0 0.00020001967560977118 -0.0048898057863558664 0 0.00016472724956136814 -0.0048603926885150616 0 0.000133551651354435 -0.0049275786003675562 0 0.00020001967560977118 -0.0048898057863558664 0 0.000133551651354435 -0.0049275786003675562 0 0.00016346955873002911 -0.0049501889753752358 0 0.00016346955873002911 -0.0049501889753752358 0 0.00012410438087357412 -0.0049832030733085305 0 0.00016121697554715355 -0.0049977463957713072 0 0.000133551651354435 -0.0049275786003675562 0 0.00016346955873002911 -0.0049501889753752358 0 0.00012410438087357412 -0.0049832030733085305 0 0.00012410438087357412 -0.0049832030733085305 0 9.1869060032277364e-05 -0.0049699492055372083 0 8.2998402144865335e-05 -0.0050003933644691108 0 0.000133551651354435 -0.0049275786003675562 0 0.00012410438087357412 -0.0049832030733085305 0 9.1869060032277364e-05 -0.0049699492055372083 0 8.6462237504834281e-05 -0.0049294955525442559 0 9.1869060032277364e-05 -0.0049699492055372083 0 6.6508828034189996e-05 -0.004959266323882874 0 9.1869060032277364e-05 -0.0049699492055372083 0 6.6508828034189996e-05 -0.004959266323882874 0 5.3104995468177004e-05 -0.0050004775554291121 0 3.7747549818297353e-05 -0.0049662973056906305 0 6.6508828034189996e-05 -0.004959266323882874 0 5.3104995468177004e-05 -0.0050004775554291121 0 3.7747549818297353e-05 -0.0049662973056906305 0 2.4739891372879972e-05 -0.0049846105620343396 0 5.3104995468177004e-05 -0.0050004775554291121 0 3.7747549818297353e-05 -0.0049662973056906305 0 6.6508828034189996e-05 -0.004959266323882874 0 3.4497914237515559e-05 -0.0049317415322363512 0 8.6462237504834281e-05 -0.0049294955525442559 0 6.6508828034189996e-05 -0.004959266323882874 0 3.4497914237515559e-05 -0.0049317415322363512 0 3.7747549818297353e-05 -0.0049662973056906305 0 3.4497914237515559e-05 -0.0049317415322363512 0 1.0782883980034843e-05 -0.0049540221962033702 0 3.4497914237515559e-05 -0.0049317415322363512 0 1.2144032211632924e-05 -0.0049175441710500771 0 2.6854559276257173e-05 -0.0048808292606885503 0 8.6462237504834281e-05 -0.0049294955525442559 0 3.4497914237515559e-05 -0.0049317415322363512 0 6.5352916747442316e-05 -0.0048947030450048959 0 1.0782883980034843e-05 -0.0049540221962033702 0 -9.3867842702507027e-06 -0.0049693608182917121 0 -6.2762332508423474e-06 -0.0049462504649381307 0 1.2144032211632924e-05 -0.0049175441710500771 0 1.0782883980034843e-05 -0.0049540221962033702 0 -6.2762332508423474e-06 -0.0049462504649381307 0 3.4497914237515559e-05 -0.0049317415322363512 0 1.2144032211632924e-05 -0.0049175441710500771 0 1.0782883980034843e-05 -0.0049540221962033702 0 1.0782883980034843e-05 -0.0049540221962033702 0 2.4739891372879972e-05 -0.0049846105620343396 0 -9.3867842702507027e-06 -0.0049693608182917121 0 3.7747549818297353e-05 -0.0049662973056906305 0 1.0782883980034843e-05 -0.0049540221962033702 0 2.4739891372879972e-05 -0.0049846105620343396 0 9.1966065950227247e-06 -0.004993634105790754 0 -3.6404681552264338e-06 -0.0049916245131805918 0 -7.7656499441106985e-06 -0.0049733737731591605 0 9.1966065950227247e-06 -0.004993634105790754 0 -3.6404681552264338e-06 -0.0049916245131805918 0 2.7866927061992932e-06 -0.0050030750231810743 0 -3.6404681552264338e-06 -0.0049916245131805918 0 -1.7710817281891622e-08 -0.0049999550000435792 0 -8.4610134261610971e-09 -0.0049999921084614776 0 -3.6404681552264338e-06 -0.0049916245131805918 0 -7.7656499441106985e-06 -0.0049733737731591605 0 -1.7710817281891622e-08 -0.0049999550000435792 0 -1.3677561461557625e-07 -0.0049821846710837231 0 -7.2679094687393534e-06 -0.0049735437100961125 0 -9.3867842702507027e-06 -0.0049693608182917121 0 -7.7656499441106985e-06 -0.0049733737731591605 0 -6.2762332508423474e-06 -0.0049462504649381307 0 -7.7656499441106985e-06 -0.0049733737731591605 0 -6.2762332508423474e-06 -0.0049462504649381307 0 -1.2785612117865356e-05 -0.0049390998169891271 0 -1.2785612117865356e-05 -0.0049390998169891271 0 -2.183759787193759e-05 -0.0048889052124516837 0 -6.7518263262016179e-06 -0.0048924683144891913 0 -7.7656499441106985e-06 -0.0049733737731591605 0 -1.2785612117865356e-05 -0.0049390998169891271 0 -1.43918731731787e-05 -0.0049554511504938782 0 -5.9554676913196374e-08 -0.0049996420560286968 0 -1.7710817281891622e-08 -0.0049999550000435792 0 -1.43918731731787e-05 -0.0049554511504938782 0 -6.2762332508423474e-06 -0.0049462504649381307 0 -1.2785612117865356e-05 -0.0049390998169891271 0 -6.7518263262016179e-06 -0.0048924683144891913 0 -1.2785612117865356e-05 -0.0049390998169891271 0 -1.43918731731787e-05 -0.0049554511504938782 0 -2.183759787193759e-05 -0.0048889052124516837 0 -7.7656499441106985e-06 -0.0049733737731591605 0 -1.7710817281891622e-08 -0.0049999550000435792 0 -1.43918731731787e-05 -0.0049554511504938782 0 -5.9554676913196374e-08 -0.0049996420560286968 0 -1.43918731731787e-05 -0.0049554511504938782 0 -2.183759787193759e-05 -0.0048889052124516837 0 -2.15122127292337e-05 -0.0047829770015152193 0 -2.183759787193759e-05 -0.0048889052124516837 0 -7.7709371277292142e-06 -0.0048192388739274443 0 -2.183759787193759e-05 -0.0048889052124516837 0 -7.7709371277292142e-06 -0.0048192388739274443 0 -6.7518263262016179e-06 -0.0048924683144891913 0 -7.7709371277292142e-06 -0.0048192388739274443 0 1.3387971322676749e-05 -0.0048309757332439468 0 -6.7518263262016179e-06 -0.0048924683144891913 0 1.8332573148673938e-05 -0.0047054453210845391 0 -7.7709371277292142e-06 -0.0048192388739274443 0 1.3387971322676749e-05 -0.0048309757332439468 0 1.8332573148673938e-05 -0.0047054453210845391 0 1.3387971322676749e-05 -0.0048309757332439468 0 6.5060684547706759e-05 -0.0048378244678809763 0 1.3387971322676749e-05 -0.0048309757332439468 0 6.5060684547706759e-05 -0.0048378244678809763 0 2.6854559276257173e-05 -0.0048808292606885503 0 6.5060684547706759e-05 -0.0048378244678809763 0 6.5352916747442316e-05 -0.0048947030450048959 0 2.6854559276257173e-05 -0.0048808292606885503 0 3.4497914237515559e-05 -0.0049317415322363512 0 6.5352916747442316e-05 -0.0048947030450048959 0 2.6854559276257173e-05 -0.0048808292606885503 0 1.2144032211632924e-05 -0.0049175441710500771 0 2.6854559276257173e-05 -0.0048808292606885503 0 -6.7518263262016179e-06 -0.0048924683144891913 0 1.2144032211632924e-05 -0.0049175441710500771 0 -6.2762332508423474e-06 -0.0049462504649381307 0 -6.7518263262016179e-06 -0.0048924683144891913 0 1.3387971322676749e-05 -0.0048309757332439468 0 2.6854559276257173e-05 -0.0048808292606885503 0 -6.7518263262016179e-06 -0.0048924683144891913 0 -3.4447350618439322e-05 -0.0027096546994814794 0 -5.3838480441744611e-05 -0.0027735594948753439 0 -3.9975668041208129e-05 -0.0026935311468014992 0 -3.4447350618439322e-05 -0.0027096546994814794 0 -4.5658135701634902e-05 -0.002781613443856858 0 -1.0627550687833309e-05 -0.002773653247204794 0 -3.4447350618439322e-05 -0.0027096546994814794 0 -5.3838480441744611e-05 -0.0027735594948753439 0 -4.5658135701634902e-05 -0.002781613443856858 0 -5.3838480441744611e-05 -0.0027735594948753439 0 -5.6682944212438817e-05 -0.0028083406300282235 0 -5.7025903185375268e-05 -0.0027969420368180011 0 -5.6682944212438817e-05 -0.0028083406300282235 0 -5.0055626087282761e-05 -0.0028380858698025418 0 -4.0940821021167025e-05 -0.0028433077707255634 0 -5.6682944212438817e-05 -0.0028083406300282235 0 -5.0055626087282761e-05 -0.0028380858698025418 0 -5.1878954034215093e-05 -0.0027883731855924466 0 -5.3838480441744611e-05 -0.0027735594948753439 0 -5.6682944212438817e-05 -0.0028083406300282235 0 -5.1878954034215093e-05 -0.0027883731855924466 0 -5.1878954034215093e-05 -0.0027883731855924466 0 -3.9662062417792493e-05 -0.0027987593401808957 0 -4.3201852596132497e-05 -0.00285429104815947 0 -5.1878954034215093e-05 -0.0027883731855924466 0 -3.9975668041208129e-05 -0.0026935311468014992 0 -3.9662062417792493e-05 -0.0027987593401808957 0 -5.0055626087282761e-05 -0.0028380858698025418 0 -5.1878954034215093e-05 -0.0027883731855924466 0 -4.3201852596132497e-05 -0.00285429104815947 0 -5.3838480441744611e-05 -0.0027735594948753439 0 -5.1878954034215093e-05 -0.0027883731855924466 0 -3.9975668041208129e-05 -0.0026935311468014992 0 -3.9975668041208129e-05 -0.0026935311468014992 0 -2.737286619803423e-05 -0.0026443963063081965 0 -1.5474314083793314e-05 -0.0025239391015473844 0 -3.9975668041208129e-05 -0.0026935311468014992 0 -2.737286619803423e-05 -0.0026443963063081965 0 -3.9662062417792493e-05 -0.0027987593401808957 0 -2.737286619803423e-05 -0.0026443963063081965 0 -6.3909826182001425e-08 -0.0027407992105038022 0 -3.3842868886660671e-09 -0.002467147745343087 0 -2.737286619803423e-05 -0.0026443963063081965 0 -6.3909826182001425e-08 -0.0027407992105038022 0 -3.9662062417792493e-05 -0.0027987593401808957 0 -6.3909826182001425e-08 -0.0027407992105038022 0 -3.9662062417792493e-05 -0.0027987593401808957 0 -1.7062330731884252e-05 -0.0029428743630464582 0 -3.9662062417792493e-05 -0.0027987593401808957 0 -1.7062330731884252e-05 -0.0029428743630464582 0 -2.058912262207959e-05 -0.0029406640464056904 0 -6.3909826182001425e-08 -0.0027407992105038022 0 -1.7062330731884252e-05 -0.0029428743630464582 0 -4.5533013918500349e-08 -0.0030146480689168683 0 -1.7062330731884252e-05 -0.0029428743630464582 0 -4.5533013918500349e-08 -0.0030146480689168683 0 4.2197948565327412e-07 -0.003072483475782642 0 -1.7062330731884252e-05 -0.0029428743630464582 0 1.2242995242242411e-05 -0.0030341886074611618 0 -2.058912262207959e-05 -0.0029406640464056904 0 -1.7062330731884252e-05 -0.0029428743630464582 0 4.2197948565327412e-07 -0.003072483475782642 0 1.2242995242242411e-05 -0.0030341886074611618 0 1.2242995242242411e-05 -0.0030341886074611618 0 1.7841428243834534e-06 -0.002988288714604252 0 7.1153062438185293e-05 -0.0