<?xml version="1.0"?>
<VTKFile type="UnstructuredGrid" version="0.1" byte_order="LittleEndian">
<UnstructuredGrid>
<Piece NumberOfPoints="31898" NumberOfCells="11152">
<Points>
<DataArray type="Float64" NumberOfComponents="3" format="ascii">
-0.5 -0.5 0 -0.47620991077874902 -0.44978878706170539 0 -0.49999999999999473 -0.42132396840504388 0 -0.5 -0.5 0 -0.47160970827802529 -0.4793630013852106 0 -0.47620991077874902 -0.44978878706170539 0 -0.5 -0.5 0 -0.47160970827802529 -0.4793630013852106 0 -0.44860394795025399 -0.5 0 -0.47160970827802529 -0.4793630013852106 0 -0.44860394795025399 -0.5 0 -0.4490820238307246 -0.45820516232899983 0 -0.44860394795025399 -0.5 0 -0.4490820238307246 -0.45820516232899983 0 -0.42881687682924802 -0.47781464288736519 0 -0.4490820238307246 -0.45820516232899983 0 -0.45555437223955858 -0.42914059360647611 0 -0.4490820238307246 -0.45820516232899983 0 -0.45555437223955858 -0.42914059360647611 0 -0.43867285131603428 -0.4271457417558665 0 -0.4490820238307246 -0.45820516232899983 0 -0.43867285131603428 -0.4271457417558665 0 -0.4263356171060747 -0.44269880333887462 0 -0.47160970827802529 -0.4793630013852106 0 -0.4490820238307246 -0.45820516232899983 0 -0.47620991077874902 -0.44978878706170539 0 -0.4490820238307246 -0.45820516232899983 0 -0.47620991077874902 -0.44978878706170539 0 -0.45555437223955858 -0.42914059360647611 0 -0.47620991077874902 -0.44978878706170539 0 -0.48101336032419229 -0.41069999664450008 0 -0.45555437223955858 -0.42914059360647611 0 -0.47620991077874902 -0.44978878706170539 0 -0.49999999999999473 -0.42132396840504388 0 -0.48101336032419229 -0.41069999664450008 0 -0.49999999999999473 -0.42132396840504388 0 -0.48101336032419229 -0.41069999664450008 0 -0.5 -0.393886241813306 0 -0.49999999999999473 -0.42132396840504388 0 -0.48101336032419229 -0.41069999664450008 0 -0.5 -0.393886241813306 0 -0.47854472220918332 -0.38978458738689759 0 -0.48422759779560409 -0.37130120630367158 0 -0.5 -0.393886241813306 0 -0.5 -0.36644851522156802 0 -0.48422759779560409 -0.37130120630367158 0 -0.48101336032419229 -0.41069999664450008 0 -0.5 -0.393886241813306 0 -0.47854472220918332 -0.38978458738689759 0 -0.48101336032419229 -0.41069999664450008 0 -0.47854472220918332 -0.38978458738689759 0 -0.46202672064839212 -0.40007602488395211 0 -0.48101336032419229 -0.41069999664450008 0 -0.46202672064839212 -0.40007602488395211 0 -0.47854472220918332 -0.38978458738689759 0 -0.46725442735267431 -0.37660061361585562 0 -0.46202672064839212 -0.40007602488395211 0 -0.47854472220918332 -0.38978458738689759 0 -0.46725442735267431 -0.37660061361585562 0 -0.48422759779560409 -0.37130120630367158 0 -0.46725442735267431 -0.37660061361585562 0 -0.46202672064839212 -0.40007602488395211 0 -0.46725442735267431 -0.37660061361585562 0 -0.45645674801697989 -0.38644133236760531 0 -0.46202672064839212 -0.40007602488395211 0 -0.46725442735267431 -0.37660061361585562 0 -0.45645674801697989 -0.38644133236760531 0 -0.4540003998136638 -0.37455519391687309 0 -0.45645674801697989 -0.38644133236760531 0 -0.46202672064839212 -0.40007602488395211 0 -0.44257020456291563 -0.38918913383950271 0 -0.46202672064839212 -0.40007602488395211 0 -0.44257020456291563 -0.38918913383950271 0 -0.44727608925983742 -0.41095911152778891 0 -0.46202672064839212 -0.40007602488395211 0 -0.44257020456291563 -0.38918913383950271 0 -0.44257020456291563 -0.38918913383950271 0 -0.44727608925983742 -0.41095911152778891 0 -0.43479358559901082 -0.4041454901736512 0 -0.44257020456291563 -0.38918913383950271 0 -0.4540003998136638 -0.37455519391687309 0 -0.44172858264042247 -0.37082207246888088 0 -0.45645674801697989 -0.38644133236760531 0 -0.44257020456291563 -0.38918913383950271 0 -0.4540003998136638 -0.37455519391687309 0 -0.46202672064839212 -0.40007602488395211 0 -0.45555437223955858 -0.42914059360647611 0 -0.44727608925983742 -0.41095911152778891 0 -0.46202672064839212 -0.40007602488395211 0 -0.45555437223955858 -0.42914059360647611 0 -0.48101336032419229 -0.41069999664450008 0 -0.46202672064839212 -0.40007602488395211 0 -0.45555437223955858 -0.42914059360647611 0 -0.44727608925983742 -0.41095911152778891 0 -0.43867285131603428 -0.4271457417558665 0 -0.43676601469929588 -0.41441201227470881 0 -0.44727608925983742 -0.41095911152778891 0 -0.43676601469929588 -0.41441201227470881 0 -0.43479358559901082 -0.4041454901736512 0 -0.45555437223955858 -0.42914059360647611 0 -0.44727608925983742 -0.41095911152778891 0 -0.43867285131603428 -0.4271457417558665 0 -0.43867285131603428 -0.4271457417558665 0 -0.42681803064840879 -0.42717069814352421 0 -0.4263356171060747 -0.44269880333887462 0 -0.42681803064840879 -0.42717069814352421 0 -0.41531815884496182 -0.42985383783075998 0 -0.4263356171060747 -0.44269880333887462 0 -0.42681803064840879 -0.42717069814352421 0 -0.42624289495594048 -0.42089725947505818 0 -0.42083332353326591 -0.42146747131641099 0 -0.42681803064840879 -0.42717069814352421 0 -0.43096994786351572 -0.41951492446283251 0 -0.42624289495594048 -0.42089725947505818 0 -0.43867285131603428 -0.4271457417558665 0 -0.42681803064840879 -0.42717069814352421 0 -0.43096994786351572 -0.41951492446283251 0 -0.43867285131603428 -0.4271457417558665 0 -0.43676601469929588 -0.41441201227470881 0 -0.43096994786351572 -0.41951492446283251 0 -0.43676601469929588 -0.41441201227470881 0 -0.43096994786351572 -0.41951492446283251 0 -0.42907264086257813 -0.41311715872526122 0 -0.43676601469929588 -0.41441201227470881 0 -0.42907264086257813 -0.41311715872526122 0 -0.43479358559901082 -0.4041454901736512 0 -0.42907264086257813 -0.41311715872526122 0 -0.43479358559901082 -0.4041454901736512 0 -0.42460885511582858 -0.40417321677700252 0 -0.42907264086257813 -0.41311715872526122 0 -0.41997834854398469 -0.41180534796019508 0 -0.42907264086257813 -0.41311715872526122 0 -0.42635027777857132 -0.41543594397746519 0 -0.41997834854398469 -0.41180534796019508 0 -0.42907264086257813 -0.41311715872526122 0 -0.41997834854398469 -0.41180534796019508 0 -0.42460885511582858 -0.40417321677700252 0 -0.42635027777857132 -0.41543594397746519 0 -0.41997834854398469 -0.41180534796019508 0 -0.42635027777857132 -0.41543594397746519 0 -0.42083332353326591 -0.42146747131641099 0 -0.41997834854398469 -0.41180534796019508 0 -0.43096994786351572 -0.41951492446283251 0 -0.42624289495594048 -0.42089725947505818 0 -0.42635027777857132 -0.41543594397746519 0 -0.43096994786351572 -0.41951492446283251 0 -0.42907264086257813 -0.41311715872526122 0 -0.42635027777857132 -0.41543594397746519 0 -0.42624289495594048 -0.42089725947505818 0 -0.42635027777857132 -0.41543594397746519 0 -0.42083332353326591 -0.42146747131641099 0 -0.42083332353326591 -0.42146747131641099 0 -0.41997834854398469 -0.41180534796019508 0 -0.40992282953163789 -0.42011435591993562 0 -0.41997834854398469 -0.41180534796019508 0 -0.39756877647335259 -0.40857286797681719 0 -0.41997834854398469 -0.41180534796019508 0 -0.40992282953163789 -0.42011435591993562 0 -0.39756877647335259 -0.40857286797681719 0 -0.40992282953163789 -0.42011435591993562 0 -0.41531815884496182 -0.42985383783075998 0 -0.39591554026262499 -0.42887225451549271 0 -0.41531815884496182 -0.42985383783075998 0 -0.39591554026262499 -0.42887225451549271 0 -0.41160927495564159 -0.44339431233754628 0 -0.42083332353326591 -0.42146747131641099 0 -0.40992282953163789 -0.42011435591993562 0 -0.41531815884496182 -0.42985383783075998 0 -0.42681803064840879 -0.42717069814352421 0 -0.42083332353326591 -0.42146747131641099 0 -0.41531815884496182 -0.42985383783075998 0 -0.44257020456291563 -0.38918913383950271 0 -0.42311368847744002 -0.37830224279505142 0 -0.42594061475171041 -0.39368797999533162 0 -0.44257020456291563 -0.38918913383950271 0 -0.42311368847744002 -0.37830224279505142 0 -0.44172858264042247 -0.37082207246888088 0 -0.44257020456291563 -0.38918913383950271 0 -0.42311368847744002 -0.37830224279505142 0 -0.42311368847744002 -0.37830224279505142 0 -0.42594061475171041 -0.39368797999533162 0 -0.416587075656149 -0.38785930376960043 0 -0.44257020456291563 -0.38918913383950271 0 -0.42594061475171041 -0.39368797999533162 0 -0.43479358559901082 -0.4041454901736512 0 -0.42594061475171041 -0.39368797999533162 0 -0.43479358559901082 -0.4041454901736512 0 -0.42460885511582858 -0.40417321677700252 0 -0.41997834854398469 -0.41180534796019508 0 -0.41325908582185972 -0.39811010703057192 0 -0.39770572831670092 -0.39911486077581648 0 -0.41997834854398469 -0.41180534796019508 0 -0.39770572831670092 -0.39911486077581648 0 -0.42594061475171041 -0.39368797999533162 0 -0.42460885511582858 -0.40417321677700252 0 -0.41325908582185972 -0.39811010703057192 0 -0.41997834854398469 -0.41180534796019508 0 -0.42460885511582858 -0.40417321677700252 0 -0.41325908582185972 -0.39811010703057192 0 -0.42594061475171041 -0.39368797999533162 0 -0.41325908582185972 -0.39811010703057192 0 -0.416587075656149 -0.38785930376960043 0 -0.41325908582185972 -0.39811010703057192 0 -0.416587075656149 -0.38785930376960043 0 -0.40403491357358612 -0.38133688525744702 0 -0.42311368847744002 -0.37830224279505142 0 -0.40403491357358612 -0.38133688525744702 0 -0.40365717239196519 -0.36741535175059892 0 -0.42311368847744002 -0.37830224279505142 0 -0.416587075656149 -0.38785930376960043 0 -0.40403491357358612 -0.38133688525744702 0 -0.40403491357358612 -0.38133688525744702 0 -0.39190790742475001 -0.38540387676521748 0 -0.39770572831670092 -0.39911486077581648 0 -0.40403491357358612 -0.38133688525744702 0 -0.39190790742475001 -0.38540387676521748 0 -0.3904578797192948 -0.37473938743617019 0 -0.41325908582185972 -0.39811010703057192 0 -0.40403491357358612 -0.38133688525744702 0 -0.39770572831670092 -0.39911486077581648 0 -0.39770572831670092 -0.39911486077581648 0 -0.37543310808941849 -0.38642437359143528 0 -0.39770572831670092 -0.39911486077581648 0 -0.37515920440272033 -0.40534038799344108 0 -0.37543310808941849 -0.38642437359143528 0 -0.39770572831670092 -0.39911486077581648 0 -0.37515920440272033 -0.40534038799344108 0 -0.39756877647335259 -0.40857286797681719
[...]
<PointData Scalars="" Vectors="displacement," Tensors="">
<DataArray type="Float64" Name="displacement" NumberOfComponents="3" format="ascii">
-0.064995310614195542 -0.064996339824154578 0 -0.060598122818945901 -0.063841102617883241 0 -0.054791796825275019 -0.064991338799985587 0 -0.064995310614195542 -0.064996339824154578 0 -0.063963112357156973 -0.062629716853199568 0 -0.060598122818945901 -0.063841102617883241 0 -0.064995310614195542 -0.064996339824154578 0 -0.063963112357156973 -0.062629716853199568 0 -0.064996358486091838 -0.058324126889997038 0 -0.063963112357156973 -0.062629716853199568 0 -0.064996358486091838 -0.058324126889997038 0 -0.064357088545798857 -0.061724887141096564 0 -0.064996358486091838 -0.058324126889997038 0 -0.064357088545798857 -0.061724887141096564 0 -0.065206816392604561 -0.057125633909370192 0 -0.063054659720919656 -0.063464272788739368 0 -0.062806056495586696 -0.06397561774547704 0 -0.064357088545798857 -0.061724887141096564 0 -0.069927799516696823 -0.062289564399750565 0 -0.070363311215480367 -0.059512149589811852 0 -0.064357088545798857 -0.061724887141096564 0 -0.070363311215480367 -0.059512149589811852 0 -0.068028188072546097 -0.057375131550768274 0 -0.063963112357156973 -0.062629716853199568 0 -0.064357088545798857 -0.061724887141096564 0 -0.060598122818945901 -0.063841102617883241 0 -0.064357088545798857 -0.061724887141096564 0 -0.060598122818945901 -0.063841102617883241 0 -0.059140131284559798 -0.064961513063952925 0 -0.060598122818945901 -0.063841102617883241 0 -0.056396126231005025 -0.064305594856355092 0 -0.059140131284559798 -0.064961513063952925 0 -0.060598122818945901 -0.063841102617883241 0 -0.054791796825275019 -0.064991338799985587 0 -0.056396126231005025 -0.064305594856355092 0 -0.054772098579015521 -0.064999992363686851 0 -0.053389267604328619 -0.06745177633416978 0 -0.051205220432182737 -0.064999989517415813 0 -0.054774023259603941 -0.065000830232490509 0 -0.055656363015633939 -0.065318119084345511 0 -0.051205220432182737 -0.064999989517415813 0 -0.05067699231748829 -0.067770019300369869 0 -0.048273355009144758 -0.067036969805837843 0 -0.051205220432182737 -0.064999989517415813 0 -0.047638312138042746 -0.064999987677033966 0 -0.048273355009144758 -0.067036969805837843 0 -0.053389267604328619 -0.06745177633416978 0 -0.051205220432182737 -0.064999989517415813 0 -0.05067699231748829 -0.067770019300369869 0 -0.053389267604328619 -0.06745177633416978 0 -0.05067699231748829 -0.067770019300369869 0 -0.052017347720382127 -0.069897233017200147 0 -0.055656363015633939 -0.065318119084345511 0 -0.057563505700953775 -0.064186339947985158 0 -0.05067699231748829 -0.067770019300369869 0 -0.048966346592130866 -0.069229847997047469 0 -0.052017347720382127 -0.069897233017200147 0 -0.05067699231748829 -0.067770019300369869 0 -0.048966346592130866 -0.069229847997047469 0 -0.048273355009144758 -0.067036969805837843 0 -0.04934875371801456 -0.065832753025863056 0 -0.057563505700953775 -0.064186339947985158 0 -0.045244995188454783 -0.068693733784428043 0 -0.045116234178179705 -0.068648224747338199 0 -0.045024457575961546 -0.068691453340875008 0 -0.045244995188454783 -0.068693733784428043 0 -0.045116234178179705 -0.068648224747338199 0 -0.04514128724768169 -0.068670660837679601 0 -0.045116234178179705 -0.068648224747338199 0 -0.045024457575961546 -0.068691453340875008 0 -0.045050841923163096 -0.068536053683079287 0 -0.073833004023622736 -0.062604976112540719 0 -0.074942776659247229 -0.060004706366767767 0 -0.072474951170896668 -0.06074816042571185 0 -0.057563505700953775 -0.064186339947985158 0 -0.058103278329801902 -0.063092076076244633 0 -0.074942776659247229 -0.060004706366767767 0 -0.072474951170896668 -0.06074816042571185 0 -0.0732700733763091 -0.059081794537523769 0 -0.045050841923163096 -0.068536053683079287 0 -0.04514128724768169 -0.068670660837679601 0 -0.045146461759192548 -0.068530383161384253 0 -0.045116234178179705 -0.068648224747338199 0 -0.045050841923163096 -0.068536053683079287 0 -0.04514128724768169 -0.068670660837679601 0 -0.073833004023622736 -0.062604976112540719 0 -0.069927799516696823 -0.062289564399750565 0 -0.072474951170896668 -0.06074816042571185 0 -0.057563505700953775 -0.064186339947985158 0 -0.062806056495586696 -0.06397561774547704 0 -0.056396126231005025 -0.064305594856355092 0 -0.056113124881245577 -0.065277189086285131 0 -0.059140131284559798 -0.064961513063952925 0 -0.072474951170896668 -0.06074816042571185 0 -0.070363311215480367 -0.059512149589811852 0 -0.072067900157663067 -0.05929471862361161 0 -0.072474951170896668 -0.06074816042571185 0 -0.072067900157663067 -0.05929471862361161 0 -0.0732700733763091 -0.059081794537523769 0 -0.069927799516696823 -0.062289564399750565 0 -0.072474951170896668 -0.06074816042571185 0 -0.070363311215480367 -0.059512149589811852 0 -0.070363311215480367 -0.059512149589811852 0 -0.070302716123595024 -0.057686437283123421 0 -0.068028188072546097 -0.057375131550768274 0 -0.070302716123595024 -0.057686437283123421 0 -0.069904470033441329 -0.055973836347013403 0 -0.068028188072546097 -0.057375131550768274 0 -0.070302716123595024 -0.057686437283123421 0 -0.071193723265502162 -0.057680615675701152 0 -0.071102645230847958 -0.056840066651351315 0 -0.070302716123595024 -0.057686437283123421 0 -0.071398861438982636 -0.058433136350346408 0 -0.071193723265502162 -0.057680615675701152 0 -0.070363311215480367 -0.059512149589811852 0 -0.070302716123595024 -0.057686437283123421 0 -0.071398861438982636 -0.058433136350346408 0 -0.070363311215480367 -0.059512149589811852 0 -0.072067900157663067 -0.05929471862361161 0 -0.071398861438982636 -0.058433136350346408 0 -0.072067900157663067 -0.05929471862361161 0 -0.071398861438982636 -0.058433136350346408 0 -0.072321157153609858 -0.058285567536693797 0 -0.072067900157663067 -0.05929471862361161 0 -0.072321157153609858 -0.058285567536693797 0 -0.0732700733763091 -0.059081794537523769 0 -0.072321157153609858 -0.058285567536693797 0 -0.0732700733763091 -0.059081794537523769 0 -0.073251911553400217 -0.057968441795042791 0 -0.069937165524119091 -0.054453273342897061 0 -0.069899608663864937 -0.054010855292657547 0 -0.072321157153609858 -0.058285567536693797 0 -0.071972352121423389 -0.057765047656405208 0 -0.072640520241762888 -0.056616114932301814 0 -0.072321157153609858 -0.058285567536693797 0 -0.072541224541549071 -0.057514816623385971 0 -0.073251911553400217 -0.057968441795042791 0 -0.069892097332444031 -0.054180631720839527 0 -0.069899608663864937 -0.054010855292657547 0 -0.071972352121423389 -0.057765047656405208 0 -0.071102645230847958 -0.056840066651351315 0 -0.072527469476016848 -0.056715418611929275 0 -0.071398861438982636 -0.058433136350346408 0 -0.071193723265502162 -0.057680615675701152 0 -0.071972352121423389 -0.057765047656405208 0 -0.071398861438982636 -0.058433136350346408 0 -0.072321157153609858 -0.058285567536693797 0 -0.071972352121423389 -0.057765047656405208 0 -0.071193723265502162 -0.057680615675701152 0 -0.071972352121423389 -0.057765047656405208 0 -0.071102645230847958 -0.056840066651351315 0 -0.071102645230847958 -0.056840066651351315 0 -0.072527469476016848 -0.056715418611929275 0 -0.071300362377599527 -0.055231761388755803 0 -0.069899608663864937 -0.054010855292657547 0 -0.070338553141294266 -0.051677417884517796 0 -0.072527469476016848 -0.056715418611929275 0 -0.071300362377599527 -0.055231761388755803 0 -0.072931118757685445 -0.053467156740163155 0 -0.071300362377599527 -0.055231761388755803 0 -0.069904470033441329 -0.055973836347013403 0 -0.070070498561232611 -0.053242240734018211 0 -0.069904470033441329 -0.055973836347013403 0 -0.070070498561232611 -0.053242240734018211 0 -0.068058390549953052 -0.055418937046455875 0 -0.071102645230847958 -0.056840066651351315 0 -0.071300362377599527 -0.055231761388755803 0 -0.069904470033441329 -0.055973836347013403 0 -0.070302716123595024 -0.057686437283123421 0 -0.071102645230847958 -0.056840066651351315 0 -0.069904470033441329 -0.055973836347013403 0 -0.074942776659247229 -0.060004706366767767 0 -0.075678029112512479 -0.057863509646565323 0 -0.074298221976092649 -0.058148402816603689 0 -0.045050841923163096 -0.068536053683079287 0 -0.04507289733071098 -0.068281899426321221 0 -0.045146461759192548 -0.068530383161384253 0 -0.058103278329801902 -0.063092076076244633 0 -0.058054493242794464 -0.06111783872967514 0 -0.075678029112512479 -0.057863509646565323 0 -0.074298221976092649 -0.058148402816603689 0 -0.074767843806712392 -0.057255964003878862 0 -0.074942776659247229 -0.060004706366767767 0 -0.074298221976092649 -0.058148402816603689 0 -0.0732700733763091 -0.059081794537523769 0 -0.074298221976092649 -0.058148402816603689 0 -0.0732700733763091 -0.059081794537523769 0 -0.073251911553400217 -0.057968441795042791 0 -0.072541224541549071 -0.057514816623385971 0 -0.073840802624064741 -0.056935875734319505 0 -0.073794429509010051 -0.055601207089874746 0 -0.069899608663864937 -0.054010855292657547 0 -0.069479072355067492 -0.051765910631633542 0 -0.074298221976092649 -0.058148402816603689 0 -0.073251911553400217 -0.057968441795042791 0 -0.073840802624064741 -0.056935875734319505 0 -0.072541224541549071 -0.057514816623385971 0 -0.073251911553400217 -0.057968441795042791 0 -0.073840802624064741 -0.056935875734319505 0 -0.074298221976092649 -0.058148402816603689 0 -0.073840802624064741 -0.056935875734319505 0 -0.074767843806712392 -0.057255964003878862 0 -0.073840802624064741 -0.056935875734319505 0 -0.074767843806712392 -0.057255964003878862 0 -0.07524526897166732 -0.056105020982865191 0 -0.075678029112512479 -0.057863509646565323 0 -0.07524526897166732 -0.056105020982865191 0 -0.076498674000010189 -0.056075758478416143 0 -0.075678029112512479 -0.057863509646565323 0 -0.074767843806712392 -0.057255964003878862 0 -0.07524526897166732 -0.056105020982865191 0 -0.07524526897166732 -0.056105020982865191 0 -0.074866792386843767 -0.05519944546844717 0 -0.073794429509010051 -0.055601207089874746 0 -0.07524526897166732 -0.056105020982865191 0 -0.074866792386843767 -0.05519944546844717 0 -0.075613307941190352 -0.055107800290835687 0 -0.073840802624064741 -0.056935875734319505 0 -0.07524526897166732 -0.056105020982865191 0 -0.073794429509010051 -0.055601207089874746 0 -0.069479072355067492 -0.051765910631633542 0 -0.067901591326479355 -0.048260149041133918 0 -0.069991373788108033 -0.050900709968243633 0 -0.069450922759436387 -0.048943395312477211 0 -0.071082662697858026 -0.048965637572665706 0 -0.069991373788108033 -0.050900709968243633 0 -0.069450922759436387 -0.048943395312477211 0 -0.069172314604191085 -0.050890027144898278 0 -0.070569922661499015 -0.048371958084027271 0 -0.067901591326479355 -0.048260149041133918 0 -0.074790986445063157 -0.054025756272875633 0 -0.075613307941190352 -0.055107800290835687 0 -0.075961323917277987 -0.054092723147990601 0 -0.074866792386843767 -0.05519944546844717 0 -0.074790986445063157 -0.054025756272875633 0 -0.075613307941190352 -0.055107800290835687 0 -0.067901591326479355 -0.048260149041133918 0 -0.064268774785801147 -0.049460210969742867 0 -0.074866792386843767 -0.05519944546844717 0 -0.073794429509010051 -0.055601207089874746 0 -0.074790986445063157 -0.054025756272875633 0 -0.068896661488097144 -0.052844727225595398 0 -0.069991373788108033 -0.050900709968243633 0 -0.069172314604191085 -0.050890027144898278 0 -0.071300362377599527 -0.055231761388755803 0 -0.070070498561232611 -0.053242240734018211 0 -0.072931118757685445 -0.053467156740163155 0 -0.07337022948275855 -0.050327827211025848 0 -0.070070498561232611 -0.053242240734018211 0 -0.072931118757685445 -0.053467156740163155 0 -0.070569922661499015 -0.048371958084027271 0 -0.070338553141294266 -0.051677417884517796 0 -0.07337022948275855 -0.050327827211025848 0 -0.070070498561232611 -0.053242240734018211 0 -0.069158313228854504 -0.05028641902065651 0 -0.070070498561232611 -0.053242240734018211 0 -0.06762134141305344 -0.052832594039557722 0 -0.069158313228854504 -0.05028641902065651 0 -0.06762134141305344 -0.052832594039557722 0 -0.06499206920552017 -0.05023304916432688 0 -0.069158313228854504 -0.05028641902065651 0 -0.070070498561232611 -0.053242240734018211 0 -0.06762134141305344 -0.052832594039557722 0 -0.068058390549953052 -0.055418937046455875 0 -0.06762134141305344 -0.052832594039557722 0 -0.066102137928425994 -0.054349244912330168 0 -0.068058390549953052 -0.055418937046455875 0 -0.066922568646139532 -0.054467398645774885 0 -0.066112395736824051 -0.052323671353720687 0 -0.06607241876548485 -0.05502527814359931 0 -0.070389156388283622 -0.052393427911476519 0 -0.069887584262805211 -0.050534047669936202 0 -0.06772333277523461 -0.05096074520693164 0 -0.068126208265132965 -0.051700928698135973 0 -0.066647922159944181 -0.050819820452980911 0 -0.068126208265132965 -0.051700928698135973 0 -0.068127778326744284 -0.051727287071657399 0 -0.068126208265132965 -0.051700928698135973 0 -0.068133930118439726 -0.050641717379547785 0 -0.06762134141305344 -0.052832594039557722 0 -0.066102137928425994 -0.054349244912330168 0 -0.065547613251718054 -0.052290345592248065 0 -0.06762134141305344 -0.052832594039557722 0 -0.065547613251718054 -0.052290345592248065 0 -0.06499206920552017 -0.05023304916432688 0 -0.068133930118439726 -0.050641717379547785 0 -0.068111829301308588 -0.049022951017401617 0 -0.069887584262805211 -0.050534047669936202 0 -0.068627311561119161 -0.049860104022370309 0 -0.069385492725441075 -0.048660739318457456 0 -0.068627311561119161 -0.049860104022370309 0 -0.06772333277523461 -0.05096074520693164 0 -0.067906733854700474 -0.048630956264961764 0 -0.06772333277523461 -0.05096074520693164 0 -0.066318099100424896 -0.048410632626146706 0 -0.067906733854700474 -0.048630956264961764 0 -0.068627311561119161 -0.049860104022370309 0 -0.067906733854700474 -0.048630956264961764 0 -0.069385492725441075 -0.048660739318457456 0 -0.069887584262805211 -0.050534047669936202 0 -0.068627311561119161 -0.049860104022370309 0 -0.06772333277523461 -0.05096074520693164 0 -0.065001228483848539 -0.049524732695317014 0 -0.066647922159944181 -0.050819820452980911 0 -0.065000006074112701 -0.04952305217207148 0 -0.06772333277523461 -0.05096074520693164 0 -0.066318099100424896 -0.048410632626146706 0 -0.064999783927930099 -0.049525351399829401 0 -0.066112395736824051 -0.052323671353720687 0 -0.064998387659391782 -0.05329829646862539 0 -0.066112395736824051 -0.052323671353720687 0 -0.06607241876548485 -0.05502527814359931 0 -0.064998387659391782 -0.05329829646862539 0 -0.06607241876548485 -0.05502527814359931 0 -0.064998387659391782 -0.05329829646862539 0 -0.065206816392604561 -0.057125633909370192 0 -0.064996358486091838 -0.058324126889997038 0 -0.064998387659391782 -0.05329829646862539 0 -0.065206816392604561 -0.057125633909370192 0 -0.06607241876548485 -0.05502527814359931 0 -0.065206816392604561 -0.057125633909370192 0 -0.065951297083603561 -0.057276228916470419 0 -0.064357088545798857 -0.061724887141096564 0 -0.065206816392604561 -0.057125633909370192 0 -0.065951297083603561 -0.057276228916470419 0 -0.064357088545798857 -0.061724887141096564 0 -0.065951297083603561 -0.057276228916470419 0 -0.068028188072546097 -0.057375131550768274 0 -0.065951297083603561 -0.057276228916470419 0 -0.068028188072546097 -0.057375131550768274 0 -0.066931753341944109 -0.055917334763512794 0 -0.068028188072546097 -0.057375131550768274 0 -0.068058390549953052 -0.055418937046455875 0 -0.066931753341944109 -0.055917334763512794 0 -0.069904470033441329 -0.055973836347013403 0 -0.068028188072546097 -0.057375131550768274 0 -0.068058390549953052 -0.055418937046455875 0 -0.066853048300682033 -0.054480337529512077 0 -0.068058390549953052 -0.055418937046455875 0 -0.066907339113410624 -0.054736611326404803 0 -0.068058390549953052 -0.055418937046455875 0 -0.066907339113410624 -0.054736611326404803 0 -0.066931753341944109 -0.055917334763512794 0 -0.068126208265132965 -0.051700928698135973 0 -0.068259303123485479 -0.052130664717379177 0 -0.06607241876548485 -0.05502527814359931 0 -0.066907339113410624 -0.054736611326404803 0 -0.066931753341944109 -0.055917334763512794 0 -0.066922568646139532 -0.054467398645774885 0 -0.06607241876548485 -0.05502527814359931 0 -0.066907339113410624 -0.054736611326404803 0 -0.06607241876548485 -0.05502527814359931 0 -0.065951297083603561 -0.057276228916470419 0 -0.066931753341944109 -0.055917334763512794 0 -0.027748963000454898 -0.068152915669466796 0 -0.024783245344528856 -0.064542032675490607 0 -0.032703443512696523 -0.070172034560737589 0 -0.032526351237436933 -0.074122031357777257 0 -0.030430455640662858 -0.071105287745081291 0 -0.035717568219606734 -0.071090362286195405 0 -0.033260453949192033 -0.070276004517129981 0 -0.033050459255966107 -0.073045862653545832 0 -0.035717568219606734 -0.071090362286195405 0 -0.035583039069746823 -0.07349945003625627 0 -0.033050459255966107 -0.073045862653545832 0 -0.035717568219606734 -0.071090362286195405 0 -0.037956035223970452 -0.072131560820774057 0 -0.035583039069746823 -0.07349945003625627 0 -0.035717568219606734 -0.071090362286195405 0 -0.034783512392177307 -0.06895474121882747 0 -0.036729196359703835 -0.068712676348536991 0 -0.035717568219606734 -0.071090362286195405 0 -0.034783512392177307 -0.06895474121882747 0 -0.033260453949192033 -0.070276004517129981 0 -0.027748963000454898 -0.068152915669466796 0 -0.028716788501957025 -0.068010108346510362 0 -0.034783512392177307 -0.06895474121882747 0 -0.033260453949192033 -0.070276004517129981 0 -0.033321288067569267 -0.067375233600627735 0 -0.032703443512696523 -0.070172034560737589 0 -0.033321288067569267 -0.067375233600627735 0 -0.029993039495824589 -0.068059926524678419 0 -0.033321288067569267 -0.067375233600627735 0 -0.033370378353661731 -0.064999418393467859 0 -0.035563555796027997 -0.066896438134911751 0 -0.033321288067569267 -0.067375233600627735 0 -0.033370378353661731 -0.064999418393467859 0 -0.031187593475553877 -0.066254511936476176 0 -0.033370378353661731 -0.064999418393467859 0 -0.035563555796027997 -0.066896438134911751 0 -0.036937495802168527 -0.064999918971039572 0 -0.034783512392177307 -0.06895474121882747 0 -0.033321288067569267 -0.067375233600627735 0 -0.035563555796027997 -0.066896438134911751 0 -0.034783512392177307 -0.06895474121882747 0 -0.035563555796027997 -0.066896438134911751 0 -0.036729196359703835 -0.068712676348536991 0 -0.036729196359703835 -0.068712676348536991 0 -0.037898484577201831 -0.066700513057905461 0 -0.038724107636591398 -0.068408855519219186 0 -0.035563555796027997 -0.066896438134911751 0 -0.036729196359703835 -0.068712676348536991 0 -0.037898484577201831 -0.066700513057905461 0 -0.036937495802168527 -0.064999918971039572 0 -0.037898484577201831 -0.066700513057905461 0 -0.040504355536677514 -0.064999891675261739 0 -0.035563555796027997 -0.066896438134911751 0 -0.036937495802168527 -0.064999918971039572 0 -0.037898484577201831 -0.066700513057905461 0 -0.037898484577201831 -0.066700513057905461 0 -0.040504355536677514 -0.064999891675261739 0 -0.039728280584587584 -0.067086230510259456 0 -0.039728280584587584 -0.067086230510259456 0 -0.038724107636591398 -0.068408855519219186 0 -0.040784088431024379 -0.068329638553271385 0 -0.037898484577201831 -0.066700513057905461 0 -0.039728280584587584 -0.067086230510259456 0 -0.038724107636591398 -0.068408855519219186 0 -0.038724107636591398 -0.068408855519219186 0 -0.039737703338777276 -0.069669814165621569 0 -0.040784088431024379 -0.068329638553271385 0 -0.039737703338777276 -0.069669814165621569 0 -0.039332594524600112 -0.071352346510395862 0 -0.04064599902129213 -0.07070243728920042 0 -0.039737703338777276 -0.069669814165621569 0 -0.037993312241283793 -0.070215477310818827 0 -0.039332594524600112 -0.071352346510395862 0 -0.038724107636591398 -0.068408855519219186 0 -0.039737703338777276 -0.069669814165621569 0 -0.037993312241283793 -0.070215477310818827 0 -0.035717568219606734 -0.071090362286195405 0 -0.036729196359703835 -0.068712676348536991 0 -0.037993312241283793 -0.070215477310818827 0 -0.036729196359703835 -0.0687126763485369