<?xml version="1.0"?>
<VTKFile type="UnstructuredGrid" version="0.1" byte_order="LittleEndian">
<UnstructuredGrid>
<Piece NumberOfPoints="31898" NumberOfCells="11152">
<Points>
<DataArray type="Float64" NumberOfComponents="3" format="ascii">
-0.5 -0.5 0 -0.47620991077874902 -0.44978878706170539 0 -0.49999999999999473 -0.42132396840504388 0 -0.5 -0.5 0 -0.47160970827802529 -0.4793630013852106 0 -0.47620991077874902 -0.44978878706170539 0 -0.5 -0.5 0 -0.47160970827802529 -0.4793630013852106 0 -0.44860394795025399 -0.5 0 -0.47160970827802529 -0.4793630013852106 0 -0.44860394795025399 -0.5 0 -0.4490820238307246 -0.45820516232899983 0 -0.44860394795025399 -0.5 0 -0.4490820238307246 -0.45820516232899983 0 -0.42881687682924802 -0.47781464288736519 0 -0.4490820238307246 -0.45820516232899983 0 -0.45555437223955858 -0.42914059360647611 0 -0.4490820238307246 -0.45820516232899983 0 -0.45555437223955858 -0.42914059360647611 0 -0.43867285131603428 -0.4271457417558665 0 -0.4490820238307246 -0.45820516232899983 0 -0.43867285131603428 -0.4271457417558665 0 -0.4263356171060747 -0.44269880333887462 0 -0.47160970827802529 -0.4793630013852106 0 -0.4490820238307246 -0.45820516232899983 0 -0.47620991077874902 -0.44978878706170539 0 -0.4490820238307246 -0.45820516232899983 0 -0.47620991077874902 -0.44978878706170539 0 -0.45555437223955858 -0.42914059360647611 0 -0.47620991077874902 -0.44978878706170539 0 -0.48101336032419229 -0.41069999664450008 0 -0.45555437223955858 -0.42914059360647611 0 -0.47620991077874902 -0.44978878706170539 0 -0.49999999999999473 -0.42132396840504388 0 -0.48101336032419229 -0.41069999664450008 0 -0.49999999999999473 -0.42132396840504388 0 -0.48101336032419229 -0.41069999664450008 0 -0.5 -0.393886241813306 0 -0.49999999999999473 -0.42132396840504388 0 -0.48101336032419229 -0.41069999664450008 0 -0.5 -0.393886241813306 0 -0.47854472220918332 -0.38978458738689759 0 -0.48422759779560409 -0.37130120630367158 0 -0.5 -0.393886241813306 0 -0.5 -0.36644851522156802 0 -0.48422759779560409 -0.37130120630367158 0 -0.48101336032419229 -0.41069999664450008 0 -0.5 -0.393886241813306 0 -0.47854472220918332 -0.38978458738689759 0 -0.48101336032419229 -0.41069999664450008 0 -0.47854472220918332 -0.38978458738689759 0 -0.46202672064839212 -0.40007602488395211 0 -0.48101336032419229 -0.41069999664450008 0 -0.46202672064839212 -0.40007602488395211 0 -0.47854472220918332 -0.38978458738689759 0 -0.46725442735267431 -0.37660061361585562 0 -0.46202672064839212 -0.40007602488395211 0 -0.47854472220918332 -0.38978458738689759 0 -0.46725442735267431 -0.37660061361585562 0 -0.48422759779560409 -0.37130120630367158 0 -0.46725442735267431 -0.37660061361585562 0 -0.46202672064839212 -0.40007602488395211 0 -0.46725442735267431 -0.37660061361585562 0 -0.45645674801697989 -0.38644133236760531 0 -0.46202672064839212 -0.40007602488395211 0 -0.46725442735267431 -0.37660061361585562 0 -0.45645674801697989 -0.38644133236760531 0 -0.4540003998136638 -0.37455519391687309 0 -0.45645674801697989 -0.38644133236760531 0 -0.46202672064839212 -0.40007602488395211 0 -0.44257020456291563 -0.38918913383950271 0 -0.46202672064839212 -0.40007602488395211 0 -0.44257020456291563 -0.38918913383950271 0 -0.44727608925983742 -0.41095911152778891 0 -0.46202672064839212 -0.40007602488395211 0 -0.44257020456291563 -0.38918913383950271 0 -0.44257020456291563 -0.38918913383950271 0 -0.44727608925983742 -0.41095911152778891 0 -0.43479358559901082 -0.4041454901736512 0 -0.44257020456291563 -0.38918913383950271 0 -0.4540003998136638 -0.37455519391687309 0 -0.44172858264042247 -0.37082207246888088 0 -0.45645674801697989 -0.38644133236760531 0 -0.44257020456291563 -0.38918913383950271 0 -0.4540003998136638 -0.37455519391687309 0 -0.46202672064839212 -0.40007602488395211 0 -0.45555437223955858 -0.42914059360647611 0 -0.44727608925983742 -0.41095911152778891 0 -0.46202672064839212 -0.40007602488395211 0 -0.45555437223955858 -0.42914059360647611 0 -0.48101336032419229 -0.41069999664450008 0 -0.46202672064839212 -0.40007602488395211 0 -0.45555437223955858 -0.42914059360647611 0 -0.44727608925983742 -0.41095911152778891 0 -0.43867285131603428 -0.4271457417558665 0 -0.43676601469929588 -0.41441201227470881 0 -0.44727608925983742 -0.41095911152778891 0 -0.43676601469929588 -0.41441201227470881 0 -0.43479358559901082 -0.4041454901736512 0 -0.45555437223955858 -0.42914059360647611 0 -0.44727608925983742 -0.41095911152778891 0 -0.43867285131603428 -0.4271457417558665 0 -0.43867285131603428 -0.4271457417558665 0 -0.42681803064840879 -0.42717069814352421 0 -0.4263356171060747 -0.44269880333887462 0 -0.42681803064840879 -0.42717069814352421 0 -0.41531815884496182 -0.42985383783075998 0 -0.4263356171060747 -0.44269880333887462 0 -0.42681803064840879 -0.42717069814352421 0 -0.42624289495594048 -0.42089725947505818 0 -0.42083332353326591 -0.42146747131641099 0 -0.42681803064840879 -0.42717069814352421 0 -0.43096994786351572 -0.41951492446283251 0 -0.42624289495594048 -0.42089725947505818 0 -0.43867285131603428 -0.4271457417558665 0 -0.42681803064840879 -0.42717069814352421 0 -0.43096994786351572 -0.41951492446283251 0 -0.43867285131603428 -0.4271457417558665 0 -0.43676601469929588 -0.41441201227470881 0 -0.43096994786351572 -0.41951492446283251 0 -0.43676601469929588 -0.41441201227470881 0 -0.43096994786351572 -0.41951492446283251 0 -0.42907264086257813 -0.41311715872526122 0 -0.43676601469929588 -0.41441201227470881 0 -0.42907264086257813 -0.41311715872526122 0 -0.43479358559901082 -0.4041454901736512 0 -0.42907264086257813 -0.41311715872526122 0 -0.43479358559901082 -0.4041454901736512 0 -0.42460885511582858 -0.40417321677700252 0 -0.42907264086257813 -0.41311715872526122 0 -0.41997834854398469 -0.41180534796019508 0 -0.42907264086257813 -0.41311715872526122 0 -0.42635027777857132 -0.41543594397746519 0 -0.41997834854398469 -0.41180534796019508 0 -0.42907264086257813 -0.41311715872526122 0 -0.41997834854398469 -0.41180534796019508 0 -0.42460885511582858 -0.40417321677700252 0 -0.42635027777857132 -0.41543594397746519 0 -0.41997834854398469 -0.41180534796019508 0 -0.42635027777857132 -0.41543594397746519 0 -0.42083332353326591 -0.42146747131641099 0 -0.41997834854398469 -0.41180534796019508 0 -0.43096994786351572 -0.41951492446283251 0 -0.42624289495594048 -0.42089725947505818 0 -0.42635027777857132 -0.41543594397746519 0 -0.43096994786351572 -0.41951492446283251 0 -0.42907264086257813 -0.41311715872526122 0 -0.42635027777857132 -0.41543594397746519 0 -0.42624289495594048 -0.42089725947505818 0 -0.42635027777857132 -0.41543594397746519 0 -0.42083332353326591 -0.42146747131641099 0 -0.42083332353326591 -0.42146747131641099 0 -0.41997834854398469 -0.41180534796019508 0 -0.40992282953163789 -0.42011435591993562 0 -0.41997834854398469 -0.41180534796019508 0 -0.39756877647335259 -0.40857286797681719 0 -0.41997834854398469 -0.41180534796019508 0 -0.40992282953163789 -0.42011435591993562 0 -0.39756877647335259 -0.40857286797681719 0 -0.40992282953163789 -0.42011435591993562 0 -0.41531815884496182 -0.42985383783075998 0 -0.39591554026262499 -0.42887225451549271 0 -0.41531815884496182 -0.42985383783075998 0 -0.39591554026262499 -0.42887225451549271 0 -0.41160927495564159 -0.44339431233754628 0 -0.42083332353326591 -0.42146747131641099 0 -0.40992282953163789 -0.42011435591993562 0 -0.41531815884496182 -0.42985383783075998 0 -0.42681803064840879 -0.42717069814352421 0 -0.42083332353326591 -0.42146747131641099 0 -0.41531815884496182 -0.42985383783075998 0 -0.44257020456291563 -0.38918913383950271 0 -0.42311368847744002 -0.37830224279505142 0 -0.42594061475171041 -0.39368797999533162 0 -0.44257020456291563 -0.38918913383950271 0 -0.42311368847744002 -0.37830224279505142 0 -0.44172858264042247 -0.37082207246888088 0 -0.44257020456291563 -0.38918913383950271 0 -0.42311368847744002 -0.37830224279505142 0 -0.42311368847744002 -0.37830224279505142 0 -0.42594061475171041 -0.39368797999533162 0 -0.416587075656149 -0.38785930376960043 0 -0.44257020456291563 -0.38918913383950271 0 -0.42594061475171041 -0.39368797999533162 0 -0.43479358559901082 -0.4041454901736512 0 -0.42594061475171041 -0.39368797999533162 0 -0.43479358559901082 -0.4041454901736512 0 -0.42460885511582858 -0.40417321677700252 0 -0.41997834854398469 -0.41180534796019508 0 -0.41325908582185972 -0.39811010703057192 0 -0.39770572831670092 -0.39911486077581648 0 -0.41997834854398469 -0.41180534796019508 0 -0.39770572831670092 -0.39911486077581648 0 -0.42594061475171041 -0.39368797999533162 0 -0.42460885511582858 -0.40417321677700252 0 -0.41325908582185972 -0.39811010703057192 0 -0.41997834854398469 -0.41180534796019508 0 -0.42460885511582858 -0.40417321677700252 0 -0.41325908582185972 -0.39811010703057192 0 -0.42594061475171041 -0.39368797999533162 0 -0.41325908582185972 -0.39811010703057192 0 -0.416587075656149 -0.38785930376960043 0 -0.41325908582185972 -0.39811010703057192 0 -0.416587075656149 -0.38785930376960043 0 -0.40403491357358612 -0.38133688525744702 0 -0.42311368847744002 -0.37830224279505142 0 -0.40403491357358612 -0.38133688525744702 0 -0.40365717239196519 -0.36741535175059892 0 -0.42311368847744002 -0.37830224279505142 0 -0.416587075656149 -0.38785930376960043 0 -0.40403491357358612 -0.38133688525744702 0 -0.40403491357358612 -0.38133688525744702 0 -0.39190790742475001 -0.38540387676521748 0 -0.39770572831670092 -0.39911486077581648 0 -0.40403491357358612 -0.38133688525744702 0 -0.39190790742475001 -0.38540387676521748 0 -0.3904578797192948 -0.37473938743617019 0 -0.41325908582185972 -0.39811010703057192 0 -0.40403491357358612 -0.38133688525744702 0 -0.39770572831670092 -0.39911486077581648 0 -0.39770572831670092 -0.39911486077581648 0 -0.37543310808941849 -0.38642437359143528 0 -0.39770572831670092 -0.39911486077581648 0 -0.37515920440272033 -0.40534038799344108 0 -0.37543310808941849 -0.38642437359143528 0 -0.39770572831670092 -0.39911486077581648 0 -0.37515920440272033 -0.40534038799344108 0 -0.39756877647335259 -0.40857286797681719
[...]
<PointData Scalars="" Vectors="displacement," Tensors="">
<DataArray type="Float64" Name="displacement" NumberOfComponents="3" format="ascii">
-3.1561244577543813e-06 -0.064994056451071688 0 -0.00031629822647562136 -0.060769546259996435 0 6.6822838691340237e-06 -0.054787267875978568 0 -3.1561244577543813e-06 -0.064994056451071688 0 -0.0002912997371798268 -0.063515688189016067 0 -0.00031629822647562136 -0.060769546259996435 0 -3.1561244577543813e-06 -0.064994056451071688 0 -0.0002912997371798268 -0.063515688189016067 0 1.1351386370097197e-08 -0.064998411785986948 0 -0.0002912997371798268 -0.063515688189016067 0 1.1351386370097197e-08 -0.064998411785986948 0 -0.00016035949651228639 -0.063516123730213633 0 1.1351386370097197e-08 -0.064998411785986948 0 -0.00016035949651228639 -0.063516123730213633 0 -0.0001264492516754602 -0.064563633924520594 0 -0.00055477298932566396 -0.059533508014649336 0 2.1750239769968572e-05 -0.057841179922455403 0 -0.00016035949651228639 -0.063516123730213633 0 0.0007321253008412558 -0.063459642041811384 0 0.00078946755635355261 -0.063820358220429599 0 -0.00016035949651228639 -0.063516123730213633 0 0.00078946755635355261 -0.063820358220429599 0 0.00038731969055423268 -0.064229387227820428 0 -0.0002912997371798268 -0.063515688189016067 0 -0.00016035949651228639 -0.063516123730213633 0 -0.00031629822647562136 -0.060769546259996435 0 -0.00016035949651228639 -0.063516123730213633 0 -0.00031629822647562136 -0.060769546259996435 0 0.0011573546374345214 -0.06198831436026031 0 -0.00031629822647562136 -0.060769546259996435 0 0.0024595566815225093 -0.058731418165343087 0 0.0011573546374345214 -0.06198831436026031 0 -0.00031629822647562136 -0.060769546259996435 0 6.6822838691340237e-06 -0.054787267875978568 0 0.0024595566815225093 -0.058731418165343087 0 3.6777557565842128e-06 -0.054766499480977601 0 0.00055954173259022285 -0.050503453660195131 0 -1.5519958606950555e-06 -0.051205230669777758 0 2.2924257050562733e-06 -0.054769981586901953 0 0.00096603217708269499 -0.053789741806693714 0 -1.5519958606950555e-06 -0.051205230669777758 0 -0.00014747165420031565 -0.049193662341561951 0 -0.0003112970907065899 -0.047879954385160496 0 -1.5519958606950555e-06 -0.051205230669777758 0 -4.7325987259286293e-07 -0.047637893887091422 0 -0.0003112970907065899 -0.047879954385160496 0 0.00055954173259022285 -0.050503453660195131 0 -1.5519958606950555e-06 -0.051205230669777758 0 -0.00014747165420031565 -0.049193662341561951 0 0.00055954173259022285 -0.050503453660195131 0 -0.00014747165420031565 -0.049193662341561951 0 0.00024542089294640469 -0.048714075660791986 0 0.00096603217708269499 -0.053789741806693714 0 0.0014227930369220729 -0.051818129553316716 0 -0.00014747165420031565 -0.049193662341561951 0 -0.00038308965020502814 -0.048292011688352704 0 0.00024542089294640469 -0.048714075660791986 0 -0.00014747165420031565 -0.049193662341561951 0 -0.00038308965020502814 -0.048292011688352704 0 -0.0003112970907065899 -0.047879954385160496 0 0.0010227700294199124 -0.047067604687381616 0 0.0014227930369220729 -0.051818129553316716 0 0.0014956296846719461 -0.037865854447813277 0 0.0010004214688934851 -0.038367408435360253 0 0.00035648870967465337 -0.038121506909969946 0 0.0014956296846719461 -0.037865854447813277 0 0.0010004214688934851 -0.038367408435360253 0 0.001529148068616384 -0.038451741106368301 0 0.0010004214688934851 -0.038367408435360253 0 0.00035648870967465337 -0.038121506909969946 0 0.00085291160848264202 -0.039018296401414722 0 0.0010419394373910214 -0.063595979323988666 0 0.00092019406212224826 -0.063756618105450844 0 0.0009885292593854358 -0.063683874203977434 0 0.0014227930369220729 -0.051818129553316716 0 0.0012343600445000216 -0.051265214979553997 0 0.00092019406212224826 -0.063756618105450844 0 0.0009885292593854358 -0.063683874203977434 0 0.0010095255005913254 -0.063747793125072283 0 0.00085291160848264202 -0.039018296401414722 0 0.001529148068616384 -0.038451741106368301 0 0.001688775810004762 -0.03904053484579971 0 0.0010004214688934851 -0.038367408435360253 0 0.00085291160848264202 -0.039018296401414722 0 0.001529148068616384 -0.038451741106368301 0 0.0010419394373910214 -0.063595979323988666 0 0.0007321253008412558 -0.063459642041811384 0 0.0009885292593854358 -0.063683874203977434 0 0.0014227930369220729 -0.051818129553316716 0 2.1750239769968572e-05 -0.057841179922455403 0 0.0024595566815225093 -0.058731418165343087 0 0.0037960633391900846 -0.06090896655371144 0 0.0011573546374345214 -0.06198831436026031 0 0.0009885292593854358 -0.063683874203977434 0 0.00078946755635355261 -0.063820358220429599 0 0.00099671087799351929 -0.06379252912194544 0 0.0009885292593854358 -0.063683874203977434 0 0.00099671087799351929 -0.06379252912194544 0 0.0010095255005913254 -0.063747793125072283 0 0.0007321253008412558 -0.063459642041811384 0 0.0009885292593854358 -0.063683874203977434 0 0.00078946755635355261 -0.063820358220429599 0 0.00078946755635355261 -0.063820358220429599 0 0.00075521975489635637 -0.064099454880962178 0 0.00038731969055423268 -0.064229387227820428 0 0.00075521975489635637 -0.064099454880962178 0 0.00068102218011649527 -0.064415299272785151 0 0.00038731969055423268 -0.064229387227820428 0 0.00075521975489635637 -0.064099454880962178 0 0.00089676753801840384 -0.06406052886490024 0 0.00087789455471549993 -0.064230847393798959 0 0.00075521975489635637 -0.064099454880962178 0 0.00093045715608609456 -0.063913689109184019 0 0.00089676753801840384 -0.06406052886490024 0 0.00078946755635355261 -0.063820358220429599 0 0.00075521975489635637 -0.064099454880962178 0 0.00093045715608609456 -0.063913689109184019 0 0.00078946755635355261 -0.063820358220429599 0 0.00099671087799351929 -0.06379252912194544 0 0.00093045715608609456 -0.063913689109184019 0 0.00099671087799351929 -0.06379252912194544 0 0.00093045715608609456 -0.063913689109184019 0 0.001103431845729744 -0.063833583921289405 0 0.00099671087799351929 -0.06379252912194544 0 0.001103431845729744 -0.063833583921289405 0 0.0010095255005913254 -0.063747793125072283 0 0.001103431845729744 -0.063833583921289405 0 0.0010095255005913254 -0.063747793125072283 0 0.0010257358083064262 -0.063619251767745119 0 0.0023683660961943908 -0.062431604483605192 0 0.0023923977667160532 -0.062259009391421483 0 0.001103431845729744 -0.063833583921289405 0 0.0010269321165454731 -0.064002611335270992 0 0.0012352140570781698 -0.064338358879275415 0 0.001103431845729744 -0.063833583921289405 0 0.0012070065483377362 -0.063518952632036177 0 0.0010257358083064262 -0.063619251767745119 0 0.0023916089741137093 -0.062345483875713849 0 0.0023923977667160532 -0.062259009391421483 0 0.0010269321165454731 -0.064002611335270992 0 0.00087789455471549993 -0.064230847393798959 0 0.001141517101941584 -0.06424830165991581 0 0.00093045715608609456 -0.063913689109184019 0 0.00089676753801840384 -0.06406052886490024 0 0.0010269321165454731 -0.064002611335270992 0 0.00093045715608609456 -0.063913689109184019 0 0.001103431845729744 -0.063833583921289405 0 0.0010269321165454731 -0.064002611335270992 0 0.00089676753801840384 -0.06406052886490024 0 0.0010269321165454731 -0.064002611335270992 0 0.00087789455471549993 -0.064230847393798959 0 0.00087789455471549993 -0.064230847393798959 0 0.001141517101941584 -0.06424830165991581 0 0.00091384307487258232 -0.064523146641233403 0 0.0023923977667160532 -0.062259009391421483 0 0.0019897030211264875 -0.06187767914343463 0 0.001141517101941584 -0.06424830165991581 0 0.00091384307487258232 -0.064523146641233403 0 0.0011835682070161621 -0.064817014580708862 0 0.00091384307487258232 -0.064523146641233403 0 0.00068102218011649527 -0.064415299272785151 0 0.00070793039266971451 -0.064859922764973543 0 0.00068102218011649527 -0.064415299272785151 0 0.00070793039266971451 -0.064859922764973543 0 0.00037786763426691817 -0.064551315752339633 0 0.00087789455471549993 -0.064230847393798959 0 0.00091384307487258232 -0.064523146641233403 0 0.00068102218011649527 -0.064415299272785151 0 0.00075521975489635637 -0.064099454880962178 0 0.00087789455471549993 -0.064230847393798959 0 0.00068102218011649527 -0.064415299272785151 0 0.00092019406212224826 -0.063756618105450844 0 0.00051893291140196177 -0.063508589565296064 0 0.00086835551600896875 -0.063589405631778617 0 0.00085291160848264202 -0.039018296401414722 0 0.001330189319798239 -0.039949447249478444 0 0.001688775810004762 -0.03904053484579971 0 0.0012343600445000216 -0.051265214979553997 0 0.0013466426730508617 -0.050927276566859317 0 0.00051893291140196177 -0.063508589565296064 0 0.00086835551600896875 -0.063589405631778617 0 0.00071825635719032594 -0.063354939565014021 0 0.00092019406212224826 -0.063756618105450844 0 0.00086835551600896875 -0.063589405631778617 0 0.0010095255005913254 -0.063747793125072283 0 0.00086835551600896875 -0.063589405631778617 0 0.0010095255005913254 -0.063747793125072283 0 0.0010257358083064262 -0.063619251767745119 0 0.0012070065483377362 -0.063518952632036177 0 0.00094940831116021272 -0.063296296399979357 0 0.0010311939741721461 -0.062830443781501974 0 0.0023923977667160532 -0.062259009391421483 0 0.0025117670684191881 -0.060263673468433775 0 0.00086835551600896875 -0.063589405631778617 0 0.0010257358083064262 -0.063619251767745119 0 0.00094940831116021272 -0.063296296399979357 0 0.0012070065483377362 -0.063518952632036177 0 0.0010257358083064262 -0.063619251767745119 0 0.00094940831116021272 -0.063296296399979357 0 0.00086835551600896875 -0.063589405631778617 0 0.00094940831116021272 -0.063296296399979357 0 0.00071825635719032594 -0.063354939565014021 0 0.00094940831116021272 -0.063296296399979357 0 0.00071825635719032594 -0.063354939565014021 0 0.00052711445573957799 -0.063006967733900798 0 0.00051893291140196177 -0.063508589565296064 0 0.00052711445573957799 -0.063006967733900798 0 0.00016980949989432349 -0.062977408155490258 0 0.00051893291140196177 -0.063508589565296064 0 0.00071825635719032594 -0.063354939565014021 0 0.00052711445573957799 -0.063006967733900798 0 0.00052711445573957799 -0.063006967733900798 0 0.00063185117141458652 -0.062606372184874651 0 0.0010311939741721461 -0.062830443781501974 0 0.00052711445573957799 -0.063006967733900798 0 0.00063185117141458652 -0.062606372184874651 0 0.00028046829057633613 -0.062537089489209885 0 0.00094940831116021272 -0.063296296399979357 0 0.00052711445573957799 -0.063006967733900798 0 0.0010311939741721461 -0.062830443781501974 0 0.0025117670684191881 -0.060263673468433775 0 0.0023088990151013066 -0.056185615092670782 0 0.0023908809519971974 -0.060118912481019617 0 0.0028366044157001275 -0.058498852484805297 0 0.0014819203389079031 -0.058514307248486594 0 0.0023908809519971974 -0.060118912481019617 0 0.0028366044157001275 -0.058498852484805297 0 0.0030695934755912862 -0.060110503316060653 0 0.0013739273793657097 -0.0601866452753324 0 0.0023088990151013066 -0.056185615092670782 0 0.00067830236781124987 -0.062033545789528396 0 0.00028046829057633613 -0.062537089489209885 0 8.9062112424621813e-05 -0.062011560334296167 0 0.00063185117141458652 -0.062606372184874651 0 0.00067830236781124987 -0.062033545789528396 0 0.00028046829057633613 -0.062537089489209885 0 0.0023088990151013066 -0.056185615092670782 0 0.0016028119581914847 -0.052668487464817837 0 0.00063185117141458652 -0.062606372184874651 0 0.0010311939741721461 -0.062830443781501974 0 0.00067830236781124987 -0.062033545789528396 0 0.0033009119664757854 -0.061725090203967214 0 0.0023908809519971974 -0.060118912481019617 0 0.0030695934755912862 -0.060110503316060653 0 0.00091384307487258232 -0.064523146641233403 0 0.00070793039266971451 -0.064859922764973543 0 0.0011835682070161621 -0.064817014580708862 0 0.0012480501020264957 -0.065314533850165377 0 0.00070793039266971451 -0.064859922764973543 0 0.0011835682070161621 -0.064817014580708862 0 0.0013739273793657097 -0.0601866452753324 0 0.0019897030211264875 -0.06187767914343463 0 0.0012480501020264957 -0.065314533850165377 0 0.00070793039266971451 -0.064859922764973543 0 0.00056428795185866319 -0.065322558900848038 0 0.00070793039266971451 -0.064859922764973543 0 0.00032357874896004382 -0.064928287919561262 0 0.00056428795185866319 -0.065322558900848038 0 0.00032357874896004382 -0.064928287919561262 0 -7.8971446427000022e-05 -0.065324955598176249 0 0.00056428795185866319 -0.065322558900848038 0 0.00070793039266971451 -0.064859922764973543 0 0.00032357874896004382 -0.064928287919561262 0 0.00037786763426691817 -0.064551315752339633 0 0.00032357874896004382 -0.064928287919561262 0 9.4834338435836126e-05 -0.064704100468572751 0 0.00037786763426691817 -0.064551315752339633 0 8.8616563718542474e-05 -0.064757316697600154 0 -4.0012401956080639e-05 -0.064910720988581389 0 -4.118915660762446e-05 -0.064699622210393132 0 9.6039159411779004e-06 -0.064989447009806162 0 7.7580877017004493e-06 -0.064995150641704441 0 1.7255365432295522e-06 -0.064995198848822697 0 0.00012431909414731826 -0.064801958072001009 0 1.1207044582324558e-05 -0.064930630180329379 0 0.00012431909414731826 -0.064801958072001009 0 0.00012442035678401987 -0.064801140150810871 0 0.00012431909414731826 -0.064801958072001009 0 0.00013565593068102399 -0.064719265764425923 0 0.00032357874896004382 -0.064928287919561262 0 9.4834338435836126e-05 -0.064704100468572751 0 7.7147798372102453e-06 -0.065011050708029691 0 0.00032357874896004382 -0.064928287919561262 0 7.7147798372102453e-06 -0.065011050708029691 0 -7.8971446427000022e-05 -0.065324955598176249 0 0.00013565593068102399 -0.064719265764425923 0 0.00022621630664580063 -0.06438121384040206 0 7.7580877017004493e-06 -0.064995150641704441 0 3.916300302352761e-06 -0.064996908150243823 0 6.1115854004086447e-06 -0.064999449908831566 0 3.916300302352761e-06 -0.064996908150243823 0 1.7255365432295522e-06 -0.064995198848822697 0 1.345781357013803e-06 -0.06499929435156368 0 1.7255365432295522e-06 -0.064995198848822697 0 6.6671430292369409e-07 -0.064999511406113999 0 1.345781357013803e-06 -0.06499929435156368 0 3.916300302352761e-06 -0.064996908150243823 0 1.345781357013803e-06 -0.06499929435156368 0 6.1115854004086447e-06 -0.064999449908831566 0 7.7580877017004493e-06 -0.064995150641704441 0 3.916300302352761e-06 -0.064996908150243823 0 1.7255365432295522e-06 -0.064995198848822697 0 -4.6552379273872358e-08 -0.064999895473227806 0 1.1207044582324558e-05 -0.064930630180329379 0 -2.8223352007010121e-09 -0.064999995704628499 0 1.7255365432295522e-06 -0.064995198848822697 0 6.6671430292369409e-07 -0.064999511406113999 0 1.0558495629371412e-07 -0.064999970059955572 0 -4.0012401956080639e-05 -0.064910720988581389 0 -2.6159212235231358e-07 -0.06499977891893835 0 -4.0012401956080639e-05 -0.064910720988581389 0 -4.118915660762446e-05 -0.064699622210393132 0 -2.6159212235231358e-07 -0.06499977891893835 0 -4.118915660762446e-05 -0.064699622210393132 0 -2.6159212235231358e-07 -0.06499977891893835 0 -0.0001264492516754602 -0.064563633924520594 0 1.1351386370097197e-08 -0.064998411785986948 0 -2.6159212235231358e-07 -0.06499977891893835 0 -0.0001264492516754602 -0.064563633924520594 0 -4.118915660762446e-05 -0.064699622210393132 0 -0.0001264492516754602 -0.064563633924520594 0 3.716675929455695e-06 -0.064357041029280262 0 -0.00016035949651228639 -0.063516123730213633 0 -0.0001264492516754602 -0.064563633924520594 0 3.716675929455695e-06 -0.064357041029280262 0 -0.00016035949651228639 -0.063516123730213633 0 3.716675929455695e-06 -0.064357041029280262 0 0.00038731969055423268 -0.064229387227820428 0 3.716675929455695e-06 -0.064357041029280262 0 0.00038731969055423268 -0.064229387227820428 0 0.0001488219877613004 -0.0645165722454209 0 0.00038731969055423268 -0.064229387227820428 0 0.00037786763426691817 -0.064551315752339633 0 0.0001488219877613004 -0.0645165722454209 0 0.00068102218011649527 -0.064415299272785151 0 0.00038731969055423268 -0.064229387227820428 0 0.00037786763426691817 -0.064551315752339633 0 8.9811940694257676e-05 -0.064782199109946245 0 0.00037786763426691817 -0.064551315752339633 0 0.00010273133143088721 -0.064720191164322607 0 0.00037786763426691817 -0.064551315752339633 0 0.00010273133143088721 -0.064720191164322607 0 0.0001488219877613004 -0.0645165722454209 0 0.00012431909414731826 -0.064801958072001009 0 0.00017782450539503974 -0.064763235362258725 0 -4.118915660762446e-05 -0.064699622210393132 0 0.00010273133143088721 -0.064720191164322607 0 0.0001488219877613004 -0.0645165722454209 0 8.8616563718542474e-05 -0.064757316697600154 0 -4.118915660762446e-05 -0.064699622210393132 0 0.00010273133143088721 -0.064720191164322607 0 -4.118915660762446e-05 -0.064699622210393132 0 3.716675929455695e-06 -0.064357041029280262 0 0.0001488219877613004 -0.0645165722454209 0 0.0021141772133524174 -0.033462117105408092 0 0.0029917194823338676 -0.031828092390178087 0 0.00093774663449022657 -0.03261734876251883 0 0.0011140058905448566 -0.031581320904236591 0 0.00062391436279160149 -0.032278144645232883 0 -0.00022384786980456548 -0.036386336374323772 0 0.00027276682776414116 -0.036306883969219828 0 0.00014535772416211039 -0.036543551942061457 0 -0.00022384786980456548 -0.036386336374323772 0 -0.00013077775707331406 -0.036443875612888789 0 0.00014535772416211039 -0.036543551942061457 0 -0.00022384786980456548 -0.036386336374323772 0 -0.00012863057551637915 -0.036266685583846527 0 -0.00013077775707331406 -0.036443875612888789 0 -0.00022384786980456548 -0.036386336374323772 0 -0.00020720890969348456 -0.035876778593222892 0 -0.00033548261493869552 -0.036513296527113825 0 -0.00022384786980456548 -0.036386336374323772 0 -0.00020720890969348456 -0.035876778593222892 0 0.00027276682776414116 -0.036306883969219828 0 0.0021141772133524174 -0.033462117105408092 0 0.0018216439938739404 -0.033759354802557803 0 -0.00020720890969348456 -0.035876778593222892 0 0.00027276682776414116 -0.036306883969219828 0 0.00026543858574576553 -0.034369589753300116 0 0.00093774663449022657 -0.03261734876251883 0 0.00026543858574576553 -0.034369589753300116 0 9.9945346089045449e-05 -0.033095668533570648 0 0.00026543858574576553 -0.034369589753300116 0 -7.6082276889620606e-07 -0.033370245177676137 0 -0.00022756810303666708 -0.035781108107411967 0 0.00026543858574576553 -0.034369589753300116 0 -7.6082276889620606e-07 -0.033370245177676137 0 -4.0413658350965893e-05 -0.032622646894429154 0 -7.6082276889620606e-07 -0.033370245177676137 0 -0.00022756810303666708 -0.035781108107411967 0 -6.7295775248965652e-07 -0.036937589638711084 0 -0.00020720890969348456 -0.035876778593222892 0 0.00026543858574576553 -0.034369589753300116 0 -0.00022756810303666708 -0.035781108107411967 0 -0.00020720890969348456 -0.035876778593222892 0 -0.00022756810303666708 -0.035781108107411967 0 -0.00033548261493869552 -0.036513296527113825 0 -0.00033548261493869552 -0.036513296527113825 0 -0.00014104600556809002 -0.037645887759672418 0 -4.1954135142156816e-05 -0.037420789970906983 0 -0.00022756810303666708 -0.035781108107411967 0 -0.00033548261493869552 -0.036513296527113825 0 -0.00014104600556809002 -0.037645887759672418 0 -6.7295775248965652e-07 -0.036937589638711084 0 -0.00014104600556809002 -0.037645887759672418 0 8.5217106356030968e-07 -0.040504250962640626 0 -0.00022756810303666708 -0.035781108107411967 0 -6.7295775248965652e-07 -0.036937589638711084 0 -0.00014104600556809002 -0.037645887759672418 0 -0.00014104600556809002 -0.037645887759672418 0 8.5217106356030968e-07 -0.040504250962640626 0 0.0002750690819289227 -0.039087631179928257 0 0.0002750690819289227 -0.039087631179928257 0 -4.1954135142156816e-05 -0.037420789970906983 0 0.0010205473808900659 -0.037861175260695788 0 -0.00014104600556809002 -0.037645887759672418 0 0.0002750690819289227 -0.039087631179928257 0 -4.1954135142156816e-05 -0.037420789970906983 0 -4.1954135142156816e-05 -0.037420789970906983 0 0.00047912628020905563 -0.03699346762168701 0 0.0010205473808900659 -0.037861175260695788 0 0.00047912628020905563 -0.03699346762168701 0 0.00034164232555370478 -0.036391669888331285 0 0.00091233880181821887 -0.036626621212467673 0 0.00047912628020905563 -0.03699346762