<?xml version="1.0"?>
<VTKFile type="UnstructuredGrid" version="0.1" byte_order="LittleEndian">
<UnstructuredGrid>
<Piece NumberOfPoints="31898" NumberOfCells="11152">
<Points>
<DataArray type="Float64" NumberOfComponents="3" format="ascii">
-0.5 -0.5 0 -0.47620991077874902 -0.44978878706170539 0 -0.49999999999999473 -0.42132396840504388 0 -0.5 -0.5 0 -0.47160970827802529 -0.4793630013852106 0 -0.47620991077874902 -0.44978878706170539 0 -0.5 -0.5 0 -0.47160970827802529 -0.4793630013852106 0 -0.44860394795025399 -0.5 0 -0.47160970827802529 -0.4793630013852106 0 -0.44860394795025399 -0.5 0 -0.4490820238307246 -0.45820516232899983 0 -0.44860394795025399 -0.5 0 -0.4490820238307246 -0.45820516232899983 0 -0.42881687682924802 -0.47781464288736519 0 -0.4490820238307246 -0.45820516232899983 0 -0.45555437223955858 -0.42914059360647611 0 -0.4490820238307246 -0.45820516232899983 0 -0.45555437223955858 -0.42914059360647611 0 -0.43867285131603428 -0.4271457417558665 0 -0.4490820238307246 -0.45820516232899983 0 -0.43867285131603428 -0.4271457417558665 0 -0.4263356171060747 -0.44269880333887462 0 -0.47160970827802529 -0.4793630013852106 0 -0.4490820238307246 -0.45820516232899983 0 -0.47620991077874902 -0.44978878706170539 0 -0.4490820238307246 -0.45820516232899983 0 -0.47620991077874902 -0.44978878706170539 0 -0.45555437223955858 -0.42914059360647611 0 -0.47620991077874902 -0.44978878706170539 0 -0.48101336032419229 -0.41069999664450008 0 -0.45555437223955858 -0.42914059360647611 0 -0.47620991077874902 -0.44978878706170539 0 -0.49999999999999473 -0.42132396840504388 0 -0.48101336032419229 -0.41069999664450008 0 -0.49999999999999473 -0.42132396840504388 0 -0.48101336032419229 -0.41069999664450008 0 -0.5 -0.393886241813306 0 -0.49999999999999473 -0.42132396840504388 0 -0.48101336032419229 -0.41069999664450008 0 -0.5 -0.393886241813306 0 -0.47854472220918332 -0.38978458738689759 0 -0.48422759779560409 -0.37130120630367158 0 -0.5 -0.393886241813306 0 -0.5 -0.36644851522156802 0 -0.48422759779560409 -0.37130120630367158 0 -0.48101336032419229 -0.41069999664450008 0 -0.5 -0.393886241813306 0 -0.47854472220918332 -0.38978458738689759 0 -0.48101336032419229 -0.41069999664450008 0 -0.47854472220918332 -0.38978458738689759 0 -0.46202672064839212 -0.40007602488395211 0 -0.48101336032419229 -0.41069999664450008 0 -0.46202672064839212 -0.40007602488395211 0 -0.47854472220918332 -0.38978458738689759 0 -0.46725442735267431 -0.37660061361585562 0 -0.46202672064839212 -0.40007602488395211 0 -0.47854472220918332 -0.38978458738689759 0 -0.46725442735267431 -0.37660061361585562 0 -0.48422759779560409 -0.37130120630367158 0 -0.46725442735267431 -0.37660061361585562 0 -0.46202672064839212 -0.40007602488395211 0 -0.46725442735267431 -0.37660061361585562 0 -0.45645674801697989 -0.38644133236760531 0 -0.46202672064839212 -0.40007602488395211 0 -0.46725442735267431 -0.37660061361585562 0 -0.45645674801697989 -0.38644133236760531 0 -0.4540003998136638 -0.37455519391687309 0 -0.45645674801697989 -0.38644133236760531 0 -0.46202672064839212 -0.40007602488395211 0 -0.44257020456291563 -0.38918913383950271 0 -0.46202672064839212 -0.40007602488395211 0 -0.44257020456291563 -0.38918913383950271 0 -0.44727608925983742 -0.41095911152778891 0 -0.46202672064839212 -0.40007602488395211 0 -0.44257020456291563 -0.38918913383950271 0 -0.44257020456291563 -0.38918913383950271 0 -0.44727608925983742 -0.41095911152778891 0 -0.43479358559901082 -0.4041454901736512 0 -0.44257020456291563 -0.38918913383950271 0 -0.4540003998136638 -0.37455519391687309 0 -0.44172858264042247 -0.37082207246888088 0 -0.45645674801697989 -0.38644133236760531 0 -0.44257020456291563 -0.38918913383950271 0 -0.4540003998136638 -0.37455519391687309 0 -0.46202672064839212 -0.40007602488395211 0 -0.45555437223955858 -0.42914059360647611 0 -0.44727608925983742 -0.41095911152778891 0 -0.46202672064839212 -0.40007602488395211 0 -0.45555437223955858 -0.42914059360647611 0 -0.48101336032419229 -0.41069999664450008 0 -0.46202672064839212 -0.40007602488395211 0 -0.45555437223955858 -0.42914059360647611 0 -0.44727608925983742 -0.41095911152778891 0 -0.43867285131603428 -0.4271457417558665 0 -0.43676601469929588 -0.41441201227470881 0 -0.44727608925983742 -0.41095911152778891 0 -0.43676601469929588 -0.41441201227470881 0 -0.43479358559901082 -0.4041454901736512 0 -0.45555437223955858 -0.42914059360647611 0 -0.44727608925983742 -0.41095911152778891 0 -0.43867285131603428 -0.4271457417558665 0 -0.43867285131603428 -0.4271457417558665 0 -0.42681803064840879 -0.42717069814352421 0 -0.4263356171060747 -0.44269880333887462 0 -0.42681803064840879 -0.42717069814352421 0 -0.41531815884496182 -0.42985383783075998 0 -0.4263356171060747 -0.44269880333887462 0 -0.42681803064840879 -0.42717069814352421 0 -0.42624289495594048 -0.42089725947505818 0 -0.42083332353326591 -0.42146747131641099 0 -0.42681803064840879 -0.42717069814352421 0 -0.43096994786351572 -0.41951492446283251 0 -0.42624289495594048 -0.42089725947505818 0 -0.43867285131603428 -0.4271457417558665 0 -0.42681803064840879 -0.42717069814352421 0 -0.43096994786351572 -0.41951492446283251 0 -0.43867285131603428 -0.4271457417558665 0 -0.43676601469929588 -0.41441201227470881 0 -0.43096994786351572 -0.41951492446283251 0 -0.43676601469929588 -0.41441201227470881 0 -0.43096994786351572 -0.41951492446283251 0 -0.42907264086257813 -0.41311715872526122 0 -0.43676601469929588 -0.41441201227470881 0 -0.42907264086257813 -0.41311715872526122 0 -0.43479358559901082 -0.4041454901736512 0 -0.42907264086257813 -0.41311715872526122 0 -0.43479358559901082 -0.4041454901736512 0 -0.42460885511582858 -0.40417321677700252 0 -0.42907264086257813 -0.41311715872526122 0 -0.41997834854398469 -0.41180534796019508 0 -0.42907264086257813 -0.41311715872526122 0 -0.42635027777857132 -0.41543594397746519 0 -0.41997834854398469 -0.41180534796019508 0 -0.42907264086257813 -0.41311715872526122 0 -0.41997834854398469 -0.41180534796019508 0 -0.42460885511582858 -0.40417321677700252 0 -0.42635027777857132 -0.41543594397746519 0 -0.41997834854398469 -0.41180534796019508 0 -0.42635027777857132 -0.41543594397746519 0 -0.42083332353326591 -0.42146747131641099 0 -0.41997834854398469 -0.41180534796019508 0 -0.43096994786351572 -0.41951492446283251 0 -0.42624289495594048 -0.42089725947505818 0 -0.42635027777857132 -0.41543594397746519 0 -0.43096994786351572 -0.41951492446283251 0 -0.42907264086257813 -0.41311715872526122 0 -0.42635027777857132 -0.41543594397746519 0 -0.42624289495594048 -0.42089725947505818 0 -0.42635027777857132 -0.41543594397746519 0 -0.42083332353326591 -0.42146747131641099 0 -0.42083332353326591 -0.42146747131641099 0 -0.41997834854398469 -0.41180534796019508 0 -0.40992282953163789 -0.42011435591993562 0 -0.41997834854398469 -0.41180534796019508 0 -0.39756877647335259 -0.40857286797681719 0 -0.41997834854398469 -0.41180534796019508 0 -0.40992282953163789 -0.42011435591993562 0 -0.39756877647335259 -0.40857286797681719 0 -0.40992282953163789 -0.42011435591993562 0 -0.41531815884496182 -0.42985383783075998 0 -0.39591554026262499 -0.42887225451549271 0 -0.41531815884496182 -0.42985383783075998 0 -0.39591554026262499 -0.42887225451549271 0 -0.41160927495564159 -0.44339431233754628 0 -0.42083332353326591 -0.42146747131641099 0 -0.40992282953163789 -0.42011435591993562 0 -0.41531815884496182 -0.42985383783075998 0 -0.42681803064840879 -0.42717069814352421 0 -0.42083332353326591 -0.42146747131641099 0 -0.41531815884496182 -0.42985383783075998 0 -0.44257020456291563 -0.38918913383950271 0 -0.42311368847744002 -0.37830224279505142 0 -0.42594061475171041 -0.39368797999533162 0 -0.44257020456291563 -0.38918913383950271 0 -0.42311368847744002 -0.37830224279505142 0 -0.44172858264042247 -0.37082207246888088 0 -0.44257020456291563 -0.38918913383950271 0 -0.42311368847744002 -0.37830224279505142 0 -0.42311368847744002 -0.37830224279505142 0 -0.42594061475171041 -0.39368797999533162 0 -0.416587075656149 -0.38785930376960043 0 -0.44257020456291563 -0.38918913383950271 0 -0.42594061475171041 -0.39368797999533162 0 -0.43479358559901082 -0.4041454901736512 0 -0.42594061475171041 -0.39368797999533162 0 -0.43479358559901082 -0.4041454901736512 0 -0.42460885511582858 -0.40417321677700252 0 -0.41997834854398469 -0.41180534796019508 0 -0.41325908582185972 -0.39811010703057192 0 -0.39770572831670092 -0.39911486077581648 0 -0.41997834854398469 -0.41180534796019508 0 -0.39770572831670092 -0.39911486077581648 0 -0.42594061475171041 -0.39368797999533162 0 -0.42460885511582858 -0.40417321677700252 0 -0.41325908582185972 -0.39811010703057192 0 -0.41997834854398469 -0.41180534796019508 0 -0.42460885511582858 -0.40417321677700252 0 -0.41325908582185972 -0.39811010703057192 0 -0.42594061475171041 -0.39368797999533162 0 -0.41325908582185972 -0.39811010703057192 0 -0.416587075656149 -0.38785930376960043 0 -0.41325908582185972 -0.39811010703057192 0 -0.416587075656149 -0.38785930376960043 0 -0.40403491357358612 -0.38133688525744702 0 -0.42311368847744002 -0.37830224279505142 0 -0.40403491357358612 -0.38133688525744702 0 -0.40365717239196519 -0.36741535175059892 0 -0.42311368847744002 -0.37830224279505142 0 -0.416587075656149 -0.38785930376960043 0 -0.40403491357358612 -0.38133688525744702 0 -0.40403491357358612 -0.38133688525744702 0 -0.39190790742475001 -0.38540387676521748 0 -0.39770572831670092 -0.39911486077581648 0 -0.40403491357358612 -0.38133688525744702 0 -0.39190790742475001 -0.38540387676521748 0 -0.3904578797192948 -0.37473938743617019 0 -0.41325908582185972 -0.39811010703057192 0 -0.40403491357358612 -0.38133688525744702 0 -0.39770572831670092 -0.39911486077581648 0 -0.39770572831670092 -0.39911486077581648 0 -0.37543310808941849 -0.38642437359143528 0 -0.39770572831670092 -0.39911486077581648 0 -0.37515920440272033 -0.40534038799344108 0 -0.37543310808941849 -0.38642437359143528 0 -0.39770572831670092 -0.39911486077581648 0 -0.37515920440272033 -0.40534038799344108 0 -0.39756877647335259 -0.40857286797681719
[...]
<PointData Scalars="" Vectors="displacement," Tensors="">
<DataArray type="Float64" Name="displacement" NumberOfComponents="3" format="ascii">
-0.064994652049552154 -4.9719793316576286e-07 0 -0.063355548176095469 -0.00033005068864317241 0 -0.064995647779042612 -1.3768196202679473e-06 0 -0.064994652049552154 -4.9719793316576286e-07 0 -0.062155268727024884 -0.00021874842803702604 0 -0.063355548176095469 -0.00033005068864317241 0 -0.064994652049552154 -4.9719793316576286e-07 0 -0.062155268727024884 -0.00021874842803702604 0 -0.058322105334448295 -4.8209549184683946e-07 0 -0.062155268727024884 -0.00021874842803702604 0 -0.058322105334448295 -4.8209549184683946e-07 0 -0.06099674359949047 0.00015281658858997844 0 -0.058322105334448295 -4.8209549184683946e-07 0 -0.06099674359949047 0.00015281658858997844 0 -0.057959196680770264 -0.00012518691624754176 0 -0.061609657958403632 0.00040686122555353246 0 -0.061930642707894785 0.00040823400686556134 0 -0.06099674359949047 0.00015281658858997844 0 -0.059872118536373767 0.00064774658532198905 0 -0.059769579649257665 0.00020831267759897597 0 -0.06099674359949047 0.00015281658858997844 0 -0.059769579649257665 0.00020831267759897597 0 -0.059870617473450967 2.0085873781293399e-05 0 -0.062155268727024884 -0.00021874842803702604 0 -0.06099674359949047 0.00015281658858997844 0 -0.063355548176095469 -0.00033005068864317241 0 -0.06099674359949047 0.00015281658858997844 0 -0.063355548176095469 -0.00033005068864317241 0 -0.063966293348683784 0.00050344748965373452 0 -0.063355548176095469 -0.00033005068864317241 0 -0.064785925279020357 -5.3075954467447497e-05 0 -0.063966293348683784 0.00050344748965373452 0 -0.063355548176095469 -0.00033005068864317241 0 -0.064995647779042612 -1.3768196202679473e-06 0 -0.064785925279020357 -5.3075954467447497e-05 0 -0.064999997788016656 1.8548707790363703e-10 0 -0.064997253130651564 -7.8208234617734785e-07 0 -0.064999996640743449 -1.0032629101009827e-09 0 -0.064997999244862159 7.8733992095893736e-07 0 -0.064010329274941269 0.0002512804538384024 0 -0.064999996640743449 -1.0032629101009827e-09 0 -0.064996756975035874 -1.4259781753268261e-06 0 -0.064998624966076099 -2.3274167208683422e-06 0 -0.064999996640743449 -1.0032629101009827e-09 0 -0.064999994461885771 -3.5214763026681478e-09 0 -0.064998624966076099 -2.3274167208683422e-06 0 -0.064997253130651564 -7.8208234617734785e-07 0 -0.064999996640743449 -1.0032629101009827e-09 0 -0.064996756975035874 -1.4259781753268261e-06 0 -0.064997253130651564 -7.8208234617734785e-07 0 -0.064996756975035874 -1.4259781753268261e-06 0 -0.064993219225009446 -1.1201565433362197e-06 0 -0.064010329274941269 0.0002512804538384024 0 -0.062485508711864146 0.00029843591677460924 0 -0.064996756975035874 -1.4259781753268261e-06 0 -0.064995983973134108 -1.5382682411309696e-06 0 -0.064993219225009446 -1.1201565433362197e-06 0 -0.064996756975035874 -1.4259781753268261e-06 0 -0.064995983973134108 -1.5382682411309696e-06 0 -0.064998624966076099 -2.3274167208683422e-06 0 -0.063466182160529599 0.00012440535088343506 0 -0.062485508711864146 0.00029843591677460924 0 -0.062187767926621257 0.00027154578810590464 0 -0.061847513727872463 0.0006730067943012556 0 -0.061363373813440231 0.0004763942403433213 0 -0.062187767926621257 0.00027154578810590464 0 -0.061847513727872463 0.0006730067943012556 0 -0.062280810787078242 0.00077004848623190485 0 -0.061847513727872463 0.0006730067943012556 0 -0.061363373813440231 0.0004763942403433213 0 -0.061758111095260949 0.0011682334810316857 0 -0.059287221045047432 0.00075943430347446834 0 -0.05906316964590342 0.00039035907528808106 0 -0.059504028367212872 0.00045801147813406308 0 -0.062485508711864146 0.00029843591677460924 0 -0.060879476303844014 0.00070350599365621015 0 -0.05906316964590342 0.00039035907528808106 0 -0.059504028367212872 0.00045801147813406308 0 -0.059378870352518209 0.00023134633871662113 0 -0.061758111095260949 0.0011682334810316857 0 -0.062280810787078242 0.00077004848623190485 0 -0.062412143353705783 0.0011998886069088837 0 -0.061847513727872463 0.0006730067943012556 0 -0.061758111095260949 0.0011682334810316857 0 -0.062280810787078242 0.00077004848623190485 0 -0.059287221045047432 0.00075943430347446834 0 -0.059872118536373767 0.00064774658532198905 0 -0.059504028367212872 0.00045801147813406308 0 -0.062485508711864146 0.00029843591677460924 0 -0.061930642707894785 0.00040823400686556134 0 -0.064785925279020357 -5.3075954467447497e-05 0 -0.065013562323765012 0.00044887046631006232 0 -0.063966293348683784 0.00050344748965373452 0 -0.059504028367212872 0.00045801147813406308 0 -0.059769579649257665 0.00020831267759897597 0 -0.059594012172504242 0.00025115724920672845 0 -0.059504028367212872 0.00045801147813406308 0 -0.059594012172504242 0.00025115724920672845 0 -0.059378870352518209 0.00023134633871662113 0 -0.059872118536373767 0.00064774658532198905 0 -0.059504028367212872 0.00045801147813406308 0 -0.059769579649257665 0.00020831267759897597 0 -0.059769579649257665 0.00020831267759897597 0 -0.059768262381479746 0.00012543876140203524 0 -0.059870617473450967 2.0085873781293399e-05 0 -0.059768262381479746 0.00012543876140203524 0 -0.059779252881001436 0.00020746688561339459 0 -0.059870617473450967 2.0085873781293399e-05 0 -0.059768262381479746 0.00012543876140203524 0 -0.059720689855738009 0.00013445025904566785 0 -0.059738615540870607 0.00015684373901156626 0 -0.059768262381479746 0.00012543876140203524 0 -0.059695110142108737 0.00016095392671416702 0 -0.059720689855738009 0.00013445025904566785 0 -0.059769579649257665 0.00020831267759897597 0 -0.059768262381479746 0.00012543876140203524 0 -0.059695110142108737 0.00016095392671416702 0 -0.059769579649257665 0.00020831267759897597 0 -0.059594012172504242 0.00025115724920672845 0 -0.059695110142108737 0.00016095392671416702 0 -0.059594012172504242 0.00025115724920672845 0 -0.059695110142108737 0.00016095392671416702 0 -0.059605046019423479 0.00013695741432197055 0 -0.059594012172504242 0.00025115724920672845 0 -0.059605046019423479 0.00013695741432197055 0 -0.059378870352518209 0.00023134633871662113 0 -0.059605046019423479 0.00013695741432197055 0 -0.059378870352518209 0.00023134633871662113 0 -0.059377309402506372 1.8147149135174581e-05 0 -0.053663361321229092 0.0015166180599360253 0 -0.053468796116252437 0.001622356280850622 0 -0.059605046019423479 0.00013695741432197055 0 -0.059676984346348425 0.00011170823109999447 0 -0.059617909780925446 1.0069180160795592e-05 0 -0.059605046019423479 0.00013695741432197055 0 -0.059555711744624672 -8.6786703474262924e-05 0 -0.059377309402506372 1.8147149135174581e-05 0 -0.053654234202419493 0.0016844062524401374 0 -0.053468796116252437 0.001622356280850622 0 -0.059676984346348425 0.00011170823109999447 0 -0.059738615540870607 0.00015684373901156626 0 -0.059753849393567926 0.00016556699733632493 0 -0.059695110142108737 0.00016095392671416702 0 -0.059720689855738009 0.00013445025904566785 0 -0.059676984346348425 0.00011170823109999447 0 -0.059695110142108737 0.00016095392671416702 0 -0.059605046019423479 0.00013695741432197055 0 -0.059676984346348425 0.00011170823109999447 0 -0.059720689855738009 0.00013445025904566785 0 -0.059676984346348425 0.00011170823109999447 0 -0.059738615540870607 0.00015684373901156626 0 -0.059738615540870607 0.00015684373901156626 0 -0.059753849393567926 0.00016556699733632493 0 -0.059752608182718749 0.00021766288677656394 0 -0.053468796116252437 0.001622356280850622 0 -0.052035908336352556 0.0012749793720895847 0 -0.059753849393567926 0.00016556699733632493 0 -0.059752608182718749 0.00021766288677656394 0 -0.059776465527972604 0.00027649465524504666 0 -0.059752608182718749 0.00021766288677656394 0 -0.059779252881001436 0.00020746688561339459 0 -0.05972816570493019 0.00029344605785263381 0 -0.059779252881001436 0.00020746688561339459 0 -0.05972816570493019 0.00029344605785263381 0 -0.059738840118912263 0.00033458655274706708 0 -0.059738615540870607 0.00015684373901156626 0 -0.059752608182718749 0.00021766288677656394 0 -0.059779252881001436 0.00020746688561339459 0 -0.059768262381479746 0.00012543876140203524 0 -0.059738615540870607 0.00015684373901156626 0 -0.059779252881001436 0.00020746688561339459 0 -0.05906316964590342 0.00039035907528808106 0 -0.058783215512339448 -1.4602074667413311e-05 0 -0.059139479567229848 4.4996379536329496e-05 0 -0.061758111095260949 0.0011682334810316857 0 -0.062148572745395467 0.0018339218518217961 0 -0.062412143353705783 0.0011998886069088837 0 -0.060879476303844014 0.00070350599365621015 0 -0.059631842055286273 0.0013583479605823749 0 -0.058783215512339448 -1.4602074667413311e-05 0 -0.059139479567229848 4.4996379536329496e-05 0 -0.058993746593567001 -0.00016051827648880761 0 -0.05906316964590342 0.00039035907528808106 0 -0.059139479567229848 4.4996379536329496e-05 0 -0.059378870352518209 0.00023134633871662113 0 -0.059139479567229848 4.4996379536329496e-05 0 -0.059378870352518209 0.00023134633871662113 0 -0.059377309402506372 1.8147149135174581e-05 0 -0.059555711744624672 -8.6786703474262924e-05 0 -0.059230747504145455 -0.00023749355275175019 0 -0.059247458235227708 -0.00059814971254000667 0 -0.053468796116252437 0.001622356280850622 0 -0.052256784435323743 0.0018027829033262913 0 -0.059139479567229848 4.4996379536329496e-05 0 -0.059377309402506372 1.8147149135174581e-05 0 -0.059230747504145455 -0.00023749355275175019 0 -0.059555711744624672 -8.6786703474262924e-05 0 -0.059377309402506372 1.8147149135174581e-05 0 -0.059230747504145455 -0.00023749355275175019 0 -0.059139479567229848 4.4996379536329496e-05 0 -0.059230747504145455 -0.00023749355275175019 0 -0.058993746593567001 -0.00016051827648880761 0 -0.059230747504145455 -0.00023749355275175019 0 -0.058993746593567001 -0.00016051827648880761 0 -0.058822678104719812 -0.00043769980277849488 0 -0.058783215512339448 -1.4602074667413311e-05 0 -0.058822678104719812 -0.00043769980277849488 0 -0.058520588867088504 -0.0004418566035549646 0 -0.058783215512339448 -1.4602074667413311e-05 0 -0.058993746593567001 -0.00016051827648880761 0 -0.058822678104719812 -0.00043769980277849488 0 -0.058822678104719812 -0.00043769980277849488 0 -0.05890507523066188 -0.00074688664205049664 0 -0.059247458235227708 -0.00059814971254000667 0 -0.058822678104719812 -0.00043769980277849488 0 -0.05890507523066188 -0.00074688664205049664 0 -0.058626014711520971 -0.00078517457875243359 0 -0.059230747504145455 -0.00023749355275175019 0 -0.058822678104719812 -0.00043769980277849488 0 -0.059247458235227708 -0.00059814971254000667 0 -0.052256784435323743 0.0018027829033262913 0 -0.049019613456376801 0.0020787125666728058 0 -0.050999295916657437 0.0016025678829040468 0 -0.051169200234002926 0.00096821697311582874 0 -0.05063640985321545 0.00097667162231946324 0 -0.050999295916657437 0.0016025678829040468 0 -0.051169200234002926 0.00096821697311582874 0 -0.051266097303091923 0.0015984036808825133 0 -0.049029157388369916 0.00079388057726670032 0 -0.049019613456376801 0.0020787125666728058 0 -0.058919560859883646 -0.0011715525552363827 0 -0.058626014711520971 -0.00078517457875243359 0 -0.058467114410378114 -0.0011733608895435482 0 -0.05890507523066188 -0.00074688664205049664 0 -0.058919560859883646 -0.0011715525552363827 0 -0.058626014711520971 -0.00078517457875243359 0 -0.049019613456376801 0.0020787125666728058 0 -0.051921484383581212 0.0019154492357039987 0 -0.05890507523066188 -0.00074688664205049664 0 -0.059247458235227708 -0.00059814971254000667 0 -0.058919560859883646 -0.0011715525552363827 0 -0.051365538640530929 0.0022275177128852673 0 -0.050999295916657437 0.0016025678829040468 0 -0.051266097303091923 0.0015984036808825133 0 -0.059752608182718749 0.00021766288677656394 0 -0.05972816570493019 0.00029344605785263381 0 -0.059776465527972604 0.00027649465524504666 0 -0.059758774130213251 0.00033723267734952166 0 -0.05972816570493019 0.00029344605785263381 0 -0.059776465527972604 0.00027649465524504666 0 -0.049029157388369916 0.00079388057726670032 0 -0.052035908336352556 0.0012749793720895847 0 -0.059758774130213251 0.00033723267734952166 0 -0.05972816570493019 0.00029344605785263381 0 -0.059704303093263071 0.00034141944390357967 0 -0.05972816570493019 0.00029344605785263381 0 -0.059704051600078883 0.00031625437248856031 0 -0.059704303093263071 0.00034141944390357967 0 -0.059704051600078883 0.00031625437248856031 0 -0.059647606084544419 0.00035224113494856224 0 -0.059704303093263071 0.00034141944390357967 0 -0.05972816570493019 0.00029344605785263381 0 -0.059704051600078883 0.00031625437248856031 0 -0.059738840118912263 0.00033458655274706708 0 -0.059704051600078883 0.00031625437248856031 0 -0.059695048414323833 0.0003162337227617411 0 -0.059738840118912263 0.00033458655274706708 0 -0.058842302132868798 0.0011521265851321808 0 -0.055162218171570361 0.0013642194253145725 0 -0.057695188981643601 0.00039617987133093641 0 -0.044139909707886262 0.0030774939685141202 0 -0.044532860535624781 0.0015836047092397819 0 -0.046288105755768132 0.001948122082567979 0 -0.052565785611635954 -0.001043897153556786 0 -0.050890215581384304 -8.0789659814840977e-05 0 -0.052565785611635954 -0.001043897153556786 0 -0.05258311980744667 -0.0010375296504674626 0 -0.052565785611635954 -0.001043897153556786 0 -0.051146638976412986 0.0003270893588983535 0 -0.059704051600078883 0.00031625437248856031 0 -0.059695048414323833 0.0003162337227617411 0 -0.059669046903141412 0.00032551610557885884 0 -0.059704051600078883 0.00031625437248856031 0 -0.059669046903141412 0.00032551610557885884 0 -0.059647606084544419 0.00035224113494856224 0 -0.051146638976412986 0.0003270893588983535 0 -0.049603415394750779 0.0013461111916909471 0 -0.044532860535624781 0.0015836047092397819 0 -0.045549204984291596 0.0010341185758157695 0 -0.04493043924713469 5.1329507704448215e-05 0 -0.045549204984291596 0.0010341185758157695 0 -0.046288105755768132 0.001948122082567979 0 -0.046131345155246015 1.4224774166814649e-05 0 -0.046288105755768132 0.001948122082567979 0 -0.047414864704182241 -0.00023540763039771941 0 -0.046131345155246015 1.4224774166814649e-05 0 -0.045549204984291596 0.0010341185758157695 0 -0.046131345155246015 1.4224774166814649e-05 0 -0.04493043924713469 5.1329507704448215e-05 0 -0.044532860535624781 0.0015836047092397819 0 -0.045549204984291596 0.0010341185758157695 0 -0.046288105755768132 0.001948122082567979 0 -0.049525473424579677 3.5569550612612796e-07 0 -0.050890215581384304 -8.0789659814840977e-05 0 -0.049517644071026233 3.3286058199833716e-06 0 -0.046288105755768132 0.001948122082567979 0 -0.047414864704182241 -0.00023540763039771941 0 -0.049529511457601462 5.2536422369358396e-06 0 -0.055162218171570361 0.0013642194253145725 0 -0.053297656266409137 -9.3946884119222419e-07 0 -0.055162218171570361 0.0013642194253145725 0 -0.057695188981643601 0.00039617987133093641 0 -0.053297656266409137 -9.3946884119222419e-07 0 -0.057695188981643601 0.00039617987133093641 0 -0.053297656266409137 -9.3946884119222419e-07 0 -0.057959196680770264 -0.00012518691624754176 0 -0.058322105334448295 -4.8209549184683946e-07 0 -0.053297656266409137 -9.3946884119222419e-07 0 -0.057959196680770264 -0.00012518691624754176 0 -0.057695188981643601 0.00039617987133093641 0 -0.057959196680770264 -0.00012518691624754176 0 -0.059308229194689345 4.6862389731179247e-05 0 -0.06099674359949047 0.00015281658858997844 0 -0.057959196680770264 -0.00012518691624754176 0 -0.059308229194689345 4.6862389731179247e-05 0 -0.06099674359949047 0.00015281658858997844 0 -0.059308229194689345 4.6862389731179247e-05 0 -0.059870617473450967 2.0085873781293399e-05 0 -0.059308229194689345 4.6862389731179247e-05 0 -0.059870617473450967 2.0085873781293399e-05 0 -0.059320172833181015 0.00026338298986086444 0 -0.059870617473450967 2.0085873781293399e-05 0 -0.059738840118912263 0.00033458655274706708 0 -0.059320172833181015 0.00026338298986086444 0 -0.059779252881001436 0.00020746688561339459 0 -0.059870617473450967 2.0085873781293399e-05 0 -0.059738840118912263 0.00033458655274706708 0 -0.058917866621318121 0.0010968594310604961 0 -0.059738840118912263 0.00033458655274706708 0 -0.058954352975188674 0.00090673017373669648 0 -0.059738840118912263 0.00033458655274706708 0 -0.058954352975188674 0.00090673017373669648 0 -0.059320172833181015 0.00026338298986086444 0 -0.052565785611635954 -0.001043897153556786 0 -0.054300361442165164 -0.0014709843281498652 0 -0.057695188981643601 0.00039617987133093641 0 -0.058954352975188674 0.00090673017373669648 0 -0.059320172833181015 0.00026338298986086444 0 -0.058842302132868798 0.0011521265851321808 0 -0.057695188981643601 0.00039617987133093641 0 -0.058954352975188674 0.00090673017373669648 0 -0.057695188981643601 0.00039617987133093641 0 -0.059308229194689345 4.6862389731179247e-05 0 -0.059320172833181015 0.00026338298986086444 0 -0.059959674160207838 0.00069172809846896829 0 -0.057176405657560221 0.0024400507952531359 0 -0.064582585612758758 -0.0006285372431213814 0 -0.064671939938488521 -0.0027293814985637679 0 -0.063549894493285783 -0.0010312181140402408 0 -0.064878984205903822 0.00019287821474169188 0 -0.064918178043563257 0.00014805415910374114 0 -0.06492752678728736 0.00025078960056124598 0 -0.064878984205903822 0.00019287821474169188 0 -0.064867781465155663 0.00027916537561234879 0 -0.06492752678728736 0.00025078960056124598 0 -0.064878984205903822 0.00019287821474169188 0 -0.064822811445897605 0.00027362097754395521 0 -0.064867781465155663 0.00027916537561234879 0 -0.064878984205903822 0.00019287821474169188 0 -0.064886743220706131 0.00010652911271928261 0 -0.064896733458380249 9.9135784352561543e-05 0 -0.064878984205903822 0.00019287821474169188 0 -0.064886743220706131 0.00010652911271928261 0 -0.064918178043563257 0.00014805415910374114 0 -0.059959674160207838 0.00069172809846896829 0 -0.060797091348302162 0.00050141015586138726 0 -0.064886743220706131 0.00010652911271928261 0 -0.064918178043563257 0.00014805415910374114 0 -0.064799670406000917 0.0001045906982227773 0 -0.064582585612758758 -0.0006285372431213814 0 -0.064799670406000917 0.0001045906982227773 0 -0.063677160414472633 9.0463480791009047e-05 0 -0.064799670406000917 0.0001045906982227773 0 -0.06499981266283128 2.111741300083446e-07 0 -0.064923239329975943 6.6167383278019151e-05 0 -0.064799670406000917 0.0001045906982227773 0 -0.06499981266283128 2.111741300083446e-07 0 -0.064489275570902241 0.00012704066954974885 0 -0.06499981266283128 2.111741300083446e-07 0 -0.064923239329975943 6.6167383278019151e-05 0 -0.064999872158728225 -7.144749729672216e-09 0 -0.064886743220706131 0.00010652911271928261 0 -0.064799670406000917 0.0001045906982227773 0 -0.064923239329975943 6.6167383278019151e-05 0 -0.064886743220706131 0.00010652911271928261 0 -0.064923239329975943 6.6167383278019151e-05 0 -0.064896733458380249 9.9135784352561543e-05 0 -0.064896733458380249 9.9135784352561543e-05 0 -0.064933126416055351 1.9175557755994008e-05 0 -0.064871691737136195 7.4710792379879953e-05 0 -0.064923239329975943 6.6167383278019151e-05 0 -0.064896733458380249 9.9135784352561543e-05 0 -0.064933126416055351 1.9175557755994008e-05 0 -0.064999872158728225 -7.144749729672216e-09 0 -0.064933126416055351 1.9175557755994008e-05 0 -0.064999864623135825 1.7895182665244593e-08 0 -0.064923239329975943 6.6167383278019151e-05 0 -0.064999872158728225 -7.144749729672216e-09 0 -0.064933126416055351 1.9175557755994008e-05 0 -0.064933126416055351 1.9175557755994008e-05 0 -0.064999864623135825 1.7895182665244593e-08 0 -0.064902387502970851 -1.7354853437695277e-05 0 -0.064902387502970851 -1.7354853437695277e-05 0 -0.064871691737136195 7.4710792379879953e-05 0 -0.0647145701186468 6.2645363239750501e-05 0 -0.064933126416055351 1.9175557755994008e-05 0 -0.064902387502970851 -1.7354853437695277e-05 0 -0.064871691737136195 7.4710792379879953e-05 0 -0.064871691737136195 7.4710792379879953e-05 0 -0.064760766424596536 0.00017222526508412671 0 -0.0647145701186468 6.2645363239750501e-05 0 -0.064760766424596536 0.00017222526508412671 0 -0.064751619063097343 0.0002640739682857409 0 -0.