<?xml version="1.0"?>
<VTKFile type="UnstructuredGrid" version="0.1" byte_order="LittleEndian">
<UnstructuredGrid>
<Piece NumberOfPoints="30618" NumberOfCells="10744">
<Points>
<DataArray type="Float64" NumberOfComponents="3" format="ascii">
-0.49427958746526202 -0.49999999999999512 0 -0.4943900888896422 -0.47349089190363358 0 -0.49427958746526202 -0.49999999999999512 0 -0.5 -0.5 0 -0.4943900888896422 -0.47349089190363358 0 -0.5 -0.5 0 -0.4943900888896422 -0.47349089190363358 0 -0.5 -0.44150235328842258 0 -0.49427958746526202 -0.49999999999999512 0 -0.4943900888896422 -0.47349089190363358 0 -0.48436842240857858 -0.48714093788813112 0 -0.49427958746526202 -0.49999999999999512 0 -0.47650045540741742 -0.5 0 -0.48436842240857858 -0.48714093788813112 0 -0.4943900888896422 -0.47349089190363358 0 -0.47066899942757451 -0.47576530412887819 0 -0.48436842240857858 -0.48714093788813112 0 -0.47066899942757451 -0.47576530412887819 0 -0.47650045540741742 -0.5 0 -0.48436842240857858 -0.48714093788813112 0 -0.47066899942757451 -0.47576530412887819 0 -0.45872132334957288 -0.49999999999999928 0 -0.45242967983978871 -0.4846708604340636 0 -0.47066899942757451 -0.47576530412887819 0 -0.47650045540741742 -0.5 0 -0.45872132334957288 -0.49999999999999928 0 -0.47066899942757451 -0.47576530412887819 0 -0.45872132334957288 -0.49999999999999928 0 -0.47066899942757451 -0.47576530412887819 0 -0.45242967983978871 -0.4846708604340636 0 -0.45249717469141032 -0.46588444847215849 0 -0.43763952177061649 -0.47770500498713542 0 -0.45242967983978871 -0.4846708604340636 0 -0.45249717469141032 -0.46588444847215849 0 -0.43763952177061649 -0.47770500498713542 0 -0.44291044788006362 -0.49999999999999939 0 -0.45242967983978871 -0.4846708604340636 0 -0.43763952177061649 -0.47770500498713542 0 -0.44291044788006362 -0.49999999999999939 0 -0.45872132334957288 -0.49999999999999928 0 -0.44291044788006362 -0.49999999999999939 0 -0.45242967983978871 -0.4846708604340636 0 -0.44838221886832419 -0.4464230337388379 0 -0.4323685956611692 -0.45541000997427139 0 -0.435988539966085 -0.44148905847597392 0 -0.44838221886832419 -0.4464230337388379 0 -0.44213238819953832 -0.43491600865963681 0 -0.435988539966085 -0.44148905847597392 0 -0.44838221886832419 -0.4464230337388379 0 -0.45249717469141032 -0.46588444847215849 0 -0.45755175660874181 -0.45423607616472811 0 -0.44838221886832419 -0.4464230337388379 0 -0.45249717469141032 -0.46588444847215849 0 -0.4323685956611692 -0.45541000997427139 0 -0.43763952177061649 -0.47770500498713542 0 -0.45249717469141032 -0.46588444847215849 0 -0.4323685956611692 -0.45541000997427139 0 -0.47066899942757451 -0.47576530412887819 0 -0.45249717469141032 -0.46588444847215849 0 -0.4675747862741928 -0.45726336772241771 0 -0.45249717469141032 -0.46588444847215849 0 -0.45755175660874181 -0.45423607616472811 0 -0.4675747862741928 -0.45726336772241771 0 -0.44838221886832419 -0.4464230337388379 0 -0.46897642374787268 -0.44262015471777721 0 -0.45660235518767722 -0.42786105997071933 0 -0.44838221886832419 -0.4464230337388379 0 -0.45755175660874181 -0.45423607616472811 0 -0.46897642374787268 -0.44262015471777721 0 -0.45755175660874181 -0.45423607616472811 0 -0.4675747862741928 -0.45726336772241771 0 -0.46897642374787268 -0.44262015471777721 0 -0.4943900888896422 -0.47349089190363358 0 -0.5 -0.44150235328842258 0 -0.49450059031402238 -0.44698178380727199 0 -0.46897642374787268 -0.44262015471777721 0 -0.48473746643246862 -0.43972512984246093 0 -0.48043585850414389 -0.43127077967876992 0 -0.46897642374787268 -0.44262015471777721 0 -0.4826166755055763 -0.45153060825775743 0 -0.48473746643246862 -0.43972512984246093 0 -0.4675747862741928 -0.45726336772241771 0 -0.46897642374787268 -0.44262015471777721 0 -0.4826166755055763 -0.45153060825775743 0 -0.47066899942757451 -0.47576530412887819 0 -0.4826166755055763 -0.45153060825775743 0 -0.4943900888896422 -0.47349089190363358 0 -0.47066899942757451 -0.47576530412887819 0 -0.4826166755055763 -0.45153060825775743 0 -0.47066899942757451 -0.47576530412887819 0 -0.4675747862741928 -0.45726336772241771 0 -0.4826166755055763 -0.45153060825775743 0 -0.4943900888896422 -0.47349089190363358 0 -0.49450059031402238 -0.44698178380727199 0 -0.4943900888896422 -0.47349089190363358 0 -0.4826166755055763 -0.45153060825775743 0 -0.49450059031402238 -0.44698178380727199 0 -0.4826166755055763 -0.45153060825775743 0 -0.48473746643246862 -0.43972512984246093 0 -0.49450059031402238 -0.44698178380727199 0 -0.5 -0.44150235328842258 0 -0.49461109173840262 -0.42047267571091063 0 -0.5 -0.39656953661894012 0 -0.49450059031402238 -0.44698178380727199 0 -0.49461109173840262 -0.42047267571091063 0 -0.48473746643246862 -0.43972512984246093 0 -0.49461109173840262 -0.42047267571091063 0 -0.48043585850414389 -0.43127077967876992 0 -0.5 -0.44150235328842258 0 -0.49450059031402238 -0.44698178380727199 0 -0.49461109173840262 -0.42047267571091063 0 -0.48473746643246862 -0.43972512984246093 0 -0.49450059031402238 -0.44698178380727199 0 -0.49461109173840262 -0.42047267571091063 0 -0.49461109173840262 -0.42047267571091063 0 -0.4947215931627828 -0.39396356761454909 0 -0.49461109173840262 -0.42047267571091063 0 -0.48393842445605872 -0.40713040098299402 0 -0.4947215931627828 -0.39396356761454909 0 -0.49461109173840262 -0.42047267571091063 0 -0.48393842445605872 -0.40713040098299402 0 -0.47214510592166908 -0.41939033492402211 0 -0.48393842445605872 -0.40713040098299402 0 -0.47214510592166908 -0.41939033492402211 0 -0.47427590700138023 -0.39469502568249409 0 -0.46897642374787268 -0.44262015471777721 0 -0.47214510592166908 -0.41939033492402211 0 -0.48043585850414389 -0.43127077967876992 0 -0.49461109173840262 -0.42047267571091063 0 -0.47214510592166908 -0.41939033492402211 0 -0.48043585850414389 -0.43127077967876992 0 -0.5 -0.39656953661894012 0 -0.4947215931627828 -0.39396356761454909 0 -0.48030453056746109 -0.36861144308094029 0 -0.49461109173840262 -0.42047267571091063 0 -0.5 -0.39656953661894012 0 -0.4947215931627828 -0.39396356761454909 0 -0.48393842445605872 -0.40713040098299402 0 -0.4947215931627828 -0.39396356761454909 0 -0.47427590700138023 -0.39469502568249409 0 -0.47427590700138023 -0.39469502568249409 0 -0.48030453056746109 -0.36861144308094029 0 -0.4947215931627828 -0.39396356761454909 0 -0.47427590700138023 -0.39469502568249409 0 -0.48030453056746109 -0.36861144308094029 0 -0.47427590700138023 -0.39469502568249409 0 -0.46334377193483078 -0.37842983215876019 0 -0.48030453056746109 -0.36861144308094029 0 -0.46334377193483078 -0.37842983215876019 0 -0.45726543839001688 -0.40541672899881109 0 -0.44416021803808919 -0.38243724496113263 0 -0.47427590700138023 -0.39469502568249409 0 -0.46334377193483078 -0.37842983215876019 0 -0.45726543839001688 -0.40541672899881109 0 -0.45726543839001688 -0.40541672899881109 0 -0.43814282409564848 -0.40387353522152758 0 -0.44416021803808919 -0.38243724496113263 0 -0.43814282409564848 -0.40387353522152758 0 -0.44416021803808919 -0.38243724496113263 0 -0.4329908326547659 -0.40007252460533121 0 -0.43814282409564848 -0.40387353522152758 0 -0.44416021803808919 -0.38243724496113263 0 -0.46897642374787268 -0.44262015471777721 0 -0.47214510592166908 -0.41939033492402211 0 -0.45660235518767722 -0.42786105997071933 0 -0.47214510592166908 -0.41939033492402211 0 -0.47427590700138023 -0.39469502568249409 0 -0.45726543839001688 -0.40541672899881109 0 -0.47214510592166908 -0.41939033492402211 0 -0.45726543839001688 -0.40541672899881109 0 -0.45660235518767722 -0.42786105997071933 0 -0.45726543839001688 -0.40541672899881109 0 -0.45660235518767722 -0.42786105997071933 0 -0.44309263043645408 -0.41812298423377797 0 -0.45726543839001688 -0.40541672899881109 0 -0.43814282409564848 -0.40387353522152758 0 -0.44309263043645408 -0.41812298423377797 0 -0.43814282409564848 -0.40387353522152758 0 -0.44309263043645408 -0.41812298423377797 0 -0.43209373842114163 -0.42530092927673752 0 -0.44838221886832419 -0.4464230337388379 0 -0.45660235518767722 -0.42786105997071933 0 -0.44213238819953832 -0.43491600865963681 0 -0.45660235518767722 -0.42786105997071933 0 -0.44213238819953832 -0.43491600865963681 0 -0.43132710435572019 -0.42815377149591122 0 -0.45660235518767722 -0.42786105997071933 0 -0.44309263043645408 -0.41812298423377797 0 -0.43132710435572019 -0.42815377149591122 0 -0.45660235518767722 -0.42786105997071933 0 -0.43132710435572019 -0.42815377149591122 0 -0.44213238819953832 -0.43491600865963681 0 -0.42986244815509678 -0.43337144475258638 0 -0.435988539966085 -0.44148905847597392 0 -0.44213238819953832 -0.43491600865963681 0 -0.42986244815509678 -0.43337144475258638 0 -0.43132710435572019 -0.42815377149591122 0 -0.42986244815509678 -0.43337144475258638 0 -0.43132710435572019 -0.42815377149591122 0 -0.42986244815509678 -0.43337144475258638 0 -0.42494843276815808 -0.42822764260015772 0 -0.42026026496879931 -0.43681168621285732 0 -0.42986244815509678 -0.43337144475258638 0 -0.42494843276815808 -0.42822764260015772 0 -0.43132710435572019 -0.42815377149591122 0 -0.42494843276815808 -0.42822764260015772 0 -0.43209373842114163 -0.42530092927673752 0 -0.42214799869492048 -0.41876725226122891 0 -0.42494843276815808 -0.42822764260015772 0 -0.43209373842114163 -0.42530092927673752 0 -0.42494843276815808 -0.42822764260015772 0 -0.43209373842114163 -0.42530092927673752 0 -0.43132710435572019 -0.42815377149591122 0 -0.42494843276815808 -0.42822764260015772 0 -0.43132710435572019 -0.42815377149591122 0 -0.44309263043645408 -0.41812298423377797 0 -0.43209373842114163 -0.42530092927673752 0 -0.43132710435572019 -0.42815377149591122 0 -0.43209373842114163 -0.42530092927673752 0 -0.43132710435572019 -0.42815377149591122 0 -0.43814282409564848 -0.40387353522152758 0 -0.43209373842114163 -0.42530092927673752 0 -0.43814282409564848 -0.40387353522152758 0 -0.43209373842114163 -0.42530092927673752 0 -0.42736227186559528 -0.41250939947999687 0 -0.43814282409564848 -0.40387353522152758 0 -0.42736227186559528 -0.41250939947999687 0 -0.42798743510346321 -0.40461924019690898 0
[...]
<PointData Scalars="" Vectors="displacement," Tensors="">
<DataArray type="Float64" Name="displacement" NumberOfComponents="3" format="ascii">
-0.014828255974794671 6.6210382658218971e-08 0 -0.014428282566724725 0.00012249115219578 0 -0.014830165880096976 1.9242695569560757e-07 0 -0.014998833630316134 -1.4027290443945324e-07 0 -0.014996653944656433 4.8401092305036931e-07 0 -0.014998833630316134 -1.4027290443945324e-07 0 -0.014996653944656433 4.8401092305036931e-07 0 -0.015000492688745036 1.2914821425715271e-07 0 -0.014827576636764202 7.2683541802950546e-07 0 -0.013874097867319496 0.00028836837371506497 0 -0.014291798858546513 -2.6165461913688571e-05 0 -0.014827576636764202 7.2683541802950546e-07 0 -0.014294675753670582 -4.2789343235122455e-07 0 -0.014291798858546513 -2.6165461913688571e-05 0 -0.013874097867319496 0.00028836837371506497 0 -0.01404111360474421 -0.00022481814109343254 0 -0.014291798858546513 -2.6165461913688571e-05 0 -0.01404111360474421 -0.00022481814109343254 0 -0.014294675753670582 -4.2789343235122455e-07 0 -0.014291798858546513 -2.6165461913688571e-05 0 -0.013116310112744486 0.00026946319205147006 0 -0.01375979400332677 7.2022743682654904e-07 0 -0.013326345991927096 7.7514203015923232e-06 0 -0.01404111360474421 -0.00022481814109343254 0 -0.014294675753670582 -4.2789343235122455e-07 0 -0.013762879123419463 7.4564235595652902e-08 0 -0.013566766358086685 1.6014533350040344e-05 0 -0.013761606232581965 -1.6582151106544858e-09 0 -0.013116310112744486 0.00026946319205147006 0 -0.013326345991927096 7.7514203015923232e-06 0 -0.013046243389081742 0.00015506300184554378 0 -0.013229522981988928 -5.4852735299145941e-05 0 -0.013326345991927096 7.7514203015923232e-06 0 -0.013046243389081742 0.00015506300184554378 0 -0.013229522981988928 -5.4852735299145941e-05 0 -0.013288930724411972 -5.6283081302551422e-07 0 -0.013326345991927096 7.7514203015923232e-06 0 -0.012865764067014975 -2.3129316662719726e-05 0 -0.013287158442237075 -4.0414613521989855e-09 0 -0.01375979400332677 7.2022743682654904e-07 0 -0.013288930724411972 -5.6283081302551422e-07 0 -0.013326345991927096 7.7514203015923232e-06 0 -0.012929215199328098 0.00021474204196385069 0 -0.01268104139504333 5.0088152664902088e-06 0 -0.012783388126833968 0.00012760343692022586 0 -0.012929215199328098 0.00021474204196385069 0 -0.012924406930270268 0.00022672087954123812 0 -0.012783388126833968 0.00012760343692022586 0 -0.012929215199328098 0.00021474204196385069 0 -0.013046243389081742 0.00015506300184554378 0 -0.013035234399695565 0.00020008100463683829 0 -0.012929215199328098 0.00021474204196385069 0 -0.013046243389081742 0.00015506300184554378 0 -0.01268104139504333 5.0088152664902088e-06 0 -0.013229522981988928 -5.4852735299145941e-05 0 -0.013046243389081742 0.00015506300184554378 0 -0.01268104139504333 5.0088152664902088e-06 0 -0.013116310112744486 0.00026946319205147006 0 -0.013046243389081742 0.00015506300184554378 0 -0.013109532124274348 0.00019832777695751914 0 -0.013046243389081742 0.00015506300184554378 0 -0.013035234399695565 0.00020008100463683829 0 -0.013109532124274348 0.00019832777695751914 0 -0.012929215199328098 0.00021474204196385069 0 -0.013168952131886017 0.00020666080775051963 0 -0.0132947861171809 0.00043757226429742412 0 -0.012929215199328098 0.00021474204196385069 0 -0.013035234399695565 0.00020008100463683829 0 -0.013168952131886017 0.00020666080775051963 0 -0.013035234399695565 0.00020008100463683829 0 -0.013109532124274348 0.00019832777695751914 0 -0.013168952131886017 0.00020666080775051963 0 -0.014996653944656433 4.8401092305036931e-07 0 -0.015000492688745036 1.2914821425715271e-07 0 -0.014998297321106576 7.5404656592988329e-07 0 -0.013168952131886017 0.00020666080775051963 0 -0.013304922768774005 3.5192096727169803e-05 0 -0.013460867014561614 6.1865165161673676e-05 0 -0.013168952131886017 0.00020666080775051963 0 -0.013233603306868652 2.5832622390179965e-05 0 -0.013304922768774005 3.5192096727169803e-05 0 -0.013109532124274348 0.00019832777695751914 0 -0.013168952131886017 0.00020666080775051963 0 -0.013233603306868652 2.5832622390179965e-05 0 -0.013566766358086685 1.6014533350040344e-05 0 -0.013264750501008591 4.1857631940830071e-05 0 -0.013874097867319496 0.00028836837371506497 0 -0.01404111360474421 -0.00022481814109343254 0 -0.013233603306868652 2.5832622390179965e-05 0 -0.013116310112744486 0.00026946319205147006 0 -0.013109532124274348 0.00019832777695751914 0 -0.013233603306868652 2.5832622390179965e-05 0 -0.014428282566724725 0.00012249115219578 0 -0.014135977980876195 2.4462270710122291e-05 0 -0.013874097867319496 0.00028836837371506497 0 -0.013233603306868652 2.5832622390179965e-05 0 -0.01320772509477007 5.9775619148647055e-05 0 -0.013233603306868652 2.5832622390179965e-05 0 -0.013304922768774005 3.5192096727169803e-05 0 -0.01320772509477007 5.9775619148647055e-05 0 -0.015000492688745036 1.2914821425715271e-07 0 -0.015002547626343968 -1.0188416716289414e-06 0 -0.014999145367550867 -3.8106748485413647e-07 0 -0.014135977980876195 2.4462270710122291e-05 0 -0.014387122685918814 -0.00011316710406921095 0 -0.013304922768774005 3.5192096727169803e-05 0 -0.013744083520910397 -0.00028257404951455918 0 -0.013460867014561614 6.1865165161673676e-05 0 -0.015000492688745036 1.2914821425715271e-07 0 -0.014998297321106576 7.5404656592988329e-07 0 -0.015002547626343968 -1.0188416716289414e-06 0 -0.013304922768774005 3.5192096727169803e-05 0 -0.01320772509477007 5.9775619148647055e-05 0 -0.013744083520910397 -0.00028257404951455918 0 -0.014387122685918814 -0.00011316710406921095 0 -0.014888229932685855 -5.8361254499776158e-05 0 -0.013744083520910397 -0.00028257404951455918 0 -0.014284937107311279 4.8902731255820186e-05 0 -0.014942196649940911 -3.2098668526724061e-05 0 -0.013744083520910397 -0.00028257404951455918 0 -0.014284937107311279 4.8902731255820186e-05 0 -0.013734631635350422 0.00022981378439882765 0 -0.014284937107311279 4.8902731255820186e-05 0 -0.013734631635350422 0.00022981378439882765 0 -0.014654330649822644 0.00021597756799934383 0 -0.013168952131886017 0.00020666080775051963 0 -0.013734631635350422 0.00022981378439882765 0 -0.013460867014561614 6.1865165161673676e-05 0 -0.013744083520910397 -0.00028257404951455918 0 -0.013734631635350422 0.00022981378439882765 0 -0.013460867014561614 6.1865165161673676e-05 0 -0.014999145367550867 -3.8106748485413647e-07 0 -0.014942196649940911 -3.2098668526724061e-05 0 -0.014981505747049253 1.8920468618297899e-05 0 -0.015002547626343968 -1.0188416716289414e-06 0 -0.014999145367550867 -3.8106748485413647e-07 0 -0.014942196649940911 -3.2098668526724061e-05 0 -0.014284937107311279 4.8902731255820186e-05 0 -0.014942196649940911 -3.2098668526724061e-05 0 -0.014654330649822644 0.00021597756799934383 0 -0.01464844502851833 0.00020650621190885715 0 -0.015156821819183758 5.2691411521302597e-05 0 -0.014942196649940911 -3.2098668526724061e-05 0 -0.014654330649822644 0.00021597756799934383 0 -0.014981505747049253 1.8920468618297899e-05 0 -0.014654330649822644 0.00021597756799934383 0 -0.015017401534716838 0.00048006735424035264 0 -0.015243275874679609 9.4076100804557137e-05 0 -0.015017401534716838 0.00048006735424035264 0 -0.01422027115696258 0.00061440789852099315 0 -0.014893780635269293 0.0010029388966898017 0 -0.014654330649822644 0.00021597756799934383 0 -0.015017401534716838 0.00048006735424035264 0 -0.01422027115696258 0.00061440789852099315 0 -0.01422027115696258 0.00061440789852099315 0 -0.014243213689726678 0.0012177422433816945 0 -0.014893780635269293 0.0010029388966898017 0 -0.011536263248453285 0.00036622870711968363 0 -0.012155582038792932 0.00013607924157037351 0 -0.01161268733123795 0.00046859982670318425 0 -0.012893459485019116 0.00080858464031623634 0 -0.013551472617602343 0.00057591659537876224 0 -0.013168952131886017 0.00020666080775051963 0 -0.013734631635350422 0.00022981378439882765 0 -0.0132947861171809 0.00043757226429742412 0 -0.013734631635350422 0.00022981378439882765 0 -0.014654330649822644 0.00021597756799934383 0 -0.01422027115696258 0.00061440789852099315 0 -0.013734631635350422 0.00022981378439882765 0 -0.01422027115696258 0.00061440789852099315 0 -0.0132947861171809 0.00043757226429742412 0 -0.01422027115696258 0.00061440789852099315 0 -0.0132947861171809 0.00043757226429742412 0 -0.013712328389941955 0.00104495538258941 0 -0.01422027115696258 0.00061440789852099315 0 -0.014243213689726678 0.0012177422433816945 0 -0.013712328389941955 0.00104495538258941 0 -0.014243213689726678 0.0012177422433816945 0 -0.013712328389941955 0.00104495538258941 0 -0.013414927331395961 0.0014963081903345921 0 -0.012929215199328098 0.00021474204196385069 0 -0.0132947861171809 0.00043757226429742412 0 -0.012924406930270268 0.00022672087954123812 0 -0.0132947861171809 0.00043757226429742412 0 -0.012924406930270268 0.00022672087954123812 0 -0.012677040646127418 0.00010389800886818566 0 -0.0132947861171809 0.00043757226429742412 0 -0.013712328389941955 0.00104495538258941 0 -0.013294849928868457 0.001530607427736659 0 -0.01330472281798265 0.00049231748978504242 0 -0.012669458794477147 0.00062687899748968014 0 -0.012924406930270268 0.00022672087954123812 0 -0.012686962996154676 8.0313337708920915e-05 0 -0.012783388126833968 0.00012760343692022586 0 -0.012924406930270268 0.00022672087954123812 0 -0.012686962996154676 8.0313337708920915e-05 0 -0.012677040646127418 0.00010389800886818566 0 -0.012733163540076838 0.0004770244950939057 0 -0.012669458794477147 0.00062687899748968014 0 -0.012686962996154676 8.0313337708920915e-05 0 -0.012619541755262387 4.0571208539333461e-05 0 -0.012551744554878515 2.450657120169117e-05 0 -0.012686962996154676 8.0313337708920915e-05 0 -0.012619541755262387 4.0571208539333461e-05 0 -0.012625753325592605 0.00010260424797137948 0 -0.011386170708369244 0.00050416468926627012 0 -0.011399857681598189 0.0004592999712640221 0 -0.011443550171660367 0.00052102518281010575 0 -0.012000395909327412 0.00033045522336692468 0 -0.012359414937941559 0.00075749554690938341 0 -0.012271538413801887 0.00049977429872997286 0 -0.012275177551654361 0.0004938986902650786 0 -0.012272482698023311 0.00049442954043719825 0 -0.012000395909327412 0.00033045522336692468 0 -0.012669458794477147 0.00062687899748968014 0 -0.013712328389941955 0.00104495538258941 0 -0.013414927331395961 0.0014963081903345921 0 -0.013294849928868457 0.001530607427736659 0 -0.012359414937941559 0.00075749554690938341 0 -0.012669458794477147 0.00062687899748968014 0 -0.012893459485019116 0.00080858464031623634 0 -0.012359414937941559 0.00075749554690938341 0 -0.011536263248453285 0.00036622870711968363 0 -0.011399857681598189 0.0004592999712640221 0 -0.011483536232508546 0.00048710546616188795 0 -0.011536263248453285 0.00036622870711968363 0 -0.011483536232508546 0.00048710546616188795 0 -0.011552173620566909 0.00049322697906939883 0 -0.011483536232508546 0.00048710546616188795 0 -0.011443550171660367 0.00052102518281010575 0 -0.011500666307707907 0.00055847922048975044 0 -0.011483536232508546 0.00048710546616188795 0 -0.011500666307707907 0.00055847922048975044 0 -0.011552173620566909 0.00049322697906939883 0 -0.011399857681598189 0.0004592999712640221 0 -0.011483536232508546 0.00048710546616188795 0 -0.011443550171660367 0.00052102518281010575 0 -0.011500666307707907 0.00055847922048975044 0 -0.011438641517066864 0.00057526224885249362 0 -0.011469800085323981 0.00064411746454715914 0 -0.011500666307707907 0.00055847922048975044 0 -0.011537904475738305 0.0006229374964894065 0 -0.011469800085323981 0.00064411746454715914 0 -0.011443550171660367 0.00052102518281010575 0 -0.011500666307707907 0.00055847922048975044 0 -0.011438641517066864 0.00057526224885249362 0 -0.012619541755262387 4.0571208539333461e-05 0 -0.012551744554878515 2.450657120169117e-05 0 -0.012362836295550191 8.8820650849615484e-06 0 -0.012000395909327412 0.00033045522336692468 0 -0.011825564416712711 2.3656017538187799e-05 0 -0.011265992484010584 0.00022594224085758642 0 -0.011283943429559748 0.00014653578680901455 0 -0.011252077972722568 0.00014024930517180214 0 -0.012000395909327412 0.00033045522336692468 0 -0.011259353305630637 0.00039914861141808098 0 -0.011386170708369244 0.00050416468926627012 0 -0.011438641517066864 0.00057526224885249362 0 -0.011391677591474683 0.00063871190356346681 0 -0.011386170708369244 0.00050416468926627012 0 -0.011443550171660367 0.00052102518281010575 0 -0.011438641517066864 0.00057526224885249362 0 -0.011638458000285882 0.00044124353637121233 0 -0.011930987434938789 0.00089881334571916883 0 -0.01161268733123795 0.00046859982670318425 0 -0.01161520907063821 0.00054735561626872097 0 -0.011658814217207814 0.00055114287373986607 0 -0.012169331100323484 0.00049036345055946382 0 -0.01161268733123795 0.00046859982670318425 0 -0.012329887708967214 0.00092040783974148266 0 -0.012155582038792932 0.00013607924157037351 0 -0.012169331100323484 0.00049036345055946382 0 -0.01161268733123795 0.00046859982670318425 0 -0.012169331100323484 0.00049036345055946382 0 -0.012329887708967214 0.00092040783974148266 0 -0.012588769502878738 0.00043574425918201294 0 -0.012155582038792932 0.00013607924157037351 0 -0.012169331100323484 0.00049036345055946382 0 -0.012588769502878738 0.00043574425918201294 0 -0.01161268733123795 0.00046859982670318425 0 -0.011568158623849027 0.0005297888963235758 0 -0.01161520907063821 0.00054735561626872097 0 -0.011536263248453285 0.00036622870711968363 0 -0.01161268733123795 0.00046859982670318425 0 -0.011552173620566909 0.00049322697906939883 0 -0.01161268733123795 0.00046859982670318425 0 -0.011552173620566909 0.00049322697906939883 0 -0.011568158623849027 0.0005297888963235758 0 -0.011500666307707907 0.00055847922048975044 0 -0.011552173620566909 0.00049322697906939883 0 -0.011568158623849027 0.0005297888963235758 0 -0.011580255436824761 0.00061157038738030489 0 -0.01161520907063821 0.00054735561626872097 0 -0.011627387680227173 0.00063847246581974417 0 -0.011500666307707907 0.00055847922048975044 0 -0.011568158623849027 0.0005297888963235758 0 -0.01156185549466374 0.00057368489845264061 0 -0.011500666307707907 0.00055847922048975044 0 -0.01156185549466374 0.00057368489845264061 0 -0.011537904475738305 0.0006229374964894065 0 -0.01156185549466374 0.00057368489845264061 0 -0.011580255436824761 0.00061157038738030489 0 -0.011537904475738305 0.0006229374964894065 0 -0.01156185549466374 0.00057368489845264061 0 -0.011580255436824761 0.00061157038738030489 0 -0.01161520907063821 0.00054735561626872097 0 -0.011568158623849027 0.0005297888963235758 0 -0.01156185549466374 0.00057368489845264061 0 -0.01161520907063821 0.00054735561626872097 0 -0.011626380735324755 0.00059551480736584497 0 -0.011120985523321712 0.00065350820254899496 0 -0.01161520907063821 0.00054735561626872097 0 -0.011643517776370236 0.00057764990036043319 0 -0.011625198321281902 0.00060913506759778188 0 -0.01161520907063821 0.00054735561626872097 0 -0.011644388080017828 0.00055829377992475181 0 -0.011658814217207814 0.00055114287373986607 0 -0.01161520907063821 0.00054735561626872097 0 -0.011643899089358267 0.00056916691114548259 0 -0.011644388080017828 0.00055829377992475181 0 -0.01161520907063821 0.00054735561626872097 0 -0.011643899089358267 0.00056916691114548259 0 -0.011643517776370236 0.00057764990036043319 0 -0.011278981108346372 0.00090479845162160703 0 -0.0110827879003181 0.00075999741441904291 0 -0.011643899089358267 0.00056916691114548259 0 -0.011650408809348221 0.00056469287346773563 0 -0.011643193792330062 0.00057799045627565746 0 -0.010543720205623724 0.00089914232797257013 0 -0.010557161317570223 0.00087093098630268916 0 -0.010446956395546393 0.00081153877100226637 0 -0.011116987158100633 0.00071882541849714848 0 -0.0110827879003181 0.00075999741441904291 0 -0.011278981108346372 0.00090479845162160703 0 -0.011930987434938789 0.00089881334571916883 0 -0.011650009968765525 0.0005645020589164488 0 -0.011644388080017828 0.00055829377992475181 0 -0.011658814217207814 0.00055114287373986607 0 -0.011643899089358267 0.00056916691114548259 0 -0.011650408809348221 0.00056469287346773563 0 -0.011644388080017828 0.00055829377992475181 0 -0.011278981108346372 0.00090479845162160703 0 -0.011310119629848341 0.00088323172307700837 0 -0.010627271098121456 0.00072235106154139826 0 -0.010620383670195514 0.00059913803544211369 0 -0.010653382090947237 0.00066487112762680597 0 -0.010599034129036292 0.00064448407558348789 0 -0.010602404514607998 0.00064767444533224286 0 -0.010603550939308957 0.00064126233277036603 0 -0.010557161317570223 0.00087093098630268916 0 -0.010553089301337 0.000736688384327784 0 -0.010446956395546393 0.00081153877100226637 0 -0.0110827879003181 0.00075999741441904291 0 -0.0099487748147906972 0.00062241176584191377 0 -0.0110827879003181 0.00075999741441904291 0 -0.011120985523321712 0.00065350820254899496 0 -0.0099487748147906972 0.00062241176584191377 0 -0.011120985523321712 0.00065350820254899496 0 -0.011627387680227173 0.00063847246581974417 0 -0.011561677228592171 0.00067491622867577429 0 -0.011557826702155834 0.00075661945475921535 0 -0.011120985523321712 0.00065350820254899496 0 -0.010543528967804746 0.00058270763390169905 0 -0.011580255436824761 0.00061157038738030489 0 -0.011561677228592171 0.00067491622867577429 0 -0.011537904475738305 0.0006229374964894065 0 -0.011580255436824761 0.00061157038738030489 0 -0.011627387680227173 0.00063847246581974417 0 -0.011561677228592171 0.00067491622867577429 0 -0.011561677228592171 0.00067491622867577429 0 -0.011537904475738305 0.0006229374964894065 0 -0.011519591988660526 0.00066533378122370524 0 -0.011537904475738305 0.0006229374964894065 0 -0.011519591988660526 0.00066533378122370524 0 -0.011469800085323981 0.00064411746454715914 0 -0.011519591988660526 0.00066533378122370524 0 -0.011530948250865928 0.00071930010778755262 0 -0.011483164010959019 0.00070130722449833819 0 -0.011561677228592171 0.00067491622867577429 0 -0.011519591988660526 0.00066533378122370524 0 -0.011530948250865928 0.00071930010778755262 0 -0.011465651815968687 0.00071622001150885208 0 -0.011466158443220461 0.00071563371967634307 0 -0.011483164010959019 0.00070130722449833819 0 -0.011466158443220461 0.00071563371967634307 0 -0.011459248006707291 0.00072013572810389283 0 -0.011483164010959019 0.00070130722449833819 0 -0.011530948250865928 0.00071930010778755262 0 -0.011545206065623351 0.00076614673075696524 0 -0.011483164010959019 0.00070130722449833819 0 -0.010500781352020424 0.00062321789269575458 0 -0.011539310868320522 0.00092377479872570833 0 -0.010500781352020424 0.00062321789269575458 0 -0.0094462874773032918 0.00028797612655241352 0 -0.011460538352542788 0.00071923094335451306 0 -0.011460742343162104 0.00071739842672534479 0 -0.011458751314039022 0.00072131971783083448 0 -0.011465651815968687 0.00071622001150885208 0 -0.011466158443220461 0.00071563371967634307 0 -0.011462536364646789 0.00071795468401510858 0 -0.011465651815968687 0.00071622001150885208 0 -0.01145953243324568 0.00071984527689482965 0 -0.011462536364646789 0.00071795468401510858 0 -0.01145953243324568 0.00071984527689482965 0 -0.011462536364646789 0.00071795468401510858 0 -0.011460538352542788 0.00071923094335451306 0 -0.011462536364646789 0.00071795468401510858 0 -0.011460538352542788 0.00071923094335451306 0 -0.01146097628401258 0.00071812835827897881 0 -0.011460538352542788 0.00071923094335451306 0 -0.01146097628401258 0.00071812835827897881 0 -0.011460742343162104 0.00071739842672534479 0 -0.0106329407478623 0.00057161308073166138 0 -0.010500781352020424 0.00062321789269575458 0 -0.011466158443220461 0.00071563371967634307 0 -0.01146097628401258 0.00071812835827897881 0 -0.011459248006707291 0.00072013572810389283 0 -0.011466158443220461 0.00071563371967634307 0 -0.011462536364646789 0.00071795468401510858 0 -0.01146097628401258 0.00071812835827897881 0 -0.0097621847089524802 0.00018448840312452111 0 -0.0098550190077765169 0.00028048359828514321 0 -0.0096922786775675614 0.00037761723296698084 0 -0.0095767692079546454 0.00044142769318133084 0 -0.0095556