<?xml version="1.0"?>
<VTKFile type="UnstructuredGrid" version="0.1" byte_order="LittleEndian">
<UnstructuredGrid>
<Piece NumberOfPoints="30618" NumberOfCells="10744">
<Points>
<DataArray type="Float64" NumberOfComponents="3" format="ascii">
-0.49427958746526202 -0.49999999999999512 0 -0.4943900888896422 -0.47349089190363358 0 -0.49427958746526202 -0.49999999999999512 0 -0.5 -0.5 0 -0.4943900888896422 -0.47349089190363358 0 -0.5 -0.5 0 -0.4943900888896422 -0.47349089190363358 0 -0.5 -0.44150235328842258 0 -0.49427958746526202 -0.49999999999999512 0 -0.4943900888896422 -0.47349089190363358 0 -0.48436842240857858 -0.48714093788813112 0 -0.49427958746526202 -0.49999999999999512 0 -0.47650045540741742 -0.5 0 -0.48436842240857858 -0.48714093788813112 0 -0.4943900888896422 -0.47349089190363358 0 -0.47066899942757451 -0.47576530412887819 0 -0.48436842240857858 -0.48714093788813112 0 -0.47066899942757451 -0.47576530412887819 0 -0.47650045540741742 -0.5 0 -0.48436842240857858 -0.48714093788813112 0 -0.47066899942757451 -0.47576530412887819 0 -0.45872132334957288 -0.49999999999999928 0 -0.45242967983978871 -0.4846708604340636 0 -0.47066899942757451 -0.47576530412887819 0 -0.47650045540741742 -0.5 0 -0.45872132334957288 -0.49999999999999928 0 -0.47066899942757451 -0.47576530412887819 0 -0.45872132334957288 -0.49999999999999928 0 -0.47066899942757451 -0.47576530412887819 0 -0.45242967983978871 -0.4846708604340636 0 -0.45249717469141032 -0.46588444847215849 0 -0.43763952177061649 -0.47770500498713542 0 -0.45242967983978871 -0.4846708604340636 0 -0.45249717469141032 -0.46588444847215849 0 -0.43763952177061649 -0.47770500498713542 0 -0.44291044788006362 -0.49999999999999939 0 -0.45242967983978871 -0.4846708604340636 0 -0.43763952177061649 -0.47770500498713542 0 -0.44291044788006362 -0.49999999999999939 0 -0.45872132334957288 -0.49999999999999928 0 -0.44291044788006362 -0.49999999999999939 0 -0.45242967983978871 -0.4846708604340636 0 -0.44838221886832419 -0.4464230337388379 0 -0.4323685956611692 -0.45541000997427139 0 -0.435988539966085 -0.44148905847597392 0 -0.44838221886832419 -0.4464230337388379 0 -0.44213238819953832 -0.43491600865963681 0 -0.435988539966085 -0.44148905847597392 0 -0.44838221886832419 -0.4464230337388379 0 -0.45249717469141032 -0.46588444847215849 0 -0.45755175660874181 -0.45423607616472811 0 -0.44838221886832419 -0.4464230337388379 0 -0.45249717469141032 -0.46588444847215849 0 -0.4323685956611692 -0.45541000997427139 0 -0.43763952177061649 -0.47770500498713542 0 -0.45249717469141032 -0.46588444847215849 0 -0.4323685956611692 -0.45541000997427139 0 -0.47066899942757451 -0.47576530412887819 0 -0.45249717469141032 -0.46588444847215849 0 -0.4675747862741928 -0.45726336772241771 0 -0.45249717469141032 -0.46588444847215849 0 -0.45755175660874181 -0.45423607616472811 0 -0.4675747862741928 -0.45726336772241771 0 -0.44838221886832419 -0.4464230337388379 0 -0.46897642374787268 -0.44262015471777721 0 -0.45660235518767722 -0.42786105997071933 0 -0.44838221886832419 -0.4464230337388379 0 -0.45755175660874181 -0.45423607616472811 0 -0.46897642374787268 -0.44262015471777721 0 -0.45755175660874181 -0.45423607616472811 0 -0.4675747862741928 -0.45726336772241771 0 -0.46897642374787268 -0.44262015471777721 0 -0.4943900888896422 -0.47349089190363358 0 -0.5 -0.44150235328842258 0 -0.49450059031402238 -0.44698178380727199 0 -0.46897642374787268 -0.44262015471777721 0 -0.48473746643246862 -0.43972512984246093 0 -0.48043585850414389 -0.43127077967876992 0 -0.46897642374787268 -0.44262015471777721 0 -0.4826166755055763 -0.45153060825775743 0 -0.48473746643246862 -0.43972512984246093 0 -0.4675747862741928 -0.45726336772241771 0 -0.46897642374787268 -0.44262015471777721 0 -0.4826166755055763 -0.45153060825775743 0 -0.47066899942757451 -0.47576530412887819 0 -0.4826166755055763 -0.45153060825775743 0 -0.4943900888896422 -0.47349089190363358 0 -0.47066899942757451 -0.47576530412887819 0 -0.4826166755055763 -0.45153060825775743 0 -0.47066899942757451 -0.47576530412887819 0 -0.4675747862741928 -0.45726336772241771 0 -0.4826166755055763 -0.45153060825775743 0 -0.4943900888896422 -0.47349089190363358 0 -0.49450059031402238 -0.44698178380727199 0 -0.4943900888896422 -0.47349089190363358 0 -0.4826166755055763 -0.45153060825775743 0 -0.49450059031402238 -0.44698178380727199 0 -0.4826166755055763 -0.45153060825775743 0 -0.48473746643246862 -0.43972512984246093 0 -0.49450059031402238 -0.44698178380727199 0 -0.5 -0.44150235328842258 0 -0.49461109173840262 -0.42047267571091063 0 -0.5 -0.39656953661894012 0 -0.49450059031402238 -0.44698178380727199 0 -0.49461109173840262 -0.42047267571091063 0 -0.48473746643246862 -0.43972512984246093 0 -0.49461109173840262 -0.42047267571091063 0 -0.48043585850414389 -0.43127077967876992 0 -0.5 -0.44150235328842258 0 -0.49450059031402238 -0.44698178380727199 0 -0.49461109173840262 -0.42047267571091063 0 -0.48473746643246862 -0.43972512984246093 0 -0.49450059031402238 -0.44698178380727199 0 -0.49461109173840262 -0.42047267571091063 0 -0.49461109173840262 -0.42047267571091063 0 -0.4947215931627828 -0.39396356761454909 0 -0.49461109173840262 -0.42047267571091063 0 -0.48393842445605872 -0.40713040098299402 0 -0.4947215931627828 -0.39396356761454909 0 -0.49461109173840262 -0.42047267571091063 0 -0.48393842445605872 -0.40713040098299402 0 -0.47214510592166908 -0.41939033492402211 0 -0.48393842445605872 -0.40713040098299402 0 -0.47214510592166908 -0.41939033492402211 0 -0.47427590700138023 -0.39469502568249409 0 -0.46897642374787268 -0.44262015471777721 0 -0.47214510592166908 -0.41939033492402211 0 -0.48043585850414389 -0.43127077967876992 0 -0.49461109173840262 -0.42047267571091063 0 -0.47214510592166908 -0.41939033492402211 0 -0.48043585850414389 -0.43127077967876992 0 -0.5 -0.39656953661894012 0 -0.4947215931627828 -0.39396356761454909 0 -0.48030453056746109 -0.36861144308094029 0 -0.49461109173840262 -0.42047267571091063 0 -0.5 -0.39656953661894012 0 -0.4947215931627828 -0.39396356761454909 0 -0.48393842445605872 -0.40713040098299402 0 -0.4947215931627828 -0.39396356761454909 0 -0.47427590700138023 -0.39469502568249409 0 -0.47427590700138023 -0.39469502568249409 0 -0.48030453056746109 -0.36861144308094029 0 -0.4947215931627828 -0.39396356761454909 0 -0.47427590700138023 -0.39469502568249409 0 -0.48030453056746109 -0.36861144308094029 0 -0.47427590700138023 -0.39469502568249409 0 -0.46334377193483078 -0.37842983215876019 0 -0.48030453056746109 -0.36861144308094029 0 -0.46334377193483078 -0.37842983215876019 0 -0.45726543839001688 -0.40541672899881109 0 -0.44416021803808919 -0.38243724496113263 0 -0.47427590700138023 -0.39469502568249409 0 -0.46334377193483078 -0.37842983215876019 0 -0.45726543839001688 -0.40541672899881109 0 -0.45726543839001688 -0.40541672899881109 0 -0.43814282409564848 -0.40387353522152758 0 -0.44416021803808919 -0.38243724496113263 0 -0.43814282409564848 -0.40387353522152758 0 -0.44416021803808919 -0.38243724496113263 0 -0.4329908326547659 -0.40007252460533121 0 -0.43814282409564848 -0.40387353522152758 0 -0.44416021803808919 -0.38243724496113263 0 -0.46897642374787268 -0.44262015471777721 0 -0.47214510592166908 -0.41939033492402211 0 -0.45660235518767722 -0.42786105997071933 0 -0.47214510592166908 -0.41939033492402211 0 -0.47427590700138023 -0.39469502568249409 0 -0.45726543839001688 -0.40541672899881109 0 -0.47214510592166908 -0.41939033492402211 0 -0.45726543839001688 -0.40541672899881109 0 -0.45660235518767722 -0.42786105997071933 0 -0.45726543839001688 -0.40541672899881109 0 -0.45660235518767722 -0.42786105997071933 0 -0.44309263043645408 -0.41812298423377797 0 -0.45726543839001688 -0.40541672899881109 0 -0.43814282409564848 -0.40387353522152758 0 -0.44309263043645408 -0.41812298423377797 0 -0.43814282409564848 -0.40387353522152758 0 -0.44309263043645408 -0.41812298423377797 0 -0.43209373842114163 -0.42530092927673752 0 -0.44838221886832419 -0.4464230337388379 0 -0.45660235518767722 -0.42786105997071933 0 -0.44213238819953832 -0.43491600865963681 0 -0.45660235518767722 -0.42786105997071933 0 -0.44213238819953832 -0.43491600865963681 0 -0.43132710435572019 -0.42815377149591122 0 -0.45660235518767722 -0.42786105997071933 0 -0.44309263043645408 -0.41812298423377797 0 -0.43132710435572019 -0.42815377149591122 0 -0.45660235518767722 -0.42786105997071933 0 -0.43132710435572019 -0.42815377149591122 0 -0.44213238819953832 -0.43491600865963681 0 -0.42986244815509678 -0.43337144475258638 0 -0.435988539966085 -0.44148905847597392 0 -0.44213238819953832 -0.43491600865963681 0 -0.42986244815509678 -0.43337144475258638 0 -0.43132710435572019 -0.42815377149591122 0 -0.42986244815509678 -0.43337144475258638 0 -0.43132710435572019 -0.42815377149591122 0 -0.42986244815509678 -0.43337144475258638 0 -0.42494843276815808 -0.42822764260015772 0 -0.42026026496879931 -0.43681168621285732 0 -0.42986244815509678 -0.43337144475258638 0 -0.42494843276815808 -0.42822764260015772 0 -0.43132710435572019 -0.42815377149591122 0 -0.42494843276815808 -0.42822764260015772 0 -0.43209373842114163 -0.42530092927673752 0 -0.42214799869492048 -0.41876725226122891 0 -0.42494843276815808 -0.42822764260015772 0 -0.43209373842114163 -0.42530092927673752 0 -0.42494843276815808 -0.42822764260015772 0 -0.43209373842114163 -0.42530092927673752 0 -0.43132710435572019 -0.42815377149591122 0 -0.42494843276815808 -0.42822764260015772 0 -0.43132710435572019 -0.42815377149591122 0 -0.44309263043645408 -0.41812298423377797 0 -0.43209373842114163 -0.42530092927673752 0 -0.43132710435572019 -0.42815377149591122 0 -0.43209373842114163 -0.42530092927673752 0 -0.43132710435572019 -0.42815377149591122 0 -0.43814282409564848 -0.40387353522152758 0 -0.43209373842114163 -0.42530092927673752 0 -0.43814282409564848 -0.40387353522152758 0 -0.43209373842114163 -0.42530092927673752 0 -0.42736227186559528 -0.41250939947999687 0 -0.43814282409564848 -0.40387353522152758 0 -0.42736227186559528 -0.41250939947999687 0 -0.42798743510346321 -0.40461924019690898 0
[...]
<PointData Scalars="" Vectors="displacement," Tensors="">
<DataArray type="Float64" Name="displacement" NumberOfComponents="3" format="ascii">
-5.9199987064608887e-08 -0.014999764449421858 0 -4.2075134213277759e-05 -0.014363307077602179 0 9.7658091514121565e-11 -0.014999767768342514 0 -3.9574689666874344e-10 -0.014999962847951784 0 -9.8179679443602917e-08 -0.014206256691637803 0 -3.9574689666874344e-10 -0.014999962847951784 0 -9.8179679443602917e-08 -0.014206256691637803 0 -2.5669380174632212e-09 -0.013244949122730418 0 -4.05930102031367e-08 -0.014999790527961214 0 -5.0104011190341155e-05 -0.014530017274655995 0 -3.1416453021570126e-05 -0.014800209175053912 0 -4.05930102031367e-08 -0.014999790527961214 0 -4.771180489147911e-08 -0.014999663082210134 0 -3.1416453021570126e-05 -0.014800209175053912 0 -5.0104011190341155e-05 -0.014530017274655995 0 -3.8920909161439879e-05 -0.014703000727998908 0 -3.1416453021570126e-05 -0.014800209175053912 0 -3.8920909161439879e-05 -0.014703000727998908 0 -4.771180489147911e-08 -0.014999663082210134 0 -3.1416453021570126e-05 -0.014800209175053912 0 -0.00019879231369373859 -0.014402466235968428 0 -2.7842269144547384e-07 -0.014999631422722707 0 -0.0001325498525976759 -0.014721637451156505 0 -3.8920909161439879e-05 -0.014703000727998908 0 -4.771180489147911e-08 -0.014999663082210134 0 1.6359149290567624e-08 -0.015000031198030707 0 -0.00011402598775471952 -0.014537203595316593 0 3.3806649382356497e-09 -0.014999818061027155 0 -0.00019879231369373859 -0.014402466235968428 0 -0.0001325498525976759 -0.014721637451156505 0 -0.00019382487619194126 -0.014437546946290304 0 -0.00019556237314801285 -0.01460995799754977 0 -0.0001325498525976759 -0.014721637451156505 0 -0.00019382487619194126 -0.014437546946290304 0 -0.00019556237314801285 -0.01460995799754977 0 -5.4432485542229135e-09 -0.014999473452761451 0 -0.0001325498525976759 -0.014721637451156505 0 -0.00013209525934959916 -0.014762294434365095 0 -8.0296841973197922e-08 -0.014999884485256654 0 -2.7842269144547384e-07 -0.014999631422722707 0 -5.4432485542229135e-09 -0.014999473452761451 0 -0.0001325498525976759 -0.014721637451156505 0 -0.00011278198076873339 -0.014264129300612612 0 -0.00012985367071300784 -0.01463266677705626 0 -3.4017761757062115e-05 -0.014474688251642128 0 -0.00011278198076873339 -0.014264129300612612 0 8.5941609861737048e-06 -0.014281052799094947 0 -3.4017761757062115e-05 -0.014474688251642128 0 -0.00011278198076873339 -0.014264129300612612 0 -0.00019382487619194126 -0.014437546946290304 0 -0.00015576976319176753 -0.014230292366843972 0 -0.00011278198076873339 -0.014264129300612612 0 -0.00019382487619194126 -0.014437546946290304 0 -0.00012985367071300784 -0.01463266677705626 0 -0.00019556237314801285 -0.01460995799754977 0 -0.00019382487619194126 -0.014437546946290304 0 -0.00012985367071300784 -0.01463266677705626 0 -0.00019879231369373859 -0.014402466235968428 0 -0.00019382487619194126 -0.014437546946290304 0 -0.00015654994949448141 -0.014169178557333491 0 -0.00019382487619194126 -0.014437546946290304 0 -0.00015576976319176753 -0.014230292366843972 0 -0.00015654994949448141 -0.014169178557333491 0 -0.00011278198076873339 -0.014264129300612612 0 -0.00013970385681173295 -0.013889373262857135 0 -4.1116688515430776e-05 -0.013779409009433179 0 -0.00011278198076873339 -0.014264129300612612 0 -0.00015576976319176753 -0.014230292366843972 0 -0.00013970385681173295 -0.013889373262857135 0 -0.00015576976319176753 -0.014230292366843972 0 -0.00015654994949448141 -0.014169178557333491 0 -0.00013970385681173295 -0.013889373262857135 0 -9.8179679443602917e-08 -0.014206256691637803 0 -2.5669380174632212e-09 -0.013244949122730418 0 4.0747590439254573e-07 -0.013410609522170205 0 -0.00013970385681173295 -0.013889373262857135 0 -0.00016335208087174901 -0.013752476885267206 0 -0.00016400030241770858 -0.013568287356289425 0 -0.00013970385681173295 -0.013889373262857135 0 -0.00013056934106178776 -0.014031935225431409 0 -0.00016335208087174901 -0.013752476885267206 0 -0.00015654994949448141 -0.014169178557333491 0 -0.00013970385681173295 -0.013889373262857135 0 -0.00013056934106178776 -0.014031935225431409 0 -0.00011402598775471952 -0.014537203595316593 0 -0.00012776011321227829 -0.014123512746476696 0 -5.0104011190341155e-05 -0.014530017274655995 0 -3.8920909161439879e-05 -0.014703000727998908 0 -0.00013056934106178776 -0.014031935225431409 0 -0.00019879231369373859 -0.014402466235968428 0 -0.00015654994949448141 -0.014169178557333491 0 -0.00013056934106178776 -0.014031935225431409 0 -4.2075134213277759e-05 -0.014363307077602179 0 -8.1158519178191837e-05 -0.013669741316504329 0 -5.0104011190341155e-05 -0.014530017274655995 0 -0.00013056934106178776 -0.014031935225431409 0 -0.00014995141923120715 -0.013938333264595128 0 -0.00013056934106178776 -0.014031935225431409 0 -0.00016335208087174901 -0.013752476885267206 0 -0.00014995141923120715 -0.013938333264595128 0 -2.5669380174632212e-09 -0.013244949122730418 0 -8.6018689138811692e-06 -0.012615547155365565 0 -1.1752465882782661e-07 -0.011897659727196955 0 -8.1158519178191837e-05 -0.013669741316504329 0 -7.9393971519361084e-05 -0.012852815633286326 0 -0.00016335208087174901 -0.013752476885267206 0 -0.0001848501568786428 -0.013147552369325952 0 -0.00016400030241770858 -0.013568287356289425 0 -2.5669380174632212e-09 -0.013244949122730418 0 4.0747590439254573e-07 -0.013410609522170205 0 -8.6018689138811692e-06 -0.012615547155365565 0 -0.00016335208087174901 -0.013752476885267206 0 -0.00014995141923120715 -0.013938333264595128 0 -0.0001848501568786428 -0.013147552369325952 0 -7.9393971519361084e-05 -0.012852815633286326 0 3.1838272977042692e-05 -0.012143651466996808 0 -0.0001848501568786428 -0.013147552369325952 0 -9.8004896751978751e-05 -0.012818861254227383 0 8.3909714447953275e-06 -0.011978147075404266 0 -0.0001848501568786428 -0.013147552369325952 0 -9.8004896751978751e-05 -0.012818861254227383 0 -0.00013381338492274381 -0.013377203536690705 0 -9.8004896751978751e-05 -0.012818861254227383 0 -0.00013381338492274381 -0.013377203536690705 0 8.4029359973242896e-05 -0.012760207840266484 0 -0.00013970385681173295 -0.013889373262857135 0 -0.00013381338492274381 -0.013377203536690705 0 -0.00016400030241770858 -0.013568287356289425 0 -0.0001848501568786428 -0.013147552369325952 0 -0.00013381338492274381 -0.013377203536690705 0 -0.00016400030241770858 -0.013568287356289425 0 -1.1752465882782661e-07 -0.011897659727196955 0 8.3909714447953275e-06 -0.011978147075404266 0 9.7455161234566125e-05 -0.011545893895305123 0 -8.6018689138811692e-06 -0.012615547155365565 0 -1.1752465882782661e-07 -0.011897659727196955 0 8.3909714447953275e-06 -0.011978147075404266 0 -9.8004896751978751e-05 -0.012818861254227383 0 8.3909714447953275e-06 -0.011978147075404266 0 8.4029359973242896e-05 -0.012760207840266484 0 3.5339270009911492e-05 -0.012628996600990572 0 0.00042707455963387922 -0.012233984978941381 0 8.3909714447953275e-06 -0.011978147075404266 0 8.4029359973242896e-05 -0.012760207840266484 0 9.7455161234566125e-05 -0.011545893895305123 0 8.4029359973242896e-05 -0.012760207840266484 0 0.00056542999251527179 -0.013106806398744975 0 0.00084463728649469046 -0.012586785545154165 0 0.00056542999251527179 -0.013106806398744975 0 -3.6947377400649445e-05 -0.013427715721176486 0 0.00045334736841494704 -0.013612972986143114 0 8.4029359973242896e-05 -0.012760207840266484 0 0.00056542999251527179 -0.013106806398744975 0 -3.6947377400649445e-05 -0.013427715721176486 0 -3.6947377400649445e-05 -0.013427715721176486 0 1.653498920979637e-05 -0.013718310711299571 0 0.00045334736841494704 -0.013612972986143114 0 -0.00035808328062861711 -0.011899282097246017 0 -4.7706296540398865e-05 -0.011794274642881767 0 -0.00029897415824950554 -0.011976568584864285 0 -0.00020423823366589743 -0.012748455915177037 0 0.00022920251694063897 -0.012867100319237674 0 -0.00013970385681173295 -0.013889373262857135 0 -0.00013381338492274381 -0.013377203536690705 0 -4.1116688515430776e-05 -0.013779409009433179 0 -0.00013381338492274381 -0.013377203536690705 0 8.4029359973242896e-05 -0.012760207840266484 0 -3.6947377400649445e-05 -0.013427715721176486 0 -0.00013381338492274381 -0.013377203536690705 0 -3.6947377400649445e-05 -0.013427715721176486 0 -4.1116688515430776e-05 -0.013779409009433179 0 -3.6947377400649445e-05 -0.013427715721176486 0 -4.1116688515430776e-05 -0.013779409009433179 0 -7.3610059472722789e-05 -0.013674026455305755 0 -3.6947377400649445e-05 -0.013427715721176486 0 1.653498920979637e-05 -0.013718310711299571 0 -7.3610059472722789e-05 -0.013674026455305755 0 1.653498920979637e-05 -0.013718310711299571 0 -7.3610059472722789e-05 -0.013674026455305755 0 -7.3436725728396655e-05 -0.013661902274864839 0 -0.00011278198076873339 -0.014264129300612612 0 -4.1116688515430776e-05 -0.013779409009433179 0 8.5941609861737048e-06 -0.014281052799094947 0 -4.1116688515430776e-05 -0.013779409009433179 0 8.5941609861737048e-06 -0.014281052799094947 0 0.00026038813599504472 -0.014584999555119781 0 -4.1116688515430776e-05 -0.013779409009433179 0 -7.3610059472722789e-05 -0.013674026455305755 0 -6.6768886827892868e-05 -0.013655672685444787 0 1.0874415495193958e-05 -0.013916823737176707 0 -2.4423989500633587e-05 -0.013892649772600192 0 8.5941609861737048e-06 -0.014281052799094947 0 0.00010964793157187245 -0.014612112382670643 0 -3.4017761757062115e-05 -0.014474688251642128 0 8.5941609861737048e-06 -0.014281052799094947 0 0.00010964793157187245 -0.014612112382670643 0 0.00026038813599504472 -0.014584999555119781 0 7.8911264675232564e-06 -0.014070114188455151 0 -2.4423989500633587e-05 -0.013892649772600192 0 0.00010964793157187245 -0.014612112382670643 0 0.00016693172228871979 -0.014677924602419059 0 6.8486837391492812e-05 -0.014733247671243956 0 0.00010964793157187245 -0.014612112382670643 0 0.00016693172228871979 -0.014677924602419059 0 0.00017192668362075219 -0.01459380725530348 0 -0.00076956884377506901 -0.012130947921905093 0 -0.0007196203485515274 -0.01201032414360597 0 -0.00061222241752556918 -0.012172803275455292 0 -9.0987594082481019e-05 -0.013668202949617458 0 -6.7047217180302453e-05 -0.013442414468831694 0 -0.00015663211776266624 -0.013675564672726731 0 -0.00013706681535113435 -0.013628932027651953 0 -0.00015575893319680565 -0.013634112948864976 0 -9.0987594082481019e-05 -0.013668202949617458 0 -2.4423989500633587e-05 -0.013892649772600192 0 -7.3610059472722789e-05 -0.013674026455305755 0 -7.3436725728396655e-05 -0.013661902274864839 0 -6.6768886827892868e-05 -0.013655672685444787 0 -6.7047217180302453e-05 -0.013442414468831694 0 -2.4423989500633587e-05 -0.013892649772600192 0 -0.00020423823366589743 -0.012748455915177037 0 -6.7047217180302453e-05 -0.013442414468831694 0 -0.00035808328062861711 -0.011899282097246017 0 -0.0007196203485515274 -0.01201032414360597 0 -0.00050600430835529865 -0.012081304467082526 0 -0.00035808328062861711 -0.011899282097246017 0 -0.00050600430835529865 -0.012081304467082526 0 -0.00037486365068398512 -0.012064537853457197 0 -0.00050600430835529865 -0.012081304467082526 0 -0.00061222241752556918 -0.012172803275455292 0 -0.00046633668014722275 -0.012263708581237064 0 -0.00050600430835529865 -0.012081304467082526 0 -0.00046633668014722275 -0.012263708581237064 0 -0.00037486365068398512 -0.012064537853457197 0 -0.0007196203485515274 -0.01201032414360597 0 -0.00050600430835529865 -0.012081304467082526 0 -0.00061222241752556918 -0.012172803275455292 0 -0.00046633668014722275 -0.012263708581237064 0 -0.00062944367286090028 -0.01232431090644171 0 -0.00051457844621772793 -0.012536496878367555 0 -0.00046633668014722275 -0.012263708581237064 0 -0.00033144352231195487 -0.012467453683841095 0 -0.00051457844621772793 -0.012536496878367555 0 -0.00061222241752556918 -0.012172803275455292 0 -0.00046633668014722275 -0.012263708581237064 0 -0.00062944367286090028 -0.01232431090644171 0 0.00016693172228871979 -0.014677924602419059 0 6.8486837391492812e-05 -0.014733247671243956 0 5.2086851604675629e-05 -0.014891154258092669 0 -9.0987594082481019e-05 -0.013668202949617458 0 4.0998649108303711e-05 -0.014805601121285273 0 0.00016480265477108736 -0.014124419403826513 0 3.4289310687914336e-05 -0.014475193896799767 0 0.00015920759797187394 -0.014503248164470827 0 -9.0987594082481019e-05 -0.013668202949617458 0 -0.00033098551860392456 -0.013390645717251173 0 -0.00076956884377506901 -0.012130947921905093 0 -0.00062944367286090028 -0.01232431090644171 0 -0.00078142587610894015 -0.012522033091807754 0 -0.00076956884377506901 -0.012130947921905093 0 -0.00061222241752556918 -0.012172803275455292 0 -0.00062944367286090028 -0.01232431090644171 0 -9.6734893288780378e-06 -0.012398874877512319 0 -0.00040359925178774255 -0.010873381749169509 0 -0.00029897415824950554 -0.011976568584864285 0 -0.00015502578608545504 -0.012223038849045072 0 6.1324997636675105e-05 -0.012199020194131103 0 -4.378872286246129e-05 -0.011958264880204338 0 -0.00029897415824950554 -0.011976568584864285 0 2.7565140984537187e-05 -0.012136840411949953 0 -4.7706296540398865e-05 -0.011794274642881767 0 -4.378872286246129e-05 -0.011958264880204338 0 -0.00029897415824950554 -0.011976568584864285 0 -4.378872286246129e-05 -0.011958264880204338 0 2.7565140984537187e-05 -0.012136840411949953 0 0.00014351051060298249 -0.011922468522694631 0 -4.7706296540398865e-05 -0.011794274642881767 0 -4.378872286246129e-05 -0.011958264880204338 0 0.00014351051060298249 -0.011922468522694631 0 -0.00029897415824950554 -0.011976568584864285 0 -0.0003198732232725609 -0.012168158969913282 0 -0.00015502578608545504 -0.012223038849045072 0 -0.00035808328062861711 -0.011899282097246017 0 -0.00029897415824950554 -0.011976568584864285 0 -0.00037486365068398512 -0.012064537853457197 0 -0.00029897415824950554 -0.011976568584864285 0 -0.00037486365068398512 -0.012064537853457197 0 -0.0003198732232725609 -0.012168158969913282 0 -0.00046633668014722275 -0.012263708581237064 0 -0.00037486365068398512 -0.012064537853457197 0 -0.0003198732232725609 -0.012168158969913282 0 -0.0002180014613168994 -0.012431410298648051 0 -0.00015502578608545504 -0.012223038849045072 0 -5.6535387179848004e-05 -0.012518868477610556 0 -0.00046633668014722275 -0.012263708581237064 0 -0.0003198732232725609 -0.012168158969913282 0 -0.00029822459948168888 -0.012310331021646276 0 -0.00046633668014722275 -0.012263708581237064 0 -0.00029822459948168888 -0.012310331021646276 0 -0.00033144352231195487 -0.012467453683841095 0 -0.00029822459948168888 -0.012310331021646276 0 -0.0002180014613168994 -0.012431410298648051 0 -0.00033144352231195487 -0.012467453683841095 0 -0.00029822459948168888 -0.012310331021646276 0 -0.0002180014613168994 -0.012431410298648051 0 -0.00015502578608545504 -0.012223038849045072 0 -0.0003198732232725609 -0.012168158969913282 0 -0.00029822459948168888 -0.012310331021646276 0 -0.00015502578608545504 -0.012223038849045072 0 -0.00010498280251338381 -0.012374625398323869 0 -0.00035055815078617039 -0.012166441399524499 0 -0.00015502578608545504 -0.012223038849045072 0 -1.3843324043810786e-05 -0.012327332163297261 0 -7.7183535004368033e-05 -0.01244758715044573 0 -0.00015502578608545504 -0.012223038849045072 0 -1.0577140141355657e-05 -0.012245620253469446 0 6.1324997636675105e-05 -0.012199020194131103 0 -0.00015502578608545504 -0.012223038849045072 0 -1.2385824082478746e-05 -0.012291754582054556 0 -1.0577140141355657e-05 -0.012245620253469446 0 -0.00015502578608545504 -0.012223038849045072 0 -1.2385824082478746e-05 -0.012291754582054556 0 -1.3843324043810786e-05 -0.012327332163297261 0 -0.00046017502090996712 -0.011387500652444335 0 -0.00047588568961494653 -0.01174880004844671 0 -1.2385824082478746e-05 -0.012291754582054556 0 1.4478394850762512e-05 -0.012272208942906732 0 -1.4073821119211298e-05 -0.012323735763396371 0 -0.00082300702431001044 -0.011298380988019196 0 -0.00079220651520862191 -0.01123738657725915 0 -0.0010280641011626982 -0.011103280029937527 0 -0.0004483617133644794 -0.011868238637338649 0 -0.00047588568961494653 -0.01174880004844671 0 -0.00046017502090996712 -0.011387500652444335 0 -0.00040359925178774255 -0.010873381749169509 0 1.9477416426752375e-05 -0.012272943497024293 0 -1.0577140141355657e-05 -0.012245620253469446 0 6.1324997636675105e-05 -0.012199020194131103 0 -1.2385824082478746e-05 -0.012291754582054556 0 1.4478394850762512e-05 -0.012272208942906732 0 -1.0577140141355657e-05 -0.012245620253469446 0 -0.00046017502090996712 -0.011387500652444335 0 -0.00030283237493981059 -0.011568215647218605 0 -0.00066250262393746293 -0.011909485217127728 0 -0.00066505583472928635 -0.011465537049318851 0 -0.00055932035047293895 -0.011703029698809351 0 -0.00053353857710587737 -0.011910341473660735 0 -0.00056942247916662932 -0.011826189140861913 0 -0.00065822466469701499 -0.011997012220881559 0 -0.00079220651520862191 -0.01123738657725915 0 -0.000792805765602552 -0.010946112233897 0 -0.0010280641011626982 -0.011103280029937527 0 -0.00047588568961494653 -0.01174880004844671 0 -0.00093753210485005944 -0.01124755272236118 0 -0.00047588568961494653 -0.01174880004844671 0 -0.00035055815078617039 -0.012166441399524499 0 -0.00093753210485005944 -0.01124755272236118 0 -0.00035055815078617039 -0.012166441399524499 0 -5.6535387179848004e-05 -0.012518868477610556 0 -0.00023831857388117848 -0.012630213158112982 0 -0.00023378183605745804 -0.012858938143050591 0 -0.00035055815078617039 -0.012166441399524499 0 -0.00063395116825539605 -0.012217654134443015 0 -0.0002180014613168994 -0.012431410298648051 0 -0.00023831857388117848 -0.012630213158112982 0 -0.00033144352231195487 -0.012467453683841095 0 -0.0002180014613168994 -0.012431410298648051 0 -5.6535387179848004e-05 -0.012518868477610556 0 -0.00023831857388117848 -0.012630213158112982 0 -0.00023831857388117848 -0.012630213158112982 0 -0.00033144352231195487 -0.012467453683841095 0 -0.00035507430030575106 -0.012606157419656875 0 -0.00033144352231195487 -0.012467453683841095 0 -0.00035507430030575106 -0.012606157419656875 0 -0.00051457844621772793 -0.012536496878367555 0 -0.00035507430030575106 -0.012606157419656875 0 -0.00030778900485362856 -0.012761707164201084 0 -0.00042352775001093502 -0.01272437377457932 0 -0.00023831857388117848 -0.012630213158112982 0 -0.00035507430030575106 -0.012606157419656875 0 -0.00030778900485362856 -0.012761707164201084 0 -0.00040193622891673912 -0.012861868160893856 0 -0.00035596344412386853 -0.012856585024613863 0 -0.00042352775001093502 -0.01272437377457932 0 -0.00035596344412386853 -0.012856585024613863 0 -0.00028164337169307642 -0.012883065735591242 0 -0.00042352775001093502 -0.01272437377457932 0 -0.00030778900485362856 -0.012761707164201084 0 -0.00026627473941132909 -0.012880055626222313 0 -0.00042352775001093502 -0.01272437377457932 0 -0.00057820461213510044 -0.012326615479570447 0 -0.00027365850648753022 -0.012837461745973611 0 -0.00057820461213510044 -0.012326615479570447 0 -0.00085258749935643687 -0.012287148878685169 0 -0.0003355296052471407 -0.012937938467328686 0 -0.0002836528441702012 -0.012881984542998905 0 -0.00032877947980295964 -0.012998319939623436 0 -0.00040193622891673912 -0.012861868160893856 0 -0.00035596344412386853 -0.012856585024613863 0 -0.00036129316796158588 -0.012905251687932119 0 -0.00040193622891673912 -0.012861868160893856 0 -0.00039789253116958868 -0.012942877738473029 0 -0.00036129316796158588 -0.012905251687932119 0 -0.00039789253116958868 -0.012942877738473029 0 -0.00036129316796158588 -0.012905251687932119 0 -0.0003355296052471407 -0.012937938467328686 0 -0.00036129316796158588 -0.012905251687932119 0 -0.0003355296052471407 -0.012937938467328686 0 -0.00031187054689914187 -0.012901362067757927 0 -0.0003355296052471407 -0.012937938467328686 0 -0.00031187054689914187 -0.012901362067757927 0 -0.0002836528441702012 -0.012881984542998905 0 -0.00057417859629541566 -0.012362889199880996 0 -0.00057820461213510044 -0.012326615479570447 0 -0.00035596344412386853 -0.012856585024613863 0 -0.00031187054689914187 -0.012901362067757927 0 -0.00028164337169307642 -0.01288