<?xml version="1.0"?>
<VTKFile type="UnstructuredGrid" version="0.1" byte_order="LittleEndian">
<UnstructuredGrid>
<Piece NumberOfPoints="30618" NumberOfCells="10744">
<Points>
<DataArray type="Float64" NumberOfComponents="3" format="ascii">
-0.49427958746526202 -0.49999999999999512 0 -0.4943900888896422 -0.47349089190363358 0 -0.49427958746526202 -0.49999999999999512 0 -0.5 -0.5 0 -0.4943900888896422 -0.47349089190363358 0 -0.5 -0.5 0 -0.4943900888896422 -0.47349089190363358 0 -0.5 -0.44150235328842258 0 -0.49427958746526202 -0.49999999999999512 0 -0.4943900888896422 -0.47349089190363358 0 -0.48436842240857858 -0.48714093788813112 0 -0.49427958746526202 -0.49999999999999512 0 -0.47650045540741742 -0.5 0 -0.48436842240857858 -0.48714093788813112 0 -0.4943900888896422 -0.47349089190363358 0 -0.47066899942757451 -0.47576530412887819 0 -0.48436842240857858 -0.48714093788813112 0 -0.47066899942757451 -0.47576530412887819 0 -0.47650045540741742 -0.5 0 -0.48436842240857858 -0.48714093788813112 0 -0.47066899942757451 -0.47576530412887819 0 -0.45872132334957288 -0.49999999999999928 0 -0.45242967983978871 -0.4846708604340636 0 -0.47066899942757451 -0.47576530412887819 0 -0.47650045540741742 -0.5 0 -0.45872132334957288 -0.49999999999999928 0 -0.47066899942757451 -0.47576530412887819 0 -0.45872132334957288 -0.49999999999999928 0 -0.47066899942757451 -0.47576530412887819 0 -0.45242967983978871 -0.4846708604340636 0 -0.45249717469141032 -0.46588444847215849 0 -0.43763952177061649 -0.47770500498713542 0 -0.45242967983978871 -0.4846708604340636 0 -0.45249717469141032 -0.46588444847215849 0 -0.43763952177061649 -0.47770500498713542 0 -0.44291044788006362 -0.49999999999999939 0 -0.45242967983978871 -0.4846708604340636 0 -0.43763952177061649 -0.47770500498713542 0 -0.44291044788006362 -0.49999999999999939 0 -0.45872132334957288 -0.49999999999999928 0 -0.44291044788006362 -0.49999999999999939 0 -0.45242967983978871 -0.4846708604340636 0 -0.44838221886832419 -0.4464230337388379 0 -0.4323685956611692 -0.45541000997427139 0 -0.435988539966085 -0.44148905847597392 0 -0.44838221886832419 -0.4464230337388379 0 -0.44213238819953832 -0.43491600865963681 0 -0.435988539966085 -0.44148905847597392 0 -0.44838221886832419 -0.4464230337388379 0 -0.45249717469141032 -0.46588444847215849 0 -0.45755175660874181 -0.45423607616472811 0 -0.44838221886832419 -0.4464230337388379 0 -0.45249717469141032 -0.46588444847215849 0 -0.4323685956611692 -0.45541000997427139 0 -0.43763952177061649 -0.47770500498713542 0 -0.45249717469141032 -0.46588444847215849 0 -0.4323685956611692 -0.45541000997427139 0 -0.47066899942757451 -0.47576530412887819 0 -0.45249717469141032 -0.46588444847215849 0 -0.4675747862741928 -0.45726336772241771 0 -0.45249717469141032 -0.46588444847215849 0 -0.45755175660874181 -0.45423607616472811 0 -0.4675747862741928 -0.45726336772241771 0 -0.44838221886832419 -0.4464230337388379 0 -0.46897642374787268 -0.44262015471777721 0 -0.45660235518767722 -0.42786105997071933 0 -0.44838221886832419 -0.4464230337388379 0 -0.45755175660874181 -0.45423607616472811 0 -0.46897642374787268 -0.44262015471777721 0 -0.45755175660874181 -0.45423607616472811 0 -0.4675747862741928 -0.45726336772241771 0 -0.46897642374787268 -0.44262015471777721 0 -0.4943900888896422 -0.47349089190363358 0 -0.5 -0.44150235328842258 0 -0.49450059031402238 -0.44698178380727199 0 -0.46897642374787268 -0.44262015471777721 0 -0.48473746643246862 -0.43972512984246093 0 -0.48043585850414389 -0.43127077967876992 0 -0.46897642374787268 -0.44262015471777721 0 -0.4826166755055763 -0.45153060825775743 0 -0.48473746643246862 -0.43972512984246093 0 -0.4675747862741928 -0.45726336772241771 0 -0.46897642374787268 -0.44262015471777721 0 -0.4826166755055763 -0.45153060825775743 0 -0.47066899942757451 -0.47576530412887819 0 -0.4826166755055763 -0.45153060825775743 0 -0.4943900888896422 -0.47349089190363358 0 -0.47066899942757451 -0.47576530412887819 0 -0.4826166755055763 -0.45153060825775743 0 -0.47066899942757451 -0.47576530412887819 0 -0.4675747862741928 -0.45726336772241771 0 -0.4826166755055763 -0.45153060825775743 0 -0.4943900888896422 -0.47349089190363358 0 -0.49450059031402238 -0.44698178380727199 0 -0.4943900888896422 -0.47349089190363358 0 -0.4826166755055763 -0.45153060825775743 0 -0.49450059031402238 -0.44698178380727199 0 -0.4826166755055763 -0.45153060825775743 0 -0.48473746643246862 -0.43972512984246093 0 -0.49450059031402238 -0.44698178380727199 0 -0.5 -0.44150235328842258 0 -0.49461109173840262 -0.42047267571091063 0 -0.5 -0.39656953661894012 0 -0.49450059031402238 -0.44698178380727199 0 -0.49461109173840262 -0.42047267571091063 0 -0.48473746643246862 -0.43972512984246093 0 -0.49461109173840262 -0.42047267571091063 0 -0.48043585850414389 -0.43127077967876992 0 -0.5 -0.44150235328842258 0 -0.49450059031402238 -0.44698178380727199 0 -0.49461109173840262 -0.42047267571091063 0 -0.48473746643246862 -0.43972512984246093 0 -0.49450059031402238 -0.44698178380727199 0 -0.49461109173840262 -0.42047267571091063 0 -0.49461109173840262 -0.42047267571091063 0 -0.4947215931627828 -0.39396356761454909 0 -0.49461109173840262 -0.42047267571091063 0 -0.48393842445605872 -0.40713040098299402 0 -0.4947215931627828 -0.39396356761454909 0 -0.49461109173840262 -0.42047267571091063 0 -0.48393842445605872 -0.40713040098299402 0 -0.47214510592166908 -0.41939033492402211 0 -0.48393842445605872 -0.40713040098299402 0 -0.47214510592166908 -0.41939033492402211 0 -0.47427590700138023 -0.39469502568249409 0 -0.46897642374787268 -0.44262015471777721 0 -0.47214510592166908 -0.41939033492402211 0 -0.48043585850414389 -0.43127077967876992 0 -0.49461109173840262 -0.42047267571091063 0 -0.47214510592166908 -0.41939033492402211 0 -0.48043585850414389 -0.43127077967876992 0 -0.5 -0.39656953661894012 0 -0.4947215931627828 -0.39396356761454909 0 -0.48030453056746109 -0.36861144308094029 0 -0.49461109173840262 -0.42047267571091063 0 -0.5 -0.39656953661894012 0 -0.4947215931627828 -0.39396356761454909 0 -0.48393842445605872 -0.40713040098299402 0 -0.4947215931627828 -0.39396356761454909 0 -0.47427590700138023 -0.39469502568249409 0 -0.47427590700138023 -0.39469502568249409 0 -0.48030453056746109 -0.36861144308094029 0 -0.4947215931627828 -0.39396356761454909 0 -0.47427590700138023 -0.39469502568249409 0 -0.48030453056746109 -0.36861144308094029 0 -0.47427590700138023 -0.39469502568249409 0 -0.46334377193483078 -0.37842983215876019 0 -0.48030453056746109 -0.36861144308094029 0 -0.46334377193483078 -0.37842983215876019 0 -0.45726543839001688 -0.40541672899881109 0 -0.44416021803808919 -0.38243724496113263 0 -0.47427590700138023 -0.39469502568249409 0 -0.46334377193483078 -0.37842983215876019 0 -0.45726543839001688 -0.40541672899881109 0 -0.45726543839001688 -0.40541672899881109 0 -0.43814282409564848 -0.40387353522152758 0 -0.44416021803808919 -0.38243724496113263 0 -0.43814282409564848 -0.40387353522152758 0 -0.44416021803808919 -0.38243724496113263 0 -0.4329908326547659 -0.40007252460533121 0 -0.43814282409564848 -0.40387353522152758 0 -0.44416021803808919 -0.38243724496113263 0 -0.46897642374787268 -0.44262015471777721 0 -0.47214510592166908 -0.41939033492402211 0 -0.45660235518767722 -0.42786105997071933 0 -0.47214510592166908 -0.41939033492402211 0 -0.47427590700138023 -0.39469502568249409 0 -0.45726543839001688 -0.40541672899881109 0 -0.47214510592166908 -0.41939033492402211 0 -0.45726543839001688 -0.40541672899881109 0 -0.45660235518767722 -0.42786105997071933 0 -0.45726543839001688 -0.40541672899881109 0 -0.45660235518767722 -0.42786105997071933 0 -0.44309263043645408 -0.41812298423377797 0 -0.45726543839001688 -0.40541672899881109 0 -0.43814282409564848 -0.40387353522152758 0 -0.44309263043645408 -0.41812298423377797 0 -0.43814282409564848 -0.40387353522152758 0 -0.44309263043645408 -0.41812298423377797 0 -0.43209373842114163 -0.42530092927673752 0 -0.44838221886832419 -0.4464230337388379 0 -0.45660235518767722 -0.42786105997071933 0 -0.44213238819953832 -0.43491600865963681 0 -0.45660235518767722 -0.42786105997071933 0 -0.44213238819953832 -0.43491600865963681 0 -0.43132710435572019 -0.42815377149591122 0 -0.45660235518767722 -0.42786105997071933 0 -0.44309263043645408 -0.41812298423377797 0 -0.43132710435572019 -0.42815377149591122 0 -0.45660235518767722 -0.42786105997071933 0 -0.43132710435572019 -0.42815377149591122 0 -0.44213238819953832 -0.43491600865963681 0 -0.42986244815509678 -0.43337144475258638 0 -0.435988539966085 -0.44148905847597392 0 -0.44213238819953832 -0.43491600865963681 0 -0.42986244815509678 -0.43337144475258638 0 -0.43132710435572019 -0.42815377149591122 0 -0.42986244815509678 -0.43337144475258638 0 -0.43132710435572019 -0.42815377149591122 0 -0.42986244815509678 -0.43337144475258638 0 -0.42494843276815808 -0.42822764260015772 0 -0.42026026496879931 -0.43681168621285732 0 -0.42986244815509678 -0.43337144475258638 0 -0.42494843276815808 -0.42822764260015772 0 -0.43132710435572019 -0.42815377149591122 0 -0.42494843276815808 -0.42822764260015772 0 -0.43209373842114163 -0.42530092927673752 0 -0.42214799869492048 -0.41876725226122891 0 -0.42494843276815808 -0.42822764260015772 0 -0.43209373842114163 -0.42530092927673752 0 -0.42494843276815808 -0.42822764260015772 0 -0.43209373842114163 -0.42530092927673752 0 -0.43132710435572019 -0.42815377149591122 0 -0.42494843276815808 -0.42822764260015772 0 -0.43132710435572019 -0.42815377149591122 0 -0.44309263043645408 -0.41812298423377797 0 -0.43209373842114163 -0.42530092927673752 0 -0.43132710435572019 -0.42815377149591122 0 -0.43209373842114163 -0.42530092927673752 0 -0.43132710435572019 -0.42815377149591122 0 -0.43814282409564848 -0.40387353522152758 0 -0.43209373842114163 -0.42530092927673752 0 -0.43814282409564848 -0.40387353522152758 0 -0.43209373842114163 -0.42530092927673752 0 -0.42736227186559528 -0.41250939947999687 0 -0.43814282409564848 -0.40387353522152758 0 -0.42736227186559528 -0.41250939947999687 0 -0.42798743510346321 -0.40461924019690898 0
[...]
<PointData Scalars="" Vectors="displacement," Tensors="">
<DataArray type="Float64" Name="displacement" NumberOfComponents="3" format="ascii">
-0.014999841392364559 -0.014828375836840626 0 -0.014766545873558513 -0.014772553781920347 0 -0.014999646260644862 -0.014830281212038795 0 -0.015000226638513714 -0.014998751326812245 0 -0.01422198792353567 -0.015154334165610803 0 -0.015000226638513714 -0.014998751326812245 0 -0.01422198792353567 -0.015154334165610803 0 -0.013244774981477003 -0.015000651547745804 0 -0.0150000460283894 -0.014827935015401455 0 -0.01539396988515342 -0.014409838066556572 0 -0.015239208576385315 -0.014451790144791954 0 -0.0150000460283894 -0.014827935015401455 0 -0.014999926620200894 -0.014295029199139898 0 -0.015239208576385315 -0.014451790144791954 0 -0.01539396988515342 -0.014409838066556572 0 -0.015406024121744983 -0.014295518630825774 0 -0.015239208576385315 -0.014451790144791954 0 -0.015406024121744983 -0.014295518630825774 0 -0.014999926620200894 -0.014295029199139898 0 -0.015239208576385315 -0.014451790144791954 0 -0.015134744836884035 -0.01418973539689203 0 -0.014999724427060421 -0.01376113230978252 0 -0.015091515032073214 -0.013794552118570049 0 -0.015406024121744983 -0.014295518630825774 0 -0.014999926620200894 -0.014295029199139898 0 -0.014999977674738161 -0.01376193587141487 0 -0.015264693750367243 -0.014226125176375178 0 -0.01500004428446669 -0.013761797126179162 0 -0.015134744836884035 -0.01418973539689203 0 -0.015091515032073214 -0.013794552118570049 0 -0.015160178251700261 -0.014062203957632406 0 -0.015068480553706355 -0.013696949401735275 0 -0.015091515032073214 -0.013794552118570049 0 -0.015160178251700261 -0.014062203957632406 0 -0.015068480553706355 -0.013696949401735275 0 -0.014999913686681146 -0.013288543377994644 0 -0.015091515032073214 -0.013794552118570049 0 -0.015187800502270875 -0.013424911845748417 0 -0.014999944247836751 -0.013287410268880539 0 -0.014999724427060421 -0.01376113230978252 0 -0.014999913686681146 -0.013288543377994644 0 -0.015091515032073214 -0.013794552118570049 0 -0.015310912178047354 -0.014269842939630442 0 -0.015382016948317779 -0.013505954098107245 0 -0.015533962942522933 -0.013835237440937134 0 -0.015310912178047354 -0.014269842939630442 0 -0.015446063326708932 -0.014207208406807351 0 -0.015533962942522933 -0.013835237440937134 0 -0.015310912178047354 -0.014269842939630442 0 -0.015160178251700261 -0.014062203957632406 0 -0.015214070887637621 -0.014290468950120792 0 -0.015310912178047354 -0.014269842939630442 0 -0.015160178251700261 -0.014062203957632406 0 -0.015382016948317779 -0.013505954098107245 0 -0.015068480553706355 -0.013696949401735275 0 -0.015160178251700261 -0.014062203957632406 0 -0.015382016948317779 -0.013505954098107245 0 -0.015134744836884035 -0.01418973539689203 0 -0.015160178251700261 -0.014062203957632406 0 -0.015192934962961502 -0.014341837921453356 0 -0.015160178251700261 -0.014062203957632406 0 -0.015214070887637621 -0.014290468950120792 0 -0.015192934962961502 -0.014341837921453356 0 -0.015310912178047354 -0.014269842939630442 0 -0.01510083665383462 -0.014592329006206337 0 -0.014873578981150385 -0.015052751584708991 0 -0.015310912178047354 -0.014269842939630442 0 -0.015214070887637621 -0.014290468950120792 0 -0.01510083665383462 -0.014592329006206337 0 -0.015214070887637621 -0.014290468950120792 0 -0.015192934962961502 -0.014341837921453356 0 -0.01510083665383462 -0.014592329006206337 0 -0.01422198792353567 -0.015154334165610803 0 -0.013244774981477003 -0.015000651547745804 0 -0.013413525968931216 -0.015164845083292012 0 -0.01510083665383462 -0.014592329006206337 0 -0.014863025295448338 -0.014340978078457321 0 -0.014538020263766464 -0.014471831682364589 0 -0.01510083665383462 -0.014592329006206337 0 -0.015197350956811748 -0.01436095464750841 0 -0.014863025295448338 -0.014340978078457321 0 -0.015192934962961502 -0.014341837921453356 0 -0.01510083665383462 -0.014592329006206337 0 -0.015197350956811748 -0.01436095464750841 0 -0.015264693750367243 -0.014226125176375178 0 -0.015210295779841204 -0.014344378199261246 0 -0.01539396988515342 -0.014409838066556572 0 -0.015406024121744983 -0.014295518630825774 0 -0.015197350956811748 -0.01436095464750841 0 -0.015134744836884035 -0.01418973539689203 0 -0.015192934962961502 -0.014341837921453356 0 -0.015197350956811748 -0.01436095464750841 0 -0.014766545873558513 -0.014772553781920347 0 -0.01424803488784632 -0.014635392764847545 0 -0.01539396988515342 -0.014409838066556572 0 -0.015197350956811748 -0.01436095464750841 0 -0.015114856040214189 -0.014098165336460817 0 -0.015197350956811748 -0.01436095464750841 0 -0.014863025295448338 -0.014340978078457321 0 -0.015114856040214189 -0.014098165336460817 0 -0.013244774981477003 -0.015000651547745804 0 -0.012603069407982776 -0.015159793844443594 0 -0.011898194075827052 -0.014998499971958738 0 -0.01424803488784632 -0.014635392764847545 0 -0.013276028566049265 -0.014626065234040673 0 -0.014863025295448338 -0.014340978078457321 0 -0.013953272045141197 -0.013994516900156712 0 -0.014538020263766464 -0.014471831682364589 0 -0.013244774981477003 -0.015000651547745804 0 -0.013413525968931216 -0.015164845083292012 0 -0.012603069407982776 -0.015159793844443594 0 -0.014863025295448338 -0.014340978078457321 0 -0.015114856040214189 -0.014098165336460817 0 -0.013953272045141197 -0.013994516900156712 0 -0.013276028566049265 -0.014626065234040673 0 -0.012052196604059852 -0.014891002839652537 0 -0.013953272045141197 -0.013994516900156712 0 -0.013013630712596048 -0.014767108980583355 0 -0.011902822556213416 -0.01497247906287652 0 -0.013953272045141197 -0.013994516900156712 0 -0.013013630712596048 -0.014767108980583355 0 -0.014016906666701964 -0.014868464627731922 0 -0.013013630712596048 -0.014767108980583355 0 -0.014016906666701964 -0.014868464627731922 0 -0.012358349871557605 -0.015163792307898135 0 -0.01510083665383462 -0.014592329006206337 0 -0.014016906666701964 -0.014868464627731922 0 -0.014538020263766464 -0.014471831682364589 0 -0.013953272045141197 -0.013994516900156712 0 -0.014016906666701964 -0.014868464627731922 0 -0.014538020263766464 -0.014471831682364589 0 -0.011898194075827052 -0.014998499971958738 0 -0.011902822556213416 -0.01497247906287652 0 -0.011207184194335472 -0.015362529624569653 0 -0.012603069407982776 -0.015159793844443594 0 -0.011898194075827052 -0.014998499971958738 0 -0.011902822556213416 -0.01497247906287652 0 -0.013013630712596048 -0.014767108980583355 0 -0.011902822556213416 -0.01497247906287652 0 -0.012358349871557605 -0.015163792307898135 0 -0.012257605657819453 -0.015183435227510032 0 -0.011354354903262663 -0.015099127115122894 0 -0.011902822556213416 -0.01497247906287652 0 -0.012358349871557605 -0.015163792307898135 0 -0.011207184194335472 -0.015362529624569653 0 -0.012358349871557605 -0.015163792307898135 0 -0.011805348280172989 -0.015487962076457577 0 -0.011444975898376744 -0.014890172394388135 0 -0.011805348280172989 -0.015487962076457577 0 -0.013109386606252091 -0.015586800274116687 0 -0.011984404877613325 -0.016281018104406426 0 -0.012358349871557605 -0.015163792307898135 0 -0.011805348280172989 -0.015487962076457577 0 -0.013109386606252091 -0.015586800274116687 0 -0.013109386606252091 -0.015586800274116687 0 -0.013059804353716356 -0.016605129251785762 0 -0.011984404877613325 -0.016281018104406426 0 -0.012439937862914065 -0.013248032450615607 0 -0.012403324677780284 -0.013206297392206964 0 -0.012468634900878092 -0.013200803002068341 0 -0.012610754376108839 -0.014988348099459082 0 -0.01239990731766847 -0.014733589706424945 0 -0.01510083665383462 -0.014592329006206337 0 -0.014016906666701964 -0.014868464627731922 0 -0.014873578981150385 -0.015052751584708991 0 -0.014016906666701964 -0.014868464627731922 0 -0.012358349871557605 -0.015163792307898135 0 -0.013109386606252091 -0.015586800274116687 0 -0.014016906666701964 -0.014868464627731922 0 -0.013109386606252091 -0.015586800274116687 0 -0.014873578981150385 -0.015052751584708991 0 -0.013109386606252091 -0.015586800274116687 0 -0.014873578981150385 -0.015052751584708991 0 -0.01404295758183121 -0.016277630749063101 0 -0.013109386606252091 -0.015586800274116687 0 -0.013059804353716356 -0.016605129251785762 0 -0.01404295758183121 -0.016277630749063101 0 -0.013059804353716356 -0.016605129251785762 0 -0.01404295758183121 -0.016277630749063101 0 -0.0146007495870621 -0.017139176082394045 0 -0.015310912178047354 -0.014269842939630442 0 -0.014873578981150385 -0.015052751584708991 0 -0.015446063326708932 -0.014207208406807351 0 -0.014873578981150385 -0.015052751584708991 0 -0.015446063326708932 -0.014207208406807351 0 -0.016103556416404621 -0.013651946039864917 0 -0.014873578981150385 -0.015052751584708991 0 -0.01404295758183121 -0.016277630749063101 0 -0.014831949178985133 -0.017207909792664795 0 -0.015113348800379928 -0.015396700653071207 0 -0.014880608168013509 -0.014435350870699545 0 -0.015446063326708932 -0.014207208406807351 0 -0.015905890741137178 -0.013557844087628487 0 -0.015533962942522933 -0.013835237440937134 0 -0.015446063326708932 -0.014207208406807351 0 -0.015905890741137178 -0.013557844087628487 0 -0.016103556416404621 -0.013651946039864917 0 -0.015480463962706369 -0.014319389837247761 0 -0.014880608168013509 -0.014435350870699545 0 -0.015905890741137178 -0.013557844087628487 0 -0.016204668203800673 -0.013306472113719492 0 -0.015969376210560611 -0.013104095084571953 0 -0.015905890741137178 -0.013557844087628487 0 -0.016204668203800673 -0.013306472113719492 0 -0.016194084476807046 -0.013645569335833874 0 -0.011850580262412798 -0.012980965287438107 0 -0.011931878150765751 -0.013156508225401001 0 -0.01207457137150267 -0.012909665836323171 0 -0.014856509703705334 -0.01304677248989993 0 -0.013959852051784818 -0.014161930344557119 0 -0.014502868743015963 -0.013407417702197794 0 -0.014880423394255656 -0.014342276652693092 0 -0.01450975702435929 -0.014241912921273423 0 -0.014856509703705334 -0.01304677248989993 0 -0.014880608168013509 -0.014435350870699545 0 -0.01404295758183121 -0.016277630749063101 0 -0.0146007495870621 -0.017139176082394045 0 -0.014831949178985133 -0.017207909792664795 0 -0.013959852051784818 -0.014161930344557119 0 -0.014880608168013509 -0.014435350870699545 0 -0.012610754376108839 -0.014988348099459082 0 -0.013959852051784818 -0.014161930344557119 0 -0.012439937862914065 -0.013248032450615607 0 -0.011931878150765751 -0.013156508225401001 0 -0.012225728154105104 -0.013038816525739308 0 -0.012439937862914065 -0.013248032450615607 0 -0.012225728154105104 -0.013038816525739308 0 -0.012390885950900899 -0.0130669565772205 0 -0.012225728154105104 -0.013038816525739308 0 -0.01207457137150267 -0.012909665836323171 0 -0.012275134636879834 -0.012769440277580254 0 -0.012225728154105104 -0.013038816525739308 0 -0.012275134636879834 -0.012769440277580254 0 -0.012390885950900899 -0.0130669565772205 0 -0.011931878150765751 -0.013156508225401001 0 -0.012225728154105104 -0.013038816525739308 0 -0.01207457137150267 -0.012909665836323171 0 -0.012275134636879834 -0.012769440277580254 0 -0.012045215031456035 -0.012681864117619818 0 -0.012210723031842504 -0.012355611438923112 0 -0.012275134636879834 -0.012769440277580254 0 -0.012471340609708188 -0.012455525654605077 0 -0.012210723031842504 -0.012355611438923112 0 -0.01207457137150267 -0.012909665836323171 0 -0.012275134636879834 -0.012769440277580254 0 -0.012045215031456035 -0.012681864117619818 0 -0.016204668203800673 -0.013306472113719492 0 -0.015969376210560611 -0.013104095084571953 0 -0.01616804092265775 -0.012447068910888721 0 -0.014856509703705334 -0.01304677248989993 0 -0.016369240756170522 -0.012134963389507963 0 -0.016461842581130474 -0.012315767582001425 0 -0.016300310274332853 -0.011804921574962613 0 -0.01648941890939068 -0.011759097193878715 0 -0.014856509703705334 -0.01304677248989993 0 -0.014086803242061319 -0.011959684911540714 0 -0.011850580262412798 -0.012980965287438107 0 -0.012045215031456035 -0.012681864117619818 0 -0.011816025503429533 -0.012381493199246967 0 -0.011850580262412798 -0.012980965287438107 0 -0.01207457137150267 -0.012909665836323171 0 -0.012045215031456035 -0.012681864117619818 0 -0.013169438593008368 -0.012841480659804881 0 -0.011048999686665196 -0.013837281811885841 0 -0.012468634900878092 -0.013200803002068341 0 -0.01271158950733132 -0.012809152966408789 0 -0.013060477514372058 -0.012837744807857817 0 -0.012393510501984759 -0.013241944112123134 0 -0.012468634900878092 -0.013200803002068341 0 -0.012364178435506827 -0.013315249806996617 0 -0.012403324677780284 -0.013206297392206964 0 -0.012393510501984759 -0.013241944112123134 0 -0.012468634900878092 -0.013200803002068341 0 -0.012393510501984759 -0.013241944112123134 0 -0.012364178435506827 -0.013315249806996617 0 -0.012327191986708626 -0.01324891216776472 0 -0.012403324677780284 -0.013206297392206964 0 -0.012393510501984759 -0.013241944112123134 0 -0.012327191986708626 -0.01324891216776472 0 -0.012468634900878092 -0.013200803002068341 0 -0.012469972478213858 -0.012907190092196317 0 -0.01271158950733132 -0.012809152966408789 0 -0.012439937862914065 -0.013248032450615607 0 -0.012468634900878092 -0.013200803002068341 0 -0.012390885950900899 -0.0130669565772205 0 -0.012468634900878092 -0.013200803002068341 0 -0.012390885950900899 -0.0130669565772205 0 -0.012469972478213858 -0.012907190092196317 0 -0.012275134636879834 -0.012769440277580254 0 -0.012390885950900899 -0.0130669565772205 0 -0.012469972478213858 -0.012907190092196317 0 -0.012633074168250687 -0.012506568251277373 0 -0.01271158950733132 -0.012809152966408789 0 -0.01287258670036366 -0.012373014859492442 0 -0.012275134636879834 -0.012769440277580254 0 -0.012469972478213858 -0.012907190092196317 0 -0.01251150943096707 -0.01269015500602891 0 -0.012275134636879834 -0.012769440277580254 0 -0.01251150943096707 -0.01269015500602891 0 -0.012471340609708188 -0.012455525654605077 0 -0.01251150943096707 -0.01269015500602891 0 -0.012633074168250687 -0.012506568251277373 0 -0.012471340609708188 -0.012455525654605077 0 -0.01251150943096707 -0.01269015500602891 0 -0.012633074168250687 -0.012506568251277373 0 -0.01271158950733132 -0.012809152966408789 0 -0.012469972478213858 -0.012907190092196317 0 -0.01251150943096707 -0.01269015500602891 0 -0.01271158950733132 -0.012809152966408789 0 -0.012719789339987872 -0.01278877897516028 0 -0.011919685940471006 -0.011990805494726793 0 -0.01271158950733132 -0.012809152966408789 0 -0.012942498843776906 -0.012613806079491342 0 -0.012827109443727678 -0.012394731879888972 0 -0.01271158950733132 -0.012809152966408789 0 -0.012945936319463154 -0.012760656248256955 0 -0.013060477514372058 -0.012837744807857817 0 -0.01271158950733132 -0.012809152966408789 0 -0.012944168985466509 -0.012676826298071538 0 -0.012945936319463154 -0.012760656248256955 0 -0.01271158950733132 -0.012809152966408789 0 -0.012944168985466509 -0.012676826298071538 0 -0.012942498843776906 -0.012613806079491342 0 -0.011074428792026775 -0.012700712963420032 0 -0.011324605349005798 -0.01233775823097079 0 -0.012944168985466509 -0.012676826298071538 0 -0.012993129119627475 -0.012712214313203954 0 -0.012941279629725638 -0.012613679036025895 0 -0.0100185846068413 -0.011845142786529468 0 -0.0099650515041269615 -0.011740404871159682 0 -0.010353972822529643 -0.011515377667704857 0 -0.011423079347406832 -0.012408020257598391 0 -0.011324605349005798 -0.01233775823097079 0 -0.011074428792026775 -0.012700712963420032 0 -0.011048999686665196 -0.013837281811885841 0 -0.012993216346201947 -0.01271424098285057 0 -0.012945936319463154 -0.012760656248256955 0 -0.013060477514372058 -0.012837744807857817 0 -0.012944168985466509 -0.012676826298071538 0 -0.012993129119627475 -0.012712214313203954 0 -0.012945936319463154 -0.012760656248256955 0 -0.011074428792026775 -0.012700712963420032 0 -0.011392095189979762 -0.012535203165170391 0 -0.011026827910762897 -0.012342414228971633 0 -0.011010123054111295 -0.010763664569638365 0 -0.010649675567789139 -0.011606771818833281 0 -0.011450041098872498 -0.011040988911031254 0 -0.011401188077134972 -0.01116060864332912 0 -0.011286750190770857 -0.010923776092520512 0 -0.0099650515041269615 -0.011740404871159682 0 -0.009958099648320784 -0.011236970913607529 0 -0.010353972822529643 -0.011515377667704857 0 -0.011324605349005798 -0.01233775823097079 0 -0.010080616395417475 -0.010382854335267066 0 -0.011324605349005798 -0.01233775823097079 0 -0.011919685940471006 -0.011990805494726793 0 -0.010080616395417475 -0.010382854335267066 0 -0.011919685940471006 -0.011990805494726793 0 -0.01287258670036366 -0.012373014859492442 0 -0.012609231718679217 -0.012207467657783759 0 -0.012618301948933921 -0.011860653000503879 0 -0.011919685940471006 -0.011990805494726793 0 -0.011726662079628787 -0.01085128453871506 0 -0.012633074168250687 -0.012506568251277373 0 -0.012609231718679217 -0.012207467657783759 0 -0.012471340609708188 -0.012455525654605077 0 -0.012633074168250687 -0.012506568251277373 0 -0.01287258670036366 -0.012373014859492442 0 -0.012609231718679217 -0.012207467657783759 0 -0.012609231718679217 -0.012207467657783759 0 -0.012471340609708188 -0.012455525654605077 0 -0.012441561249798044 -0.01224616462263545 0 -0.012471340609708188 -0.012455525654605077 0 -0.012441561249798044 -0.01224616462263545 0 -0.012210723031842504 -0.012355611438923112 0 -0.012441561249798044 -0.01224616462263545 0 -0.012511229655431822 -0.012009860173162827 0 -0.012348802152120258 -0.012069461074779537 0 -0.012609231718679217 -0.012207467657783759 0 -0.012441561249798044 -0.01224616462263545 0 -0.012511229655431822 -0.012009860173162827 0 -0.012414805676463274 -0.011805309594237258 0 -0.012514442500934404 -0.011808226448419891 0 -0.012348802152120258 -0.012069461074779537 0 -0.012514442500934404 -0.011808226448419891 0 -0.012682418377552471 -0.011752500746732508 0 -0.012348802152120258 -0.012069461074779537 0 -0.012511229655431822 -0.012009860173162827 0 -0.012569102408974849 -0.011828995911026388 0 -0.012348802152120258 -0.012069461074779537 0 -0.011840821441649847 -0.010688814207133978 0 -0.012193617216214739 -0.01190276750856129 0 -0.011840821441649847 -0.010688814207133978 0 -0.011793802984953649 -0.0093763914995873623 0 -0.012569122066971399 -0.011617943758228317 0 -0.012680654226100806 -0.011749806996521516 0 -0.01259254008282186 -0.011469937047692001 0 -0.012414805676463274 -0.011805309594237258 0 -0.012514442500934404 -0.011808226448419891 0 -0.012507718796887671 -0.011698536837960722 0 -0.012414805676463274 -0.011805309594237258 0 -0.0124272922308381 -0.011611842814403103 0 -0.012507718796887671 -0.011698536837960722 0 -0.0124272922308381 -0.011611842814403103 0 -0.012507718796887671 -0.011698536837960722 0 -0.012569122066971399 -0.011617943758228317 0 -0.012507718796887671 -0.011698536837960722 0 -0.012569122066971399 -0.011617943758228317 0 -0.012617807210346223 -0.011705310078760274 0 -0.012569122066971399 -0.011617943758228317 0 -0.012617807210346223 -0.011705310078760274 0 -0.012680654226100806 -0.011749806996521516 0 -0.012020573172805036 -0.010836721433601211 0 -0.011840821441649847 -0.010688814207133978 0 -0.012514442500934404 -0.011808226448419891 0 -0.012617807210346223 -0.011705310078760274 0 -0.012682418377552471 -0.011752500746732508 0 -0.012514442500934404 -0.011808226448419891 0 -0.012507718796887671 -0.011698536837960722 0 -0.012617807210346223 -0.011705310078760274 0 -0.011739906902538658 -0.0095637893332383636 0 -0.011789033634365455 -0.0095111059911343557 0 -0.011705290959190436 -0.0094599958744927114 0 -0.011019857800969448 -0.0097055019980614391 0 -0.010862480467748405 -0.010128777470610879 0 -0.0098606676821226986 -0.0095389563209606985 0 -0.011019857800969448 -0.0097055019980614391 0 -0.011176514428898519 -0.0098122508980117828 0 -0.010862480467748405 -0.010128777470610879 0 -0.011726662079628787 -0.01085128453871506 0 -0.011840821441649847 -0.010688814207133978 0 -0.011840821441649847 -0.010688814207133978 0 -0.011218555465702811 -0.0089723748332599072 0 -0.012609231718679217 -0.012207467657783759 