<?xml version="1.0"?>
<VTKFile type="UnstructuredGrid" version="0.1" byte_order="LittleEndian">
<UnstructuredGrid>
<Piece NumberOfPoints="31803" NumberOfCells="11138">
<Points>
<DataArray type="Float64" NumberOfComponents="3" format="ascii">
-0.5 -0.5 0 -0.45548010468302219 -0.47409976266728771 0 -0.39033772046636178 -0.5 0 -0.5 -0.5 0 -0.5 -0.4728559892474955 0 -0.45548010468302219 -0.47409976266728771 0 -0.45548010468302219 -0.47409976266728771 0 -0.42175805041756831 -0.47059302185658308 0 -0.43683329395829418 -0.45883789525204199 0 -0.44325177638658408 -0.44499033344372818 0 -0.4609924593698097 -0.44331294626993722 0 -0.44325177638658408 -0.44499033344372818 0 -0.4609924593698097 -0.44331294626993722 0 -0.43532005847222488 -0.4395300783392273 0 -0.44325177638658408 -0.44499033344372818 0 -0.45329629051794967 -0.45657013505873151 0 -0.4609924593698097 -0.44331294626993722 0 -0.4609924593698097 -0.44331294626993722 0 -0.43532005847222488 -0.4395300783392273 0 -0.45548010468302219 -0.47409976266728771 0 -0.45329629051794967 -0.45657013505873151 0 -0.43683329395829418 -0.45883789525204199 0 -0.44325177638658408 -0.44499033344372818 0 -0.45329629051794967 -0.45657013505873151 0 -0.43683329395829418 -0.45883789525204199 0 -0.45548010468302219 -0.47409976266728771 0 -0.45329629051794967 -0.45657013505873151 0 -0.48049622968490469 -0.45808446775871658 0 -0.45329629051794967 -0.45657013505873151 0 -0.4609924593698097 -0.44331294626993722 0 -0.48049622968490469 -0.45808446775871658 0 -0.4609924593698097 -0.44331294626993722 0 -0.46518387710886577 -0.44291664640018857 0 -0.47003336415859043 -0.43145763506305518 0 -0.4609924593698097 -0.44331294626993722 0 -0.46518387710886577 -0.44291664640018857 0 -0.46518387710886577 -0.44291664640018857 0 -0.49354104323781323 -0.44613235951042801 0 -0.4609924593698097 -0.44331294626993722 0 -0.46518387710886577 -0.44291664640018857 0 -0.48049622968490469 -0.45808446775871658 0 -0.46518387710886577 -0.44291664640018857 0 -0.482591938554432 -0.44127070869773549 0 -0.49354104323781323 -0.44613235951042801 0 -0.46518387710886577 -0.44291664640018857 0 -0.48049622968490469 -0.45808446775871658 0 -0.49354104323781323 -0.44613235951042801 0 -0.5 -0.4728559892474955 0 -0.45548010468302219 -0.47409976266728771 0 -0.48049622968490469 -0.45808446775871658 0 -0.4609924593698097 -0.44331294626993722 0 -0.48049622968490469 -0.45808446775871658 0 -0.46518387710886577 -0.44291664640018857 0 -0.482591938554432 -0.44127070869773549 0 -0.46518387710886577 -0.44291664640018857 0 -0.482591938554432 -0.44127070869773549 0 -0.47003336415859043 -0.43145763506305518 0 -0.48049622968490469 -0.45808446775871658 0 -0.5 -0.4562403801213889 0 -0.49354104323781323 -0.44613235951042801 0 -0.5 -0.4728559892474955 0 -0.48049622968490469 -0.45808446775871658 0 -0.5 -0.4728559892474955 0 -0.48049622968490469 -0.45808446775871658 0 -0.5 -0.4562403801213889 0 -0.482591938554432 -0.44127070869773549 0 -0.49999999999999828 -0.4396247709952823 0 -0.5 -0.4562403801213889 0 -0.49999999999999828 -0.4396247709952823 0 -0.49354104323781323 -0.44613235951042801 0 -0.482591938554432 -0.44127070869773549 0 -0.49999999999999828 -0.4396247709952823 0 -0.49354104323781323 -0.44613235951042801 0 -0.49999999999999828 -0.4396247709952823 0 -0.5 -0.41228582208183251 0 -0.48426175480860889 -0.42721604554059689 0 -0.482591938554432 -0.44127070869773549 0 -0.49999999999999828 -0.4396247709952823 0 -0.48426175480860889 -0.42721604554059689 0 -0.5 -0.41228582208183251 0 -0.48426175480860889 -0.42721604554059689 0 -0.46868347133002242 -0.41144129086507919 0 -0.47003336415859043 -0.43145763506305518 0 -0.48426175480860889 -0.42721604554059689 0 -0.46868347133002242 -0.41144129086507919 0 -0.482591938554432 -0.44127070869773549 0 -0.47003336415859043 -0.43145763506305518 0 -0.48426175480860889 -0.42721604554059689 0 -0.5 -0.41228582208183251 0 -0.47650672892393231 -0.39001631608573728 0 -0.46868347133002242 -0.41144129086507919 0 -0.5 -0.38494687316838261 0 -0.47650672892393231 -0.39001631608573728 0 -0.47823983509586637 -0.36496786212379623 0 -0.5 -0.41228582208183251 0 -0.5 -0.38494687316838261 0 -0.47650672892393231 -0.39001631608573728 0 -0.47650672892393231 -0.39001631608573728 0 -0.47823983509586637 -0.36496786212379623 0 -0.4564796701917318 -0.3723277999926593 0 -0.47650672892393231 -0.39001631608573728 0 -0.45563739692597321 -0.3941282482826744 0 -0.4564796701917318 -0.3723277999926593 0 -0.47650672892393231 -0.39001631608573728 0 -0.45563739692597321 -0.3941282482826744 0 -0.46868347133002242 -0.41144129086507919 0 -0.45563739692597321 -0.3941282482826744 0 -0.46868347133002242 -0.41144129086507919 0 -0.44165055109960061 -0.40720716276855629 0 -0.44333644961898683 -0.38984839405600691 0 -0.44165055109960061 -0.40720716276855629 0 -0.42819512459003117 -0.39589102137462229 0 -0.45563739692597321 -0.3941282482826744 0 -0.44333644961898683 -0.38984839405600691 0 -0.44165055109960061 -0.40720716276855629 0 -0.45563739692597321 -0.3941282482826744 0 -0.44333644961898683 -0.38984839405600691 0 -0.4564796701917318 -0.3723277999926593 0 -0.43471950528759717 -0.37968773786152238 0 -0.4564796701917318 -0.3723277999926593 0 -0.44333644961898683 -0.38984839405600691 0 -0.43471950528759717 -0.37968773786152238 0 -0.4564796701917318 -0.3723277999926593 0 -0.47003336415859043 -0.43145763506305518 0 -0.45498905499247999 -0.42361017764329267 0 -0.46868347133002242 -0.41144129086507919 0 -0.4609924593698097 -0.44331294626993722 0 -0.47003336415859043 -0.43145763506305518 0 -0.45498905499247999 -0.42361017764329267 0 -0.45498905499247999 -0.42361017764329267 0 -0.46868347133002242 -0.41144129086507919 0 -0.44165055109960061 -0.40720716276855629 0 -0.45498905499247999 -0.42361017764329267 0 -0.44165055109960061 -0.40720716276855629 0 -0.43593365463171241 -0.42433422232621759 0 -0.4609924593698097 -0.44331294626993722 0 -0.45498905499247999 -0.42361017764329267 0 -0.43593365463171241 -0.42433422232621759 0 -0.4609924593698097 -0.44331294626993722 0 -0.43593365463171241 -0.42433422232621759 0 -0.4609924593698097 -0.44331294626993722 0 -0.43593365463171241 -0.42433422232621759 0 -0.43532005847222488 -0.4395300783392273 0 -0.43593365463171241 -0.42433422232621759 0 -0.41100115555083833 -0.43677230576790133 0 -0.43532005847222488 -0.4395300783392273 0 -0.43593365463171241 -0.42433422232621759 0 -0.41222834786981433 -0.40638059374187879 0 -0.44165055109960061 -0.40720716276855629 0 -0.43593365463171241 -0.42433422232621759 0 -0.41222834786981433 -0.40638059374187879 0 -0.43593365463171241 -0.42433422232621759 0 -0.41222834786981433 -0.40638059374187879 0 -0.41100115555083833 -0.43677230576790133 0 -0.42280210415024239 -0.37633601693441299 0 -0.43471950528759717 -0.37968773786152238 0 -0.4129593403834626 -0.38704767573038551 0 -0.43471950528759717 -0.37968773786152238 0 -0.42819512459003117 -0.39589102137462229 0 -0.4129593403834626 -0.38704767573038551 0 -0.43471950528759717 -0.37968773786152238 0 -0.4129593403834626 -0.38704767573038551 0 -0.44333644961898683 -0.38984839405600691 0 -0.43471950528759717 -0.37968773786152238 0 -0.42819512459003117 -0.39589102137462229 0 -0.44165055109960061 -0.40720716276855629 0 -0.41222834786981433 -0.40638059374187879 0 -0.42819512459003117 -0.39589102137462229 0 -0.41222834786981433 -0.40638059374187879 0 -0.42819512459003117 -0.39589102137462229 0 -0.4129593403834626 -0.38704767573038551 0 -0.41222834786981433 -0.40638059374187879 0 -0.4129593403834626 -0.38704767573038551 0 -0.40303884611843221 -0.387431654983031 0 -0.42280210415024239 -0.37633601693441299 0 -0.4129593403834626 -0.38704767573038551 0 -0.4070742095167042 -0.37651330309384878 0 -0.4129593403834626 -0.38704767573038551 0 -0.4070742095167042 -0.37651330309384878 0 -0.40303884611843221 -0.387431654983031 0 -0.4070742095167042 -0.37651330309384878 0 -0.39440929171426459 -0.37878973719150111 0 -0.40303884611843221 -0.387431654983031 0 -0.39440929171426459 -0.37878973719150111 0 -0.40303884611843221 -0.387431654983031 0 -0.38852304110791552 -0.38842696515754099 0 -0.39440929171426459 -0.37878973719150111 0 -0.38852304110791552 -0.38842696515754099 0 -0.41222834786981433 -0.40638059374187879 0 -0.38852304110791552 -0.38842696515754099 0 -0.39454598895448889 -0.4156591684236724 0 -0.41222834786981433 -0.40638059374187879 0 -0.40303884611843221 -0.387431654983031 0 -0.38852304110791552 -0.38842696515754099 0 -0.41222834786981433 -0.40638059374187879 0 -0.38852304110791552 -0.38842696515754099 0 -0.38852304110791552 -0.38842696515754099 0 -0.37544319540799009 -0.40984186289139513 0 -0.37700261609447377 -0.39151541855601291 0 -0.38852304110791552 -0.38842696515754099 0 -0.37544319540799009 -0.40984186289139513 0 -0.38852304110791552 -0.38842696515754099 0 -0.39454598895448889 -0.4156591684236724 0 -0.37544319540799009 -0.40984186289139513 0 -0.37700261609447377 -0.39151541855601291 0 -0.38852304110791552 -0.38842696515754099 0 -0.3736050920558095 -0.37712859558941952 0 -0.37700261609447377 -0.39151541855601291 0 -0.3736050920558095 -0.37712859558941952 0 -0.38852304110791552 -0.38842696515754099 0 -0.3736050920558095 -0.37712859558941952 0 -0.38852304110791552 -0.38842696515754099 0 -0.38473115707176497 -0.37557916730823449 0 -0.3736050920558095 -0.37712859558941952 0 -0.39440929171426459 -0.37878973719150111 0 -0.38852304110791552 -0.38842696515754099 0 -0.38473115707176497 -0.37557916730823449 0 -0.41100115555083833 -0.43677230576790133 0 -0.38668225262945161 -0.43401453319657529 0 -0.41100115555083833 -0.43677230576790133 0 -0.39454598895448889 -0.4156591684236724 0 -0.38668225262945161 -0.43401453319657529 0 -0.41222834786981433 -0.40638059374187879 0 -0.41100115555083833 -0.43677230576790133 0 -0.39454598895448889 -0.4156591684236724 0 -0.39454598895448889 -0.4156591684236724 0 -0.37544319540799009 -0.40984186289139513 0 -0.38668225262945161 -0.43401453319657529 0 -0.40568106697753809 -0.4601591898804398 0 -0.37944820501736221 -0.45618957580009578 0 -0.37308520881
[...]
<PointData Scalars="" Vectors="displacement," Tensors="">
<DataArray type="Float64" Name="displacement" NumberOfComponents="3" format="ascii">
-0.014999962796561446 -4.8408854943260072e-08 0 -0.013478261363100088 -3.5086053454937738e-05 0 -0.011709919832269954 -3.1132280274945704e-07 0 -0.014999962796561446 -4.8408854943260072e-08 0 -0.014997247208578979 5.2185008097709729e-07 0 -0.013478261363100088 -3.5086053454937738e-05 0 -0.013478261363100088 -3.5086053454937738e-05 0 -0.012502936669307138 -6.2195763734184981e-05 0 -0.012816304892566029 -5.8722174351727227e-05 0 -0.012632211697002002 2.5826174372893406e-05 0 -0.013689330100943538 0.00013687199126748308 0 -0.012409226486130492 0.00013675015681138402 0 -0.012419822479125125 0.00031090912442118928 0 -0.012343029115187703 5.7690147549486706e-05 0 -0.012910855115059213 -6.5263293767641142e-05 0 -0.013199566366591175 -4.2577831349890909e-05 0 -0.013166923708972782 3.2332202358813743e-06 0 -0.013689330100943538 0.00013687199126748308 0 -0.012442354532404155 0.00013376394008734398 0 -0.013478261363100088 -3.5086053454937738e-05 0 -0.013199566366591175 -4.2577831349890909e-05 0 -0.012816304892566029 -5.8722174351727227e-05 0 -0.012910855115059213 -6.5263293767641142e-05 0 -0.013199566366591175 -4.2577831349890909e-05 0 -0.012816304892566029 -5.8722174351727227e-05 0 -0.013478261363100088 -3.5086053454937738e-05 0 -0.013199566366591175 -4.2577831349890909e-05 0 -0.013844560868832121 4.1594724901816256e-05 0 -0.013199566366591175 -4.2577831349890909e-05 0 -0.013166923708972782 3.2332202358813743e-06 0 -0.013844560868832121 4.1594724901816256e-05 0 -0.015014506410849456 -2.8380529122515099e-05 0 -0.015014097636381556 -2.4603247908702703e-05 0 -0.015006789944630934 -2.0456655873478255e-05 0 -0.013689330100943538 0.00013687199126748308 0 -0.014547384534527297 -8.9659040902254389e-06 0 -0.014547384534527297 -8.9659040902254389e-06 0 -0.015107541273432133 5.3510031788507535e-06 0 -0.014968298397705995 -2.8155971378341893e-05 0 -0.014970181634638013 -2.3703382040485957e-05 0 -0.014995411002090774 -9.1645269303647495e-06 0 -0.014982021776117925 -2.8760258995585098e-07 0 -0.014990340949311114 -4.1240065864122889e-07 0 -0.014995209951135516 -5.1681795682919061e-07 0 -0.014970181634638013 -2.3703382040485957e-05 0 -0.014995411002090774 -9.1645269303647495e-06 0 -0.014995209951135516 -5.1681795682919061e-07 0 -0.014997247208578979 5.2185008097709729e-07 0 -0.013478261363100088 -3.5086053454937738e-05 0 -0.013844560868832121 4.1594724901816256e-05 0 -0.013689330100943538 0.00013687199126748308 0 -0.014451319180194513 -4.1343749258636756e-05 0 -0.014547384534527297 -8.9659040902254389e-06 0 -0.015001947927640114 -1.4388425284664867e-05 0 -0.015014097636381556 -2.4603247908702703e-05 0 -0.015009707265644004 -1.0214087840466111e-05 0 -0.015006789944630934 -2.0456655873478255e-05 0 -0.014995411002090774 -9.1645269303647495e-06 0 -0.014999989640366564 -3.2825408128125258e-10 0 -0.014995209951135516 -5.1681795682919061e-07 0 -0.014999662994183037 -8.2441486090914607e-08 0 -0.014451319180194513 -4.1343749258636756e-05 0 -0.015000009094091719 -9.2437066569836972e-10 0 -0.014995411002090774 -9.1645269303647495e-06 0 -0.014999989640366564 -3.2825408128125258e-10 0 -0.015001947927640114 -1.4388425284664867e-05 0 -0.014999999537731432 1.9448579731595186e-09 0 -0.014999989640366564 -3.2825408128125258e-10 0 -0.014999987904766617 -2.3022918198658038e-09 0 -0.014995209951135516 -5.1681795682919061e-07 0 -0.014990340949311114 -4.1240065864122889e-07 0 -0.014999987904766617 -2.3022918198658038e-09 0 -0.014995209951135516 -5.1681795682919061e-07 0 -0.015000023792133084 -6.5092695356445663e-09 0 -0.014999993214396228 -9.4388075195627024e-10 0 -0.015002287900789113 -8.3607697164087657e-06 0 -0.015009707265644004 -1.0214087840466111e-05 0 -0.015000023792133084 -6.5092695356445663e-09 0 -0.015002287900789113 -8.3607697164087657e-06 0 -0.014999993214396228 -9.4388075195627024e-10 0 -0.015002287900789113 -8.3607697164087657e-06 0 -0.014993357208736933 -1.9347689368085687e-05 0 -0.015006789944630934 -2.0456655873478255e-05 0 -0.015002287900789113 -8.3607697164087657e-06 0 -0.014993357208736933 -1.9347689368085687e-05 0 -0.015009707265644004 -1.0214087840466111e-05 0 -0.015006789944630934 -2.0456655873478255e-05 0 -0.015002287900789113 -8.3607697164087657e-06 0 -0.014999993214396228 -9.4388075195627024e-10 0 -0.014984362348833541 -1.1934779293300082e-05 0 -0.014993357208736933 -1.9347689368085687e-05 0 -0.014999977363296767 -6.5315392836337458e-09 0 -0.014984362348833541 -1.1934779293300082e-05 0 -0.014979097326603604 -9.87314934091918e-06 0 -0.014999993214396228 -9.4388075195627024e-10 0 -0.014999977363296767 -6.5315392836337458e-09 0 -0.014984362348833541 -1.1934779293300082e-05 0 -0.014984362348833541 -1.1934779293300082e-05 0 -0.014979097326603604 -9.87314934091918e-06 0 -0.01495550907609843 -2.9434158870763641e-05 0 -0.014984362348833541 -1.1934779293300082e-05 0 -0.014972177254265917 -3.3438823448158301e-05 0 -0.01495550907609843 -2.9434158870763641e-05 0 -0.014984362348833541 -1.1934779293300082e-05 0 -0.014972177254265917 -3.3438823448158301e-05 0 -0.014993357208736933 -1.9347689368085687e-05 0 -0.014972177254265917 -3.3438823448158301e-05 0 -0.014993357208736933 -1.9347689368085687e-05 0 -0.01498555087939602 -5.4734857241689771e-05 0 -0.014955724545410193 -5.2429996823198084e-05 0 -0.01498555087939602 -5.4734857241689771e-05 0 -0.014955825192739308 -9.1441538203257224e-05 0 -0.014972177254265917 -3.3438823448158301e-05 0 -0.014955724545410193 -5.2429996823198084e-05 0 -0.01498555087939602 -5.4734857241689771e-05 0 -0.014972177254265917 -3.3438823448158301e-05 0 -0.014955724545410193 -5.2429996823198084e-05 0 -0.01495550907609843 -2.9434158870763641e-05 0 -0.014897365821596198 -5.4256538047664924e-05 0 -0.014927646150375321 -2.6810257686582778e-05 0 -0.014955724545410193 -5.2429996823198084e-05 0 -0.014926653463454719 -6.9573310532233844e-05 0 -0.01495550907609843 -2.9434158870763641e-05 0 -0.015006789944630934 -2.0456655873478255e-05 0 -0.01500422300986518 -3.7249362768773329e-05 0 -0.014993357208736933 -1.9347689368085687e-05 0 -0.015014506410849456 -2.8380529122515099e-05 0 -0.015006789944630934 -2.0456655873478255e-05 0 -0.01500422300986518 -3.7249362768773329e-05 0 -0.01500422300986518 -3.7249362768773329e-05 0 -0.014993357208736933 -1.9347689368085687e-05 0 -0.01498555087939602 -5.4734857241689771e-05 0 -0.01500422300986518 -3.7249362768773329e-05 0 -0.01498555087939602 -5.4734857241689771e-05 0 -0.015012503673933425 -6.7686374549668857e-05 0 -0.015014506410849456 -2.8380529122515099e-05 0 -0.01500422300986518 -3.7249362768773329e-05 0 -0.015012503673933425 -6.7686374549668857e-05 0 -0.013689330100943538 0.00013687199126748308 0 -0.013897329595186631 4.6320625003600032e-05 0 -0.012834306152878157 0.0002757870892571757 0 -0.012749800788754978 0.00018299284543956545 0 -0.012804047310100135 0.00018092979468411382 0 -0.012749800788754978 0.00018299284543956545 0 -0.012776191615262325 9.7967100881246247e-05 0 -0.012804047310100135 0.00018092979468411382 0 -0.013897329595186631 4.6320625003600032e-05 0 -0.013984276787493666 2.4076933161012554e-05 0 -0.01498555087939602 -5.4734857241689771e-05 0 -0.015012503673933425 -6.7686374549668857e-05 0 -0.015004151251573764 -0.0001530890980416301 0 -0.012749800788754978 0.00018299284543956545 0 -0.012682914002953558 0.00010321102449787213 0 -0.012776191615262325 9.7967100881246247e-05 0 -0.014840699263921611 -6.3908744955529283e-05 0 -0.014865574191354914 -2.672283119227884e-05 0 -0.014891782291555612 -0.0001522436983648531 0 -0.014926653463454719 -6.9573310532233844e-05 0 -0.014955825192739308 -9.1441538203257224e-05 0 -0.014891782291555612 -0.0001522436983648531 0 -0.014897365821596198 -5.4256538047664924e-05 0 -0.014897975316152031 -0.0001442737336594355 0 -0.014955724545410193 -5.2429996823198084e-05 0 -0.014926653463454719 -6.9573310532233844e-05 0 -0.014955825192739308 -9.1441538203257224e-05 0 -0.01498555087939602 -5.4734857241689771e-05 0 -0.015004151251573764 -0.0001530890980416301 0 -0.014955825192739308 -9.1441538203257224e-05 0 -0.015004151251573764 -0.0001530890980416301 0 -0.014955825192739308 -9.1441538203257224e-05 0 -0.014891782291555612 -0.0001522436983648531 0 -0.015004151251573764 -0.0001530890980416301 0 -0.014891782291555612 -0.0001522436983648531 0 -0.014882119576408902 -0.00025964033136638095 0 -0.014840699263921611 -6.3908744955529283e-05 0 -0.014891782291555612 -0.0001522436983648531 0 -0.01476911102472577 -0.00021365906198045635 0 -0.014891782291555612 -0.0001522436983648531 0 -0.01476911102472577 -0.00021365906198045635 0 -0.014882119576408902 -0.00025964033136638095 0 -0.01476911102472577 -0.00021365906198045635 0 -0.014785799058517946 -0.00037801532379224848 0 -0.014882119576408902 -0.00025964033136638095 0 -0.014785799058517946 -0.00037801532379224848 0 -0.014882119576408902 -0.00025964033136638095 0 -0.014888450130298665 -0.00040970987932669887 0 -0.014907656436938749 -0.00077908756614669683 0 -0.012922958588933461 -0.00029872853506158754 0 -0.012682914002953558 0.00010321102449787213 0 -0.012625684551968283 3.0192590079435396e-05 0 -0.012702600727981178 4.9228019183560153e-05 0 -0.015004151251573764 -0.0001530890980416301 0 -0.014882119576408902 -0.00025964033136638095 0 -0.014888450130298665 -0.00040970987932669887 0 -0.013984276787493666 2.4076933161012554e-05 0 -0.012922958588933461 -0.00029872853506158754 0 -0.012922958588933461 -0.00029872853506158754 0 -0.011095488547715523 -0.00036919987611969916 0 -0.010263665612952423 -0.00079224229393977125 0 -0.010311764938003922 -0.00093431552833069692 0 -0.010061840429785657 -0.00078068139447492687 0 -0.012625684551968283 3.0192590079435396e-05 0 -0.012702600727981178 4.9228019183560153e-05 0 -0.012677641495044672 -2.8446345476987724e-06 0 -0.010263665612952423 -0.00079224229393977125 0 -0.010311764938003922 -0.00093431552833069692 0 -0.010480991793804869 -0.00074129723032171572 0 -0.0099275362669077882 -0.00089732764580645211 0 -0.011777578971763868 -0.0006885425247864118 0 -0.012922958588933461 -0.00029872853506158754 0 -0.011777578971763868 -0.0006885425247864118 0 -0.014948608916530746 -0.00048864765033131109 0 -0.014723707028519009 -0.00056102752391335245 0 -0.014746504481275824 -0.00076901108358853431 0 -0.014785799058517946 -0.00037801532379224848 0 -0.014948608916530746 -0.00048864765033131109 0 -0.014723707028519009 -0.00056102752391335245 0 -0.012428105936324142 -5.2539751213163262e-05 0 -0.012379309444887802 2.3384328456658642e-05 0 -0.012776191615262325 9.7967100881246247e-05 0 -0.012702600727981178 4.9228019183560153e-05 0 -0.012748746932022218 2.6773385075493684e-05 0 -0.012682914002953558 0.00010321102449787213 0 -0.012776191615262325 9.7967100881246247e-05 0 -0.012702600727981178 4.9228019183560153e-05 0 -0.012702600727981178 4.9228019183560153e-05 0 -0.012677641495044672 -2.8446345476987724e-06 0 -0.012748746932022218 2.6773385075493684e-05 0 -0.012045927297436197 -0.00010381572929663129 0 -0.011396226611262883 -5.4240744083007187e-05 0 -0.011198662887332725 -3.6800589518778242e-05 0 -0.013478261363100088 -3.5086053454937738e-05 0 -0.011709919832269954 -3.1132280274945704e-07 0 -0.012502936669307138 -6.2195763734184981e-05 0 -0.011814884667926037 -7.7375001503397244e-05 0 -0.011679815583149003 -7.8954803848505666e-05 0 -0.011703494015050936 9.019953427217733e-05 0 -0.011588588131671757 -0.00010841080855006394 0 -0.011457066096271144 2.2659768520439982e-05 0 -0.011679815583149003 -7.8954803848505666e-05 0 -0.011396226611262883 -5.4240744083007187e-05 0 -0.011227351150091255 -6.1227074025882011e-05 0 -0.012081332219269958 -0.00015331679365524056 0 -0.011814884667926037 -7.7375001503397244e-05 0 -0.011942222529056129 -0.0001252096213480833 0 -0.011814884667926037 -7.7375001503397244e-05 0 -0.011679815583149003 -7.8954803848505666e-05 0 -0.011942222529056129 -0.0001252096213480833 0 -0.011679815583149003 -7.8954803848505666e-05 0 -0.011942222529056129 -0.0001252096213480833 0 -0.012045927297436197 -0.00010381572929663129 0 -0.011679815583149003 -7.8954803848505666e-05 0 -0.012045927297436197 -0.00010381572929663129 0 -0.011396226611262883 -5.4240744083007187e-05 0 -0.012045927297436197 -0.00010381572929663129 0 -0.011709919832269954 -3.1132280274945704e-07 0 -0.012502936669307138 -6.2195763734184981e-05 0 -0.012045927297436197 -0.00010381572929663129 0 -0.011709919832269954 -3.1132280274945704e-07 0 -0.011198662887332725 -3.6800589518778242e-05 0 -0.012816304892566029 -5.8722174351727227e-05 0 -0.012401536136437243 -5.2078281265081984e-05 0 -0.012398711108785014 -8.1905710192284453e-05 0 -0.012502936669307138 -6.2195763734184981e-05 0 -0.012816304892566029 -5.8722174351727227e-05 0 -0.012398711108785014 -8.1905710192284453e-05 0 -0.012632211697002002 2.5826174372893406e-05 0 -0.012490306112296996 -7.9911265422669752e-05 0 -0.012409226486130492 0.00013675015681138402 0 -0.012343029115187703 5.7690147549486706e-05 0 -0.012401536136437243 -5.2078281265081984e-05 0 -0.012081332219269958 -0.00015331679365524056 0 -0.012343029115187703 5.7690147549486706e-05 0 -0.012401536136437243 -5.2078281265081984e-05 0 -0.012428105936324142 -5.2539751213163262e-05 0 -0.012442354532404155 0.00013376394008734398 0 -0.012910855115059213 -6.5263293767641142e-05 0 -0.012816304892566029 -5.8722174351727227e-05 0 -0.012401536136437243 -5.2078281265081984e-05 0 -0.012401536136437243 -5.2078281265081984e-05 0 -0.012186691780312614 -0.00011794842714517289 0 -0.012398711108785014 -8.1905710192284453e-05 0 -0.012081332219269958 -0.00015331679365524056 0 -0.012401536136437243 -5.2078281265081984e-05 0 -0.012186691780312614 -0.00011794842714517289 0 -0.012081332219269958 -0.00015331679365524056 0 -0.011942222529056129 -0.0001252096213480833 0 -0.012186691780312614 -0.00011794842714517289 0 -0.011942222529056129 -0.0001252096213480833 0 -0.012045927297436197 -0.00010381572929663129 0 -0.012186691780312614 -0.00011794842714517289 0 -0.012045927297436197 -0.00010381572929663129 0 -0.012502936669307138 -6.2195763734184981e-05 0 -0.012398711108785014 -8.1905710192284453e-05 0 -0.012045927297436197 -0.00010381572929663129 0 -0.012186691780312614 -0.00011794842714517289 0 -0.012398711108785014 -8.1905710192284453e-05 0 -0.014834734579388264 -0.00014448932591642843 0 -0.014726926304137437 -0.00014422809880630278 0 -0.014795567711041721 -0.00015120685373384531 0 -0.014938166781522639 -0.00015857331538665756 0 -0.014953151903700059 -0.00010296372391593364 0 -0.014834734579388264 -0.00014448932591642843 0 -0.014784692176316368 -0.00017472175190988204 0 -0.014814947212646916 -0.00014912403438611862 0 -0.014634299780756994 -0.00019914431513020712 0 -0.014834734579388264 -0.00014448932591642843 0 -0.014726926304137437 -0.00014422809880630278 0 -0.014953151903700059 -0.00010296372391593364 0 -0.014966114061868853 -3.8548894996005392e-05 0 -0.014983809720055929 -7.496502548705604e-05 0 -0.014953151903700059 -0.00010296372391593364 0 -0.014834734579388264 -0.00014448932591642843 0 -0.014966114061868853 -3.8548894996005392e-05 0 -0.014834734579388264 -0.00014448932591642843 0 -0.014901489701885566 -5.633732035463974e-05 0 -0.014966114061868853 -3.8548894996005392e-05 0 -0.014834734579388264 -0.00014448932591642843 0 -0.014901489701885566 -5.633732035463974e-05 0 -0.014840536220431915 -8.3262812491262018e-05 0 -0.014901489701885566 -5.633732035463974e-05 0 -0.014958903930108946 -1.6610992623877261e-05 0 -0.014917934024055116 -2.7266883689985597e-05 0 -0.014901489701885566 -5.633732035463974e-05 0 -0.014958903930108946 -1.6610992623877261e-05 0 -0.014966114061868853 -3.8548894996005392e-05 0 -0.014958903930108946 -1.6610992623877261e-05 0 -0.014999945610089974 -1.9990812485355364e-09 0 -0.014999900784606453 -1.4798548275067212e-08 0 -0.014958903930108946 -1.6610992623877261e-05 0 -0.014999945610089974 -1.9990812485355364e-09 0 -0.014966114061868853 -3.8548894996005392e-05 0 -0.014966705302536324 -3.7796287065636644e-05 0 -0.014999786449326029 -1.7166545679067861e-05 0 -0.014966114061868853 -3.8548894996005392e-05 0 -0.01499981660733689 -2.925128718183508e-05 0 -0.014996914666464687 -4.9062888964932081e-05 0 -0.014966114061868853 -3.8548894996005392e-05 0 -0.014996914666464687 -4.9062888964932081e-05 0 -0.014983809720055929 -7.496502548705604e-05 0 -0.014999945610089974 -1.9990812485355364e-09 0 -0.01500002206891049 -1.0316679380213703e-08 0 -0.015002092999104742 -5.820958300524663e-06 0 -0.014999945610089974 -1.9990812485355364e-09 0 -0.014966114061868853 -3.8548894996005392e-05 0 -0.015002092999104742 -5.820958300524663e-06 0 -0.01500002206891049 -1.0316679380213703e-08 0 -0.015002092999104742 -5.820958300524663e-06 0 -0.014999993457763178 4.900517666805465e-09 0 -0.01499981660733689 -2.925128718183508e-05 0 -0.015006732144245041 -3.365673503443658e-05 0 -0.015005650791118305 -2.1137835844947676e-05 0 -0.01499981660733689 -2.925128718183508e-05 0 -0.015006732144245041 -3.365673503443658e-05 0 -0.014996914666464687 -4.9062888964932081e-05 0 -0.014996914666464687 -4.9062888964932081e-05 0 -0.015011943805815072 -4.789709265009361e-05 0 -0.015006729415866869 -7.6226851361225196e-05 0 -0.015006732144245041 -3.365673503443658e-05 0 -0.014996914666464687 -4.9062888964932081e-05 0 -0.015011943805815072 -4.789709265009361e-05 0 -0.015006729415866869 -7.6226851361225196e-05 0 -0.015018749208676499 -0.00011903346704821206 0 -0.015028759937910681 -6.448355653064546e-05 0 -0.014817692362852903 -4.9957388398025909e-05 0 -0.014803275613635637 -4.2135313229328145e-05 0 -0.014829303183971689 -3.691124937861974e-06 0 -0.015011943805815072 -4.789709265009361e-05 0 -0.015006729415866869 -7.6226851361225196e-05 0 -0.015028759937910681 -6.448355653064546e-05 0 -0.014921650629734013 -7.2729064282294454e-05 0 -0.014926682482742239 -3.4904163423971008e-05 0 -0.015006729415866869 -7.6226851361225196e-05 0 -0.014984871963408501 -0.0001202221412791031 0 -0.015018749208676499 -0.00011903346704821206 0 -0.014996914666464687 -4.9062888964932081e-05 0 -0.015006729415866869 -7.6226851361225196e-05 0 -0.014983809720055929 -7.496502548705604e-05 0 -0.014953151903700059 -0.00010296372391593364 0 -0.014983809720055929 -7.496502548705604e-05 0 -0.014984871963408501 -0.0001202221412791031 0 -0.015006729415866869 -7.6226851361225196e-05 0 -0.014983809720055929 -7.496502548705604e-05 0 -0.014984871963408501 -0.0001202221412791031 0 -0.014938166781522639 -0.00015857331538665756 0 -0.014984871963408501 -0.0001202221412791031 0 -0.01499299459682402 -0.00017399106027831464 0 -0.014784692176316368 -0.00017472175190988204 0 -0.01472028385592181 -0.00011128222976188577 0 -0.014938166781522639 -0.00015857331538665756 0 -0.014953151903700059 -0.00010296372391593364 0 -0.014984871963408501 -0.0001202221412791031 0 -0.014921650629734013 -7.2729064282294454e-05 0 -0.01472028385592181 -0.00011128222976188577 0 -0.014817692362852903 -4.9957388398025909e-05 0 -0.014803275613635637 -4.2135313229328145e-05 0 -0.0147782064892494 -8.0459252552748676e-05 0 -0.014984871963408501 -0.0001202221412791031 0 -0.015018749208676499 -0.00011903346704821206 0 -0.01499299459682402 -0.00017399106027831464 0 -0.014842266279797458 -4.0996622845450656e-05 0 -0.014867175085634024 -3.1144564794231517e-05 0 -0.014832796388423121 -4.7170247701461201e-05 0 -0.014867175085634024 -3.1144564794231517e-05 0 -0.01487238069198815 -3.5335206402536995e-05 0 -0.014832796388423121 -4.7170247701461201e-05 0 -0.014867175085634024 -3.1144564794231517e-05 0 -0.014885026449575312 -2.138958388920504e-05 0 -0.014900681073384311 -2.0437097455313426e-05 0 -0.014867175085634024 -3.1144564794231517e-05 0 -0.014900681073384311 -2.0437097455313426e-05 0 -0.01487238069198815 -3.5335206402536995e-05 0 -0.014920231704787413 -1.7841961859281003e-05 0 -0.014879315034610738 -3.613924698146655e-05 0 -0.014867175085634024 -3.1144564794231517e-05 0 -0.014885026449575312 -2.138958388920504e-05 0 -0.014866032985018712 -2.235152740