<?xml version="1.0"?>
<VTKFile type="UnstructuredGrid" version="0.1" byte_order="LittleEndian">
<UnstructuredGrid>
<Piece NumberOfPoints="30618" NumberOfCells="10744">
<Points>
<DataArray type="Float64" NumberOfComponents="3" format="ascii">
-0.49427958746526202 -0.49999999999999512 0 -0.4943900888896422 -0.47349089190363358 0 -0.49427958746526202 -0.49999999999999512 0 -0.5 -0.5 0 -0.4943900888896422 -0.47349089190363358 0 -0.5 -0.5 0 -0.4943900888896422 -0.47349089190363358 0 -0.5 -0.44150235328842258 0 -0.49427958746526202 -0.49999999999999512 0 -0.4943900888896422 -0.47349089190363358 0 -0.48436842240857858 -0.48714093788813112 0 -0.49427958746526202 -0.49999999999999512 0 -0.47650045540741742 -0.5 0 -0.48436842240857858 -0.48714093788813112 0 -0.4943900888896422 -0.47349089190363358 0 -0.47066899942757451 -0.47576530412887819 0 -0.48436842240857858 -0.48714093788813112 0 -0.47066899942757451 -0.47576530412887819 0 -0.47650045540741742 -0.5 0 -0.48436842240857858 -0.48714093788813112 0 -0.47066899942757451 -0.47576530412887819 0 -0.45872132334957288 -0.49999999999999928 0 -0.45242967983978871 -0.4846708604340636 0 -0.47066899942757451 -0.47576530412887819 0 -0.47650045540741742 -0.5 0 -0.45872132334957288 -0.49999999999999928 0 -0.47066899942757451 -0.47576530412887819 0 -0.45872132334957288 -0.49999999999999928 0 -0.47066899942757451 -0.47576530412887819 0 -0.45242967983978871 -0.4846708604340636 0 -0.45249717469141032 -0.46588444847215849 0 -0.43763952177061649 -0.47770500498713542 0 -0.45242967983978871 -0.4846708604340636 0 -0.45249717469141032 -0.46588444847215849 0 -0.43763952177061649 -0.47770500498713542 0 -0.44291044788006362 -0.49999999999999939 0 -0.45242967983978871 -0.4846708604340636 0 -0.43763952177061649 -0.47770500498713542 0 -0.44291044788006362 -0.49999999999999939 0 -0.45872132334957288 -0.49999999999999928 0 -0.44291044788006362 -0.49999999999999939 0 -0.45242967983978871 -0.4846708604340636 0 -0.44838221886832419 -0.4464230337388379 0 -0.4323685956611692 -0.45541000997427139 0 -0.435988539966085 -0.44148905847597392 0 -0.44838221886832419 -0.4464230337388379 0 -0.44213238819953832 -0.43491600865963681 0 -0.435988539966085 -0.44148905847597392 0 -0.44838221886832419 -0.4464230337388379 0 -0.45249717469141032 -0.46588444847215849 0 -0.45755175660874181 -0.45423607616472811 0 -0.44838221886832419 -0.4464230337388379 0 -0.45249717469141032 -0.46588444847215849 0 -0.4323685956611692 -0.45541000997427139 0 -0.43763952177061649 -0.47770500498713542 0 -0.45249717469141032 -0.46588444847215849 0 -0.4323685956611692 -0.45541000997427139 0 -0.47066899942757451 -0.47576530412887819 0 -0.45249717469141032 -0.46588444847215849 0 -0.4675747862741928 -0.45726336772241771 0 -0.45249717469141032 -0.46588444847215849 0 -0.45755175660874181 -0.45423607616472811 0 -0.4675747862741928 -0.45726336772241771 0 -0.44838221886832419 -0.4464230337388379 0 -0.46897642374787268 -0.44262015471777721 0 -0.45660235518767722 -0.42786105997071933 0 -0.44838221886832419 -0.4464230337388379 0 -0.45755175660874181 -0.45423607616472811 0 -0.46897642374787268 -0.44262015471777721 0 -0.45755175660874181 -0.45423607616472811 0 -0.4675747862741928 -0.45726336772241771 0 -0.46897642374787268 -0.44262015471777721 0 -0.4943900888896422 -0.47349089190363358 0 -0.5 -0.44150235328842258 0 -0.49450059031402238 -0.44698178380727199 0 -0.46897642374787268 -0.44262015471777721 0 -0.48473746643246862 -0.43972512984246093 0 -0.48043585850414389 -0.43127077967876992 0 -0.46897642374787268 -0.44262015471777721 0 -0.4826166755055763 -0.45153060825775743 0 -0.48473746643246862 -0.43972512984246093 0 -0.4675747862741928 -0.45726336772241771 0 -0.46897642374787268 -0.44262015471777721 0 -0.4826166755055763 -0.45153060825775743 0 -0.47066899942757451 -0.47576530412887819 0 -0.4826166755055763 -0.45153060825775743 0 -0.4943900888896422 -0.47349089190363358 0 -0.47066899942757451 -0.47576530412887819 0 -0.4826166755055763 -0.45153060825775743 0 -0.47066899942757451 -0.47576530412887819 0 -0.4675747862741928 -0.45726336772241771 0 -0.4826166755055763 -0.45153060825775743 0 -0.4943900888896422 -0.47349089190363358 0 -0.49450059031402238 -0.44698178380727199 0 -0.4943900888896422 -0.47349089190363358 0 -0.4826166755055763 -0.45153060825775743 0 -0.49450059031402238 -0.44698178380727199 0 -0.4826166755055763 -0.45153060825775743 0 -0.48473746643246862 -0.43972512984246093 0 -0.49450059031402238 -0.44698178380727199 0 -0.5 -0.44150235328842258 0 -0.49461109173840262 -0.42047267571091063 0 -0.5 -0.39656953661894012 0 -0.49450059031402238 -0.44698178380727199 0 -0.49461109173840262 -0.42047267571091063 0 -0.48473746643246862 -0.43972512984246093 0 -0.49461109173840262 -0.42047267571091063 0 -0.48043585850414389 -0.43127077967876992 0 -0.5 -0.44150235328842258 0 -0.49450059031402238 -0.44698178380727199 0 -0.49461109173840262 -0.42047267571091063 0 -0.48473746643246862 -0.43972512984246093 0 -0.49450059031402238 -0.44698178380727199 0 -0.49461109173840262 -0.42047267571091063 0 -0.49461109173840262 -0.42047267571091063 0 -0.4947215931627828 -0.39396356761454909 0 -0.49461109173840262 -0.42047267571091063 0 -0.48393842445605872 -0.40713040098299402 0 -0.4947215931627828 -0.39396356761454909 0 -0.49461109173840262 -0.42047267571091063 0 -0.48393842445605872 -0.40713040098299402 0 -0.47214510592166908 -0.41939033492402211 0 -0.48393842445605872 -0.40713040098299402 0 -0.47214510592166908 -0.41939033492402211 0 -0.47427590700138023 -0.39469502568249409 0 -0.46897642374787268 -0.44262015471777721 0 -0.47214510592166908 -0.41939033492402211 0 -0.48043585850414389 -0.43127077967876992 0 -0.49461109173840262 -0.42047267571091063 0 -0.47214510592166908 -0.41939033492402211 0 -0.48043585850414389 -0.43127077967876992 0 -0.5 -0.39656953661894012 0 -0.4947215931627828 -0.39396356761454909 0 -0.48030453056746109 -0.36861144308094029 0 -0.49461109173840262 -0.42047267571091063 0 -0.5 -0.39656953661894012 0 -0.4947215931627828 -0.39396356761454909 0 -0.48393842445605872 -0.40713040098299402 0 -0.4947215931627828 -0.39396356761454909 0 -0.47427590700138023 -0.39469502568249409 0 -0.47427590700138023 -0.39469502568249409 0 -0.48030453056746109 -0.36861144308094029 0 -0.4947215931627828 -0.39396356761454909 0 -0.47427590700138023 -0.39469502568249409 0 -0.48030453056746109 -0.36861144308094029 0 -0.47427590700138023 -0.39469502568249409 0 -0.46334377193483078 -0.37842983215876019 0 -0.48030453056746109 -0.36861144308094029 0 -0.46334377193483078 -0.37842983215876019 0 -0.45726543839001688 -0.40541672899881109 0 -0.44416021803808919 -0.38243724496113263 0 -0.47427590700138023 -0.39469502568249409 0 -0.46334377193483078 -0.37842983215876019 0 -0.45726543839001688 -0.40541672899881109 0 -0.45726543839001688 -0.40541672899881109 0 -0.43814282409564848 -0.40387353522152758 0 -0.44416021803808919 -0.38243724496113263 0 -0.43814282409564848 -0.40387353522152758 0 -0.44416021803808919 -0.38243724496113263 0 -0.4329908326547659 -0.40007252460533121 0 -0.43814282409564848 -0.40387353522152758 0 -0.44416021803808919 -0.38243724496113263 0 -0.46897642374787268 -0.44262015471777721 0 -0.47214510592166908 -0.41939033492402211 0 -0.45660235518767722 -0.42786105997071933 0 -0.47214510592166908 -0.41939033492402211 0 -0.47427590700138023 -0.39469502568249409 0 -0.45726543839001688 -0.40541672899881109 0 -0.47214510592166908 -0.41939033492402211 0 -0.45726543839001688 -0.40541672899881109 0 -0.45660235518767722 -0.42786105997071933 0 -0.45726543839001688 -0.40541672899881109 0 -0.45660235518767722 -0.42786105997071933 0 -0.44309263043645408 -0.41812298423377797 0 -0.45726543839001688 -0.40541672899881109 0 -0.43814282409564848 -0.40387353522152758 0 -0.44309263043645408 -0.41812298423377797 0 -0.43814282409564848 -0.40387353522152758 0 -0.44309263043645408 -0.41812298423377797 0 -0.43209373842114163 -0.42530092927673752 0 -0.44838221886832419 -0.4464230337388379 0 -0.45660235518767722 -0.42786105997071933 0 -0.44213238819953832 -0.43491600865963681 0 -0.45660235518767722 -0.42786105997071933 0 -0.44213238819953832 -0.43491600865963681 0 -0.43132710435572019 -0.42815377149591122 0 -0.45660235518767722 -0.42786105997071933 0 -0.44309263043645408 -0.41812298423377797 0 -0.43132710435572019 -0.42815377149591122 0 -0.45660235518767722 -0.42786105997071933 0 -0.43132710435572019 -0.42815377149591122 0 -0.44213238819953832 -0.43491600865963681 0 -0.42986244815509678 -0.43337144475258638 0 -0.435988539966085 -0.44148905847597392 0 -0.44213238819953832 -0.43491600865963681 0 -0.42986244815509678 -0.43337144475258638 0 -0.43132710435572019 -0.42815377149591122 0 -0.42986244815509678 -0.43337144475258638 0 -0.43132710435572019 -0.42815377149591122 0 -0.42986244815509678 -0.43337144475258638 0 -0.42494843276815808 -0.42822764260015772 0 -0.42026026496879931 -0.43681168621285732 0 -0.42986244815509678 -0.43337144475258638 0 -0.42494843276815808 -0.42822764260015772 0 -0.43132710435572019 -0.42815377149591122 0 -0.42494843276815808 -0.42822764260015772 0 -0.43209373842114163 -0.42530092927673752 0 -0.42214799869492048 -0.41876725226122891 0 -0.42494843276815808 -0.42822764260015772 0 -0.43209373842114163 -0.42530092927673752 0 -0.42494843276815808 -0.42822764260015772 0 -0.43209373842114163 -0.42530092927673752 0 -0.43132710435572019 -0.42815377149591122 0 -0.42494843276815808 -0.42822764260015772 0 -0.43132710435572019 -0.42815377149591122 0 -0.44309263043645408 -0.41812298423377797 0 -0.43209373842114163 -0.42530092927673752 0 -0.43132710435572019 -0.42815377149591122 0 -0.43209373842114163 -0.42530092927673752 0 -0.43132710435572019 -0.42815377149591122 0 -0.43814282409564848 -0.40387353522152758 0 -0.43209373842114163 -0.42530092927673752 0 -0.43814282409564848 -0.40387353522152758 0 -0.43209373842114163 -0.42530092927673752 0 -0.42736227186559528 -0.41250939947999687 0 -0.43814282409564848 -0.40387353522152758 0 -0.42736227186559528 -0.41250939947999687 0 -0.42798743510346321 -0.40461924019690898 0
[...]
<PointData Scalars="" Vectors="displacement," Tensors="">
<DataArray type="Float64" Name="displacement" NumberOfComponents="3" format="ascii">
-0.054999420293333462 -0.054370713014441477 0 -0.054147426100480088 -0.054169940791123687 0 -0.054998702019557831 -0.054377697488913905 0 -0.05500083295785313 -0.05499542214039474 0 -0.052147296193351782 -0.055565901635120957 0 -0.05500083295785313 -0.05499542214039474 0 -0.052147296193351782 -0.055565901635120957 0 -0.048564168198543214 -0.055002386948049861 0 -0.055000168080334109 -0.054369102933576684 0 -0.056450494194467613 -0.052844178787813396 0 -0.055879273141038938 -0.052992163815616777 0 -0.055000168080334109 -0.054369102933576684 0 -0.054999732238672105 -0.05241510899809159 0 -0.055879273141038938 -0.052992163815616777 0 -0.056450494194467613 -0.052844178787813396 0 -0.0564932738527366 -0.052416958248852112 0 -0.055879273141038938 -0.052992163815616777 0 -0.0564932738527366 -0.052416958248852112 0 -0.054999732238672105 -0.05241510899809159 0 -0.055879273141038938 -0.052992163815616777 0 -0.055502397604229932 -0.052038575654086608 0 -0.054998991274029171 -0.050457504682883444 0 -0.055340247600484574 -0.050582956579575913 0 -0.0564932738527366 -0.052416958248852112 0 -0.054999732238672105 -0.05241510899809159 0 -0.054999918318126929 -0.05046042722842653 0 -0.055977227164716835 -0.052167286533929769 0 -0.055000164607392099 -0.050459924565153573 0 -0.055502397604229932 -0.052038575654086608 0 -0.055340247600484574 -0.050582956579575913 0 -0.055597734052407699 -0.051567351954193999 0 -0.055258245628622769 -0.050223966146963339 0 -0.055340247600484574 -0.050582956579575913 0 -0.055597734052407699 -0.051567351954193999 0 -0.055258245628622769 -0.050223966146963339 0 -0.054999686005090788 -0.048724649102419082 0 -0.055340247600484574 -0.050582956579575913 0 -0.055694739142021658 -0.049227911723970903 0 -0.054999797601928524 -0.048720505868668315 0 -0.054998991274029171 -0.050457504682883444 0 -0.054999686005090788 -0.048724649102419082 0 -0.055340247600484574 -0.050582956579575913 0 -0.056154124587953484 -0.052331321205864922 0 -0.056411815057112548 -0.049528012345201086 0 -0.056972156754880564 -0.050737392529159847 0 -0.056154124587953484 -0.052331321205864922 0 -0.056652045962987195 -0.052102548022861496 0 -0.056972156754880564 -0.050737392529159847 0 -0.056154124587953484 -0.052331321205864922 0 -0.055597734052407699 -0.051567351954193999 0 -0.055798052390932731 -0.05240663310147213 0 -0.056154124587953484 -0.052331321205864922 0 -0.055597734052407699 -0.051567351954193999 0 -0.056411815057112548 -0.049528012345201086 0 -0.055258245628622769 -0.050223966146963339 0 -0.055597734052407699 -0.051567351954193999 0 -0.056411815057112548 -0.049528012345201086 0 -0.055502397604229932 -0.052038575654086608 0 -0.055597734052407699 -0.051567351954193999 0 -0.055720315938209947 -0.052595963446702365 0 -0.055597734052407699 -0.051567351954193999 0 -0.055798052390932731 -0.05240663310147213 0 -0.055720315938209947 -0.052595963446702365 0 -0.056154124587953484 -0.052331321205864922 0 -0.055386145876984746 -0.053515862773135414 0 -0.054556549639458538 -0.055205972665850297 0 -0.056154124587953484 -0.052331321205864922 0 -0.055798052390932731 -0.05240663310147213 0 -0.055386145876984746 -0.053515862773135414 0 -0.055798052390932731 -0.05240663310147213 0 -0.055720315938209947 -0.052595963446702365 0 -0.055386145876984746 -0.053515862773135414 0 -0.052147296193351782 -0.055565901635120957 0 -0.048564168198543214 -0.055002386948049861 0 -0.049182935406890942 -0.055604441375041912 0 -0.055386145876984746 -0.053515862773135414 0 -0.054514869375188131 -0.052594130221506788 0 -0.053324202142896578 -0.053074408451340864 0 -0.055386145876984746 -0.053515862773135414 0 -0.055738061380175688 -0.052665965409198059 0 -0.054514869375188131 -0.052594130221506788 0 -0.055720315938209947 -0.052595963446702365 0 -0.055386145876984746 -0.053515862773135414 0 -0.055738061380175688 -0.052665965409198059 0 -0.055977227164716835 -0.052167286533929769 0 -0.055784645828923438 -0.052604711296590424 0 -0.056450494194467613 -0.052844178787813396 0 -0.0564932738527366 -0.052416958248852112 0 -0.055738061380175688 -0.052665965409198059 0 -0.055502397604229932 -0.052038575654086608 0 -0.055720315938209947 -0.052595963446702365 0 -0.055738061380175688 -0.052665965409198059 0 -0.054147426100480088 -0.054169940791123687 0 -0.052250684595410747 -0.053668858064836671 0 -0.056450494194467613 -0.052844178787813396 0 -0.055738061380175688 -0.052665965409198059 0 -0.055436916279005093 -0.051705335402439954 0 -0.055738061380175688 -0.052665965409198059 0 -0.054514869375188131 -0.052594130221506788 0 -0.055436916279005093 -0.051705335402439954 0 -0.048564168198543214 -0.055002386948049861 0 -0.046211292369915148 -0.055585886840882531 0 -0.043626737554575377 -0.054994507614079542 0 -0.052250684595410747 -0.053668858064836671 0 -0.048687996408863878 -0.053633223933351779 0 -0.054514869375188131 -0.052594130221506788 0 -0.051181745439606907 -0.05132210232753346 0 -0.053324202142896578 -0.053074408451340864 0 -0.048564168198543214 -0.055002386948049861 0 -0.049182935406890942 -0.055604441375041912 0 -0.046211292369915148 -0.055585886840882531 0 -0.054514869375188131 -0.052594130221506788 0 -0.055436916279005093 -0.051705335402439954 0 -0.051181745439606907 -0.05132210232753346 0 -0.048687996408863878 -0.053633223933351779 0 -0.044193571433439091 -0.054602660139270953 0 -0.051181745439606907 -0.05132210232753346 0 -0.047731289156039317 -0.054157608531609266 0 -0.043645781729133484 -0.054900932932690313 0 -0.051181745439606907 -0.05132210232753346 0 -0.047731289156039317 -0.054157608531609266 0 -0.051414090352060599 -0.054530879982210081 0 -0.047731289156039317 -0.054157608531609266 0 -0.051414090352060599 -0.054530879982210081 0 -0.04532804602165498 -0.055617807979411585 0 -0.055386145876984746 -0.053515862773135414 0 -0.051414090352060599 -0.054530879982210081 0 -0.053324202142896578 -0.053074408451340864 0 -0.051181745439606907 -0.05132210232753346 0 -0.051414090352060599 -0.054530879982210081 0 -0.053324202142896578 -0.053074408451340864 0 -0.043626737554575377 -0.054994507614079542 0 -0.043645781729133484 -0.054900932932690313 0 -0.041092719827364781 -0.056333681262134019 0 -0.046211292369915148 -0.055585886840882531 0 -0.043626737554575377 -0.054994507614079542 0 -0.043645781729133484 -0.054900932932690313 0 -0.047731289156039317 -0.054157608531609266 0 -0.043645781729133484 -0.054900932932690313 0 -0.04532804602165498 -0.055617807979411585 0 -0.044965233554420704 -0.055691520987421 0 -0.041638374529789197 -0.055378029826911451 0 -0.043645781729133484 -0.054900932932690313 0 -0.04532804602165498 -0.055617807979411585 0 -0.041092719827364781 -0.056333681262134019 0 -0.04532804602165498 -0.055617807979411585 0 -0.04331466287200654 -0.056807662428843789 0 -0.042000971738561786 -0.054629065099040044 0 -0.04331466287200654 -0.056807662428843789 0 -0.048086850873687047 -0.057167857912425117 0 -0.043972502720276106 -0.059711709598970229 0 -0.04532804602165498 -0.055617807979411585 0 -0.04331466287200654 -0.056807662428843789 0 -0.048086850873687047 -0.057167857912425117 0 -0.048086850873687047 -0.057167857912425117 0 -0.047909629028308448 -0.060903165129427339 0 -0.043972502720276106 -0.059711709598970229 0 -0.046666783402915184 -0.049528230934605233 0 -0.046389287784153993 -0.049322947490927672 0 -0.046750333393247474 -0.049386648678523014 0 -0.046803750758369539 -0.055449156029838853 0 -0.045874582059605352 -0.0544704457618303 0 -0.055386145876984746 -0.053515862773135414 0 -0.051414090352060599 -0.054530879982210081 0 -0.054556549639458538 -0.055205972665850297 0 -0.051414090352060599 -0.054530879982210081 0 -0.04532804602165498 -0.055617807979411585 0 -0.048086850873687047 -0.057167857912425117 0 -0.051414090352060599 -0.054530879982210081 0 -0.048086850873687047 -0.057167857912425117 0 -0.054556549639458538 -0.055205972665850297 0 -0.048086850873687047 -0.057167857912425117 0 -0.054556549639458538 -0.055205972665850297 0 -0.051513713115474841 -0.059702653596253381 0 -0.048086850873687047 -0.057167857912425117 0 -0.047909629028308448 -0.060903165129427339 0 -0.051513713115474841 -0.059702653596253381 0 -0.047909629028308448 -0.060903165129427339 0 -0.051513713115474841 -0.059702653596253381 0 -0.053563202444288173 -0.062867005213574828 0 -0.056154124587953484 -0.052331321205864922 0 -0.054556549639458538 -0.055205972665850297 0 -0.056652045962987195 -0.052102548022861496 0 -0.054556549639458538 -0.055205972665850297 0 -0.056652045962987195 -0.052102548022861496 0 -0.059063414387082847 -0.050065774062018203 0 -0.054556549639458538 -0.055205972665850297 0 -0.051513713115474841 -0.059702653596253381 0 -0.054412298469814241 -0.063119364012863874 0 -0.055395538162556782 -0.056380263312967902 0 -0.054772062468607177 -0.053155481936556316 0 -0.056652045962987195 -0.052102548022861496 0 -0.05833736041888906 -0.049720872335835803 0 -0.056972156754880564 -0.050737392529159847 0 -0.056652045962987195 -0.052102548022861496 0 -0.05833736041888906 -0.049720872335835803 0 -0.059063414387082847 -0.050065774062018203 0 -0.056826777550656772 -0.052649743776930713 0 -0.054772062468607177 -0.053155481936556316 0 -0.05833736041888906 -0.049720872335835803 0 -0.059433988735650971 -0.048799626320082286 0 -0.058567957850952326 -0.048056167073941537 0 -0.05833736041888906 -0.049720872335835803 0 -0.059433988735650971 -0.048799626320082286 0 -0.059395974738439855 -0.050044148543555801 0 -0.044620472321753452 -0.04861762552301914 0 -0.044904002695228568 -0.049226353922410614 0 -0.045397728518511496 -0.04837175184340075 0 -0.054852511046621963 -0.048333035089455627 0 -0.051705685008582379 -0.052400849376263513 0 -0.053547931853978735 -0.049629874871572138 0 -0.05485847240880086 -0.052874856702365046 0 -0.053571855787777796 -0.052526395095215957 0 -0.054852511046621963 -0.048333035089455627 0 -0.054772062468607177 -0.053155481936556316 0 -0.051513713115474841 -0.059702653596253381 0 -0.053563202444288173 -0.062867005213574828 0 -0.054412298469814241 -0.063119364012863874 0 -0.051705685008582379 -0.052400849376263513 0 -0.054772062468607177 -0.053155481936556316 0 -0.046803750758369539 -0.055449156029838853 0 -0.051705685008582379 -0.052400849376263513 0 -0.046666783402915184 -0.049528230934605233 0 -0.044904002695228568 -0.049226353922410614 0 -0.045922500059671113 -0.048819558396379005 0 -0.046666783402915184 -0.049528230934605233 0 -0.045922500059671113 -0.048819558396379005 0 -0.046490011184428651 -0.048921115273034693 0 -0.045922500059671113 -0.048819558396379005 0 -0.045397728518511496 -0.04837175184340075 0 -0.046092929690155771 -0.04788791805726221 0 -0.045922500059671113 -0.048819558396379005 0 -0.046092929690155771 -0.04788791805726221 0 -0.046490011184428651 -0.048921115273034693 0 -0.044904002695228568 -0.049226353922410614 0 -0.045922500059671113 -0.048819558396379005 0 -0.045397728518511496 -0.04837175184340075 0 -0.046092929690155771 -0.04788791805726221 0 -0.045294636292709189 -0.047581807817430377 0 -0.045872778645003921 -0.046447564553881417 0 -0.046092929690155771 -0.04788791805726221 0 -0.046777901949845262 -0.046796381050382259 0 -0.045872778645003921 -0.046447564553881417 0 -0.045397728518511496 -0.04837175184340075 0 -0.046092929690155771 -0.04788791805726221 0 -0.045294636292709189 -0.047581807817430377 0 -0.059433988735650971 -0.048799626320082286 0 -0.058567957850952326 -0.048056167073941537 0 -0.059293079542323157 -0.045645945815104692 0 -0.054852511046621963 -0.048333035089455627 0 -0.060046404813566205 -0.044615944410536595 0 -0.060553806535021931 -0.045680546831680199 0 -0.059883600230274316 -0.043630494233780466 0 -0.060645766097508762 -0.043447249290374905 0 -0.054852511046621963 -0.048333035089455627 0 -0.052355763806157675 -0.044656898603687489 0 -0.044620472321753452 -0.04861762552301914 0 -0.045294636292709189 -0.047581807817430377 0 -0.044494367498832607 -0.046537129729427168 0 -0.044620472321753452 -0.04861762552301914 0 -0.045397728518511496 -0.04837175184340075 0 -0.045294636292709189 -0.047581807817430377 0 -0.049131476961016031 -0.048065496286040579 0 -0.041942090907008962 -0.051979812800199275 0 -0.046750333393247474 -0.049386648678523014 0 -0.04760806676820542 -0.048030070642230818 0 -0.048825473648065484 -0.048135031401215167 0 -0.046351626797718926 -0.04953682297474913 0 -0.046750333393247474 -0.049386648678523014 0 -0.046210518137876466 -0.049901546655505995 0 -0.046389287784153993 -0.049322947490927672 0 -0.046351626797718926 -0.04953682297474913 0 -0.046750333393247474 -0.049386648678523014 0 -0.046351626797718926 -0.04953682297474913 0 -0.046210518137876466 -0.049901546655505995 0 -0.046015038467714812 -0.049547868807462599 0 -0.046389287784153993 -0.049322947490927672 0 -0.046351626797718926 -0.04953682297474913 0 -0.046015038467714812 -0.049547868807462599 0 -0.046750333393247474 -0.049386648678523014 0 -0.046765611095427248 -0.048368130060414051 0 -0.04760806676820542 -0.048030070642230818 0 -0.046666783402915184 -0.049528230934605233 0 -0.046750333393247474 -0.049386648678523014 0 -0.046490011184428651 -0.048921115273034693 0 -0.046750333393247474 -0.049386648678523014 0 -0.046490011184428651 -0.048921115273034693 0 -0.046765611095427248 -0.048368130060414051 0 -0.046092929690155771 -0.04788791805726221 0 -0.046490011184428651 -0.048921115273034693 0 -0.046765611095427248 -0.048368130060414051 0 -0.047339099814424898 -0.04697468696855072 0 -0.04760806676820542 -0.048030070642230818 0 -0.048174532857333384 -0.046509950510708505 0 -0.046092929690155771 -0.04788791805726221 0 -0.046765611095427248 -0.048368130060414051 0 -0.046913780477637092 -0.047613489374275855 0 -0.046092929690155771 -0.04788791805726221 0 -0.046913780477637092 -0.047613489374275855 0 -0.046777901949845262 -0.046796381050382259 0 -0.046913780477637092 -0.047613489374275855 0 -0.047339099814424898 -0.04697468696855072 0 -0.046777901949845262 -0.046796381050382259 0 -0.046913780477637092 -0.047613489374275855 0 -0.047339099814424898 -0.04697468696855072 0 -0.04760806676820542 -0.048030070642230818 0 -0.046765611095427248 -0.048368130060414051 0 -0.046913780477637092 -0.047613489374275855 0 -0.04760806676820542 -0.048030070642230818 0 -0.047658495281455299 -0.047897342048379095 0 -0.045033416765495347 -0.045452807334262393 0 -0.04760806676820542 -0.048030070642230818 0 -0.048412498268478009 -0.047358227289798716 0 -0.048014647862973985 -0.046602564403416633 0 -0.04760806676820542 -0.048030070642230818 0 -0.048425210736071367 -0.047865803806725796 0 -0.048825473648065484 -0.048135031401215167 0 -0.04760806676820542 -0.048030070642230818 0 -0.048418579886938255 -0.047576240129530378 0 -0.048425210736071367 -0.047865803806725796 0 -0.04760806676820542 -0.048030070642230818 0 -0.048418579886938255 -0.047576240129530378 0 -0.048412498268478009 -0.047358227289798716 0 -0.042174951226429079 -0.048156426410908608 0 -0.043031681544286542 -0.046804498318257268 0 -0.048418579886938255 -0.047576240129530378 0 -0.048587580813548296 -0.047698515900866913 0 -0.048408521448635035 -0.047359656932990699 0 -0.038708967441749169 -0.045475350927248637 0 -0.038552493846491745 -0.045169231837329502 0 -0.039684632927594291 -0.044513455157306363 0 -0.043358854832193254 -0.046960659208983187 0 -0.043031681544286542 -0.046804498318257268 0 -0.042174951226429079 -0.048156426410908608 0 -0.041942090907008962 -0.051979812800199275 0 -0.048590642952795068 -0.047704453834658371 0 -0.048425210736071367 -0.047865803806725796 0 -0.048825473648065484 -0.048135031401215167 0 -0.048418579886938255 -0.047576240129530378 0 -0.048587580813548296 -0.047698515900866913 0 -0.048425210736071367 -0.047865803806725796 0 -0.042174951226429079 -0.048156426410908608 0 -0.043281195163438764 -0.047524616372250195 0 -0.042059742493482787 -0.046730737632285205 0 -0.042005725781723305 -0.041839633989073546 0 -0.04089042554314383 -0.044451433542030842 0 -0.043527313166817731 -0.042509393317660737 0 -0.043354857344033888 -0.042929427234067591 0 -0.04295015198374838 -0.042095674452553612 0 -0.038552493846491745 -0.045169231837329502 0 -0.038530670625855842 -0.04369674104580993 0 -0.039684632927594291 -0.044513455157306363 0 -0.043031681544286542 -0.046804498318257268 0 -0.03897951543744068 -0.040725178844289105 0 -0.043031681544286542 -0.046804498318257268 0 -0.045033416765495347 -0.045452807334262393 0 -0.03897951543744068 -0.040725178844289105 0 -0.045033416765495347 -0.045452807334262393 0 -0.048174532857333384 -0.046509950510708505 0 -0.047259936524192463 -0.045933580618785649 0 -0.047292533495746983 -0.04473144892269712 0 -0.045033416765495347 -0.045452807334262393 0 -0.044428989543455727 -0.041719801280561658 0 -0.047339099814424898 -0.04697468696855072 0 -0.047259936524192463 -0.045933580618785649 0 -0.046777901949845262 -0.046796381050382259 0 -0.047339099814424898 -0.04697468696855072 0 -0.048174532857333384 -0.046509950510708505 0 -0.047259936524192463 -0.045933580618785649 0 -0.047259936524192463 -0.045933580618785649 0 -0.046777901949845262 -0.046796381050382259 0 -0.046677701360273424 -0.046066688505257448 0 -0.046777901949845262 -0.046796381050382259 0 -0.046677701360273424 -0.046066688505257448 0 -0.045872778645003921 -0.046447564553881417 0 -0.046677701360273424 -0.046066688505257448 0 -0.046921255327815964 -0.045246681045324186 0 -0.04635917715578905 -0.045449700104185746 0 -0.047259936524192463 -0.045933580618785649 0 -0.046677701360273424 -0.046066688505257448 0 -0.046921255327815964 -0.045246681045324186 0 -0.046591181965164395 -0.044528528959211451 0 -0.046937025728149576 -0.044540383940411099 0 -0.04635917715578905 -0.045449700104185746 0 -0.046937025728149576 -0.044540383940411099 0 -0.047521866233907327 -0.044347770217233087 0 -0.04635917715578905 -0.045449700104185746 0 -0.046921255327815964 -0.045246681045324186 0 -0.047122476092434293 -0.04462278037213837 0 -0.04635917715578905 -0.045449700104185746 0 -0.044861452633517561 -0.041140395780202149 0 -0.045913014315463276 -0.044907496045583764 0 -0.044861452633517561 -0.041140395780202149 0 -0.044876734561708154 -0.036756942172312297 0 -0.047126649459554311 -0.043883231685995505 0 -0.047514271281814686 -0.044338564318596285 0 -0.047206604008631824 -0.043373291248235309 0 -0.046591181965164395 -0.044528528959211451 0 -0.046937025728149576 -0.044540383940411099 0 -0.046913866804897293 -0.04416080397086132 0 -0.046591181965164395 -0.044528528959211451 0 -0.046635711840634204 -0.04386128813262808 0 -0.046913866804897293 -0.04416080397086132 0 -0.046635711840634204 -0.04386128813262808 0 -0.046913866804897293 -0.04416080397086132 0 -0.047126649459554311 -0.043883231685995505 0 -0.046913866804897293 -0.04416080397086132 0 -0.047126649459554311 -0.043883231685995505 0 -0.047296272332651816 -0.044184690753538376 0 -0.047126649459554311 -0.043883231685995505 0 -0.047296272332651816 -0.044184690753538376 0 -0.047514271281814686 -0.044338564318596285 0 -0.04541725541379861 -0.041591500507978989 0 -0.044861452633517561 -0.041140395780202149 0 -0.046937025728149576 -0.044540383940411099 0 -0.047296272332651816 -0.044184690753538376 0 -0.047521866233907327 -0.044347770217233087 0 -0.046937025728149576 -0.044540383940411099 0 -0.046913866804897293 -0.04416080397086132 0 -0.047296272332651816 -0.044184690753538376 0 -0.044634027221130572 -0.037503882395705714 0 -0.044807700166130907 -0.037318592092284324 0 -0.044511762342764653 -0.03713795927330861 0 -0.042102360252954357 -0.038305596423754563 0 -0.041604225187484661 -0.039645669928440867 0 -0.038430391319948284 -0.037780617122053932 0 -0.042102360252954357 -0.038305596423754563 0 -0.04259867773845924 -0.038643336963513755 0 -0.041604225187484661 -0.039645669928440867 0 -0.044428989543455727 -0.041719801280561658 0 -0.044861452633517561 -0.041140395780202149 0 -0.044861452633517561 -0.041140395780202149 0 -0.042985518339589975 -0.035686826939725635 0 -0.047259936524192463 -0.0459335806187