<?xml version="1.0"?>
<VTKFile type="UnstructuredGrid" version="0.1" byte_order="LittleEndian">
<UnstructuredGrid>
<Piece NumberOfPoints="30618" NumberOfCells="10744">
<Points>
<DataArray type="Float64" NumberOfComponents="3" format="ascii">
-0.49427958746526202 -0.49999999999999512 0 -0.4943900888896422 -0.47349089190363358 0 -0.49427958746526202 -0.49999999999999512 0 -0.5 -0.5 0 -0.4943900888896422 -0.47349089190363358 0 -0.5 -0.5 0 -0.4943900888896422 -0.47349089190363358 0 -0.5 -0.44150235328842258 0 -0.49427958746526202 -0.49999999999999512 0 -0.4943900888896422 -0.47349089190363358 0 -0.48436842240857858 -0.48714093788813112 0 -0.49427958746526202 -0.49999999999999512 0 -0.47650045540741742 -0.5 0 -0.48436842240857858 -0.48714093788813112 0 -0.4943900888896422 -0.47349089190363358 0 -0.47066899942757451 -0.47576530412887819 0 -0.48436842240857858 -0.48714093788813112 0 -0.47066899942757451 -0.47576530412887819 0 -0.47650045540741742 -0.5 0 -0.48436842240857858 -0.48714093788813112 0 -0.47066899942757451 -0.47576530412887819 0 -0.45872132334957288 -0.49999999999999928 0 -0.45242967983978871 -0.4846708604340636 0 -0.47066899942757451 -0.47576530412887819 0 -0.47650045540741742 -0.5 0 -0.45872132334957288 -0.49999999999999928 0 -0.47066899942757451 -0.47576530412887819 0 -0.45872132334957288 -0.49999999999999928 0 -0.47066899942757451 -0.47576530412887819 0 -0.45242967983978871 -0.4846708604340636 0 -0.45249717469141032 -0.46588444847215849 0 -0.43763952177061649 -0.47770500498713542 0 -0.45242967983978871 -0.4846708604340636 0 -0.45249717469141032 -0.46588444847215849 0 -0.43763952177061649 -0.47770500498713542 0 -0.44291044788006362 -0.49999999999999939 0 -0.45242967983978871 -0.4846708604340636 0 -0.43763952177061649 -0.47770500498713542 0 -0.44291044788006362 -0.49999999999999939 0 -0.45872132334957288 -0.49999999999999928 0 -0.44291044788006362 -0.49999999999999939 0 -0.45242967983978871 -0.4846708604340636 0 -0.44838221886832419 -0.4464230337388379 0 -0.4323685956611692 -0.45541000997427139 0 -0.435988539966085 -0.44148905847597392 0 -0.44838221886832419 -0.4464230337388379 0 -0.44213238819953832 -0.43491600865963681 0 -0.435988539966085 -0.44148905847597392 0 -0.44838221886832419 -0.4464230337388379 0 -0.45249717469141032 -0.46588444847215849 0 -0.45755175660874181 -0.45423607616472811 0 -0.44838221886832419 -0.4464230337388379 0 -0.45249717469141032 -0.46588444847215849 0 -0.4323685956611692 -0.45541000997427139 0 -0.43763952177061649 -0.47770500498713542 0 -0.45249717469141032 -0.46588444847215849 0 -0.4323685956611692 -0.45541000997427139 0 -0.47066899942757451 -0.47576530412887819 0 -0.45249717469141032 -0.46588444847215849 0 -0.4675747862741928 -0.45726336772241771 0 -0.45249717469141032 -0.46588444847215849 0 -0.45755175660874181 -0.45423607616472811 0 -0.4675747862741928 -0.45726336772241771 0 -0.44838221886832419 -0.4464230337388379 0 -0.46897642374787268 -0.44262015471777721 0 -0.45660235518767722 -0.42786105997071933 0 -0.44838221886832419 -0.4464230337388379 0 -0.45755175660874181 -0.45423607616472811 0 -0.46897642374787268 -0.44262015471777721 0 -0.45755175660874181 -0.45423607616472811 0 -0.4675747862741928 -0.45726336772241771 0 -0.46897642374787268 -0.44262015471777721 0 -0.4943900888896422 -0.47349089190363358 0 -0.5 -0.44150235328842258 0 -0.49450059031402238 -0.44698178380727199 0 -0.46897642374787268 -0.44262015471777721 0 -0.48473746643246862 -0.43972512984246093 0 -0.48043585850414389 -0.43127077967876992 0 -0.46897642374787268 -0.44262015471777721 0 -0.4826166755055763 -0.45153060825775743 0 -0.48473746643246862 -0.43972512984246093 0 -0.4675747862741928 -0.45726336772241771 0 -0.46897642374787268 -0.44262015471777721 0 -0.4826166755055763 -0.45153060825775743 0 -0.47066899942757451 -0.47576530412887819 0 -0.4826166755055763 -0.45153060825775743 0 -0.4943900888896422 -0.47349089190363358 0 -0.47066899942757451 -0.47576530412887819 0 -0.4826166755055763 -0.45153060825775743 0 -0.47066899942757451 -0.47576530412887819 0 -0.4675747862741928 -0.45726336772241771 0 -0.4826166755055763 -0.45153060825775743 0 -0.4943900888896422 -0.47349089190363358 0 -0.49450059031402238 -0.44698178380727199 0 -0.4943900888896422 -0.47349089190363358 0 -0.4826166755055763 -0.45153060825775743 0 -0.49450059031402238 -0.44698178380727199 0 -0.4826166755055763 -0.45153060825775743 0 -0.48473746643246862 -0.43972512984246093 0 -0.49450059031402238 -0.44698178380727199 0 -0.5 -0.44150235328842258 0 -0.49461109173840262 -0.42047267571091063 0 -0.5 -0.39656953661894012 0 -0.49450059031402238 -0.44698178380727199 0 -0.49461109173840262 -0.42047267571091063 0 -0.48473746643246862 -0.43972512984246093 0 -0.49461109173840262 -0.42047267571091063 0 -0.48043585850414389 -0.43127077967876992 0 -0.5 -0.44150235328842258 0 -0.49450059031402238 -0.44698178380727199 0 -0.49461109173840262 -0.42047267571091063 0 -0.48473746643246862 -0.43972512984246093 0 -0.49450059031402238 -0.44698178380727199 0 -0.49461109173840262 -0.42047267571091063 0 -0.49461109173840262 -0.42047267571091063 0 -0.4947215931627828 -0.39396356761454909 0 -0.49461109173840262 -0.42047267571091063 0 -0.48393842445605872 -0.40713040098299402 0 -0.4947215931627828 -0.39396356761454909 0 -0.49461109173840262 -0.42047267571091063 0 -0.48393842445605872 -0.40713040098299402 0 -0.47214510592166908 -0.41939033492402211 0 -0.48393842445605872 -0.40713040098299402 0 -0.47214510592166908 -0.41939033492402211 0 -0.47427590700138023 -0.39469502568249409 0 -0.46897642374787268 -0.44262015471777721 0 -0.47214510592166908 -0.41939033492402211 0 -0.48043585850414389 -0.43127077967876992 0 -0.49461109173840262 -0.42047267571091063 0 -0.47214510592166908 -0.41939033492402211 0 -0.48043585850414389 -0.43127077967876992 0 -0.5 -0.39656953661894012 0 -0.4947215931627828 -0.39396356761454909 0 -0.48030453056746109 -0.36861144308094029 0 -0.49461109173840262 -0.42047267571091063 0 -0.5 -0.39656953661894012 0 -0.4947215931627828 -0.39396356761454909 0 -0.48393842445605872 -0.40713040098299402 0 -0.4947215931627828 -0.39396356761454909 0 -0.47427590700138023 -0.39469502568249409 0 -0.47427590700138023 -0.39469502568249409 0 -0.48030453056746109 -0.36861144308094029 0 -0.4947215931627828 -0.39396356761454909 0 -0.47427590700138023 -0.39469502568249409 0 -0.48030453056746109 -0.36861144308094029 0 -0.47427590700138023 -0.39469502568249409 0 -0.46334377193483078 -0.37842983215876019 0 -0.48030453056746109 -0.36861144308094029 0 -0.46334377193483078 -0.37842983215876019 0 -0.45726543839001688 -0.40541672899881109 0 -0.44416021803808919 -0.38243724496113263 0 -0.47427590700138023 -0.39469502568249409 0 -0.46334377193483078 -0.37842983215876019 0 -0.45726543839001688 -0.40541672899881109 0 -0.45726543839001688 -0.40541672899881109 0 -0.43814282409564848 -0.40387353522152758 0 -0.44416021803808919 -0.38243724496113263 0 -0.43814282409564848 -0.40387353522152758 0 -0.44416021803808919 -0.38243724496113263 0 -0.4329908326547659 -0.40007252460533121 0 -0.43814282409564848 -0.40387353522152758 0 -0.44416021803808919 -0.38243724496113263 0 -0.46897642374787268 -0.44262015471777721 0 -0.47214510592166908 -0.41939033492402211 0 -0.45660235518767722 -0.42786105997071933 0 -0.47214510592166908 -0.41939033492402211 0 -0.47427590700138023 -0.39469502568249409 0 -0.45726543839001688 -0.40541672899881109 0 -0.47214510592166908 -0.41939033492402211 0 -0.45726543839001688 -0.40541672899881109 0 -0.45660235518767722 -0.42786105997071933 0 -0.45726543839001688 -0.40541672899881109 0 -0.45660235518767722 -0.42786105997071933 0 -0.44309263043645408 -0.41812298423377797 0 -0.45726543839001688 -0.40541672899881109 0 -0.43814282409564848 -0.40387353522152758 0 -0.44309263043645408 -0.41812298423377797 0 -0.43814282409564848 -0.40387353522152758 0 -0.44309263043645408 -0.41812298423377797 0 -0.43209373842114163 -0.42530092927673752 0 -0.44838221886832419 -0.4464230337388379 0 -0.45660235518767722 -0.42786105997071933 0 -0.44213238819953832 -0.43491600865963681 0 -0.45660235518767722 -0.42786105997071933 0 -0.44213238819953832 -0.43491600865963681 0 -0.43132710435572019 -0.42815377149591122 0 -0.45660235518767722 -0.42786105997071933 0 -0.44309263043645408 -0.41812298423377797 0 -0.43132710435572019 -0.42815377149591122 0 -0.45660235518767722 -0.42786105997071933 0 -0.43132710435572019 -0.42815377149591122 0 -0.44213238819953832 -0.43491600865963681 0 -0.42986244815509678 -0.43337144475258638 0 -0.435988539966085 -0.44148905847597392 0 -0.44213238819953832 -0.43491600865963681 0 -0.42986244815509678 -0.43337144475258638 0 -0.43132710435572019 -0.42815377149591122 0 -0.42986244815509678 -0.43337144475258638 0 -0.43132710435572019 -0.42815377149591122 0 -0.42986244815509678 -0.43337144475258638 0 -0.42494843276815808 -0.42822764260015772 0 -0.42026026496879931 -0.43681168621285732 0 -0.42986244815509678 -0.43337144475258638 0 -0.42494843276815808 -0.42822764260015772 0 -0.43132710435572019 -0.42815377149591122 0 -0.42494843276815808 -0.42822764260015772 0 -0.43209373842114163 -0.42530092927673752 0 -0.42214799869492048 -0.41876725226122891 0 -0.42494843276815808 -0.42822764260015772 0 -0.43209373842114163 -0.42530092927673752 0 -0.42494843276815808 -0.42822764260015772 0 -0.43209373842114163 -0.42530092927673752 0 -0.43132710435572019 -0.42815377149591122 0 -0.42494843276815808 -0.42822764260015772 0 -0.43132710435572019 -0.42815377149591122 0 -0.44309263043645408 -0.41812298423377797 0 -0.43209373842114163 -0.42530092927673752 0 -0.43132710435572019 -0.42815377149591122 0 -0.43209373842114163 -0.42530092927673752 0 -0.43132710435572019 -0.42815377149591122 0 -0.43814282409564848 -0.40387353522152758 0 -0.43209373842114163 -0.42530092927673752 0 -0.43814282409564848 -0.40387353522152758 0 -0.43209373842114163 -0.42530092927673752 0 -0.42736227186559528 -0.41250939947999687 0 -0.43814282409564848 -0.40387353522152758 0 -0.42736227186559528 -0.41250939947999687 0 -0.42798743510346321 -0.40461924019690898 0
[...]
<PointData Scalars="" Vectors="displacement," Tensors="">
<DataArray type="Float64" Name="displacement" NumberOfComponents="3" format="ascii">
-0.054370271930694422 2.427517617375684e-07 0 -0.052903747379548671 0.00044908720346491764 0 -0.054377274881544632 7.0556821417273021e-07 0 -0.054995723336463104 -5.1433976540398414e-07 0 -0.054987731225313516 1.7745852966811271e-06 0 -0.054995723336463104 -5.1433976540398414e-07 0 -0.054987731225313516 1.7745852966811271e-06 0 -0.055001806438045114 4.7356278335736066e-07 0 -0.054367780993157422 2.664963794816744e-06 0 -0.050871770520948635 0.0010572526768073904 0 -0.052403291401354329 -9.5966347605813229e-05 0 -0.054367780993157422 2.664963794816744e-06 0 -0.052413811114562628 -1.5689623714426108e-06 0 -0.052403291401354329 -9.5966347605813229e-05 0 -0.050871770520948635 0.0010572526768073904 0 -0.051484142825895425 -0.00082432920459172805 0 -0.052403291401354329 -9.5966347605813229e-05 0 -0.051484142825895425 -0.00082432920459172805 0 -0.052413811114562628 -1.5689623714426108e-06 0 -0.052403291401354329 -9.5966347605813229e-05 0 -0.048093252809481742 0.00098791645665956816 0 -0.050452578041306123 2.6405798608560932e-06 0 -0.048863334289040106 2.838874515301281e-05 0 -0.051484142825895425 -0.00082432920459172805 0 -0.052413811114562628 -1.5689623714426108e-06 0 -0.050463890121234284 2.7345777500189052e-07 0 -0.049744900724192513 5.8664155396408035e-05 0 -0.050459222882203537 -6.1000812840512037e-09 0 -0.048093252809481742 0.00098791645665956816 0 -0.048863334289040106 2.838874515301281e-05 0 -0.047836370462243497 0.00056849662505175822 0 -0.048508351077138474 -0.00020114071688991331 0 -0.048863334289040106 2.838874515301281e-05 0 -0.047836370462243497 0.00056849662505175822 0 -0.048508351077138474 -0.00020114071688991331 0 -0.048726079355088582 -2.0635672207761347e-06 0 -0.048863334289040106 2.838874515301281e-05 0 -0.047174558493059057 -8.4845016447915517e-05 0 -0.04871958098598643 -1.4836978130142033e-08 0 -0.050452578041306123 2.6405798608560932e-06 0 -0.048726079355088582 -2.0635672207761347e-06 0 -0.048863334289040106 2.838874515301281e-05 0 -0.0474073158322839 0.00078729112210244347 0 -0.0464973135961309 1.8294596676786689e-05 0 -0.046872622580108596 0.00046778689061495807 0 -0.0474073158322839 0.00078729112210244347 0 -0.047389714600739284 0.00083120434165268812 0 -0.046872622580108596 0.00046778689061495807 0 -0.0474073158322839 0.00078729112210244347 0 -0.047836370462243497 0.00056849662505175822 0 -0.047796037857241687 0.0007335364162131679 0 -0.0474073158322839 0.00078729112210244347 0 -0.047836370462243497 0.00056849662505175822 0 -0.0464973135961309 1.8294596676786689e-05 0 -0.048508351077138474 -0.00020114071688991331 0 -0.047836370462243497 0.00056849662505175822 0 -0.0464973135961309 1.8294596676786689e-05 0 -0.048093252809481742 0.00098791645665956816 0 -0.047836370462243497 0.00056849662505175822 0 -0.048068457788720098 0.00072709534160882855 0 -0.047836370462243497 0.00056849662505175822 0 -0.047796037857241687 0.0007335364162131679 0 -0.048068457788720098 0.00072709534160882855 0 -0.0474073158322839 0.00078729112210244347 0 -0.048286373368637968 0.00075763609782456595 0 -0.048747808463477413 0.0016042930938294027 0 -0.0474073158322839 0.00078729112210244347 0 -0.047796037857241687 0.0007335364162131679 0 -0.048286373368637968 0.00075763609782456595 0 -0.047796037857241687 0.0007335364162131679 0 -0.048068457788720098 0.00072709534160882855 0 -0.048286373368637968 0.00075763609782456595 0 -0.054987731225313516 1.7745852966811271e-06 0 -0.055001806438045114 4.7356278335736066e-07 0 -0.054993756948684754 2.7647082647159558e-06 0 -0.048286373368637968 0.00075763609782456595 0 -0.048784939303120035 0.00012891856502365956 0 -0.049356746373527743 0.00022671568177867868 0 -0.048286373368637968 0.00075763609782456595 0 -0.048523402254709892 9.4616016833682875e-05 0 -0.048784939303120035 0.00012891856502365956 0 -0.048068457788720098 0.00072709534160882855 0 -0.048286373368637968 0.00075763609782456595 0 -0.048523402254709892 9.4616016833682875e-05 0 -0.049744900724192513 5.8664155396408035e-05 0 -0.048637597428188996 0.0001533791450233036 0 -0.050871770520948635 0.0010572526768073904 0 -0.051484142825895425 -0.00082432920459172805 0 -0.048523402254709892 9.4616016833682875e-05 0 -0.048093252809481742 0.00098791645665956816 0 -0.048068457788720098 0.00072709534160882855 0 -0.048523402254709892 9.4616016833682875e-05 0 -0.052903747379548671 0.00044908720346491764 0 -0.051832022133212759 8.9628560151201793e-05 0 -0.050871770520948635 0.0010572526768073904 0 -0.048523402254709892 9.4616016833682875e-05 0 -0.048428532194737264 0.00021903758561892645 0 -0.048523402254709892 9.4616016833682875e-05 0 -0.048784939303120035 0.00012891856502365956 0 -0.048428532194737264 0.00021903758561892645 0 -0.055001806438045114 4.7356278335736066e-07 0 -0.055009341556872496 -3.7354420597716661e-06 0 -0.054996866680991824 -1.3973197246615606e-06 0 -0.051832022133212759 8.9628560151201793e-05 0 -0.05275290081208496 -0.00041499280319713162 0 -0.048784939303120035 0.00012891856502365956 0 -0.050395223959341116 -0.001036200028739595 0 -0.049356746373527743 0.00022671568177867868 0 -0.055001806438045114 4.7356278335736066e-07 0 -0.054993756948684754 2.7647082647159558e-06 0 -0.055009341556872496 -3.7354420597716661e-06 0 -0.048784939303120035 0.00012891856502365956 0 -0.048428532194737264 0.00021903758561892645 0 -0.050395223959341116 -0.001036200028739595 0 -0.05275290081208496 -0.00041499280319713162 0 -0.054590205380221642 -0.0002140155369424102 0 -0.050395223959341116 -0.001036200028739595 0 -0.052378287935942264 0.00017918147801136301 0 -0.054788081294430885 -0.00011771433619053353 0 -0.050395223959341116 -0.001036200028739595 0 -0.052378287935942264 0.00017918147801136301 0 -0.050360556505280825 0.00084250326980708432 0 -0.052378287935942264 0.00017918147801136301 0 -0.050360556505280825 0.00084250326980708432 0 -0.053732726268573679 0.00079172787841364032 0 -0.048286373368637968 0.00075763609782456595 0 -0.050360556505280825 0.00084250326980708432 0 -0.049356746373527743 0.00022671568177867868 0 -0.050395223959341116 -0.001036200028739595 0 -0.050360556505280825 0.00084250326980708432 0 -0.049356746373527743 0.00022671568177867868 0 -0.054996866680991824 -1.3973197246615606e-06 0 -0.054788081294430885 -0.00011771433619053353 0 -0.054932187506050195 6.932760124177972e-05 0 -0.055009341556872496 -3.7354420597716661e-06 0 -0.054996866680991824 -1.3973197246615606e-06 0 -0.054788081294430885 -0.00011771433619053353 0 -0.052378287935942264 0.00017918147801136301 0 -0.054788081294430885 -0.00011771433619053353 0 -0.053732726268573679 0.00079172787841364032 0 -0.05371119089812311 0.00075699066201210499 0 -0.055575157061259976 0.00019302608993341391 0 -0.054788081294430885 -0.00011771433619053353 0 -0.053732726268573679 0.00079172787841364032 0 -0.054932187506050195 6.932760124177972e-05 0 -0.053732726268573679 0.00079172787841364032 0 -0.055064157646422626 0.0017600550903474992 0 -0.055892446998147098 0.00034461027670519133 0 -0.055064157646422626 0.0017600550903474992 0 -0.052141243315196213 0.0022526530957427114 0 -0.054610905486921053 0.0036772931345989582 0 -0.053732726268573679 0.00079172787841364032 0 -0.055064157646422626 0.0017600550903474992 0 -0.052141243315196213 0.0022526530957427114 0 -0.052141243315196213 0.0022526530957427114 0 -0.052225428869274323 0.0044648681432855938 0 -0.054610905486921053 0.0036772931345989582 0 -0.042314810568405872 0.0013338124421567738 0 -0.044583625337646988 0.00049076254225998242 0 -0.04259478286227017 0.0017088171410826001 0 -0.04728405018113728 0.002960170552665889 0 -0.04969500905748335 0.0021075743173909318 0 -0.048286373368637968 0.00075763609782456595 0 -0.050360556505280825 0.00084250326980708432 0 -0.048747808463477413 0.0016042930938294027 0 -0.050360556505280825 0.00084250326980708432 0 -0.053732726268573679 0.00079172787841364032 0 -0.052141243315196213 0.0022526530957427114 0 -0.050360556505280825 0.00084250326980708432 0 -0.052141243315196213 0.0022526530957427114 0 -0.048747808463477413 0.0016042930938294027 0 -0.052141243315196213 0.0022526530957427114 0 -0.048747808463477413 0.0016042930938294027 0 -0.050278834551451004 0.0038313095555562822 0 -0.052141243315196213 0.0022526530957427114 0 -0.052225428869274323 0.0044648681432855938 0 -0.050278834551451004 0.0038313095555562822 0 -0.052225428869274323 0.0044648681432855938 0 -0.050278834551451004 0.0038313095555562822 0 -0.049188414034625934 0.0054862138226782365 0 -0.0474073158322839 0.00078729112210244347 0 -0.048747808463477413 0.0016042930938294027 0 -0.047389714600739284 0.00083120434165268812 0 -0.048747808463477413 0.0016042930938294027 0 -0.047389714600739284 0.00083120434165268812 0 -0.046482713957471437 0.00038086252024412104 0 -0.048747808463477413 0.0016042930938294027 0 -0.050278834551451004 0.0038313095555562822 0 -0.048748144967439032 0.0056119743130397266 0 -0.048783715159619566 0.0018059194311802894 0 -0.046457445980640499 0.0022962245322493487 0 -0.047389714600739284 0.00083120434165268812 0 -0.046519082802507175 0.00029438363449561209 0 -0.046872622580108596 0.00046778689061495807 0 -0.047389714600739284 0.00083120434165268812 0 -0.046519082802507175 0.00029438363449561209 0 -0.046482713957471437 0.00038086252024412104 0 -0.046689196401056496 0.0017476455121682416 0 -0.046457445980640499 0.0022962245322493487 0 -0.046519082802507175 0.00029438363449561209 0 -0.046271885807805314 0.00014865856296329236 0 -0.04602326052317942 8.9768790835455185e-05 0 -0.046519082802507175 0.00029438363449561209 0 -0.046271885807805314 0.00014865856296329236 0 -0.046294670823290029 0.00037609913250830095 0 -0.041765047990647883 0.0018390578415485353 0 -0.041815165584213311 0.0016747435195328089 0 -0.041975220483358645 0.0019007920530148955 0 -0.044006509834542983 0.0012066668957946515 0 -0.045324645984592328 0.0027725574098454815 0 -0.04500063399058514 0.0018276722106259356 0 -0.045013116124432886 0.0018082607917269532 0 -0.04500408060788226 0.001809979278118438 0 -0.044006509834542983 0.0012066668957946515 0 -0.046457445980640499 0.0022962245322493487 0 -0.050278834551451004 0.0038313095555562822 0 -0.049188414034625934 0.0054862138226782365 0 -0.048748144967439032 0.0056119743130397266 0 -0.045324645984592328 0.0027725574098454815 0 -0.046457445980640499 0.0022962245322493487 0 -0.04728405018113728 0.002960170552665889 0 -0.045324645984592328 0.0027725574098454815 0 -0.042314810568405872 0.0013338124421567738 0 -0.041815165584213311 0.0016747435195328089 0 -0.042121684542149714 0.0017765646945580352 0 -0.042314810568405872 0.0013338124421567738 0 -0.042121684542149714 0.0017765646945580352 0 -0.042373113382876762 0.0017989924619901832 0 -0.042121684542149714 0.0017765646945580352 0 -0.041975220483358645 0.0019007920530148955 0 -0.042184440413880718 0.0020379485455364532 0 -0.042121684542149714 0.0017765646945580352 0 -0.042184440413880718 0.0020379485455364532 0 -0.042373113382876762 0.0017989924619901832 0 -0.041815165584213311 0.0016747435195328089 0 -0.042121684542149714 0.0017765646945580352 0 -0.041975220483358645 0.0019007920530148955 0 -0.042184440413880718 0.0020379485455364532 0 -0.041957244876915802 0.0020994123115514207 0 -0.042071380056287841 0.0023515603492785531 0 -0.042184440413880718 0.0020379485455364532 0 -0.042320846584116029 0.0022739929414048936 0 -0.042071380056287841 0.0023515603492785531 0 -0.041975220483358645 0.0019007920530148955 0 -0.042184440413880718 0.0020379485455364532 0 -0.041957244876915802 0.0020994123115514207 0 -0.046271885807805314 0.00014865856296329236 0 -0.04602326052317942 8.9768790835455185e-05 0 -0.045330564810530306 3.2487506538397689e-05 0 -0.044006509834542983 0.0012066668957946515 0 -0.043360894903134571 8.522380916750952e-05 0 -0.041311221480710522 0.00082254667225685214 0 -0.041376187765565051 0.00053327089125382744 0 -0.041260099671749158 0.00051038767180319571 0 -0.044006509834542983 0.0012066668957946515 0 -0.041293789769832515 0.00145583120779664 0 -0.041765047990647883 0.0018390578415485353 0 -0.041957244876915802 0.0020994123115514207 0 -0.041785228102022148 0.002331762983774762 0 -0.041765047990647883 0.0018390578415485353 0 -0.041975220483358645 0.0019007920530148955 0 -0.041957244876915802 0.0020994123115514207 0 -0.042687337691147159 0.0016084727928581722 0 -0.043766006826140187 0.0032837969423933256 0 -0.04259478286227017 0.0017088171410826001 0 -0.04260402994821199 0.0019971828372346997 0 -0.042763761185755873 0.0020110204628834409 0 -0.044633999465417865 0.0017885978479719577 0 -0.04259478286227017 0.0017088171410826001 0 -0.045222203191378374 0.0033640158835088465 0 -0.044583625337646988 0.00049076254225998242 0 -0.044633999465417865 0.0017885978479719577 0 -0.04259478286227017 0.0017088171410826001 0 -0.044633999465417865 0.0017885978479719577 0 -0.045222203191378374 0.0033640158835088465 0 -0.046170546455729412 0.0015885284976988249 0 -0.044583625337646988 0.00049076254225998242 0 -0.044633999465417865 0.0017885978479719577 0 -0.046170546455729412 0.0015885284976988249 0 -0.04259478286227017 0.0017088171410826001 0 -0.04243167103231351 0.0019328767590322407 0 -0.04260402994821199 0.0019971828372346997 0 -0.042314810568405872 0.0013338124421567738 0 -0.04259478286227017 0.0017088171410826001 0 -0.042373113382876762 0.0017989924619901832 0 -0.04259478286227017 0.0017088171410826001 0 -0.042373113382876762 0.0017989924619901832 0 -0.04243167103231351 0.0019328767590322407 0 -0.042184440413880718 0.0020379485455364532 0 -0.042373113382876762 0.0017989924619901832 0 -0.04243167103231351 0.0019328767590322407 0 -0.042475975010885278 0.0022323605892235602 0 -0.04260402994821199 0.0019971828372346997 0 -0.042648596615193754 0.0023308707127909479 0 -0.042184440413880718 0.0020379485455364532 0 -0.04243167103231351 0.0019328767590322407 0 -0.042408580417806888 0.0020936224997787595 0 -0.042184440413880718 0.0020379485455364532 0 -0.042408580417806888 0.0020936224997787595 0 -0.042320846584116029 0.0022739929414048936 0 -0.042408580417806888 0.0020936224997787595 0 -0.042475975010885278 0.0022323605892235602 0 -0.042320846584116029 0.0022739929414048936 0 -0.042408580417806888 0.0020936224997787595 0 -0.042475975010885278 0.0022323605892235602 0 -0.04260402994821199 0.0019971828372346997 0 -0.04243167103231351 0.0019328767590322407 0 -0.042408580417806888 0.0020936224997787595 0 -0.04260402994821199 0.0019971828372346997 0 -0.04264508740768095 0.0021739809880483973 0 -0.040797725259471035 0.0023832630339123912 0 -0.04260402994821199 0.0019971828372346997 0 -0.042707738435012632 0.0021080762497709287 0 -0.042640682486112351 0.0022233386001964442 0 -0.04260402994821199 0.0019971828372346997 0 -0.042710919775762649 0.002037213821715574 0 -0.042763761185755873 0.0020110204628834409 0 -0.04260402994821199 0.0019971828372346997 0 -0.042709133096689236 0.0020770181295721398 0 -0.042710919775762649 0.002037213821715574 0 -0.04260402994821199 0.0019971828372346997 0 -0.042709133096689236 0.0020770181295721398 0 -0.042707738435012632 0.0021080762497709287 0 -0.04137924443113556 0.0033029369345923994 0 -0.040660074269486896 0.0027728000597159129 0 -0.042709133096689236 0.0020770181295721398 0 -0.042732966167154482 0.0020606391574632234 0 -0.042706556399256586 0.0021093115470479187 0 -0.038691044521684002 0.0032788242253838713 0 -0.038740490874559698 0.0031750754555322676 0 -0.03833528445312822 0.0029566266591101163 0 -0.040784961553055998 0.0026226899058393459 0 -0.040660074269486896 0.0027728000597159129 0 -0.04137924443113556 0.0033029369345923994 0 -0.043766006826140187 0.0032837969423933256 0 -0.04273152164065052 0.0020599513715601637 0 -0.042710919775762649 0.002037213821715574 0 -0.042763761185755873 0.0020110204628834409 0 -0.042709133096689236 0.0020770181295721398 0 -0.042732966167154482 0.0020606391574632234 0 -0.042710919775762649 0.002037213821715574 0 -0.04137924443113556 0.0033029369345923994 0 -0.041492465395439632 0.0032238787460517576 0 -0.038993319863902809 0.0026355732308101882 0 -0.038968163368511631 0.0021776567358516088 0 -0.03909053892650443 0.0024219564287355352 0 -0.038888449350521395 0.0023462241988369231 0 -0.038900629999430086 0.0023575635819062125 0 -0.038904438345750927 0.0023347835645752069 0 -0.038740490874559698 0.0031750754555322676 0 -0.038725608088859852 0.0026813710277145708 0 -0.03833528445312822 0.0029566266591101163 0 -0.040660074269486896 0.0027728000597159129 0 -0.036512672818858456 0.0022607649516091944 0 -0.040660074269486896 0.0027728000597159129 0 -0.040797725259471035 0.0023832630339123912 0 -0.036512672818858456 0.0022607649516091944 0 -0.040797725259471035 0.0023832630339123912 0 -0.042648596615193754 0.0023308707127909479 0 -0.042407924524458393 0.002464341227433527 0 -0.042393828447569205 0.0027635483539503419 0 -0.040797725259471035 0.0023832630339123912 0 -0.038682695953987691 0.0021208326269208304 0 -0.042475975010885278 0.0022323605892235602 0 -0.042407924524458393 0.002464341227433527 0 -0.042320846584116029 0.0022739929414048936 0 -0.042475975010885278 0.0022323605892235602 0 -0.042648596615193754 0.0023308707127909479 0 -0.042407924524458393 0.002464341227433527 0 -0.042407924524458393 0.002464341227433527 0 -0.042320846584116029 0.0022739929414048936 0 -0.042253770631767634 0.0024292542513151849 0 -0.042320846584116029 0.0022739929414048936 0 -0.042253770631767634 0.0024292542513151849 0 -0.042071380056287841 0.0023515603492785531 0 -0.042253770631767634 0.0024292542513151849 0 -0.042295373268438081 0.0026268862945382819 0 -0.042120334941315174 0.0025610041456488259 0 -0.042407924524458393 0.002464341227433527 0 -0.042253770631767634 0.0024292542513151849 0 -0.042295373268438081 0.0026268862945382819 0 -0.042056118790961758 0.002615475952167148 0 -0.042057899323230556 0.0026133121463918782 0 -0.042120334941315174 0.0025610041456488259 0 -0.042057899323230556 0.0026133121463918782 0 -0.042032453939627491 0.0026297558332043919 0 -0.042120334941315174 0.0025610041456488259 0 -0.042295373268438081 0.0026268862945382819 0 -0.042347609999118171 0.0027984403530912634 0 -0.042120334941315174 0.0025610041456488259 0 -0.038525426733376743 0.0022690460181113391 0 -0.042327057969523262 0.0033753385272864101 0 -0.038525426733376743 0.0022690460181113391 0 -0.03466283752655374 0.0010367654580763668 0 -0.042037256383470695 0.0026263054016878082 0 -0.042037924098789828 0.0026197194130530392 0 -0.042030675270939767 0.0026338021021654117 0 -0.042056118790961758 0.002615475952167148 0 -0.042057899323230556 0.0026133121463918782 0 -0.042044630761169009 0.0026217162459014954 0 -0.042056118790961758 0.002615475952167148 0 -0.042033693869255567 0.002628560935920142 0 -0.042044630761169009 0.0026217162459014954 0 -0.042033693869255567 0.002628560935920142 0 -0.042044630761169009 0.0026217162459014954 0 -0.042037256383470695 0.0026263054016878082 0 -0.042044630761169009 0.0026217162459014954 0 -0.042037256383470695 0.0026263054016878082 0 -0.042038830043578987 0.0026223526442178359 0 -0.042037256383470695 0.0026263054016878082 0 -0.042038830043578987 0.0026223526442178359 0 -0.042037924098789828 0.0026197194130530392 0 -0.039008622828945023 0.0020807931305213199 0 -0.038525426733376743 0.0022690460181113391 0 -0.042057899323230556 0.0026133121463918782 0 -0.042038830043578987 0.0026223526442178359 0 -0.042032453939627491 0.0026297558332043919 0 -0.042057899323230556 0.0026133121463918782 0 -0.042044630761169009 0.0026217162459014954 0 -0.042038830043578987 0.0026223526442178359 0 -0.03582054393747322 0.00065729145934597473 0 -0.036160631258512675 0.0010089464459496346 0 -0.035564449039881235 0.0013647807950574399 0 -0.035144717471523451 0.0015971430107772678 0 -0.035068460129191216 0.0014075506478875253 0 -0.034626892818244229 0.0016661420030956813 0 -0.035144717471523451 0.0015971430107772678 0 -0.03521450545763697 0.0015514045361465245 0 -0.035068460129191216 0.0014075506478875253 0 -0.038682695953987