<?xml version="1.0"?>
<VTKFile type="UnstructuredGrid" version="0.1" byte_order="LittleEndian">
<UnstructuredGrid>
<Piece NumberOfPoints="30618" NumberOfCells="10744">
<Points>
<DataArray type="Float64" NumberOfComponents="3" format="ascii">
-0.49427958746526202 -0.49999999999999512 0 -0.4943900888896422 -0.47349089190363358 0 -0.49427958746526202 -0.49999999999999512 0 -0.5 -0.5 0 -0.4943900888896422 -0.47349089190363358 0 -0.5 -0.5 0 -0.4943900888896422 -0.47349089190363358 0 -0.5 -0.44150235328842258 0 -0.49427958746526202 -0.49999999999999512 0 -0.4943900888896422 -0.47349089190363358 0 -0.48436842240857858 -0.48714093788813112 0 -0.49427958746526202 -0.49999999999999512 0 -0.47650045540741742 -0.5 0 -0.48436842240857858 -0.48714093788813112 0 -0.4943900888896422 -0.47349089190363358 0 -0.47066899942757451 -0.47576530412887819 0 -0.48436842240857858 -0.48714093788813112 0 -0.47066899942757451 -0.47576530412887819 0 -0.47650045540741742 -0.5 0 -0.48436842240857858 -0.48714093788813112 0 -0.47066899942757451 -0.47576530412887819 0 -0.45872132334957288 -0.49999999999999928 0 -0.45242967983978871 -0.4846708604340636 0 -0.47066899942757451 -0.47576530412887819 0 -0.47650045540741742 -0.5 0 -0.45872132334957288 -0.49999999999999928 0 -0.47066899942757451 -0.47576530412887819 0 -0.45872132334957288 -0.49999999999999928 0 -0.47066899942757451 -0.47576530412887819 0 -0.45242967983978871 -0.4846708604340636 0 -0.45249717469141032 -0.46588444847215849 0 -0.43763952177061649 -0.47770500498713542 0 -0.45242967983978871 -0.4846708604340636 0 -0.45249717469141032 -0.46588444847215849 0 -0.43763952177061649 -0.47770500498713542 0 -0.44291044788006362 -0.49999999999999939 0 -0.45242967983978871 -0.4846708604340636 0 -0.43763952177061649 -0.47770500498713542 0 -0.44291044788006362 -0.49999999999999939 0 -0.45872132334957288 -0.49999999999999928 0 -0.44291044788006362 -0.49999999999999939 0 -0.45242967983978871 -0.4846708604340636 0 -0.44838221886832419 -0.4464230337388379 0 -0.4323685956611692 -0.45541000997427139 0 -0.435988539966085 -0.44148905847597392 0 -0.44838221886832419 -0.4464230337388379 0 -0.44213238819953832 -0.43491600865963681 0 -0.435988539966085 -0.44148905847597392 0 -0.44838221886832419 -0.4464230337388379 0 -0.45249717469141032 -0.46588444847215849 0 -0.45755175660874181 -0.45423607616472811 0 -0.44838221886832419 -0.4464230337388379 0 -0.45249717469141032 -0.46588444847215849 0 -0.4323685956611692 -0.45541000997427139 0 -0.43763952177061649 -0.47770500498713542 0 -0.45249717469141032 -0.46588444847215849 0 -0.4323685956611692 -0.45541000997427139 0 -0.47066899942757451 -0.47576530412887819 0 -0.45249717469141032 -0.46588444847215849 0 -0.4675747862741928 -0.45726336772241771 0 -0.45249717469141032 -0.46588444847215849 0 -0.45755175660874181 -0.45423607616472811 0 -0.4675747862741928 -0.45726336772241771 0 -0.44838221886832419 -0.4464230337388379 0 -0.46897642374787268 -0.44262015471777721 0 -0.45660235518767722 -0.42786105997071933 0 -0.44838221886832419 -0.4464230337388379 0 -0.45755175660874181 -0.45423607616472811 0 -0.46897642374787268 -0.44262015471777721 0 -0.45755175660874181 -0.45423607616472811 0 -0.4675747862741928 -0.45726336772241771 0 -0.46897642374787268 -0.44262015471777721 0 -0.4943900888896422 -0.47349089190363358 0 -0.5 -0.44150235328842258 0 -0.49450059031402238 -0.44698178380727199 0 -0.46897642374787268 -0.44262015471777721 0 -0.48473746643246862 -0.43972512984246093 0 -0.48043585850414389 -0.43127077967876992 0 -0.46897642374787268 -0.44262015471777721 0 -0.4826166755055763 -0.45153060825775743 0 -0.48473746643246862 -0.43972512984246093 0 -0.4675747862741928 -0.45726336772241771 0 -0.46897642374787268 -0.44262015471777721 0 -0.4826166755055763 -0.45153060825775743 0 -0.47066899942757451 -0.47576530412887819 0 -0.4826166755055763 -0.45153060825775743 0 -0.4943900888896422 -0.47349089190363358 0 -0.47066899942757451 -0.47576530412887819 0 -0.4826166755055763 -0.45153060825775743 0 -0.47066899942757451 -0.47576530412887819 0 -0.4675747862741928 -0.45726336772241771 0 -0.4826166755055763 -0.45153060825775743 0 -0.4943900888896422 -0.47349089190363358 0 -0.49450059031402238 -0.44698178380727199 0 -0.4943900888896422 -0.47349089190363358 0 -0.4826166755055763 -0.45153060825775743 0 -0.49450059031402238 -0.44698178380727199 0 -0.4826166755055763 -0.45153060825775743 0 -0.48473746643246862 -0.43972512984246093 0 -0.49450059031402238 -0.44698178380727199 0 -0.5 -0.44150235328842258 0 -0.49461109173840262 -0.42047267571091063 0 -0.5 -0.39656953661894012 0 -0.49450059031402238 -0.44698178380727199 0 -0.49461109173840262 -0.42047267571091063 0 -0.48473746643246862 -0.43972512984246093 0 -0.49461109173840262 -0.42047267571091063 0 -0.48043585850414389 -0.43127077967876992 0 -0.5 -0.44150235328842258 0 -0.49450059031402238 -0.44698178380727199 0 -0.49461109173840262 -0.42047267571091063 0 -0.48473746643246862 -0.43972512984246093 0 -0.49450059031402238 -0.44698178380727199 0 -0.49461109173840262 -0.42047267571091063 0 -0.49461109173840262 -0.42047267571091063 0 -0.4947215931627828 -0.39396356761454909 0 -0.49461109173840262 -0.42047267571091063 0 -0.48393842445605872 -0.40713040098299402 0 -0.4947215931627828 -0.39396356761454909 0 -0.49461109173840262 -0.42047267571091063 0 -0.48393842445605872 -0.40713040098299402 0 -0.47214510592166908 -0.41939033492402211 0 -0.48393842445605872 -0.40713040098299402 0 -0.47214510592166908 -0.41939033492402211 0 -0.47427590700138023 -0.39469502568249409 0 -0.46897642374787268 -0.44262015471777721 0 -0.47214510592166908 -0.41939033492402211 0 -0.48043585850414389 -0.43127077967876992 0 -0.49461109173840262 -0.42047267571091063 0 -0.47214510592166908 -0.41939033492402211 0 -0.48043585850414389 -0.43127077967876992 0 -0.5 -0.39656953661894012 0 -0.4947215931627828 -0.39396356761454909 0 -0.48030453056746109 -0.36861144308094029 0 -0.49461109173840262 -0.42047267571091063 0 -0.5 -0.39656953661894012 0 -0.4947215931627828 -0.39396356761454909 0 -0.48393842445605872 -0.40713040098299402 0 -0.4947215931627828 -0.39396356761454909 0 -0.47427590700138023 -0.39469502568249409 0 -0.47427590700138023 -0.39469502568249409 0 -0.48030453056746109 -0.36861144308094029 0 -0.4947215931627828 -0.39396356761454909 0 -0.47427590700138023 -0.39469502568249409 0 -0.48030453056746109 -0.36861144308094029 0 -0.47427590700138023 -0.39469502568249409 0 -0.46334377193483078 -0.37842983215876019 0 -0.48030453056746109 -0.36861144308094029 0 -0.46334377193483078 -0.37842983215876019 0 -0.45726543839001688 -0.40541672899881109 0 -0.44416021803808919 -0.38243724496113263 0 -0.47427590700138023 -0.39469502568249409 0 -0.46334377193483078 -0.37842983215876019 0 -0.45726543839001688 -0.40541672899881109 0 -0.45726543839001688 -0.40541672899881109 0 -0.43814282409564848 -0.40387353522152758 0 -0.44416021803808919 -0.38243724496113263 0 -0.43814282409564848 -0.40387353522152758 0 -0.44416021803808919 -0.38243724496113263 0 -0.4329908326547659 -0.40007252460533121 0 -0.43814282409564848 -0.40387353522152758 0 -0.44416021803808919 -0.38243724496113263 0 -0.46897642374787268 -0.44262015471777721 0 -0.47214510592166908 -0.41939033492402211 0 -0.45660235518767722 -0.42786105997071933 0 -0.47214510592166908 -0.41939033492402211 0 -0.47427590700138023 -0.39469502568249409 0 -0.45726543839001688 -0.40541672899881109 0 -0.47214510592166908 -0.41939033492402211 0 -0.45726543839001688 -0.40541672899881109 0 -0.45660235518767722 -0.42786105997071933 0 -0.45726543839001688 -0.40541672899881109 0 -0.45660235518767722 -0.42786105997071933 0 -0.44309263043645408 -0.41812298423377797 0 -0.45726543839001688 -0.40541672899881109 0 -0.43814282409564848 -0.40387353522152758 0 -0.44309263043645408 -0.41812298423377797 0 -0.43814282409564848 -0.40387353522152758 0 -0.44309263043645408 -0.41812298423377797 0 -0.43209373842114163 -0.42530092927673752 0 -0.44838221886832419 -0.4464230337388379 0 -0.45660235518767722 -0.42786105997071933 0 -0.44213238819953832 -0.43491600865963681 0 -0.45660235518767722 -0.42786105997071933 0 -0.44213238819953832 -0.43491600865963681 0 -0.43132710435572019 -0.42815377149591122 0 -0.45660235518767722 -0.42786105997071933 0 -0.44309263043645408 -0.41812298423377797 0 -0.43132710435572019 -0.42815377149591122 0 -0.45660235518767722 -0.42786105997071933 0 -0.43132710435572019 -0.42815377149591122 0 -0.44213238819953832 -0.43491600865963681 0 -0.42986244815509678 -0.43337144475258638 0 -0.435988539966085 -0.44148905847597392 0 -0.44213238819953832 -0.43491600865963681 0 -0.42986244815509678 -0.43337144475258638 0 -0.43132710435572019 -0.42815377149591122 0 -0.42986244815509678 -0.43337144475258638 0 -0.43132710435572019 -0.42815377149591122 0 -0.42986244815509678 -0.43337144475258638 0 -0.42494843276815808 -0.42822764260015772 0 -0.42026026496879931 -0.43681168621285732 0 -0.42986244815509678 -0.43337144475258638 0 -0.42494843276815808 -0.42822764260015772 0 -0.43132710435572019 -0.42815377149591122 0 -0.42494843276815808 -0.42822764260015772 0 -0.43209373842114163 -0.42530092927673752 0 -0.42214799869492048 -0.41876725226122891 0 -0.42494843276815808 -0.42822764260015772 0 -0.43209373842114163 -0.42530092927673752 0 -0.42494843276815808 -0.42822764260015772 0 -0.43209373842114163 -0.42530092927673752 0 -0.43132710435572019 -0.42815377149591122 0 -0.42494843276815808 -0.42822764260015772 0 -0.43132710435572019 -0.42815377149591122 0 -0.44309263043645408 -0.41812298423377797 0 -0.43209373842114163 -0.42530092927673752 0 -0.43132710435572019 -0.42815377149591122 0 -0.43209373842114163 -0.42530092927673752 0 -0.43132710435572019 -0.42815377149591122 0 -0.43814282409564848 -0.40387353522152758 0 -0.43209373842114163 -0.42530092927673752 0 -0.43814282409564848 -0.40387353522152758 0 -0.43209373842114163 -0.42530092927673752 0 -0.42736227186559528 -0.41250939947999687 0 -0.43814282409564848 -0.40387353522152758 0 -0.42736227186559528 -0.41250939947999687 0 -0.42798743510346321 -0.40461924019690898 0
[...]
<PointData Scalars="" Vectors="displacement," Tensors="">
<DataArray type="Float64" Name="displacement" NumberOfComponents="3" format="ascii">
-2.1705502910573637e-07 -0.054999136304429749 0 -0.00015425422514088002 -0.052665434721836601 0 3.5256651920306278e-10 -0.054999148485740147 0 -1.4395760084357232e-09 -0.054999863771989586 0 -3.5994750096107887e-07 -0.052089607809149376 0 -1.4395760084357232e-09 -0.054999863771989586 0 -3.5994750096107887e-07 -0.052089607809149376 0 -9.4517606240110802e-09 -0.048564813462991741 0 -1.4884535927856871e-07 -0.054999231886691514 0 -0.00018367790648715678 -0.053276679118103756 0 -0.0001151801940648685 -0.054267419306511827 0 -1.4884535927856871e-07 -0.054999231886691514 0 -1.7493526267437888e-07 -0.054998764622288775 0 -0.0001151801940648685 -0.054267419306511827 0 -0.00018367790648715678 -0.053276679118103756 0 -0.00014268201421928036 -0.053911001847802044 0 -0.0001151801940648685 -0.054267419306511827 0 -0.00014268201421928036 -0.053911001847802044 0 -1.7493526267437888e-07 -0.054998764622288775 0 -0.0001151801940648685 -0.054267419306511827 0 -0.00072885469820995602 -0.052808982559609627 0 -1.0208737077424397e-06 -0.054998648429154508 0 -0.00048598782353861567 -0.053979318419408243 0 -0.00014268201421928036 -0.053911001847802044 0 -1.7493526267437888e-07 -0.054998764622288775 0 5.9984652233284797e-08 -0.055000114419490417 0 -0.00041805441946966859 -0.053303049131533151 0 1.2409582114455012e-08 -0.054999332879048762 0 -0.00072885469820995602 -0.052808982559609627 0 -0.00048598782353861567 -0.053979318419408243 0 -0.00071062838575106351 -0.052937633962294041 0 -0.00071701898256096362 -0.053569833140604789 0 -0.00048598782353861567 -0.053979318419408243 0 -0.00071062838575106351 -0.052937633962294041 0 -0.00071701898256096362 -0.053569833140604789 0 -1.9943097531286441e-08 -0.054998069385703605 0 -0.00048598782353861567 -0.053979318419408243 0 -0.00048431305371185348 -0.054128392154672626 0 -2.9440994331586749e-07 -0.054999576436039664 0 -1.0208737077424397e-06 -0.054998648429154508 0 -1.9943097531286441e-08 -0.054998069385703605 0 -0.00048598782353861567 -0.053979318419408243 0 -0.00041344849662594405 -0.052301751884707287 0 -0.00047606510884808204 -0.053653071736505048 0 -0.00012464624247366055 -0.053073803837204843 0 -0.00041344849662594405 -0.052301751884707287 0 3.1612452150965657e-05 -0.05236379867765531 0 -0.00012464624247366055 -0.053073803837204843 0 -0.00041344849662594405 -0.052301751884707287 0 -0.00071062838575106351 -0.052937633962294041 0 -0.00057107589880502812 -0.052177685609284333 0 -0.00041344849662594405 -0.052301751884707287 0 -0.00071062838575106351 -0.052937633962294041 0 -0.00047606510884808204 -0.053653071736505048 0 -0.00071701898256096362 -0.053569833140604789 0 -0.00071062838575106351 -0.052937633962294041 0 -0.00047606510884808204 -0.053653071736505048 0 -0.00072885469820995602 -0.052808982559609627 0 -0.00071062838575106351 -0.052937633962294041 0 -0.00057393758670595775 -0.051953595737137509 0 -0.00071062838575106351 -0.052937633962294041 0 -0.00057107589880502812 -0.052177685609284333 0 -0.00057393758670595775 -0.051953595737137509 0 -0.00041344849662594405 -0.052301751884707287 0 -0.00051214601892267647 -0.050927633299352321 0 -0.00015063556071707459 -0.050524417231924898 0 -0.00041344849662594405 -0.052301751884707287 0 -0.00057107589880502812 -0.052177685609284333 0 -0.00051214601892267647 -0.050927633299352321 0 -0.00057107589880502812 -0.052177685609284333 0 -0.00057393758670595775 -0.051953595737137509 0 -0.00051214601892267647 -0.050927633299352321 0 -3.5994750096107887e-07 -0.052089607809149376 0 -9.4517606240110802e-09 -0.048564813462991741 0 1.4941211329613667e-06 -0.049172234857499254 0 -0.00051214601892267647 -0.050927633299352321 0 -0.00059885197014412429 -0.050425681723639433 0 -0.000601222647142552 -0.049750316933219477 0 -0.00051214601892267647 -0.050927633299352321 0 -0.00047866504864376607 -0.051450371041888453 0 -0.00059885197014412429 -0.050425681723639433 0 -0.00057393758670595775 -0.051953595737137509 0 -0.00051214601892267647 -0.050927633299352321 0 -0.00047866504864376607 -0.051450371041888453 0 -0.00041805441946966859 -0.053303049131533151 0 -0.00046837007478790928 -0.051786158346608692 0 -0.00018367790648715678 -0.053276679118103756 0 -0.00014268201421928036 -0.053911001847802044 0 -0.00047866504864376607 -0.051450371041888453 0 -0.00072885469820995602 -0.052808982559609627 0 -0.00057393758670595775 -0.051953595737137509 0 -0.00047866504864376607 -0.051450371041888453 0 -0.00015425422514088002 -0.052665434721836601 0 -0.00029753248580849834 -0.050122348651302849 0 -0.00018367790648715678 -0.053276679118103756 0 -0.00047866504864376607 -0.051450371041888453 0 -0.00054972433088593803 -0.051107146022528971 0 -0.00047866504864376607 -0.051450371041888453 0 -0.00059885197014412429 -0.050425681723639433 0 -0.00054972433088593803 -0.051107146022528971 0 -9.4517606240110802e-09 -0.048564813462991741 0 -3.1539931334149684e-05 -0.046257006376448292 0 -4.307703714493351e-07 -0.043624752284370155 0 -0.00029753248580849834 -0.050122348651302849 0 -0.00029105475301136659 -0.047126963683975419 0 -0.00059885197014412429 -0.050425681723639433 0 -0.00067766290482491626 -0.048207636657836651 0 -0.000601222647142552 -0.049750316933219477 0 -9.4517606240110802e-09 -0.048564813462991741 0 1.4941211329613667e-06 -0.049172234857499254 0 -3.1539931334149684e-05 -0.046257006376448292 0 -0.00059885197014412429 -0.050425681723639433 0 -0.00054972433088593803 -0.051107146022528971 0 -0.00067766290482491626 -0.048207636657836651 0 -0.00029105475301136659 -0.047126963683975419 0 0.00011675322719892462 -0.044526707669577149 0 -0.00067766290482491626 -0.048207636657836651 0 -0.00035926248814280044 -0.047002419717023972 0 3.077928425035263e-05 -0.043919861196886546 0 -0.00067766290482491626 -0.048207636657836651 0 -0.00035926248814280044 -0.047002419717023972 0 -0.00049053320867951922 -0.049049662547229596 0 -0.00035926248814280044 -0.047002419717023972 0 -0.00049053320867951922 -0.049049662547229596 0 0.00030819040564327956 -0.04678732239419596 0 -0.00051214601892267647 -0.050927633299352321 0 -0.00049053320867951922 -0.049049662547229596 0 -0.000601222647142552 -0.049750316933219477 0 -0.00067766290482491626 -0.048207636657836651 0 -0.00049053320867951922 -0.049049662547229596 0 -0.000601222647142552 -0.049750316933219477 0 -4.307703714493351e-07 -0.043624752284370155 0 3.077928425035263e-05 -0.043919861196886546 0 0.00035733322212350914 -0.042334917115139731 0 -3.1539931334149684e-05 -0.046257006376448292 0 -4.307703714493351e-07 -0.043624752284370155 0 3.077928425035263e-05 -0.043919861196886546 0 -0.00035926248814280044 -0.047002419717023972 0 3.077928425035263e-05 -0.043919861196886546 0 0.00030819040564327956 -0.04678732239419596 0 0.00012969896218956598 -0.046306204843275883 0 0.0015659669602534655 -0.044857857383485265 0 3.077928425035263e-05 -0.043919861196886546 0 0.00030819040564327956 -0.04678732239419596 0 0.00035733322212350914 -0.042334917115139731 0 0.00030819040564327956 -0.04678732239419596 0 0.002073402736619229 -0.048058170992177289 0 0.0030972033239095951 -0.046151357599481427 0 0.002073402736619229 -0.048058170992177289 0 -0.00013535838105356116 -0.049234850357455472 0 0.0016624424309286626 -0.049914128399202874 0 0.00030819040564327956 -0.04678732239419596 0 0.002073402736619229 -0.048058170992177289 0 -0.00013535838105356116 -0.049234850357455472 0 -0.00013535838105356116 -0.049234850357455472 0 6.0770293741927736e-05 -0.050300347046644912 0 0.0016624424309286626 -0.049914128399202874 0 -0.0013064001400045493 -0.043624360991816893 0 -0.00016953582763280748 -0.043239737606166284 0 -0.0010898590318991703 -0.043907469414048113 0 -0.00074534980733690509 -0.046741059116771143 0 0.00084280365695161652 -0.047176401002047133 0 -0.00051214601892267647 -0.050927633299352321 0 -0.00049053320867951922 -0.049049662547229596 0 -0.00015063556071707459 -0.050524417231924898 0 -0.00049053320867951922 -0.049049662547229596 0 0.00030819040564327956 -0.04678732239419596 0 -0.00013535838105356116 -0.049234850357455472 0 -0.00049053320867951922 -0.049049662547229596 0 -0.00013535838105356116 -0.049234850357455472 0 -0.00015063556071707459 -0.050524417231924898 0 -0.00013535838105356116 -0.049234850357455472 0 -0.00015063556071707459 -0.050524417231924898 0 -0.00026976145827669939 -0.050137973058605984 0 -0.00013535838105356116 -0.049234850357455472 0 6.0770293741927736e-05 -0.050300347046644912 0 -0.00026976145827669939 -0.050137973058605984 0 6.0770293741927736e-05 -0.050300347046644912 0 -0.00026976145827669939 -0.050137973058605984 0 -0.0002690954008687469 -0.050093478433128669 0 -0.00041344849662594405 -0.052301751884707287 0 -0.00015063556071707459 -0.050524417231924898 0 3.1612452150965657e-05 -0.05236379867765531 0 -0.00015063556071707459 -0.050524417231924898 0 3.1612452150965657e-05 -0.05236379867765531 0 0.00095486004893102175 -0.053478275634837487 0 -0.00015063556071707459 -0.050524417231924898 0 -0.00026976145827669939 -0.050137973058605984 0 -0.00024463664124298992 -0.050070634126628967 0 3.9736682268190627e-05 -0.051028852285878348 0 -8.8192637533051265e-05 -0.050938200960515732 0 3.1612452150965657e-05 -0.05236379867765531 0 0.00040213697667968172 -0.053577688451915961 0 -0.00012464624247366055 -0.053073803837204843 0 3.1612452150965657e-05 -0.05236379867765531 0 0.00040213697667968172 -0.053577688451915961 0 0.00095486004893102175 -0.053478275634837487 0 2.9346504494469546e-05 -0.051589440922947725 0 -8.8192637533051265e-05 -0.050938200960515732 0 0.00040213697667968172 -0.053577688451915961 0 0.00061218431327555935 -0.053818996800758724 0 0.00025119738319377661 -0.054021857338527671 0 0.00040213697667968172 -0.053577688451915961 0 0.00061218431327555935 -0.053818996800758724 0 0.00063050451415839158 -0.0535105590762208 0 -0.0028140383900864398 -0.044473153026792736 0 -0.0026310374635558284 -0.044031208537958069 0 -0.0022375417423578601 -0.044626474495197931 0 -0.00033118001770463771 -0.050113443952430031 0 -0.00024243491543750797 -0.049285671103640676 0 -0.00057191727742275937 -0.050140606897792324 0 -0.00050065976240351953 -0.049970814498720706 0 -0.00056872417385940392 -0.04998968363397352 0 -0.00033118001770463771 -0.050113443952430031 0 -8.8192637533051265e-05 -0.050938200960515732 0 -0.00026976145827669939 -0.050137973058605984 0 -0.0002690954008687469 -0.050093478433128669 0 -0.00024463664124298992 -0.050070634126628967 0 -0.00024243491543750797 -0.049285671103640676 0 -8.8192637533051265e-05 -0.050938200960515732 0 -0.00074534980733690509 -0.046741059116771143 0 -0.00024243491543750797 -0.049285671103640676 0 -0.0013064001400045493 -0.043624360991816893 0 -0.0026310374635558284 -0.044031208537958069 0 -0.0018483685259713864 -0.044291230880942917 0 -0.0013064001400045493 -0.043624360991816893 0 -0.0018483685259713864 -0.044291230880942917 0 -0.0013678911484798846 -0.04422977584285958 0 -0.0018483685259713864 -0.044291230880942917 0 -0.0022375417423578601 -0.044626474495197931 0 -0.0017030303718547659 -0.044959502935601053 0 -0.0018483685259713864 -0.044291230880942917 0 -0.0017030303718547659 -0.044959502935601053 0 -0.0013678911484798846 -0.04422977584285958 0 -0.0026310374635558284 -0.044031208537958069 0 -0.0018483685259713864 -0.044291230880942917 0 -0.0022375417423578601 -0.044626474495197931 0 -0.0017030303718547659 -0.044959502935601053 0 -0.0023006418581002571 -0.045181560592579016 0 -0.0018797686213358955 -0.045958965130898151 0 -0.0017030303718547659 -0.044959502935601053 0 -0.0012087783606927421 -0.045705981949384418 0 -0.0018797686213358955 -0.045958965130898151 0 -0.0022375417423578601 -0.044626474495197931 0 -0.0017030303718547659 -0.044959502935601053 0 -0.0023006418581002571 -0.045181560592579016 0 0.00061218431327555935 -0.053818996800758724 0 0.00025119738319377661 -0.054021857338527671 0 0.00019103976568909486 -0.054600855467207852 0 -0.00033118001770463771 -0.050113443952430031 0 0.00015040810397619686 -0.054286487560051604 0 0.00060539573308846797 -0.051786215664478247 0 0.00012633458260762523 -0.053073554984965847 0 0.00058481436863675449 -0.053176518946458605 0 -0.00033118001770463771 -0.050113443952430031 0 -0.0012090477830381417 -0.049093451788487438 0 -0.0028140383900864398 -0.044473153026792736 0 -0.0023006418581002571 -0.045181560592579016 0 -0.0028575040480304141 -0.045905984407000493 0 -0.0028140383900864398 -0.044473153026792736 0 -0.0022375417423578601 -0.044626474495197931 0 -0.0023006418581002571 -0.045181560592579016 0 -3.036940583219366e-05 -0.045455843435178458 0 -0.0014711947363931326 -0.039860900099798396 0 -0.0010898590318991703 -0.043907469414048113 0 -0.00056241413296873532 -0.044810426276735378 0 0.00023023448932905512 -0.044722375856854478 0 -0.00015518526243453137 -0.043840364314307607 0 -0.0010898590318991703 -0.043907469414048113 0 0.00010616866557074202 -0.044494367601721582 0 -0.00016953582763280748 -0.043239737606166284 0 -0.00015518526243453137 -0.043840364314307607 0 -0.0010898590318991703 -0.043907469414048113 0 -0.00015518526243453137 -0.043840364314307607 0 0.00010616866557074202 -0.044494367601721582 0 0.00053082478845201174 -0.043709229589722717 0 -0.00016953582763280748 -0.043239737606166284 0 -0.00015518526243453137 -0.043840364314307607 0 0.00053082478845201174 -0.043709229589722717 0 -0.0010898590318991703 -0.043907469414048113 0 -0.0011664081948359337 -0.044609402583415128 0 -0.00056241413296873532 -0.044810426276735378 0 -0.0013064001400045493 -0.043624360991816893 0 -0.0010898590318991703 -0.043907469414048113 0 -0.0013678911484798846 -0.04422977584285958 0 -0.0010898590318991703 -0.043907469414048113 0 -0.0013678911484798846 -0.04422977584285958 0 -0.0011664081948359337 -0.044609402583415128 0 -0.0017030303718547659 -0.044959502935601053 0 -0.0013678911484798846 -0.04422977584285958 0 -0.0011664081948359337 -0.044609402583415128 0 -0.00079314042385467489 -0.045573912001581306 0 -0.00056241413296873532 -0.044810426276735378 0 -0.00020152902619937759 -0.045894345916772723 0 -0.0017030303718547659 -0.044959502935601053 0 -0.0011664081948359337 -0.044609402583415128 0 -0.0010870806767507111 -0.045130294475990949 0 -0.0017030303718547659 -0.044959502935601053 0 -0.0010870806767507111 -0.045130294475990949 0 -0.0012087783606927421 -0.045705981949384418 0 -0.0010870806767507111 -0.045130294475990949 0 -0.00079314042385467489 -0.045573912001581306 0 -0.0012087783606927421 -0.045705981949384418 0 -0.0010870806767507111 -0.045130294475990949 0 -0.00079314042385467489 -0.045573912001581306 0 -0.00056241413296873532 -0.044810426276735378 0 -0.0011664081948359337 -0.044609402583415128 0 -0.0010870806767507111 -0.045130294475990949 0 -0.00056241413296873532 -0.044810426276735378 0 -0.00037878147815230862 -0.045366650027414267 0 -0.0012770443491180721 -0.044599586410539453 0 -0.00056241413296873532 -0.044810426276735378 0 -4.5178910065982995e-05 -0.045192414580078548 0 -0.00027718588221954253 -0.04563289187949942 0 -0.00056241413296873532 -0.044810426276735378 0 -3.3202610115501887e-05 -0.044893103868817244 0 0.00023023448932905512 -0.044722375856854478 0 -0.00056241413296873532 -0.044810426276735378 0 -3.9835572934159405e-05 -0.045062090921356684 0 -3.3202610115501887e-05 -0.044893103868817244 0 -0.00056241413296873532 -0.044810426276735378 0 -3.9835572934159405e-05 -0.045062090921356684 0 -4.5178910065982995e-05 -0.045192414580078548 0 -0.0016774635929463445 -0.041743361516485951 0 -0.0017353687711755706 -0.043068028734615772 0 -3.9835572934159405e-05 -0.045062090921356684 0 5.8564744163026614e-05 -0.044990496074694332 0 -4.6020422019018794e-05 -0.045179215454005148 0 -0.0030048092149305853 -0.041413350050877644 0 -0.002891534066513097 -0.041189038735792972 0 -0.0037588603703608814 -0.040695874569683155 0 -0.0016346911308217507 -0.04350666251338501 0 -0.0017353687711755706 -0.043068028734615772 0 -0.0016774635929463445 -0.041743361516485951 0 -0.0014711947363931326 -0.039860900099798396 0 7.6912990169118042e-05 -0.044993200452511151 0 -3.3202610115501887e-05 -0.044893103868817244 0 0.00023023448932905512 -0.044722375856854478 0 -3.9835572934159405e-05 -0.045062090921356684 0 5.8564744163026614e-05 -0.044990496074694332 0 -3.3202610115501887e-05 -0.044893103868817244 0 -0.0016774635929463445 -0.041743361516485951 0 -0.0011009740546892076 -0.042406114114131643 0 -0.0024187127812873577 -0.043657786832476439 0 -0.0024280174530104197 -0.042022923233104553 0 -0.002038699193003376 -0.042897497897144025 0 -0.0019465415978869034 -0.043656353919211729 0 -0.0020780243861604712 -0.043348029375956283 0 -0.0024034261918278628 -0.04397393092453903 0 -0.002891534066513097 -0.041189038735792972 0 -0.0028937003114129765 -0.04011784413407643 0 -0.0037588603703608814 -0.040695874569683155 0 -0.0017353687711755706 -0.043068028734615772 0 -0.0034242331920150562 -0.041221553017052583 0 -0.0017353687711755706 -0.043068028734615772 0 -0.0012770443491180721 -0.044599586410539453 0 -0.0034242331920150562 -0.041221553017052583 0 -0.0012770443491180721 -0.044599586410539453 0 -0.00020152902619937759 -0.045894345916772723 0 -0.00086756355239647309 -0.046302305412216832 0 -0.00085094105015572118 -0.047140286151712243 0 -0.0012770443491180721 -0.044599586410539453 0 -0.0023156024320485362 -0.044783596343091488 0 -0.00079314042385467489 -0.045573912001581306 0 -0.00086756355239647309 -0.046302305412216832 0 -0.0012087783606927421 -0.045705981949384418 0 -0.00079314042385467489 -0.045573912001581306 0 -0.00020152902619937759 -0.045894345916772723 0 -0.00086756355239647309 -0.046302305412216832 0 -0.00086756355239647309 -0.046302305412216832 0 -0.0012087783606927421 -0.045705981949384418 0 -0.0012953438838998884 -0.046214184328834965 0 -0.0012087783606927421 -0.045705981949384418 0 -0.0012953438838998884 -0.046214184328834965 0 -0.0018797686213358955 -0.045958965130898151 0 -0.0012953438838998884 -0.046214184328834965 0 -0.0011220890161377881 -0.046784078955031914 0 -0.001546135186926724 -0.046647333885246507 0 -0.00086756355239647309 -0.046302305412216832 0 -0.0012953438838998884 -0.046214184328834965 0 -0.0011220890161377881 -0.046784078955031914 0 -0.0014670740658986946 -0.047151010749802325 0 -0.0012986988462120076 -0.047131633123586314 0 -0.001546135186926724 -0.046647333885246507 0 -0.0012986988462120076 -0.047131633123586314 0 -0.0010265022560438726 -0.047228618961550332 0 -0.001546135186926724 -0.046647333885246507 0 -0.0011220890161377881 -0.046784078955031914 0 -0.00096998215779824581 -0.047217646533011283 0 -0.001546135186926724 -0.046647333885246507 0 -0.0021112524836587286 -0.04518297860699861 0 -0.00099567058638010543 -0.047061577975826246 0 -0.0021112524836587286 -0.04518297860699861 0 -0.0031168781505676326 -0.045034619823680878 0 -0.0012238822623634978 -0.047429544602681104 0 -0.0010338782993777346 -0.047224647957217036 0 -0.0011991865525846489 -0.047650635540699829 0 -0.0014670740658986946 -0.047151010749802325 0 -0.0012986988462120076 -0.047131633123586314 0 -0.0013182278719891204 -0.047309861057061739 0 -0.0014670740658986946 -0.047151010749802325 0 -0.0014522651143669013 -0.047447648439959023 0 -0.0013182278719891204 -0.047309861057061739 0 -0.0014522651143669013 -0.047447648439959023 0 -0.0013182278719891204 -0.047309861057061739 0 -0.0012238822623634978 -0.047429544602681104 0 -0.0013182278719891204 -0.047309861057061739 0 -0.0012238822623634978 -0.047429544602681104 0 -0.0011372212188240731 -0.047295610127364711 0 -0.0012238822623634978 -0.047429544602681104 0 -0.0011372212188240731 -0.047295610127364711 0 -0.0010338782993777346 -0.047224647957217036 0 -0.0020971902107817892 -0.045316641105005342 0 -0.0021112524836587286 -0.04518297860699861 0 -0.0012986988462120076 -0.047131633123586314 0 -0.0011372212188240731 -0.047295610127364711 0 -0.0010265022560438726 -0.047228618961550332 0 -0.0012986988462120076 -0.047131633123586314 0 -0.0013182278719891204 -0.047309861057061739 0 -0.00113722121