<?xml version="1.0"?>
<VTKFile type="UnstructuredGrid" version="0.1" byte_order="LittleEndian">
<UnstructuredGrid>
<Piece NumberOfPoints="30578" NumberOfCells="10723">
<Points>
<DataArray type="Float64" NumberOfComponents="3" format="ascii">
-0.5 -0.5 0 -0.47439485679867832 -0.48072581506667478 0 -0.5 -0.44765434486020428 0 -0.5 -0.5 0 -0.47439485679867832 -0.48072581506667478 0 -0.43702443379937372 -0.49999999999999922 0 -0.47439485679867832 -0.48072581506667478 0 -0.45530669598391149 -0.47718009944797551 0 -0.43702443379937372 -0.49999999999999922 0 -0.47439485679867832 -0.48072581506667478 0 -0.45530669598391149 -0.47718009944797551 0 -0.4597353119515426 -0.45943449384344293 0 -0.45530669598391149 -0.47718009944797551 0 -0.44381084376742141 -0.47114793899167112 0 -0.4597353119515426 -0.45943449384344293 0 -0.45530669598391149 -0.47718009944797551 0 -0.44381084376742141 -0.47114793899167112 0 -0.43702443379937372 -0.49999999999999922 0 -0.44381084376742141 -0.47114793899167112 0 -0.43702443379937372 -0.49999999999999922 0 -0.45059725373546922 -0.44229587798334291 0 -0.4339166039271336 -0.43498117536117131 0 -0.43309128002320102 -0.45351235807576151 0 -0.44381084376742141 -0.47114793899167112 0 -0.45059725373546922 -0.44229587798334291 0 -0.4597353119515426 -0.45943449384344293 0 -0.44381084376742141 -0.47114793899167112 0 -0.45059725373546922 -0.44229587798334291 0 -0.43309128002320102 -0.45351235807576151 0 -0.44381084376742141 -0.47114793899167112 0 -0.45059725373546922 -0.44229587798334291 0 -0.4597353119515426 -0.45943449384344293 0 -0.47505511338101108 -0.44868394208069429 0 -0.46517432262153441 -0.43649963461163338 0 -0.45059725373546922 -0.44229587798334291 0 -0.4597353119515426 -0.45943449384344293 0 -0.46517432262153441 -0.43649963461163338 0 -0.47505511338101108 -0.44868394208069429 0 -0.47820614292347569 -0.42776699273468149 0 -0.46517432262153441 -0.43649963461163338 0 -0.47505511338101108 -0.44868394208069429 0 -0.47820614292347569 -0.42776699273468149 0 -0.47439485679867832 -0.48072581506667478 0 -0.47505511338101108 -0.44868394208069429 0 -0.5 -0.44765434486020428 0 -0.47439485679867832 -0.48072581506667478 0 -0.4597353119515426 -0.45943449384344293 0 -0.47505511338101108 -0.44868394208069429 0 -0.47505511338101108 -0.44868394208069429 0 -0.5 -0.44765434486020428 0 -0.47820614292347569 -0.42776699273468149 0 -0.5 -0.44765434486020428 0 -0.49656450065014057 -0.42151023988558672 0 -0.47820614292347569 -0.42776699273468149 0 -0.5 -0.44765434486020428 0 -0.49656450065014057 -0.42151023988558672 0 -0.50000000000000089 -0.37904661106745707 0 -0.49656450065014057 -0.42151023988558672 0 -0.48135717246594062 -0.40685004338866881 0 -0.47820614292347569 -0.42776699273468149 0 -0.49656450065014057 -0.42151023988558672 0 -0.48135717246594062 -0.40685004338866881 0 -0.48135717246594062 -0.40685004338866881 0 -0.47820614292347569 -0.42776699273468149 0 -0.48135717246594062 -0.40685004338866881 0 -0.47820614292347569 -0.42776699273468149 0 -0.45738366370351707 -0.41344381697501481 0 -0.49656450065014057 -0.42151023988558672 0 -0.48135717246594062 -0.40685004338866881 0 -0.50000000000000089 -0.37904661106745707 0 -0.50000000000000089 -0.37904661106745707 0 -0.48466894952205442 -0.38486603086372417 0 -0.48717439863114548 -0.36823452950912272 0 -0.48135717246594062 -0.40685004338866881 0 -0.50000000000000089 -0.37904661106745707 0 -0.48466894952205442 -0.38486603086372417 0 -0.48466894952205442 -0.38486603086372417 0 -0.48717439863114548 -0.36823452950912272 0 -0.50000000000000089 -0.37904661106745707 0 -0.48466894952205442 -0.38486603086372417 0 -0.48135717246594062 -0.40685004338866881 0 -0.48466894952205442 -0.38486603086372417 0 -0.46593083509403682 -0.39197871725165279 0 -0.48135717246594062 -0.40685004338866881 0 -0.48466894952205442 -0.38486603086372417 0 -0.48135717246594062 -0.40685004338866881 0 -0.46593083509403682 -0.39197871725165279 0 -0.48466894952205442 -0.38486603086372417 0 -0.47195833844942919 -0.37959069520904498 0 -0.46593083509403682 -0.39197871725165279 0 -0.48466894952205442 -0.38486603086372417 0 -0.46593083509403682 -0.39197871725165279 0 -0.48466894952205442 -0.38486603086372417 0 -0.47195833844942919 -0.37959069520904498 0 -0.48717439863114548 -0.36823452950912272 0 -0.46593083509403682 -0.39197871725165279 0 -0.44890944387521442 -0.39029302340116001 0 -0.45132291774153199 -0.37789636588759368 0 -0.47195833844942919 -0.37959069520904498 0 -0.46593083509403682 -0.39197871725165279 0 -0.45132291774153199 -0.37789636588759368 0 -0.46593083509403682 -0.39197871725165279 0 -0.45132291774153199 -0.37789636588759368 0 -0.48135717246594062 -0.40685004338866881 0 -0.46593083509403682 -0.39197871725165279 0 -0.45738366370351707 -0.41344381697501481 0 -0.46593083509403682 -0.39197871725165279 0 -0.44275815558040038 -0.40077469311046232 0 -0.45738366370351707 -0.41344381697501481 0 -0.46593083509403682 -0.39197871725165279 0 -0.44275815558040038 -0.40077469311046232 0 -0.46593083509403682 -0.39197871725165279 0 -0.44275815558040038 -0.40077469311046232 0 -0.44890944387521442 -0.39029302340116001 0 -0.44275815558040038 -0.40077469311046232 0 -0.44064580868350911 -0.39542861624611658 0 -0.44890944387521442 -0.39029302340116001 0 -0.44225344557501872 -0.38376649822575309 0 -0.45132291774153199 -0.37789636588759368 0 -0.43671500038902772 -0.36381401452353412 0 -0.44890944387521442 -0.39029302340116001 0 -0.44225344557501872 -0.38376649822575309 0 -0.45132291774153199 -0.37789636588759368 0 -0.44064580868350911 -0.39542861624611658 0 -0.44225344557501872 -0.38376649822575309 0 -0.43040194378266172 -0.3881600185019185 0 -0.44064580868350911 -0.39542861624611658 0 -0.44890944387521442 -0.39029302340116001 0 -0.44225344557501872 -0.38376649822575309 0 -0.47820614292347569 -0.42776699273468149 0 -0.46517432262153441 -0.43649963461163338 0 -0.45738366370351707 -0.41344381697501481 0 -0.45059725373546922 -0.44229587798334291 0 -0.45738366370351707 -0.41344381697501481 0 -0.45059725373546922 -0.44229587798334291 0 -0.46517432262153441 -0.43649963461163338 0 -0.45738366370351707 -0.41344381697501481 0 -0.44275815558040038 -0.40077469311046232 0 -0.45738366370351707 -0.41344381697501481 0 -0.44164244492799948 -0.42121090558557039 0 -0.45059725373546922 -0.44229587798334291 0 -0.45738366370351707 -0.41344381697501481 0 -0.44164244492799948 -0.42121090558557039 0 -0.45059725373546922 -0.44229587798334291 0 -0.44164244492799948 -0.42121090558557039 0 -0.4339166039271336 -0.43498117536117131 0 -0.4339166039271336 -0.43498117536117131 0 -0.42355654769347711 -0.414558964497861 0 -0.41671115160429401 -0.44095791049380378 0 -0.44164244492799948 -0.42121090558557039 0 -0.4339166039271336 -0.43498117536117131 0 -0.42355654769347711 -0.414558964497861 0 -0.44275815558040038 -0.40077469311046232 0 -0.44164244492799948 -0.42121090558557039 0 -0.42355654769347711 -0.414558964497861 0 -0.42355654769347711 -0.414558964497861 0 -0.41056920252370888 -0.3963363404412637 0 -0.40050668374064252 -0.41734442193795029 0 -0.42355654769347711 -0.414558964497861 0 -0.41671115160429401 -0.44095791049380378 0 -0.42355654769347711 -0.414558964497861 0 -0.40050668374064252 -0.41734442193795029 0 -0.41671115160429401 -0.44095791049380378 0 -0.44225344557501872 -0.38376649822575309 0 -0.43040194378266172 -0.3881600185019185 0 -0.43671500038902772 -0.36381401452353412 0 -0.43040194378266172 -0.3881600185019185 0 -0.43671500038902772 -0.36381401452353412 0 -0.44064580868350911 -0.39542861624611658 0 -0.42355654769347711 -0.414558964497861 0 -0.43040194378266172 -0.3881600185019185 0 -0.42355654769347711 -0.414558964497861 0 -0.43040194378266172 -0.3881600185019185 0 -0.44275815558040038 -0.40077469311046232 0 -0.44064580868350911 -0.39542861624611658 0 -0.42355654769347711 -0.414558964497861 0 -0.44064580868350911 -0.39542861624611658 0 -0.43040194378266172 -0.3881600185019185 0 -0.42355654769347711 -0.414558964497861 0 -0.43040194378266172 -0.3881600185019185 0 -0.41056920252370888 -0.3963363404412637 0 -0.43040194378266172 -0.3881600185019185 0 -0.4079689369259607 -0.37224253963894771 0 -0.43040194378266172 -0.3881600185019185 0 -0.41056920252370888 -0.3963363404412637 0 -0.4079689369259607 -0.37224253963894771 0 -0.41056920252370888 -0.3963363404412637 0 -0.39195929229331972 -0.37982250283040359 0 -0.4079689369259607 -0.37224253963894771 0 -0.41056920252370888 -0.3963363404412637 0 -0.39195929229331972 -0.37982250283040359 0 -0.39357845321732049 -0.39746174547711199 0 -0.41056920252370888 -0.3963363404412637 0 -0.39357845321732049 -0.39746174547711199 0 -0.40050668374064252 -0.41734442193795029 0 -0.39357845321732049 -0.39746174547711199 0 -0.38114412328536468 -0.40833987260765031 0 -0.36544727141479139 -0.39026932065168712 0 -0.39195929229331972 -0.37982250283040359 0 -0.37549160074202448 -0.3732971907138336 0 -0.36544727141479139 -0.39026932065168712 0 -0.39195929229331972 -0.37982250283040359 0 -0.39357845321732049 -0.39746174547711199 0 -0.36544727141479139 -0.39026932065168712 0 -0.40050668374064252 -0.41734442193795029 0 -0.3944977858259317 -0.43926335073686201 0 -0.41671115160429401 -0.44095791049380378 0 -0.40050668374064252 -0.41734442193795029 0 -0.38028594703985957 -0.42392304976487449 0 -0.3944977858259317 -0.43926335073686201 0 -0.39357845321732049 -0.39746174547711199 0 -0.40050668374064252 -0.41734442193795029 0 -0.38114412328536468 -0.40833987260765031 0 -0.40050668374064252 -0.41734442193795029 0 -0.38114412328536468 -0.40833987260765031 0 -0.38028594703985957 -0.42392304976487449 0 -0.38114412328536468 -0.40833987260765031 0 -0.38028594703985957 -0.42392304976487449 0 -0.36590226101420908 -0.41270082520662749 0 -0.38028594703985957 -0.42392304976487449 0 -0.3944977858259317 -0.43926335073686201 0 -0.3723601590800425 -0.44005613486137668 0 -0.3944977858259317 -0.43926335073686201 0 -0.38265619596279349 -0.45813348326120767 0 -0.3723601590800425 -0.44005613486137668 0 -0.40093272222703252 -0.45142790024540502 0 -0.3944977858
[...]
<PointData Scalars="" Vectors="displacement," Tensors="">
<DataArray type="Float64" Name="displacement" NumberOfComponents="3" format="ascii">
0.044996859593936539 0.044996863457436982 0 0.044066270761053239 0.043655982905950887 0 0.040294805992874563 0.044997152637041841 0 0.044996859593936539 0.044996863457436982 0 0.044066270761053239 0.043655982905950887 0 0.044996548127705378 0.039342121143386928 0 0.044066270761053239 0.043655982905950887 0 0.044064339443601955 0.04239942850568406 0 0.044996548127705378 0.039342121143386928 0 0.044066270761053239 0.043655982905950887 0 0.044064339443601955 0.04239942850568406 0 0.04301104123363831 0.043220566416347438 0 0.044064339443601955 0.04239942850568406 0 0.043772698140099889 0.042535453555189298 0 0.04301104123363831 0.043220566416347438 0 0.044064339443601955 0.04239942850568406 0 0.043772698140099889 0.042535453555189298 0 0.044996548127705378 0.039342121143386928 0 0.044934807263048937 0.040991181720460623 0 0.044999366033288919 0.039332705009422778 0 0.045736184047382895 0.040285264651454496 0 0.04583219575392003 0.040219134621116794 0 0.046016155287297487 0.039869297552914171 0 0.043772698140099889 0.042535453555189298 0 0.043124281199427413 0.042766365977390718 0 0.04301104123363831 0.043220566416347438 0 0.046347985469577344 0.039671425411652798 0 0.045736184047382895 0.040285264651454496 0 0.046016155287297487 0.039869297552914171 0 0.044934807263048937 0.040991181720460623 0 0.044597820062867256 0.041545297485448815 0 0.04301104123363831 0.043220566416347438 0 0.041920688509448675 0.044650303045769058 0 0.043366996070668358 0.043451116017947468 0 0.043124281199427413 0.042766365977390718 0 0.04301104123363831 0.043220566416347438 0 0.043366996070668358 0.043451116017947468 0 0.041920688509448675 0.044650303045769058 0 0.044272635678809957 0.044686212186185278 0 0.043366996070668358 0.043451116017947468 0 0.041638168631166414 0.04475860144494756 0 0.0420048792558309 0.045129058637532297 0 0.044066270761053239 0.043655982905950887 0 0.041920688509448675 0.044650303045769058 0 0.040294805992874563 0.044997152637041841 0 0.044066270761053239 0.043655982905950887 0 0.04301104123363831 0.043220566416347438 0 0.041920688509448675 0.044650303045769058 0 0.041920688509448675 0.044650303045769058 0 0.040294805992874563 0.044997152637041841 0 0.039137412075666574 0.045662313140842417 0 0.040294805992874563 0.044997152637041841 0 0.038045599542081102 0.045212522815595201 0 0.039137412075666574 0.045662313140842417 0 0.040294805992874563 0.044997152637041841 0 0.038045599542081102 0.045212522815595201 0 0.03411259702361414 0.045000780161278148 0 0.038045599542081102 0.045212522815595201 0 0.03793490187199295 0.045661943888924646 0 0.039137412075666574 0.045662313140842417 0 0.037043109989510888 0.046004042916238774 0 0.04067580609479296 0.045079899757294636 0 0.04067580609479296 0.045079899757294636 0 0.0420048792558309 0.045129058637532297 0 0.046554305103787823 0.044769351505579806 0 0.044272635678809957 0.044686212186185278 0 0.045928208958421021 0.041994040204779787 0 0.038045599542081102 0.045212522815595201 0 0.036701638769572699 0.046645404393802277 0 0.03411259702361414 0.045000780161278148 0 0.034113840880484012 0.044999834754331593 0 0.034580215714099853 0.046302798387581674 0 0.033058763961266169 0.046040792150861314 0 0.036701638769572699 0.046645404393802277 0 0.03411259702361414 0.045000780161278148 0 0.034670897908243153 0.046372212699806688 0 0.035431882315784743 0.045683538639305458 0 0.032949503416166356 0.046010123809693507 0 0.034114494150093995 0.045000610077591451 0 0.035431882315784743 0.045683538639305458 0 0.040182224465897531 0.044690309542653212 0 0.039021649950704909 0.044519050189521688 0 0.039416132056189455 0.045484715828001468 0 0.04067580609479296 0.045079899757294636 0 0.035431882315784743 0.045683538639305458 0 0.04067580609479296 0.045079899757294636 0 0.042555264601109623 0.044047242744518822 0 0.034337247733309061 0.046200101359741425 0 0.033916268884540544 0.047188615988377008 0 0.034938353183268066 0.047649096293125595 0 0.035431882315784743 0.045683538639305458 0 0.042555264601109623 0.044047242744518822 0 0.034337247733309061 0.046200101359741425 0 0.033916268884540544 0.047188615988377008 0 0.033058763961266169 0.046040792150861314 0 0.046526805006089036 0.039722245362752581 0 0.046467631802652676 0.040498911169202158 0 0.045731516191947895 0.040350818732347686 0 0.033916268884540544 0.047188615988377008 0 0.034938353183268066 0.047649096293125595 0 0.033767257999446687 0.048827189732818604 0 0.042555264601109623 0.044047242744518822 0 0.039593305594520317 0.044745907032716845 0 0.046554305103787823 0.044769351505579806 0 0.047980823802670811 0.042949329481842914 0 0.045928208958421021 0.041994040204779787 0 0.047980823802670811 0.042949329481842914 0 0.046860283652736541 0.040807054997627143 0 0.045928208958421021 0.041994040204779787 0 0.042555264601109623 0.044047242744518822 0 0.047813819111972168 0.040116547834064681 0 0.046526805006089036 0.039722245362752581 0 0.046860283652736541 0.040807054997627143 0 0.046467631802652676 0.040498911169202158 0 0.046860283652736541 0.040807054997627143 0 0.046860275101800464 0.040824751433935769 0 0.046467631802652676 0.040498911169202158 0 0.046086564269772229 0.040848770326967147 0 0.045731516191947895 0.040350818732347686 0 0.044740627782980803 0.041246460494369266 0 0.046467631802652676 0.040498911169202158 0 0.046086564269772229 0.040848770326967147 0 0.045731516191947895 0.040350818732347686 0 0.046860275101800464 0.040824751433935769 0 0.046086564269772229 0.040848770326967147 0 0.046373141930538257 0.041593510423655465 0 0.046860275101800464 0.040824751433935769 0 0.046467631802652676 0.040498911169202158 0 0.046086564269772229 0.040848770326967147 0 0.044272635678809957 0.044686212186185278 0 0.043366996070668358 0.043451116017947468 0 0.045928208958421021 0.041994040204779787 0 0.044597820062867256 0.041545297485448815 0 0.045974746825950721 0.041993693092270801 0 0.043124281199427413 0.042766365977390718 0 0.043366996070668358 0.043451116017947468 0 0.045928208958421021 0.041994040204779787 0 0.046860283652736541 0.040807054997627143 0 0.045928208958421021 0.041994040204779787 0 0.045938618622007467 0.040693439619444632 0 0.045736184047382895 0.040285264651454496 0 0.045928208958421021 0.041994040204779787 0 0.045938618622007467 0.040693439619444632 0 0.045736184047382895 0.040285264651454496 0 0.045938618622007467 0.040693439619444632 0 0.04583219575392003 0.040219134621116794 0 0.04583219575392003 0.040219134621116794 0 0.046228749498151513 0.040089486005434209 0 0.045836253205860454 0.039927916271866419 0 0.045938618622007467 0.040693439619444632 0 0.04583219575392003 0.040219134621116794 0 0.046228749498151513 0.040089486005434209 0 0.046860283652736541 0.040807054997627143 0 0.045938618622007467 0.040693439619444632 0 0.046228749498151513 0.040089486005434209 0 0.049022924577163701 0.032685108368349661 0 0.04944129724128421 0.03237728449608189 0 0.048977866270219259 0.032116176288393868 0 0.047826606796117423 0.036274074541094492 0 0.047153934801830708 0.036243211384203208 0 0.049022924577163701 0.032685108368349661 0 0.048977866270219259 0.032116176288393868 0 0.048467426320077486 0.032516302114403657 0 0.046086564269772229 0.040848770326967147 0 0.046373141930538257 0.041593510423655465 0 0.044740627782980803 0.041246460494369266 0 0.047325314685114077 0.037717760753513102 0 0.037635654151400216 0.044496449747514738 0 0.046860275101800464 0.040824751433935769 0 0.046228749498151513 0.040089486005434209 0 0.04714463088074617 0.040415786101640476 0 0.047826606796117423 0.036274074541094492 0 0.047325314685114077 0.037717760753513102 0 0.046860283652736541 0.040807054997627143 0 0.046860275101800464 0.040824751433935769 0 0.046228749498151513 0.040089486005434209 0 0.046201961919253194 0.04119553508614944 0 0.047325314685114077 0.037717760753513102 0 0.049022924577163701 0.032685108368349661 0 0.049621607319227712 0.032901865940431846 0 0.04944129724128421 0.03237728449608189 0 0.047325314685114077 0.037717760753513102 0 0.045732956418431031 0.036578579576220516 0 0.049621607319227712 0.032901865940431846 0 0.04944129724128421 0.03237728449608189 0 0.050024968105111693 0.032334204408746466 0 0.04944129724128421 0.03237728449608189 0 0.049856841420824902 0.031885197928723533 0 0.050024968105111693 0.032334204408746466 0 0.04944129724128421 0.03237728449608189 0 0.049856841420824902 0.031885197928723533 0 0.04941996267062685 0.031921492343619531 0 0.04944129724128421 0.03237728449608189 0 0.04941996267062685 0.031921492343619531 0 0.048977866270219259 0.032116176288393868 0 0.04941996267062685 0.031921492343619531 0 0.04919463556686958 0.031574090424865933 0 0.049537559123872241 0.030961064009664953 0 0.049856841420824902 0.031885197928723533 0 0.050031347065658593 0.031375766629587791 0 0.049537559123872241 0.030961064009664953 0 0.049856841420824902 0.031885197928723533 0 0.04941996267062685 0.031921492343619531 0 0.049537559123872241 0.030961064009664953 0 0.048977866270219259 0.032116176288393868 0 0.048521442181431236 0.031996114327315785 0 0.048467426320077486 0.032516302114403657 0 0.048977866270219259 0.032116176288393868 0 0.048873955036569348 0.031632009608768906 0 0.048521442181431236 0.031996114327315785 0 0.04941996267062685 0.031921492343619531 0 0.048977866270219259 0.032116176288393868 0 0.04919463556686958 0.031574090424865933 0 0.048977866270219259 0.032116176288393868 0 0.04919463556686958 0.031574090424865933 0 0.048873955036569348 0.031632009608768906 0 0.04919463556686958 0.031574090424865933 0 0.048873955036569348 0.031632009608768906 0 0.049183769868193922 0.031209816476808597 0 0.048873955036569348 0.031632009608768906 0 0.048521442181431236 0.031996114327315785 0 0.048528930121769086 0.031536756069083634 0 0.048521442181431236 0.031996114327315785 0 0.048147976889361815 0.031745215314676202 0 0.048528930121769086 0.031536756069083634 0 0.048255404483207448 0.032158289844047956 0 0.048521442181431236 0.031996114327315785 0 0.048147976889361815 0.031745215314676202 0 0.048255404483207448 0.032158289844047956 0 0.048521442181431236 0.031996114327315785 0 0.048467426320077486 0.032516302114403657 0 0.048299442895824017 0.032524176943697199 0 0.046915517920144402 0.036143466665733898 0 0.048167922736406757 0.034133415277359837 0 0.046980731242780842 0.035185899227270466 0 0.047512519856021986 0.036524852601626495 0 0.048255404483207448 0.032158289844047956 0 0.048147976889361815 0.031745215314676202 0 0.047885497181462386 0.032386386142540122 0 0.048167922736406757 0.034133415277359837 0 0.047030579309203568 0.034230137136065382 0 0.046980731242780842 0.035185899227270466 0 0.047030579309203568 0.034230137136065382 0 0.046058903428752185 0.03484404781676103 0 0.046201968716858645 0.03295186984297678 0 0.047030579309203568 0.034230137136065382 0 0.046058903428752185 0.03484404781676103 0 0.046980731242780842 0.035185899227270466 0 0.044999873589070039 0.033750461484430949 0 0.046058903428752185 0.03484404781676103 0 0.044999833659420348 0.036125338955784819 0 0.044999873589070039 0.033750461484430949 0 0.046058903428752185 0.03484404781676103 0 0.046201968716858645 0.03295186984297678 0 0.046058903428752185 0.03484404781676103 0 0.044999833659420348 0.036125338955784819 0 0.046217079959702097 0.036212967462821578 0 0.045000101611853895 0.0361262080281637 0 0.046197325182683137 0.036545328093791934 0 0.046217079959702097 0.036212967462821578 0 0.046980731242780842 0.035185899227270466 0 0.047512519856021986 0.036524852601626495 0 0.046058903428752185 0.03484404781676103 0 0.046217079959702097 0.036212967462821578 0 0.046980731242780842 0.035185899227270466 0 0.046197325182683137 0.036545328093791934 0 0.046915517920144402 0.036143466665733898 0 0.046278246201907326 0.039961203255141291 0 0.046915517920144402 0.036143466665733898 0 0.045825053549385417 0.038134687630790885 0 0.046464220017248793 0.039158439585433476 0 0.04725179318615505 0.037344900460467553 0 0.046032909460596454 0.036872694562701203 0 0.045825053549385417 0.038134687630790885 0 0.04725179318615505 0.037344900460467553 0 0.046032909460596454 0.036872694562701203 0 0.045825053549385417 0.038134687630790885 0 0.044999483424503918 0.037729838195680522 0 0.044999985390227058 0.036126550221206005 0 0.046032909460596454 0.036872694562701203 0 0.044999483424503918 0.037729838195680522 0 0.045825053549385417 0.038134687630790885 0 0.044999483424503918 0.037729838195680522 0 0.045000317214594555 0.039331630913696264 0 0.045825053549385417 0.038134687630790885 0 0.045000317214594555 0.039331630913696264 0 0.046464220017248793 0.039158439585433476 0 0.046347985469577344 0.039671425411652798 0 0.045000317214594555 0.039331630913696264 0 0.046464220017248793 0.039158439585433476 0 0.046464220017248793 0.039158439585433476 0 0.046092175774909157 0.039742452862932272 0 0.046016155287297487 0.039869297552914171 0 0.046347985469577344 0.039671425411652798 0 0.046464220017248793 0.039158439585433476 0 0.046016155287297487 0.039869297552914171 0 0.04583219575392003 0.040219134621116794 0 0.046016155287297487 0.039869297552914171 0 0.045836253205860454 0.039927916271866419 0 0.046092175774909157 0.039742452862932272 0 0.046016155287297487 0.039869297552914171 0 0.045836253205860454 0.039927916271866419 0 0.046092175774909157 0.039742452862932272 0 0.045836253205860454 0.039927916271866419 0 0.046283441579350049 0.039968478509087628 0 0.047153934801830708 0.036243211384203208 0 0.046915517920144402 0.036143466665733898 0 0.048255404483207448 0.032158289844047956 0 0.048467426320077486 0.032516302114403657 0 0.047885497181462386 0.032386386142540122 0 0.046464220017248793 0.039158439585433476 0 0.046092175774909157 0.039742452862932272 0 0.046283441579350049 0.039968478509087628 0 0.022030454671939315 0.04698051339423983 0 0.021836576951741779 0.047638574664025213 0 0.021510588672940197 0.047044299054227592 0 0.022460892770471679 0.047520269985041441 0 0.022030454671939315 0.04698051339423983 0 0.021836576951741779 0.047638574664025213 0 0.025726304153713436 0.048022381129224426 0 0.025576360650611318 0.047579010894571089 0 0.024240874292904238 0.047680120052851556 0 0.023783493146308964 0.047766949330810077 0 0.023151412222051544 0.047292455828547401 0 0.025576360650611318 0.047579010894571089 0 0.024495791923500029 0.04650030080011739 0 0.026125936432521375 0.046921441455298217 0 0.025576360650611318 0.047579010894571089 0 0.024240874292904238 0.047680120052851556 0 0.024495791923500029 0.04650030080011739 0 0.023151412222051544 0.047292455828547401 0 0.021973826348295093 0.046415551975345339 0 0.024240874292904238 0.047680120052851556 0 0.024495791923500029 0.04650030080011739 0 0.022474820803159896 0.046659744298010307 0 0.023261201773661092 0.045931917528664573 0 0.024495791923500029 0.04650030080011739 0 0.022474820803159896 0.046659744298010307 0 0.023261201773661092 0.045931917528664573 0 0.022506153694896336 0.044999659983905989 0 0.024827748605986941 0.044999880584265774 0 0.023261201773661092 0.045931917528664573 0 0.022506153694896336 0.044999659983905989 0 0.022251953971875918 0.045690435656001539 0 0.023261201773661092 0.045931917528664573 0 0.024827748605986941 0.044999880584265774 0 0.024495791923500029 0.04650030080011739 0 0.024827748605986941 0.044999880584265774 0 0.024495791923500029 0.04650030080011739 0 0.025968772271855019 0.045937668760659904 0 0.024495791923500029 0.04650030080011739 0 0.026125936432521375 0.046921441455298217 0 0.025968772271855019 0.045937668760659904 0 0.026125936432521375 0.046921441455298217 0 0.025968772271855019 0.045937668760659904 0 0.027235512496269487 0.046353733199321706 0 0.024827748605986941 0.044999880584265774 0 0.025968772271855019 0.045937668760659904 0 0.027148910490346196 0.044999835121080252 0 0.025968772271855019 0.045937668760659904 0 0.027148910490346196 0.044999835121080252 0 0.027235512496269487 0.046353733199321706 0 0.027148910490346196 0.044999835121080252 0 0.027235512496269487 0.046353733199321706 0 0.029470339910400566 0.044999755172809942 0 0.026125936432521375 0.046921441455298217 0 0.027235512496269487 0.046353733199321706 0 0.026909458471877028 0.04748140158256154 0 0.027235512496269487 0.046353733199321706 0 0.026909458471877028 0.04748140158256154 0 0.028616144058539666 0.046790853237864319 0 0.025576360650611318 0.047579010894571089 0 0.026125936432521375 0.046921441455298217 0 0.026909458471877028 0.04748140158256154 0 0.025576360650611318 0.047579010894571089 0 0.026909458471877028 0.04748140158256154 0 0.026562878542069988 0.047767550986781142 0 0.025726304153713436 0.048022381129224426 0 0.025576360650611318 0.047579010894571089 0 0.026562878542069988 0.047767550986781142 0 0.026909458471877028 0.04748140158256154 0 0.026562878542069988 0.047767550986781142 0 0.026903225147592712 0.047642475833196855 0 0.026903225147592712 0.047642475833196855 0 0.027403975109145613 0.047647085429015933 0 0.026356457206776141 0.047356050316902029 0 0.026909458471877028 0.04748140158256154 0 0.026903225147592712 0.047642475833196855 0 0.027403975109145613 0.047647085429015933 0 0.028284749473746908 0.048051612465373955 0 0.027944899444817917 0.049206977417089813 0 0.029171121251895485 0.048843783965182401 0 0.030388495524102142 0.049572439663456966 0 0.030294678616739856 0.048110865192525817 0 0.030388495524102142 0.049572439663456966 0 0.030294678616739856 0.048110865192525817 0 0.031263825093720651 0.048877018952045138 0 0.029171121251895485 0.048843783965182401 0 0.030388495524102142 0.049572439663456966 0 0.029477077895947765 0.050538660115195568 0 0.026909458471877028 0.04748140158256154 0 0.027403975109145613 0.047647085429015933 0 0.028616144058539666 0.046790853237864319 0 0.029171121251895485 0.048843783965182401 0 0.030294678616739856 0.048110865192525817 0 0.028616144058539666 0.046790853237864319 0 0.028284749473746908 0.048051612465373955 0 0.028538711560826713 0.0468345824760351 0 0.027235512496269487 0.046353733199321706 0 0.028616144058539666 0.046790853237864319 0 0.029470339910400566 0.044999755172809942 0 0.028616144058539666 0.046790853237864319 0 0.029470339910400566 0.044999755172809942 0 0.030618680176950689 0.046464429863450452 0 0.029470339910400566 0.044999755172809942 0 0.030618680176950689 0.046464429863450452 0 0.031792490576009878 0.04499989824850649 0 0.030294678616739856 0.048110865192525817 0 0.030618680176950689 0.046464429863450452 0 0.031534694191533673 0.047748635774846782 0 0.030294678616739856 0.048110865192525817 0 0.028616144058539666 0.046790853237864319 0 0.030618680176950689 0.046464429863450452 0 0.030618680176950689 0.046464429863450452 0 0.031976708247836175 0.046561351407088447 0 0.031534694191533673 0.047748635774846782 0 0.031976708247836175 0.046561351407088447 0 0.032828369079234886 0.04755250702312281 0 0.031534694191533673 0.047748635774846782 0 0.031976708247836175 0.046561351407088447 0 0.031792490576009878 0.04499989824850649 0 0.033058763961266169 0.046040792150861314 0 0.030618680176950689 0.046464429863450452 0 0.031976708247836175 0.046561351407088447 0 0.031792490576009878 0.04499989824850649 0 0.034113840880484012 0.044999834754331593 0 0.031792490576009878 0.04499989824850649 0 0.033058763961266169 0.046040792150861314 0 0.033916268884540544 0.047188615988377008 0 0.033058763961266169 0.046040792150861314 0 0.032828369079234886 0.04755250702312281 0 0.031976708247836175 0.046561351407088447 0 0.033058763961266169 0.046040792150861314 0 0.032828369079234886 0.04755250702312281 0 0.033767257999446687 0.048827189732818604 0 0.032828369079234886 0.04755250702312281 0 0.032432438854680529 0.04877443490693123 0 0.033916268884540544 0.047188615988377008 0 0.033767257999446687 0.048827189732818604 0 0.032828369079234886 0.04755250702312281 0 0.032828369079234886 0.04755250702312281 0 0.031534694191533673 0.047748635774846782 0 0.032432438854680529 0.04877443490693123 0 0.0302946786167398