<?xml version="1.0"?>
<VTKFile type="UnstructuredGrid" version="0.1" byte_order="LittleEndian">
<UnstructuredGrid>
<Piece NumberOfPoints="30578" NumberOfCells="10723">
<Points>
<DataArray type="Float64" NumberOfComponents="3" format="ascii">
-0.5 -0.5 0 -0.47439485679867832 -0.48072581506667478 0 -0.5 -0.44765434486020428 0 -0.5 -0.5 0 -0.47439485679867832 -0.48072581506667478 0 -0.43702443379937372 -0.49999999999999922 0 -0.47439485679867832 -0.48072581506667478 0 -0.45530669598391149 -0.47718009944797551 0 -0.43702443379937372 -0.49999999999999922 0 -0.47439485679867832 -0.48072581506667478 0 -0.45530669598391149 -0.47718009944797551 0 -0.4597353119515426 -0.45943449384344293 0 -0.45530669598391149 -0.47718009944797551 0 -0.44381084376742141 -0.47114793899167112 0 -0.4597353119515426 -0.45943449384344293 0 -0.45530669598391149 -0.47718009944797551 0 -0.44381084376742141 -0.47114793899167112 0 -0.43702443379937372 -0.49999999999999922 0 -0.44381084376742141 -0.47114793899167112 0 -0.43702443379937372 -0.49999999999999922 0 -0.45059725373546922 -0.44229587798334291 0 -0.4339166039271336 -0.43498117536117131 0 -0.43309128002320102 -0.45351235807576151 0 -0.44381084376742141 -0.47114793899167112 0 -0.45059725373546922 -0.44229587798334291 0 -0.4597353119515426 -0.45943449384344293 0 -0.44381084376742141 -0.47114793899167112 0 -0.45059725373546922 -0.44229587798334291 0 -0.43309128002320102 -0.45351235807576151 0 -0.44381084376742141 -0.47114793899167112 0 -0.45059725373546922 -0.44229587798334291 0 -0.4597353119515426 -0.45943449384344293 0 -0.47505511338101108 -0.44868394208069429 0 -0.46517432262153441 -0.43649963461163338 0 -0.45059725373546922 -0.44229587798334291 0 -0.4597353119515426 -0.45943449384344293 0 -0.46517432262153441 -0.43649963461163338 0 -0.47505511338101108 -0.44868394208069429 0 -0.47820614292347569 -0.42776699273468149 0 -0.46517432262153441 -0.43649963461163338 0 -0.47505511338101108 -0.44868394208069429 0 -0.47820614292347569 -0.42776699273468149 0 -0.47439485679867832 -0.48072581506667478 0 -0.47505511338101108 -0.44868394208069429 0 -0.5 -0.44765434486020428 0 -0.47439485679867832 -0.48072581506667478 0 -0.4597353119515426 -0.45943449384344293 0 -0.47505511338101108 -0.44868394208069429 0 -0.47505511338101108 -0.44868394208069429 0 -0.5 -0.44765434486020428 0 -0.47820614292347569 -0.42776699273468149 0 -0.5 -0.44765434486020428 0 -0.49656450065014057 -0.42151023988558672 0 -0.47820614292347569 -0.42776699273468149 0 -0.5 -0.44765434486020428 0 -0.49656450065014057 -0.42151023988558672 0 -0.50000000000000089 -0.37904661106745707 0 -0.49656450065014057 -0.42151023988558672 0 -0.48135717246594062 -0.40685004338866881 0 -0.47820614292347569 -0.42776699273468149 0 -0.49656450065014057 -0.42151023988558672 0 -0.48135717246594062 -0.40685004338866881 0 -0.48135717246594062 -0.40685004338866881 0 -0.47820614292347569 -0.42776699273468149 0 -0.48135717246594062 -0.40685004338866881 0 -0.47820614292347569 -0.42776699273468149 0 -0.45738366370351707 -0.41344381697501481 0 -0.49656450065014057 -0.42151023988558672 0 -0.48135717246594062 -0.40685004338866881 0 -0.50000000000000089 -0.37904661106745707 0 -0.50000000000000089 -0.37904661106745707 0 -0.48466894952205442 -0.38486603086372417 0 -0.48717439863114548 -0.36823452950912272 0 -0.48135717246594062 -0.40685004338866881 0 -0.50000000000000089 -0.37904661106745707 0 -0.48466894952205442 -0.38486603086372417 0 -0.48466894952205442 -0.38486603086372417 0 -0.48717439863114548 -0.36823452950912272 0 -0.50000000000000089 -0.37904661106745707 0 -0.48466894952205442 -0.38486603086372417 0 -0.48135717246594062 -0.40685004338866881 0 -0.48466894952205442 -0.38486603086372417 0 -0.46593083509403682 -0.39197871725165279 0 -0.48135717246594062 -0.40685004338866881 0 -0.48466894952205442 -0.38486603086372417 0 -0.48135717246594062 -0.40685004338866881 0 -0.46593083509403682 -0.39197871725165279 0 -0.48466894952205442 -0.38486603086372417 0 -0.47195833844942919 -0.37959069520904498 0 -0.46593083509403682 -0.39197871725165279 0 -0.48466894952205442 -0.38486603086372417 0 -0.46593083509403682 -0.39197871725165279 0 -0.48466894952205442 -0.38486603086372417 0 -0.47195833844942919 -0.37959069520904498 0 -0.48717439863114548 -0.36823452950912272 0 -0.46593083509403682 -0.39197871725165279 0 -0.44890944387521442 -0.39029302340116001 0 -0.45132291774153199 -0.37789636588759368 0 -0.47195833844942919 -0.37959069520904498 0 -0.46593083509403682 -0.39197871725165279 0 -0.45132291774153199 -0.37789636588759368 0 -0.46593083509403682 -0.39197871725165279 0 -0.45132291774153199 -0.37789636588759368 0 -0.48135717246594062 -0.40685004338866881 0 -0.46593083509403682 -0.39197871725165279 0 -0.45738366370351707 -0.41344381697501481 0 -0.46593083509403682 -0.39197871725165279 0 -0.44275815558040038 -0.40077469311046232 0 -0.45738366370351707 -0.41344381697501481 0 -0.46593083509403682 -0.39197871725165279 0 -0.44275815558040038 -0.40077469311046232 0 -0.46593083509403682 -0.39197871725165279 0 -0.44275815558040038 -0.40077469311046232 0 -0.44890944387521442 -0.39029302340116001 0 -0.44275815558040038 -0.40077469311046232 0 -0.44064580868350911 -0.39542861624611658 0 -0.44890944387521442 -0.39029302340116001 0 -0.44225344557501872 -0.38376649822575309 0 -0.45132291774153199 -0.37789636588759368 0 -0.43671500038902772 -0.36381401452353412 0 -0.44890944387521442 -0.39029302340116001 0 -0.44225344557501872 -0.38376649822575309 0 -0.45132291774153199 -0.37789636588759368 0 -0.44064580868350911 -0.39542861624611658 0 -0.44225344557501872 -0.38376649822575309 0 -0.43040194378266172 -0.3881600185019185 0 -0.44064580868350911 -0.39542861624611658 0 -0.44890944387521442 -0.39029302340116001 0 -0.44225344557501872 -0.38376649822575309 0 -0.47820614292347569 -0.42776699273468149 0 -0.46517432262153441 -0.43649963461163338 0 -0.45738366370351707 -0.41344381697501481 0 -0.45059725373546922 -0.44229587798334291 0 -0.45738366370351707 -0.41344381697501481 0 -0.45059725373546922 -0.44229587798334291 0 -0.46517432262153441 -0.43649963461163338 0 -0.45738366370351707 -0.41344381697501481 0 -0.44275815558040038 -0.40077469311046232 0 -0.45738366370351707 -0.41344381697501481 0 -0.44164244492799948 -0.42121090558557039 0 -0.45059725373546922 -0.44229587798334291 0 -0.45738366370351707 -0.41344381697501481 0 -0.44164244492799948 -0.42121090558557039 0 -0.45059725373546922 -0.44229587798334291 0 -0.44164244492799948 -0.42121090558557039 0 -0.4339166039271336 -0.43498117536117131 0 -0.4339166039271336 -0.43498117536117131 0 -0.42355654769347711 -0.414558964497861 0 -0.41671115160429401 -0.44095791049380378 0 -0.44164244492799948 -0.42121090558557039 0 -0.4339166039271336 -0.43498117536117131 0 -0.42355654769347711 -0.414558964497861 0 -0.44275815558040038 -0.40077469311046232 0 -0.44164244492799948 -0.42121090558557039 0 -0.42355654769347711 -0.414558964497861 0 -0.42355654769347711 -0.414558964497861 0 -0.41056920252370888 -0.3963363404412637 0 -0.40050668374064252 -0.41734442193795029 0 -0.42355654769347711 -0.414558964497861 0 -0.41671115160429401 -0.44095791049380378 0 -0.42355654769347711 -0.414558964497861 0 -0.40050668374064252 -0.41734442193795029 0 -0.41671115160429401 -0.44095791049380378 0 -0.44225344557501872 -0.38376649822575309 0 -0.43040194378266172 -0.3881600185019185 0 -0.43671500038902772 -0.36381401452353412 0 -0.43040194378266172 -0.3881600185019185 0 -0.43671500038902772 -0.36381401452353412 0 -0.44064580868350911 -0.39542861624611658 0 -0.42355654769347711 -0.414558964497861 0 -0.43040194378266172 -0.3881600185019185 0 -0.42355654769347711 -0.414558964497861 0 -0.43040194378266172 -0.3881600185019185 0 -0.44275815558040038 -0.40077469311046232 0 -0.44064580868350911 -0.39542861624611658 0 -0.42355654769347711 -0.414558964497861 0 -0.44064580868350911 -0.39542861624611658 0 -0.43040194378266172 -0.3881600185019185 0 -0.42355654769347711 -0.414558964497861 0 -0.43040194378266172 -0.3881600185019185 0 -0.41056920252370888 -0.3963363404412637 0 -0.43040194378266172 -0.3881600185019185 0 -0.4079689369259607 -0.37224253963894771 0 -0.43040194378266172 -0.3881600185019185 0 -0.41056920252370888 -0.3963363404412637 0 -0.4079689369259607 -0.37224253963894771 0 -0.41056920252370888 -0.3963363404412637 0 -0.39195929229331972 -0.37982250283040359 0 -0.4079689369259607 -0.37224253963894771 0 -0.41056920252370888 -0.3963363404412637 0 -0.39195929229331972 -0.37982250283040359 0 -0.39357845321732049 -0.39746174547711199 0 -0.41056920252370888 -0.3963363404412637 0 -0.39357845321732049 -0.39746174547711199 0 -0.40050668374064252 -0.41734442193795029 0 -0.39357845321732049 -0.39746174547711199 0 -0.38114412328536468 -0.40833987260765031 0 -0.36544727141479139 -0.39026932065168712 0 -0.39195929229331972 -0.37982250283040359 0 -0.37549160074202448 -0.3732971907138336 0 -0.36544727141479139 -0.39026932065168712 0 -0.39195929229331972 -0.37982250283040359 0 -0.39357845321732049 -0.39746174547711199 0 -0.36544727141479139 -0.39026932065168712 0 -0.40050668374064252 -0.41734442193795029 0 -0.3944977858259317 -0.43926335073686201 0 -0.41671115160429401 -0.44095791049380378 0 -0.40050668374064252 -0.41734442193795029 0 -0.38028594703985957 -0.42392304976487449 0 -0.3944977858259317 -0.43926335073686201 0 -0.39357845321732049 -0.39746174547711199 0 -0.40050668374064252 -0.41734442193795029 0 -0.38114412328536468 -0.40833987260765031 0 -0.40050668374064252 -0.41734442193795029 0 -0.38114412328536468 -0.40833987260765031 0 -0.38028594703985957 -0.42392304976487449 0 -0.38114412328536468 -0.40833987260765031 0 -0.38028594703985957 -0.42392304976487449 0 -0.36590226101420908 -0.41270082520662749 0 -0.38028594703985957 -0.42392304976487449 0 -0.3944977858259317 -0.43926335073686201 0 -0.3723601590800425 -0.44005613486137668 0 -0.3944977858259317 -0.43926335073686201 0 -0.38265619596279349 -0.45813348326120767 0 -0.3723601590800425 -0.44005613486137668 0 -0.40093272222703252 -0.45142790024540502 0 -0.3944977858
[...]
<PointData Scalars="" Vectors="displacement," Tensors="">
<DataArray type="Float64" Name="displacement" NumberOfComponents="3" format="ascii">
0.024998255515417449 0.024998258277229245 0 0.024481822480368939 0.024254248338450409 0 0.022386007543341344 0.024998421845527714 0 0.024998255515417449 0.024998258277229245 0 0.024481822480368939 0.024254248338450409 0 0.024998082522494632 0.021856735060203972 0 0.024481822480368939 0.024254248338450409 0 0.024480703385102272 0.023555784072132668 0 0.024998082522494632 0.021856735060203972 0 0.024481822480368939 0.024254248338450409 0 0.024480703385102272 0.023555784072132668 0 0.023896680650834803 0.024012969898702632 0 0.024480703385102272 0.023555784072132668 0 0.024318748035927356 0.023630647817608035 0 0.023896680650834803 0.024012969898702632 0 0.024480703385102272 0.023555784072132668 0 0.024318748035927356 0.023630647817608035 0 0.024998082522494632 0.021856735060203972 0 0.024968276342761352 0.022776849030555442 0 0.024999649451310228 0.021851504455617517 0 0.025425517146957233 0.022391493597869901 0 0.025479771511530618 0.022352088792330839 0 0.025577588880338259 0.022156589252874934 0 0.024318748035927356 0.023630647817608035 0 0.023963475136210676 0.023758782089188413 0 0.023896680650834803 0.024012969898702632 0 0.025756563176413658 0.022048198231780041 0 0.025425517146957233 0.022391493597869901 0 0.025577588880338259 0.022156589252874934 0 0.024968276342761352 0.022776849030555442 0 0.024787509838489732 0.023086083580014696 0 0.023896680650834803 0.024012969898702632 0 0.023291400335053832 0.024809327070988329 0 0.02410049006723692 0.024144328989111147 0 0.023963475136210676 0.023758782089188413 0 0.023896680650834803 0.024012969898702632 0 0.02410049006723692 0.024144328989111147 0 0.023291400335053832 0.024809327070988329 0 0.024608228220853502 0.02483651972986604 0 0.02410049006723692 0.024144328989111147 0 0.023135112973571632 0.024870164947585663 0 0.023342611030839833 0.025077958105894509 0 0.024481822480368939 0.024254248338450409 0 0.023291400335053832 0.024809327070988329 0 0.022386007543341344 0.024998421845527714 0 0.024481822480368939 0.024254248338450409 0 0.023896680650834803 0.024012969898702632 0 0.023291400335053832 0.024809327070988329 0 0.023291400335053832 0.024809327070988329 0 0.022386007543341344 0.024998421845527714 0 0.021742993962625103 0.025369886008446117 0 0.022386007543341344 0.024998421845527714 0 0.021136382536088783 0.025118203361736754 0 0.021742993962625103 0.025369886008446117 0 0.022386007543341344 0.024998421845527714 0 0.021136382536088783 0.025118203361736754 0 0.018951440008162682 0.025000432513667806 0 0.021136382536088783 0.025118203361736754 0 0.02107350645518757 0.025369308272622466 0 0.021742993962625103 0.025369886008446117 0 0.020577837819185749 0.025558090744640362 0 0.02260521708473217 0.025049023142161144 0 0.02260521708473217 0.025049023142161144 0 0.023342611030839833 0.025077958105894509 0 0.025882611289456032 0.024883824762171328 0 0.024608228220853502 0.02483651972986604 0 0.02553489199399989 0.023337783917004345 0 0.021136382536088783 0.025118203361736754 0 0.020389810902707056 0.025914213556518888 0 0.018951440008162682 0.025000432513667806 0 0.018952168303179785 0.02499992067561712 0 0.019216517656132578 0.025728262390951637 0 0.018376936945845832 0.025587523584354416 0 0.020389810902707056 0.025914213556518888 0 0.018951440008162682 0.025000432513667806 0 0.019261631772524133 0.02576240745270875 0 0.01969181162741886 0.025384940414553053 0 0.018317331373362035 0.02556994907901923 0 0.018952497322334155 0.025000336919218758 0 0.01969181162741886 0.025384940414553053 0 0.022336804654343984 0.024835921381473829 0 0.021689474508391468 0.024740389722781895 0 0.021909511664569781 0.025279102500582431 0 0.02260521708473217 0.025049023142161144 0 0.01969181162741886 0.025384940414553053 0 0.02260521708473217 0.025049023142161144 0 0.023663302432138253 0.024486168376931992 0 0.019093756577942034 0.025677120950539985 0 0.018860047113344006 0.026227707972463491 0 0.019425698833395639 0.026482193550535191 0 0.01969181162741886 0.025384940414553053 0 0.023663302432138253 0.024486168376931992 0 0.019093756577942034 0.025677120950539985 0 0.018860047113344006 0.026227707972463491 0 0.018376936945845832 0.025587523584354416 0 0.025878442885856928 0.022104416397864098 0 0.025847641116403371 0.022517652468450867 0 0.025452361882894164 0.022438458080958838 0 0.018860047113344006 0.026227707972463491 0 0.019425698833395639 0.026482193550535191 0 0.01877911753707141 0.027130603347521293 0 0.023663302432138253 0.024486168376931992 0 0.022026034921914555 0.024868803322863887 0 0.025882611289456032 0.024883824762171328 0 0.026677366269181883 0.023870088255049049 0 0.02553489199399989 0.023337783917004345 0 0.026677366269181883 0.023870088255049049 0 0.026055911010646159 0.022681183084644296 0 0.02553489199399989 0.023337783917004345 0 0.023663302432138253 0.024486168376931992 0 0.026587231563916024 0.022301610366499636 0 0.025878442885856928 0.022104416397864098 0 0.026055911010646159 0.022681183084644296 0 0.025847641116403371 0.022517652468450867 0 0.026055911010646159 0.022681183084644296 0 0.026059344721852878 0.022690569570512766 0 0.025847641116403371 0.022517652468450867 0 0.025643386353819644 0.022705631570465838 0 0.025452361882894164 0.022438458080958838 0 0.024917951171123009 0.022921291388764382 0 0.025847641116403371 0.022517652468450867 0 0.025643386353819644 0.022705631570465838 0 0.025452361882894164 0.022438458080958838 0 0.026059344721852878 0.022690569570512766 0 0.025643386353819644 0.022705631570465838 0 0.025798259008666138 0.02310710256893677 0 0.026059344721852878 0.022690569570512766 0 0.025847641116403371 0.022517652468450867 0 0.025643386353819644 0.022705631570465838 0 0.024608228220853502 0.02483651972986604 0 0.02410049006723692 0.024144328989111147 0 0.02553489199399989 0.023337783917004345 0 0.024787509838489732 0.023086083580014696 0 0.025559970098400608 0.023337281259857831 0 0.023963475136210676 0.023758782089188413 0 0.02410049006723692 0.024144328989111147 0 0.02553489199399989 0.023337783917004345 0 0.026055911010646159 0.022681183084644296 0 0.02553489199399989 0.023337783917004345 0 0.025540910370004798 0.022616670173412991 0 0.025425517146957233 0.022391493597869901 0 0.02553489199399989 0.023337783917004345 0 0.025540910370004798 0.022616670173412991 0 0.025425517146957233 0.022391493597869901 0 0.025540910370004798 0.022616670173412991 0 0.025479771511530618 0.022352088792330839 0 0.025479771511530618 0.022352088792330839 0 0.025703933993989684 0.02227990170899511 0 0.025480740003303044 0.022187571416211593 0 0.025540910370004798 0.022616670173412991 0 0.025479771511530618 0.022352088792330839 0 0.025703933993989684 0.02227990170899511 0 0.026055911010646159 0.022681183084644296 0 0.025540910370004798 0.022616670173412991 0 0.025703933993989684 0.02227990170899511 0 0.027458803184900148 0.01879725023470679 0 0.027792660852595547 0.018554119997686962 0 0.027419184687215086 0.018354681861651092 0 0.026692715699953348 0.020482596919265853 0 0.026229426215871814 0.020451698112401925 0 0.027458803184900148 0.01879725023470679 0 0.027419184687215086 0.018354681861651092 0 0.026991931145740156 0.018669052512877645 0 0.025643386353819644 0.022705631570465838 0 0.025798259008666138 0.02310710256893677 0 0.024917951171123009 0.022921291388764382 0 0.026500897137368914 0.021225219549049226 0 0.021024109200567735 0.024789179464530658 0 0.026059344721852878 0.022690569570512766 0 0.025703933993989684 0.02227990170899511 0 0.026219686701186979 0.022462854021829765 0 0.026692715699953348 0.020482596919265853 0 0.026500897137368914 0.021225219549049226 0 0.026055911010646159 0.022681183084644296 0 0.026059344721852878 0.022690569570512766 0 0.025703933993989684 0.02227990170899511 0 0.025765489582175616 0.022915908658375093 0 0.026500897137368914 0.021225219549049226 0 0.027458803184900148 0.01879725023470679 0 0.027933765714682909 0.018946565062313906 0 0.027792660852595547 0.018554119997686962 0 0.026500897137368914 0.021225219549049226 0 0.025809415104294537 0.020830823520047826 0 0.027933765714682909 0.018946565062313906 0 0.027792660852595547 0.018554119997686962 0 0.028238105646626495 0.018515506394224553 0 0.027792660852595547 0.018554119997686962 0 0.028108637920886147 0.018188150362570356 0 0.028238105646626495 0.018515506394224553 0 0.027792660852595547 0.018554119997686962 0 0.028108637920886147 0.018188150362570356 0 0.027777983329969749 0.018213243936054474 0 0.027792660852595547 0.018554119997686962 0 0.027777983329969749 0.018213243936054474 0 0.027419184687215086 0.018354681861651092 0 0.027777983329969749 0.018213243936054474 0 0.027593869568149191 0.017952861212133023 0 0.027898122782633868 0.017560729241332333 0 0.028108637920886147 0.018188150362570356 0 0.028236892204026379 0.017834446104458543 0 0.027898122782633868 0.017560729241332333 0 0.028108637920886147 0.018188150362570356 0 0.027777983329969749 0.018213243936054474 0 0.027898122782633868 0.017560729241332333 0 0.027419184687215086 0.018354681861651092 0 0.027031702818049886 0.018249313349130967 0 0.026991931145740156 0.018669052512877645 0 0.027419184687215086 0.018354681861651092 0 0.027321570387103245 0.017966158706869132 0 0.027031702818049886 0.018249313349130967 0 0.027777983329969749 0.018213243936054474 0 0.027419184687215086 0.018354681861651092 0 0.027593869568149191 0.017952861212133023 0 0.027419184687215086 0.018354681861651092 0 0.027593869568149191 0.017952861212133023 0 0.027321570387103245 0.017966158706869132 0 0.027593869568149191 0.017952861212133023 0 0.027321570387103245 0.017966158706869132 0 0.027556201550587422 0.017657045796698599 0 0.027321570387103245 0.017966158706869132 0 0.027031702818049886 0.018249313349130967 0 0.027031188930051023 0.017849500597415344 0 0.027031702818049886 0.018249313349130967 0 0.026700463062610733 0.018034247527952563 0 0.027031188930051023 0.017849500597415344 0 0.026807752231556545 0.018376171974860286 0 0.027031702818049886 0.018249313349130967 0 0.026700463062610733 0.018034247527952563 0 0.026807752231556545 0.018376171974860286 0 0.027031702818049886 0.018249313349130967 0 0.026991931145740156 0.018669052512877645 0 0.02679514640220327 0.01831795028311986 0 0.026068559408773385 0.020254772756522991 0 0.026746868017304668 0.019011748984455224 0 0.026114092908405148 0.01956943961355152 0 0.026400501764312332 0.020294439534134807 0 0.026807752231556545 0.018376171974860286 0 0.026700463062610733 0.018034247527952563 0 0.026506194061125539 0.018554656862282155 0 0.026746868017304668 0.019011748984455224 0 0.026148372321412858 0.019051323087119116 0 0.026114092908405148 0.01956943961355152 0 0.026148372321412858 0.019051323087119116 0 0.025597766366704224 0.019372507804576847 0 0.025673316287844888 0.018313912090748143 0 0.026148372321412858 0.019051323087119116 0 0.025597766366704224 0.019372507804576847 0 0.026114092908405148 0.01956943961355152 0 0.024999930545044523 0.01875027079713577 0 0.025597766366704224 0.019372507804576847 0 0.024999926614033365 0.02006967724796856 0 0.024999930545044523 0.01875027079713577 0 0.025597766366704224 0.019372507804576847 0 0.025673316287844888 0.018313912090748143 0 0.025597766366704224 0.019372507804576847 0 0.024999926614033365 0.02006967724796856 0 0.025688775189915344 0.020130840813977199 0 0.025000066939409472 0.02007012059129263 0 0.025665743743114155 0.020307199532866069 0 0.025688775189915344 0.020130840813977199 0 0.026114092908405148 0.01956943961355152 0 0.026400501764312332 0.020294439534134807 0 0.025597766366704224 0.019372507804576847 0 0.025688775189915344 0.020130840813977199 0 0.026114092908405148 0.01956943961355152 0 0.025665743743114155 0.020307199532866069 0 0.026068559408773385 0.020254772756522991 0 0.025732936492878829 0.022146878717335994 0 0.026068559408773385 0.020254772756522991 0 0.02546132125134401 0.021187042329734958 0 0.02582015648073915 0.021758761520646864 0 0.026258130754587734 0.020747456643970621 0 0.025576763569811499 0.020484010372552909 0 0.02546132125134401 0.021187042329734958 0 0.026258130754587734 0.020747456643970621 0 0.025576763569811499 0.020484010372552909 0 0.02546132125134401 0.021187042329734958 0 0.024999714921692073 0.020961020380405551 0 0.024999992748035813 0.020070302896672797 0 0.025576763569811499 0.020484010372552909 0 0.024999714921692073 0.020961020380405551 0 0.02546132125134401 0.021187042329734958 0 0.024999714921692073 0.020961020380405551 0 0.025000175516054744 0.021850918228658641 0 0.02546132125134401 0.021187042329734958 0 0.025000175516054744 0.021850918228658641 0 0.02582015648073915 0.021758761520646864 0 0.025756563176413658 0.022048198231780041 0 0.025000175516054744 0.021850918228658641 0 0.02582015648073915 0.021758761520646864 0 0.02582015648073915 0.021758761520646864 0 0.025618182840667244 0.022083871871931542 0 0.025577588880338259 0.022156589252874934 0 0.025756563176413658 0.022048198231780041 0 0.02582015648073915 0.021758761520646864 0 0.025577588880338259 0.022156589252874934 0 0.025479771511530618 0.022352088792330839 0 0.025577588880338259 0.022156589252874934 0 0.025480740003303044 0.022187571416211593 0 0.025618182840667244 0.022083871871931542 0 0.025577588880338259 0.022156589252874934 0 0.025480740003303044 0.022187571416211593 0 0.025618182840667244 0.022083871871931542 0 0.025480740003303044 0.022187571416211593 0 0.025722442060484157 0.022207534745746965 0 0.026229426215871814 0.020451698112401925 0 0.026068559408773385 0.020254772756522991 0 0.026807752231556545 0.018376171974860286 0 0.026991931145740156 0.018669052512877645 0 0.026506194061125539 0.018554656862282155 0 0.02582015648073915 0.021758761520646864 0 0.025618182840667244 0.022083871871931542 0 0.025722442060484157 0.022207534745746965 0 0.012295659789020667 0.026175791786149281 0 0.012167382556668757 0.026617543770193205 0 0.011959500207539069 0.026215360130754994 0 0.012586333595376318 0.026541022406573366 0 0.012295659789020667 0.026175791786149281 0 0.012167382556668757 0.026617543770193205 0 0.014129499844262917 0.027200095557704692 0 0.014129181775415431 0.026707051593331754 0 0.013312606932384143 0.026708974600514832 0 0.013140163161569483 0.026810772509132743 0 0.012829553055946 0.026445687580010164 0 0.014129181775415431 0.026707051593331754 0 0.013549023500477472 0.025915116353036245 0 0.014523367589050038 0.026207536842501964 0 0.014129181775415431 0.026707051593331754 0 0.013312606932384143 0.026708974600514832 0 0.013549023500477472 0.025915116353036245 0 0.012829553055946 0.026445687580010164 0 0.012176766570321787 0.025835365240888628 0 0.013312606932384143 0.026708974600514832 0 0.013549023500477472 0.025915116353036245 0 0.012408788603768031 0.025987319555654923 0 0.012881318638189655 0.025559315341056956 0 0.013549023500477472 0.025915116353036245 0 0.012408788603768031 0.025987319555654923 0 0.012881318638189655 0.025559315341056956 0 0.012503311688876131 0.024999863453450469 0 0.013793147907290212 0.024999955497605919 0 0.012881318638189655 0.025559315341056956 0 0.012503311688876131 0.024999863453450469 0 0.012330720248553903 0.025410861103672515 0 0.012881318638189655 0.025559315341056956 0 0.013793147907290212 0.024999955497605919 0 0.013549023500477472 0.025915116353036245 0 0.013793147907290212 0.024999955497605919 0 0.013549023500477472 0.025915116353036245 0 0.014431913974204265 0.025560026392810194 0 0.013549023500477472 0.025915116353036245 0 0.014523367589050038 0.026207536842501964 0 0.014431913974204265 0.025560026392810194 0 0.014523367589050038 0.026207536842501964 0 0.014431913974204265 0.025560026392810194 0 0.015191363334381612 0.025805077573570191 0 0.013793147907290212 0.024999955497605919 0 0.014431913974204265 0.025560026392810194 0 0.015082794744378661 0.024999935244175014 0 0.014431913974204265 0.025560026392810194 0 0.015082794744378661 0.024999935244175014 0 0.015191363334381612 0.025805077573570191 0 0.015082794744378661 0.024999935244175014 0 0.015191363334381612 0.025805077573570191 0 0.016372555225746419 0.024999904657824822 0 0.014523367589050038 0.026207536842501964 0 0.015191363334381612 0.025805077573570191 0 0.015079861570390223 0.026636031967502156 0 0.015191363334381612 0.025805077573570191 0 0.015079861570390223 0.026636031967502156 0 0.016021949884917792 0.026048312222621509 0 0.014129181775415431 0.026707051593331754 0 0.014523367589050038 0.026207536842501964 0 0.015079861570390223 0.026636031967502156 0 0.014129181775415431 0.026707051593331754 0 0.015079861570390223 0.026636031967502156 0 0.014823733638136013 0.027099404777964332 0 0.014129499844262917 0.027200095557704692 0 0.014129181775415431 0.026707051593331754 0 0.014823733638136013 0.027099404777964332 0 0.015079861570390223 0.026636031967502156 0 0.014823733638136013 0.027099404777964332 0 0.015251134579431804 0.027053961882280379 0 0.015251134579431804 0.027053961882280379 0 0.015631525968966789 0.026830402431450955 0 0.01521842471302985 0.027164288241207851 0 0.015079861570390223 0.026636031967502156 0 0.015251134579431804 0.027053961882280379 0 0.015631525968966789 0.026830402431450955 0 0.015950063332840186 0.026897182322991479 0 0.015836599712222274 0.027735775891639117 0 0.016284251298693892 0.027132747438481236 0 0.016940576573973621 0.027536079542773258 0 0.016886935184269144 0.026736252746606803 0 0.016940576573973621 0.027536079542773258 0 0.016886935184269144 0.026736252746606803 0 0.017414127318591498 0.027155475440420337 0 0.016284251298693892 0.027132747438481236 0 0.016940576573973621 0.027536079542773258 0 0.01643227847696738 0.028076674316846691 0 0.015079861570390223 0.026636031967502156 0 0.015631525968966789 0.026830402431450955 0 0.016021949884917792 0.026048312222621509 0 0.016284251298693892 0.027132747438481236 0 0.016886935184269144 0.026736252746606803 0 0.016021949884917792 0.026048312222621509 0 0.015950063332840186 0.026897182322991479 0 0.016004335133964782 0.026093042628504967 0 0.015191363334381612 0.025805077573570191 0 0.016021949884917792 0.026048312222621509 0 0.016372555225746419 0.024999904657824822 0 0.016021949884917792 0.026048312222621509 0 0.016372555225746419 0.024999904657824822 0 0.017047943250519018 0.025843638873980695 0 0.016372555225746419 0.024999904657824822 0 0.017047943250519018 0.025843638873980695 0 0.017662506173444323 0.024999958475353638 0 0.016886935184269144 0.026736252746606803 0 0.017047943250519018 0.025843638873980695 0 0.017553269981932493 0.026538608624274668 0 0.016886935184269144 0.026736252746606803 0 0.016021949884917792 0.026048312222621509 0 0.017047943250519018 0.025843638873980695 0 0.017047943250519018 0.025843638873980695 0 0.017785046480777247 0.025884801085464045 0 0.017553269981932493 0.026538608624274668 0 0.017785046480777247 0.025884801085464045 0 0.018259833959836314 0.026430169636555215 0 0.017553269981932493 0.026538608624274668 0 0.017785046480777247 0.025884801085464045 0 0.017662506173444323 0.024999958475353638 0 0.018376936945845832 0.025587523584354416 0 0.017047943250519018 0.025843638873980695 0 0.017785046480777247 0.025884801085464045 0 0.017662506173444323 0.024999958475353638 0 0.018952168303179785 0.02499992067561712 0 0.017662506173444323 0.024999958475353638 0 0.018376936945845832 0.025587523584354416 0 0.018860047113344006 0.026227707972463491 0 0.018376936945845832 0.025587523584354416 0 0.018259833959836314 0.026430169636555215 0 0.017785046480777247 0.025884801085464045 0 0.018376936945845832 0.025587523584354416 0 0.018259833959836314 0.026430169636555215 0 0.01877911753707141 0.027130603347521293 0 0.018259833959836314 0.026430169636555215 0 0.018049715203291447 0.027100818159337053 0 0.018860047113344006 0.026227707972463491 0 0.01877911753707141 0.027130603347521293 0 0.018259833959836314 0.026430169636555215 0 0.018259833959836314 0.026430169636555215 0 0.017553269981932493 0.026538608624274668 0 0.018049715203291447 0.027100818159337053