<?xml version="1.0"?>
<VTKFile type="UnstructuredGrid" version="0.1" byte_order="LittleEndian">
<UnstructuredGrid>
<Piece NumberOfPoints="30578" NumberOfCells="10723">
<Points>
<DataArray type="Float64" NumberOfComponents="3" format="ascii">
-0.5 -0.5 0 -0.47439485679867832 -0.48072581506667478 0 -0.5 -0.44765434486020428 0 -0.5 -0.5 0 -0.47439485679867832 -0.48072581506667478 0 -0.43702443379937372 -0.49999999999999922 0 -0.47439485679867832 -0.48072581506667478 0 -0.45530669598391149 -0.47718009944797551 0 -0.43702443379937372 -0.49999999999999922 0 -0.47439485679867832 -0.48072581506667478 0 -0.45530669598391149 -0.47718009944797551 0 -0.4597353119515426 -0.45943449384344293 0 -0.45530669598391149 -0.47718009944797551 0 -0.44381084376742141 -0.47114793899167112 0 -0.4597353119515426 -0.45943449384344293 0 -0.45530669598391149 -0.47718009944797551 0 -0.44381084376742141 -0.47114793899167112 0 -0.43702443379937372 -0.49999999999999922 0 -0.44381084376742141 -0.47114793899167112 0 -0.43702443379937372 -0.49999999999999922 0 -0.45059725373546922 -0.44229587798334291 0 -0.4339166039271336 -0.43498117536117131 0 -0.43309128002320102 -0.45351235807576151 0 -0.44381084376742141 -0.47114793899167112 0 -0.45059725373546922 -0.44229587798334291 0 -0.4597353119515426 -0.45943449384344293 0 -0.44381084376742141 -0.47114793899167112 0 -0.45059725373546922 -0.44229587798334291 0 -0.43309128002320102 -0.45351235807576151 0 -0.44381084376742141 -0.47114793899167112 0 -0.45059725373546922 -0.44229587798334291 0 -0.4597353119515426 -0.45943449384344293 0 -0.47505511338101108 -0.44868394208069429 0 -0.46517432262153441 -0.43649963461163338 0 -0.45059725373546922 -0.44229587798334291 0 -0.4597353119515426 -0.45943449384344293 0 -0.46517432262153441 -0.43649963461163338 0 -0.47505511338101108 -0.44868394208069429 0 -0.47820614292347569 -0.42776699273468149 0 -0.46517432262153441 -0.43649963461163338 0 -0.47505511338101108 -0.44868394208069429 0 -0.47820614292347569 -0.42776699273468149 0 -0.47439485679867832 -0.48072581506667478 0 -0.47505511338101108 -0.44868394208069429 0 -0.5 -0.44765434486020428 0 -0.47439485679867832 -0.48072581506667478 0 -0.4597353119515426 -0.45943449384344293 0 -0.47505511338101108 -0.44868394208069429 0 -0.47505511338101108 -0.44868394208069429 0 -0.5 -0.44765434486020428 0 -0.47820614292347569 -0.42776699273468149 0 -0.5 -0.44765434486020428 0 -0.49656450065014057 -0.42151023988558672 0 -0.47820614292347569 -0.42776699273468149 0 -0.5 -0.44765434486020428 0 -0.49656450065014057 -0.42151023988558672 0 -0.50000000000000089 -0.37904661106745707 0 -0.49656450065014057 -0.42151023988558672 0 -0.48135717246594062 -0.40685004338866881 0 -0.47820614292347569 -0.42776699273468149 0 -0.49656450065014057 -0.42151023988558672 0 -0.48135717246594062 -0.40685004338866881 0 -0.48135717246594062 -0.40685004338866881 0 -0.47820614292347569 -0.42776699273468149 0 -0.48135717246594062 -0.40685004338866881 0 -0.47820614292347569 -0.42776699273468149 0 -0.45738366370351707 -0.41344381697501481 0 -0.49656450065014057 -0.42151023988558672 0 -0.48135717246594062 -0.40685004338866881 0 -0.50000000000000089 -0.37904661106745707 0 -0.50000000000000089 -0.37904661106745707 0 -0.48466894952205442 -0.38486603086372417 0 -0.48717439863114548 -0.36823452950912272 0 -0.48135717246594062 -0.40685004338866881 0 -0.50000000000000089 -0.37904661106745707 0 -0.48466894952205442 -0.38486603086372417 0 -0.48466894952205442 -0.38486603086372417 0 -0.48717439863114548 -0.36823452950912272 0 -0.50000000000000089 -0.37904661106745707 0 -0.48466894952205442 -0.38486603086372417 0 -0.48135717246594062 -0.40685004338866881 0 -0.48466894952205442 -0.38486603086372417 0 -0.46593083509403682 -0.39197871725165279 0 -0.48135717246594062 -0.40685004338866881 0 -0.48466894952205442 -0.38486603086372417 0 -0.48135717246594062 -0.40685004338866881 0 -0.46593083509403682 -0.39197871725165279 0 -0.48466894952205442 -0.38486603086372417 0 -0.47195833844942919 -0.37959069520904498 0 -0.46593083509403682 -0.39197871725165279 0 -0.48466894952205442 -0.38486603086372417 0 -0.46593083509403682 -0.39197871725165279 0 -0.48466894952205442 -0.38486603086372417 0 -0.47195833844942919 -0.37959069520904498 0 -0.48717439863114548 -0.36823452950912272 0 -0.46593083509403682 -0.39197871725165279 0 -0.44890944387521442 -0.39029302340116001 0 -0.45132291774153199 -0.37789636588759368 0 -0.47195833844942919 -0.37959069520904498 0 -0.46593083509403682 -0.39197871725165279 0 -0.45132291774153199 -0.37789636588759368 0 -0.46593083509403682 -0.39197871725165279 0 -0.45132291774153199 -0.37789636588759368 0 -0.48135717246594062 -0.40685004338866881 0 -0.46593083509403682 -0.39197871725165279 0 -0.45738366370351707 -0.41344381697501481 0 -0.46593083509403682 -0.39197871725165279 0 -0.44275815558040038 -0.40077469311046232 0 -0.45738366370351707 -0.41344381697501481 0 -0.46593083509403682 -0.39197871725165279 0 -0.44275815558040038 -0.40077469311046232 0 -0.46593083509403682 -0.39197871725165279 0 -0.44275815558040038 -0.40077469311046232 0 -0.44890944387521442 -0.39029302340116001 0 -0.44275815558040038 -0.40077469311046232 0 -0.44064580868350911 -0.39542861624611658 0 -0.44890944387521442 -0.39029302340116001 0 -0.44225344557501872 -0.38376649822575309 0 -0.45132291774153199 -0.37789636588759368 0 -0.43671500038902772 -0.36381401452353412 0 -0.44890944387521442 -0.39029302340116001 0 -0.44225344557501872 -0.38376649822575309 0 -0.45132291774153199 -0.37789636588759368 0 -0.44064580868350911 -0.39542861624611658 0 -0.44225344557501872 -0.38376649822575309 0 -0.43040194378266172 -0.3881600185019185 0 -0.44064580868350911 -0.39542861624611658 0 -0.44890944387521442 -0.39029302340116001 0 -0.44225344557501872 -0.38376649822575309 0 -0.47820614292347569 -0.42776699273468149 0 -0.46517432262153441 -0.43649963461163338 0 -0.45738366370351707 -0.41344381697501481 0 -0.45059725373546922 -0.44229587798334291 0 -0.45738366370351707 -0.41344381697501481 0 -0.45059725373546922 -0.44229587798334291 0 -0.46517432262153441 -0.43649963461163338 0 -0.45738366370351707 -0.41344381697501481 0 -0.44275815558040038 -0.40077469311046232 0 -0.45738366370351707 -0.41344381697501481 0 -0.44164244492799948 -0.42121090558557039 0 -0.45059725373546922 -0.44229587798334291 0 -0.45738366370351707 -0.41344381697501481 0 -0.44164244492799948 -0.42121090558557039 0 -0.45059725373546922 -0.44229587798334291 0 -0.44164244492799948 -0.42121090558557039 0 -0.4339166039271336 -0.43498117536117131 0 -0.4339166039271336 -0.43498117536117131 0 -0.42355654769347711 -0.414558964497861 0 -0.41671115160429401 -0.44095791049380378 0 -0.44164244492799948 -0.42121090558557039 0 -0.4339166039271336 -0.43498117536117131 0 -0.42355654769347711 -0.414558964497861 0 -0.44275815558040038 -0.40077469311046232 0 -0.44164244492799948 -0.42121090558557039 0 -0.42355654769347711 -0.414558964497861 0 -0.42355654769347711 -0.414558964497861 0 -0.41056920252370888 -0.3963363404412637 0 -0.40050668374064252 -0.41734442193795029 0 -0.42355654769347711 -0.414558964497861 0 -0.41671115160429401 -0.44095791049380378 0 -0.42355654769347711 -0.414558964497861 0 -0.40050668374064252 -0.41734442193795029 0 -0.41671115160429401 -0.44095791049380378 0 -0.44225344557501872 -0.38376649822575309 0 -0.43040194378266172 -0.3881600185019185 0 -0.43671500038902772 -0.36381401452353412 0 -0.43040194378266172 -0.3881600185019185 0 -0.43671500038902772 -0.36381401452353412 0 -0.44064580868350911 -0.39542861624611658 0 -0.42355654769347711 -0.414558964497861 0 -0.43040194378266172 -0.3881600185019185 0 -0.42355654769347711 -0.414558964497861 0 -0.43040194378266172 -0.3881600185019185 0 -0.44275815558040038 -0.40077469311046232 0 -0.44064580868350911 -0.39542861624611658 0 -0.42355654769347711 -0.414558964497861 0 -0.44064580868350911 -0.39542861624611658 0 -0.43040194378266172 -0.3881600185019185 0 -0.42355654769347711 -0.414558964497861 0 -0.43040194378266172 -0.3881600185019185 0 -0.41056920252370888 -0.3963363404412637 0 -0.43040194378266172 -0.3881600185019185 0 -0.4079689369259607 -0.37224253963894771 0 -0.43040194378266172 -0.3881600185019185 0 -0.41056920252370888 -0.3963363404412637 0 -0.4079689369259607 -0.37224253963894771 0 -0.41056920252370888 -0.3963363404412637 0 -0.39195929229331972 -0.37982250283040359 0 -0.4079689369259607 -0.37224253963894771 0 -0.41056920252370888 -0.3963363404412637 0 -0.39195929229331972 -0.37982250283040359 0 -0.39357845321732049 -0.39746174547711199 0 -0.41056920252370888 -0.3963363404412637 0 -0.39357845321732049 -0.39746174547711199 0 -0.40050668374064252 -0.41734442193795029 0 -0.39357845321732049 -0.39746174547711199 0 -0.38114412328536468 -0.40833987260765031 0 -0.36544727141479139 -0.39026932065168712 0 -0.39195929229331972 -0.37982250283040359 0 -0.37549160074202448 -0.3732971907138336 0 -0.36544727141479139 -0.39026932065168712 0 -0.39195929229331972 -0.37982250283040359 0 -0.39357845321732049 -0.39746174547711199 0 -0.36544727141479139 -0.39026932065168712 0 -0.40050668374064252 -0.41734442193795029 0 -0.3944977858259317 -0.43926335073686201 0 -0.41671115160429401 -0.44095791049380378 0 -0.40050668374064252 -0.41734442193795029 0 -0.38028594703985957 -0.42392304976487449 0 -0.3944977858259317 -0.43926335073686201 0 -0.39357845321732049 -0.39746174547711199 0 -0.40050668374064252 -0.41734442193795029 0 -0.38114412328536468 -0.40833987260765031 0 -0.40050668374064252 -0.41734442193795029 0 -0.38114412328536468 -0.40833987260765031 0 -0.38028594703985957 -0.42392304976487449 0 -0.38114412328536468 -0.40833987260765031 0 -0.38028594703985957 -0.42392304976487449 0 -0.36590226101420908 -0.41270082520662749 0 -0.38028594703985957 -0.42392304976487449 0 -0.3944977858259317 -0.43926335073686201 0 -0.3723601590800425 -0.44005613486137668 0 -0.3944977858259317 -0.43926335073686201 0 -0.38265619596279349 -0.45813348326120767 0 -0.3723601590800425 -0.44005613486137668 0 -0.40093272222703252 -0.45142790024540502 0 -0.3944977858
[...]
<PointData Scalars="" Vectors="displacement," Tensors="">
<DataArray type="Float64" Name="displacement" NumberOfComponents="3" format="ascii">
0.03499755767311083 0.034997561216711742 0 0.034274298214510675 0.033955535099416706 0 0.03134040851205195 0.034997788857331173 0 0.03499755767311083 0.034997561216711742 0 0.034274298214510675 0.033955535099416706 0 0.034997315440309644 0.030599428717374609 0 0.034274298214510675 0.033955535099416706 0 0.034272752346899527 0.032977887955815757 0 0.034997315440309644 0.030599428717374609 0 0.034274298214510675 0.033955535099416706 0 0.034272752346899527 0.032977887955815757 0 0.033454570046510555 0.033617522258969107 0 0.034272752346899527 0.032977887955815757 0 0.03404598962056516 0.033083049982466757 0 0.033454570046510555 0.033617522258969107 0 0.034272752346899527 0.032977887955815757 0 0.03404598962056516 0.033083049982466757 0 0.034997315440309644 0.030599428717374609 0 0.034953646541807951 0.031886050614070766 0 0.034999508562577067 0.030592105584871885 0 0.03558798782689522 0.031343682089829128 0 0.035663361951280677 0.031290092177062696 0 0.035802631106781883 0.031016769321893858 0 0.03404598962056516 0.033083049982466757 0 0.033546168689976633 0.03326267492473297 0 0.033454570046510555 0.033617522258969107 0 0.036055883140486994 0.03086407698020088 0 0.03558798782689522 0.031343682089829128 0 0.035802631106781883 0.031016769321893858 0 0.034953646541807951 0.031886050614070766 0 0.034697315076093645 0.032318438523024864 0 0.033454570046510555 0.033617522258969107 0 0.032606933534038623 0.034731385568428627 0 0.033736900464493957 0.033799925117774229 0 0.033546168689976633 0.03326267492473297 0 0.033454570046510555 0.033617522258969107 0 0.033736900464493957 0.033799925117774229 0 0.032606933534038623 0.034731385568428627 0 0.034445440069907296 0.034765952841403158 0 0.033736900464493957 0.033799925117774229 0 0.032387815800456299 0.034816232439008374 0 0.032676390916085832 0.035106169789215158 0 0.034274298214510675 0.033955535099416706 0 0.032606933534038623 0.034731385568428627 0 0.03134040851205195 0.034997788857331173 0 0.034274298214510675 0.033955535099416706 0 0.033454570046510555 0.033617522258969107 0 0.032606933534038623 0.034731385568428627 0 0.032606933534038623 0.034731385568428627 0 0.03134040851205195 0.034997788857331173 0 0.030440188341778928 0.035516941308199081 0 0.03134040851205195 0.034997788857331173 0 0.029590962720099687 0.035165421280710117 0 0.030440188341778928 0.035516941308199081 0 0.03134040851205195 0.034997788857331173 0 0.029590962720099687 0.035165421280710117 0 0.026532017320954469 0.035000605920104969 0 0.029590962720099687 0.035165421280710117 0 0.02950356893670561 0.035516304553514851 0 0.030440188341778928 0.035516941308199081 0 0.028809799672531916 0.035781193279468014 0 0.031643485369665991 0.03506631146133727 0 0.031643485369665991 0.03506631146133727 0 0.032676390916085832 0.035106169789215158 0 0.036225908700662952 0.034831555250858112 0 0.034445440069907296 0.034765952841403158 0 0.035739238117621384 0.032669670990703517 0 0.029590962720099687 0.035165421280710117 0 0.028545724926252857 0.036279845414906066 0 0.026532017320954469 0.035000605920104969 0 0.026533009675049121 0.034999879722463621 0 0.026898876076095216 0.036015485882297929 0 0.02571990715980331 0.035814902738633608 0 0.028545724926252857 0.036279845414906066 0 0.026532017320954469 0.035000605920104969 0 0.026966271206829765 0.036067330441749798 0 0.027564286067359549 0.035535075794100063 0 0.025635988031599988 0.035790698139594547 0 0.026533495596502903 0.035000472395636362 0 0.027564286067359549 0.035535075794100063 0 0.031264925561233226 0.034765859131631785 0 0.030359390030065148 0.034632219852338463 0 0.030667183120220314 0.035385780271381034 0 0.031643485369665991 0.03506631146133727 0 0.027564286067359549 0.035535075794100063 0 0.031643485369665991 0.03506631146133727 0 0.033117791884784503 0.034273111477673958 0 0.026722096682625956 0.035939608804852904 0 0.026393955871028604 0.036711576205686547 0 0.027189782540856019 0.037069951912510189 0 0.027564286067359549 0.035535075794100063 0 0.033117791884784503 0.034273111477673958 0 0.026722096682625956 0.035939608804852904 0 0.026393955871028604 0.036711576205686547 0 0.02571990715980331 0.035814902738633608 0 0.036214185788674871 0.03092856122250684 0 0.036169978479145763 0.031516694665121706 0 0.035609340733567856 0.031404223352548215 0 0.026393955871028604 0.036711576205686547 0 0.027189782540856019 0.037069951912510189 0 0.026279551707587074 0.03798499690441709 0 0.033117791884784503 0.034273111477673958 0 0.030819866417359565 0.034814405362845489 0 0.036225908700662952 0.034831555250858112 0 0.037337098900555532 0.033413930017083551 0 0.035739238117621384 0.032669670990703517 0 0.037337098900555532 0.033413930017083551 0 0.036466782539407723 0.03174959541749494 0 0.035739238117621384 0.032669670990703517 0 0.033117791884784503 0.034273111477673958 0 0.03720975055146223 0.031216236775363421 0 0.036214185788674871 0.03092856122250684 0 0.036466782539407723 0.03174959541749494 0 0.036169978479145763 0.031516694665121706 0 0.036466782539407723 0.03174959541749494 0 0.036469747499916855 0.031763074572383435 0 0.036169978479145763 0.031516694665121706 0 0.035880087680327341 0.031783315692472343 0 0.035609340733567856 0.031404223352548215 0 0.034852598462730165 0.032088145897166714 0 0.036169978479145763 0.031516694665121706 0 0.035880087680327341 0.031783315692472343 0 0.035609340733567856 0.031404223352548215 0 0.036469747499916855 0.031763074572383435 0 0.035880087680327341 0.031783315692472343 0 0.036099247995631183 0.032351991693156903 0 0.036469747499916855 0.031763074572383435 0 0.036169978479145763 0.031516694665121706 0 0.035880087680327341 0.031783315692472343 0 0.034445440069907296 0.034765952841403158 0 0.033736900464493957 0.033799925117774229 0 0.035739238117621384 0.032669670990703517 0 0.034697315076093645 0.032318438523024864 0 0.035774725012117987 0.032669101265748159 0 0.033546168689976633 0.03326267492473297 0 0.033736900464493957 0.033799925117774229 0 0.035739238117621384 0.032669670990703517 0 0.036466782539407723 0.03174959541749494 0 0.035739238117621384 0.032669670990703517 0 0.035747743926926617 0.031659891953401575 0 0.03558798782689522 0.031343682089829128 0 0.035739238117621384 0.032669670990703517 0 0.035747743926926617 0.031659891953401575 0 0.03558798782689522 0.031343682089829128 0 0.035747743926926617 0.031659891953401575 0 0.035663361951280677 0.031290092177062696 0 0.035663361951280677 0.031290092177062696 0 0.035974989082876101 0.031189587862236415 0 0.035665383258004862 0.031061336813328455 0 0.035747743926926617 0.031659891953401575 0 0.035663361951280677 0.031290092177062696 0 0.035974989082876101 0.031189587862236415 0 0.036466782539407723 0.03174959541749494 0 0.035747743926926617 0.031659891953401575 0 0.035974989082876101 0.031189587862236415 0 0.038341687006808067 0.026070452141275503 0 0.038766528767826408 0.025760122414546456 0 0.03829234642036345 0.025503936688069967 0 0.037316266294117405 0.028550399284920445 0 0.036702344956766705 0.028511750207056177 0 0.038341687006808067 0.026070452141275503 0 0.03829234642036345 0.025503936688069967 0 0.03775361988814626 0.025905796825345426 0 0.035880087680327341 0.031783315692472343 0 0.036099247995631183 0.032351991693156903 0 0.034852598462730165 0.032088145897166714 0 0.037001000264944468 0.029601181614542494 0 0.029375017671312377 0.034676017983884817 0 0.036469747499916855 0.031763074572383435 0 0.035974989082876101 0.031189587862236415 0 0.036692893583289025 0.031444909760553086 0 0.037316266294117405 0.028550399284920445 0 0.037001000264944468 0.029601181614542494 0 0.036466782539407723 0.03174959541749494 0 0.036469747499916855 0.031763074572383435 0 0.035974989082876101 0.031189587862236415 0 0.036026890030845887 0.03206875218999404 0 0.037001000264944468 0.029601181614542494 0 0.038341687006808067 0.026070452141275503 0 0.038946720722292841 0.026266728292351202 0 0.038766528767826408 0.025760122414546456 0 0.037001000264944468 0.029601181614542494 0 0.035941952335666993 0.028945853237156864 0 0.038946720722292841 0.026266728292351202 0 0.038766528767826408 0.025760122414546456 0 0.039338694419709053 0.02571201652590448 0 0.038766528767826408 0.025760122414546456 0 0.039172748772254115 0.025286977389741113 0 0.039338694419709053 0.02571201652590448 0 0.038766528767826408 0.025760122414546456 0 0.039172748772254115 0.025286977389741113 0 0.038747311763495572 0.025319957986397048 0 0.038766528767826408 0.025760122414546456 0 0.038747311763495572 0.025319957986397048 0 0.03829234642036345 0.025503936688069967 0 0.038747311763495572 0.025319957986397048 0 0.038514439308893346 0.024983930569016495 0 0.03889283415478368 0.024458875965710253 0 0.039172748772254115 0.025286977389741113 0 0.039338910421615386 0.024822582836990233 0 0.03889283415478368 0.024458875965710253 0 0.039172748772254115 0.025286977389741113 0 0.038747311763495572 0.025319957986397048 0 0.03889283415478368 0.024458875965710253 0 0.03829234642036345 0.025503936688069967 0 0.037805191009239805 0.025372495869186117 0 0.03775361988814626 0.025905796825345426 0 0.03829234642036345 0.025503936688069967 0 0.038172254923499994 0.025009793339397537 0 0.037805191009239805 0.025372495869186117 0 0.038747311763495572 0.025319957986397048 0 0.03829234642036345 0.025503936688069967 0 0.038514439308893346 0.024983930569016495 0 0.03829234642036345 0.025503936688069967 0 0.038514439308893346 0.024983930569016495 0 0.038172254923499994 0.025009793339397537 0 0.038514439308893346 0.024983930569016495 0 0.038172254923499994 0.025009793339397537 0 0.038474712409725824 0.024608518661949495 0 0.038172254923499994 0.025009793339397537 0 0.037805191009239805 0.025372495869186117 0 0.037806281173384242 0.024872189097218798 0 0.037805191009239805 0.025372495869186117 0 0.037392083116475829 0.02510262554373326 0 0.037806281173384242 0.024872189097218798 0 0.037523036267592944 0.025534809444996882 0 0.037805191009239805 0.025372495869186117 0 0.037392083116475829 0.02510262554373326 0 0.037523036267592944 0.025534809444996882 0 0.037805191009239805 0.025372495869186117 0 0.03775361988814626 0.025905796825345426 0 0.037520757618768302 0.025554174343687504 0 0.036492161987577001 0.028289879985459492 0 0.03744443541342115 0.026599362638288417 0 0.036552363590963172 0.027388495842870605 0 0.036955841326321133 0.028408231951502085 0 0.037523036267592944 0.025534809444996882 0 0.037392083116475829 0.02510262554373326 0 0.037140659165705497 0.025763175542776767 0 0.03744443541342115 0.026599362638288417 0 0.036597975692200142 0.026659749066869385 0 0.036552363590963172 0.027388495842870605 0 0.036597975692200142 0.026659749066869385 0 0.035832488623602575 0.027116034192890149 0 0.035939484980986015 0.025636950172370346 0 0.036597975692200142 0.026659749066869385 0 0.035832488623602575 0.027116034192890149 0 0.036552363590963172 0.027388495842870605 0 0.034999901418880749 0.026250374956472578 0 0.035832488623602575 0.027116034192890149 0 0.034999890266167247 0.028097528474282901 0 0.034999901418880749 0.026250374956472578 0 0.035832488623602575 0.027116034192890149 0 0.035939484980986015 0.025636950172370346 0 0.035832488623602575 0.027116034192890149 0 0.034999890266167247 0.028097528474282901 0 0.035958462603386997 0.028176964760983986 0 0.035000089366214925 0.028098166517005543 0 0.035931133687827639 0.028427794270025043 0 0.035958462603386997 0.028176964760983986 0 0.036552363590963172 0.027388495842870605 0 0.036955841326321133 0.028408231951502085 0 0.035832488623602575 0.027116034192890149 0 0.035958462603386997 0.028176964760983986 0 0.036552363590963172 0.027388495842870605 0 0.035931133687827639 0.028427794270025043 0 0.036492161987577001 0.028289879985459492 0 0.036017252941243083 0.031026382230622245 0 0.036492161987577001 0.028289879985459492 0 0.035644575447640867 0.029661528665911392 0 0.036145382875911042 0.03046087778368077 0 0.036758430988356287 0.02904646058409276 0 0.03580621455789245 0.028678034030075072 0 0.035644575447640867 0.029661528665911392 0 0.036758430988356287 0.02904646058409276 0 0.03580621455789245 0.028678034030075072 0 0.035644575447640867 0.029661528665911392 0 0.034999599999230233 0.02934542905151467 0 0.034999989510519164 0.028098425251305733 0 0.03580621455789245 0.028678034030075072 0 0.034999599999230233 0.02934542905151467 0 0.035644575447640867 0.029661528665911392 0 0.034999599999230233 0.02934542905151467 0 0.035000246126684648 0.030591280660628987 0 0.035644575447640867 0.029661528665911392 0 0.035000246126684648 0.030591280660628987 0 0.036145382875911042 0.03046087778368077 0 0.036055883140486994 0.03086407698020088 0 0.035000246126684648 0.030591280660628987 0 0.036145382875911042 0.03046087778368077 0 0.036145382875911042 0.03046087778368077 0 0.035860261582541061 0.030916151976741427 0 0.035802631106781883 0.031016769321893858 0 0.036055883140486994 0.03086407698020088 0 0.036145382875911042 0.03046087778368077 0 0.035802631106781883 0.031016769321893858 0 0.035663361951280677 0.031290092177062696 0 0.035802631106781883 0.031016769321893858 0 0.035665383258004862 0.031061336813328455 0 0.035860261582541061 0.030916151976741427 0 0.035802631106781883 0.031016769321893858 0 0.035665383258004862 0.031061336813328455 0 0.035860261582541061 0.030916151976741427 0 0.035665383258004862 0.031061336813328455 0 0.036007296554056288 0.031090444834307226 0 0.036702344956766705 0.028511750207056177 0 0.036492161987577001 0.028289879985459492 0 0.037523036267592944 0.025534809444996882 0 0.03775361988814626 0.025905796825345426 0 0.037140659165705497 0.025763175542776767 0 0.036145382875911042 0.03046087778368077 0 0.035860261582541061 0.030916151976741427 0 0.036007296554056288 0.031090444834307226 0 0.017166103173951088 0.036600816357512583 0 0.01700097028949886 0.037160646529842883 0 0.016732524045182221 0.036652551011363069 0 0.017529006330486704 0.037062129211054819 0 0.017166103173951088 0.036600816357512583 0 0.01700097028949886 0.037160646529842883 0 0.019908461035125429 0.037652105270688845 0 0.01984139280443132 0.037164618864894645 0 0.018761819307999035 0.03721158223070576 0 0.018460222507738731 0.037325790140894946 0 0.017984172280156058 0.036889349261051543 0 0.01984139280443132 0.037164618864894645 0 0.019015839955293112 0.036214284358243656 0 0.02032204648037805 0.036575136728720398 0 0.01984139280443132 0.037164618864894645 0 0.018761819307999035 0.03721158223070576 0 0.019015839955293112 0.036214284358243656 0 0.017984172280156058 0.036889349261051543 0 0.017072334166914015 0.036134285721266216 0 0.018761819307999035 0.03721158223070576 0 0.019015839955293112 0.036214284358243656 0 0.017435158459123083 0.036328695139511487 0 0.018067234127588087 0.035749147115142405 0 0.019015839955293112 0.036214284358243656 0 0.017435158459123083 0.036328695139511487 0 0.018067234127588087 0.035749147115142405 0 0.01750472493340283 0.034999766882309699 0 0.019310441705780529 0.034999919859409465 0 0.018067234127588087 0.035749147115142405 0 0.01750472493340283 0.034999766882309699 0 0.017288547047862292 0.035553087407855906 0 0.018067234127588087 0.035749147115142405 0 0.019310441705780529 0.034999919859409465 0 0.019015839955293112 0.036214284358243656 0 0.019310441705780529 0.034999919859409465 0 0.019015839955293112 0.036214284358243656 0 0.020199314428390888 0.035751932562514591 0 0.019015839955293112 0.036214284358243656 0 0.02032204648037805 0.036575136728720398 0 0.020199314428390888 0.035751932562514591 0 0.02032204648037805 0.036575136728720398 0 0.020199314428390888 0.035751932562514591 0 0.021215971388253263 0.03608347301645088 0 0.019310441705780529 0.034999919859409465 0 0.020199314428390888 0.035751932562514591 0 0.021115854836211392 0.034999887369541668 0 0.020199314428390888 0.035751932562514591 0 0.021115854836211392 0.034999887369541668 0 0.021215971388253263 0.03608347301645088 0 0.021115854836211392 0.034999887369541668 0 0.021215971388253263 0.03608347301645088 0 0.022921455928845761 0.034999832732354914 0 0.02032204648037805 0.036575136728720398 0 0.021215971388253263 0.03608347301645088 0 0.020999630225836792 0.03707735278694424 0 0.021215971388253263 0.03608347301645088 0 0.020999630225836792 0.03707735278694424 0 0.022326106175173381 0.036423808497557011 0 0.01984139280443132 0.037164618864894645 0 0.02032204648037805 0.036575136728720398 0 0.020999630225836792 0.03707735278694424 0 0.01984139280443132 0.037164618864894645 0 0.020999630225836792 0.03707735278694424 0 0.020688146367588676 0.037478650974556209 0 0.019908461035125429 0.037652105270688845 0 0.01984139280443132 0.037164618864894645 0 0.020688146367588676 0.037478650974556209 0 0.020999630225836792 0.03707735278694424 0 0.020688146367588676 0.037478650974556209 0 0.021092655338413788 0.037392205703451233 0 0.021092655338413788 0.037392205703451233 0 0.021545673935363038 0.037262848114802488 0 0.020845297052304469 0.037329406644904618 0 0.020999630225836792 0.03707735278694424 0 0.021092655338413788 0.037392205703451233 0 0.021545673935363038 0.037262848114802488 0 0.022132811195687684 0.037492441409552012 0 0.021917285431230532 0.038506848692560734 0 0.022729202861631364 0.037993410125791417 0 0.023667692536909583 0.038562002258822572 0 0.023594040429248023 0.03742756817024194 0 0.023667692536909583 0.038562002258822572 0 0.023594040429248023 0.03742756817024194 0 0.024343395033991043 0.03802215953312283 0 0.022729202861631364 0.037993410125791417 0 0.023667692536909583 0.038562002258822572 0 0.022953369912706741 0.039320077857448142 0 0.020999630225836792 0.03707735278694424 0 0.021545673935363038 0.037262848114802488 0 0.022326106175173381 0.036423808497557011 0 0.022729202861631364 0.037993410125791417 0 0.023594040429248023 0.03742756817024194 0 0.022326106175173381 0.036423808497557011 0 0.022132811195687684 0.037492441409552012 0 0.022280000336905362 0.036469093115174579 0 0.021215971388253263 0.03608347301645088 0 0.022326106175173381 0.036423808497557011 0 0.022921455928845761 0.034999832732354914 0 0.022326106175173381 0.036423808497557011 0 0.022921455928845761 0.034999832732354914 0 0.023835769087204844 0.036156834345450833 0 0.022921455928845761 0.034999832732354914 0 0.023835769087204844 0.036156834345450833 0 0.024727500579845942 0.034999929018538198 0 0.023594040429248023 0.03742756817024194 0 0.023835769087204844 0.036156834345450833 0 0.024547435141634023 0.037147534162976406 0 0.023594040429248023 0.03742756817024194 0 0.022326106175173381 0.036423808497557011 0 0.023835769087204844 0.036156834345450833 0 0.023835769087204844 0.036156834345450833 0 0.024883166290819964 0.036225291805784272 0 0.024547435141634023 0.037147534162976406 0 0.024883166290819964 0.036225291805784272 0 0.025548435045702599 0.036995290696751608 0 0.024547435141634023 0.037147534162976406 0 0.024883166290819964 0.036225291805784272 0 0.024727500579845942 0.034999929018538198 0 0.02571990715980331 0.035814902738633608 0 0.023835769087204844 0.036156834345450833 0 0.024883166290819964 0.036225291805784272 0 0.024727500579845942 0.034999929018538198 0 0.026533009675049121 0.034999879722463621 0 0.024727500579845942 0.034999929018538198 0 0.02571990715980331 0.035814902738633608 0 0.026393955871028604 0.036711576205686547 0 0.02571990715980331 0.035814902738633608 0 0.025548435045702599 0.036995290696751608 0 0.024883166290819964 0.036225291805784272 0 0.02571990715980331 0.035814902738633608 0 0.025548435045702599 0.036995290696751608 0 0.026279551707587074 0.03798499690441709 0 0.025548435045702599 0.036995290696751608 0 0.025246452977860906 0.037943626426860284 0 0.026393955871028604 0.036711576205686547 0 0.026279551707587074 0.03798499690441709 0 0.025548435045702599 0.036995290696751608 0 0.025548435045702599 0.036995290696751608 0 0.024547435141634023 0.037147534162976406 0 0.025246452977860906 0.037943626426860284 0 0.023594040429248023 0.03742756817024194 