<?xml version="1.0"?>
<VTKFile type="UnstructuredGrid" version="0.1" byte_order="LittleEndian">
<UnstructuredGrid>
<Piece NumberOfPoints="30578" NumberOfCells="10723">
<Points>
<DataArray type="Float64" NumberOfComponents="3" format="ascii">
-0.5 -0.5 0 -0.47439485679867832 -0.48072581506667478 0 -0.5 -0.44765434486020428 0 -0.5 -0.5 0 -0.47439485679867832 -0.48072581506667478 0 -0.43702443379937372 -0.49999999999999922 0 -0.47439485679867832 -0.48072581506667478 0 -0.45530669598391149 -0.47718009944797551 0 -0.43702443379937372 -0.49999999999999922 0 -0.47439485679867832 -0.48072581506667478 0 -0.45530669598391149 -0.47718009944797551 0 -0.4597353119515426 -0.45943449384344293 0 -0.45530669598391149 -0.47718009944797551 0 -0.44381084376742141 -0.47114793899167112 0 -0.4597353119515426 -0.45943449384344293 0 -0.45530669598391149 -0.47718009944797551 0 -0.44381084376742141 -0.47114793899167112 0 -0.43702443379937372 -0.49999999999999922 0 -0.44381084376742141 -0.47114793899167112 0 -0.43702443379937372 -0.49999999999999922 0 -0.45059725373546922 -0.44229587798334291 0 -0.4339166039271336 -0.43498117536117131 0 -0.43309128002320102 -0.45351235807576151 0 -0.44381084376742141 -0.47114793899167112 0 -0.45059725373546922 -0.44229587798334291 0 -0.4597353119515426 -0.45943449384344293 0 -0.44381084376742141 -0.47114793899167112 0 -0.45059725373546922 -0.44229587798334291 0 -0.43309128002320102 -0.45351235807576151 0 -0.44381084376742141 -0.47114793899167112 0 -0.45059725373546922 -0.44229587798334291 0 -0.4597353119515426 -0.45943449384344293 0 -0.47505511338101108 -0.44868394208069429 0 -0.46517432262153441 -0.43649963461163338 0 -0.45059725373546922 -0.44229587798334291 0 -0.4597353119515426 -0.45943449384344293 0 -0.46517432262153441 -0.43649963461163338 0 -0.47505511338101108 -0.44868394208069429 0 -0.47820614292347569 -0.42776699273468149 0 -0.46517432262153441 -0.43649963461163338 0 -0.47505511338101108 -0.44868394208069429 0 -0.47820614292347569 -0.42776699273468149 0 -0.47439485679867832 -0.48072581506667478 0 -0.47505511338101108 -0.44868394208069429 0 -0.5 -0.44765434486020428 0 -0.47439485679867832 -0.48072581506667478 0 -0.4597353119515426 -0.45943449384344293 0 -0.47505511338101108 -0.44868394208069429 0 -0.47505511338101108 -0.44868394208069429 0 -0.5 -0.44765434486020428 0 -0.47820614292347569 -0.42776699273468149 0 -0.5 -0.44765434486020428 0 -0.49656450065014057 -0.42151023988558672 0 -0.47820614292347569 -0.42776699273468149 0 -0.5 -0.44765434486020428 0 -0.49656450065014057 -0.42151023988558672 0 -0.50000000000000089 -0.37904661106745707 0 -0.49656450065014057 -0.42151023988558672 0 -0.48135717246594062 -0.40685004338866881 0 -0.47820614292347569 -0.42776699273468149 0 -0.49656450065014057 -0.42151023988558672 0 -0.48135717246594062 -0.40685004338866881 0 -0.48135717246594062 -0.40685004338866881 0 -0.47820614292347569 -0.42776699273468149 0 -0.48135717246594062 -0.40685004338866881 0 -0.47820614292347569 -0.42776699273468149 0 -0.45738366370351707 -0.41344381697501481 0 -0.49656450065014057 -0.42151023988558672 0 -0.48135717246594062 -0.40685004338866881 0 -0.50000000000000089 -0.37904661106745707 0 -0.50000000000000089 -0.37904661106745707 0 -0.48466894952205442 -0.38486603086372417 0 -0.48717439863114548 -0.36823452950912272 0 -0.48135717246594062 -0.40685004338866881 0 -0.50000000000000089 -0.37904661106745707 0 -0.48466894952205442 -0.38486603086372417 0 -0.48466894952205442 -0.38486603086372417 0 -0.48717439863114548 -0.36823452950912272 0 -0.50000000000000089 -0.37904661106745707 0 -0.48466894952205442 -0.38486603086372417 0 -0.48135717246594062 -0.40685004338866881 0 -0.48466894952205442 -0.38486603086372417 0 -0.46593083509403682 -0.39197871725165279 0 -0.48135717246594062 -0.40685004338866881 0 -0.48466894952205442 -0.38486603086372417 0 -0.48135717246594062 -0.40685004338866881 0 -0.46593083509403682 -0.39197871725165279 0 -0.48466894952205442 -0.38486603086372417 0 -0.47195833844942919 -0.37959069520904498 0 -0.46593083509403682 -0.39197871725165279 0 -0.48466894952205442 -0.38486603086372417 0 -0.46593083509403682 -0.39197871725165279 0 -0.48466894952205442 -0.38486603086372417 0 -0.47195833844942919 -0.37959069520904498 0 -0.48717439863114548 -0.36823452950912272 0 -0.46593083509403682 -0.39197871725165279 0 -0.44890944387521442 -0.39029302340116001 0 -0.45132291774153199 -0.37789636588759368 0 -0.47195833844942919 -0.37959069520904498 0 -0.46593083509403682 -0.39197871725165279 0 -0.45132291774153199 -0.37789636588759368 0 -0.46593083509403682 -0.39197871725165279 0 -0.45132291774153199 -0.37789636588759368 0 -0.48135717246594062 -0.40685004338866881 0 -0.46593083509403682 -0.39197871725165279 0 -0.45738366370351707 -0.41344381697501481 0 -0.46593083509403682 -0.39197871725165279 0 -0.44275815558040038 -0.40077469311046232 0 -0.45738366370351707 -0.41344381697501481 0 -0.46593083509403682 -0.39197871725165279 0 -0.44275815558040038 -0.40077469311046232 0 -0.46593083509403682 -0.39197871725165279 0 -0.44275815558040038 -0.40077469311046232 0 -0.44890944387521442 -0.39029302340116001 0 -0.44275815558040038 -0.40077469311046232 0 -0.44064580868350911 -0.39542861624611658 0 -0.44890944387521442 -0.39029302340116001 0 -0.44225344557501872 -0.38376649822575309 0 -0.45132291774153199 -0.37789636588759368 0 -0.43671500038902772 -0.36381401452353412 0 -0.44890944387521442 -0.39029302340116001 0 -0.44225344557501872 -0.38376649822575309 0 -0.45132291774153199 -0.37789636588759368 0 -0.44064580868350911 -0.39542861624611658 0 -0.44225344557501872 -0.38376649822575309 0 -0.43040194378266172 -0.3881600185019185 0 -0.44064580868350911 -0.39542861624611658 0 -0.44890944387521442 -0.39029302340116001 0 -0.44225344557501872 -0.38376649822575309 0 -0.47820614292347569 -0.42776699273468149 0 -0.46517432262153441 -0.43649963461163338 0 -0.45738366370351707 -0.41344381697501481 0 -0.45059725373546922 -0.44229587798334291 0 -0.45738366370351707 -0.41344381697501481 0 -0.45059725373546922 -0.44229587798334291 0 -0.46517432262153441 -0.43649963461163338 0 -0.45738366370351707 -0.41344381697501481 0 -0.44275815558040038 -0.40077469311046232 0 -0.45738366370351707 -0.41344381697501481 0 -0.44164244492799948 -0.42121090558557039 0 -0.45059725373546922 -0.44229587798334291 0 -0.45738366370351707 -0.41344381697501481 0 -0.44164244492799948 -0.42121090558557039 0 -0.45059725373546922 -0.44229587798334291 0 -0.44164244492799948 -0.42121090558557039 0 -0.4339166039271336 -0.43498117536117131 0 -0.4339166039271336 -0.43498117536117131 0 -0.42355654769347711 -0.414558964497861 0 -0.41671115160429401 -0.44095791049380378 0 -0.44164244492799948 -0.42121090558557039 0 -0.4339166039271336 -0.43498117536117131 0 -0.42355654769347711 -0.414558964497861 0 -0.44275815558040038 -0.40077469311046232 0 -0.44164244492799948 -0.42121090558557039 0 -0.42355654769347711 -0.414558964497861 0 -0.42355654769347711 -0.414558964497861 0 -0.41056920252370888 -0.3963363404412637 0 -0.40050668374064252 -0.41734442193795029 0 -0.42355654769347711 -0.414558964497861 0 -0.41671115160429401 -0.44095791049380378 0 -0.42355654769347711 -0.414558964497861 0 -0.40050668374064252 -0.41734442193795029 0 -0.41671115160429401 -0.44095791049380378 0 -0.44225344557501872 -0.38376649822575309 0 -0.43040194378266172 -0.3881600185019185 0 -0.43671500038902772 -0.36381401452353412 0 -0.43040194378266172 -0.3881600185019185 0 -0.43671500038902772 -0.36381401452353412 0 -0.44064580868350911 -0.39542861624611658 0 -0.42355654769347711 -0.414558964497861 0 -0.43040194378266172 -0.3881600185019185 0 -0.42355654769347711 -0.414558964497861 0 -0.43040194378266172 -0.3881600185019185 0 -0.44275815558040038 -0.40077469311046232 0 -0.44064580868350911 -0.39542861624611658 0 -0.42355654769347711 -0.414558964497861 0 -0.44064580868350911 -0.39542861624611658 0 -0.43040194378266172 -0.3881600185019185 0 -0.42355654769347711 -0.414558964497861 0 -0.43040194378266172 -0.3881600185019185 0 -0.41056920252370888 -0.3963363404412637 0 -0.43040194378266172 -0.3881600185019185 0 -0.4079689369259607 -0.37224253963894771 0 -0.43040194378266172 -0.3881600185019185 0 -0.41056920252370888 -0.3963363404412637 0 -0.4079689369259607 -0.37224253963894771 0 -0.41056920252370888 -0.3963363404412637 0 -0.39195929229331972 -0.37982250283040359 0 -0.4079689369259607 -0.37224253963894771 0 -0.41056920252370888 -0.3963363404412637 0 -0.39195929229331972 -0.37982250283040359 0 -0.39357845321732049 -0.39746174547711199 0 -0.41056920252370888 -0.3963363404412637 0 -0.39357845321732049 -0.39746174547711199 0 -0.40050668374064252 -0.41734442193795029 0 -0.39357845321732049 -0.39746174547711199 0 -0.38114412328536468 -0.40833987260765031 0 -0.36544727141479139 -0.39026932065168712 0 -0.39195929229331972 -0.37982250283040359 0 -0.37549160074202448 -0.3732971907138336 0 -0.36544727141479139 -0.39026932065168712 0 -0.39195929229331972 -0.37982250283040359 0 -0.39357845321732049 -0.39746174547711199 0 -0.36544727141479139 -0.39026932065168712 0 -0.40050668374064252 -0.41734442193795029 0 -0.3944977858259317 -0.43926335073686201 0 -0.41671115160429401 -0.44095791049380378 0 -0.40050668374064252 -0.41734442193795029 0 -0.38028594703985957 -0.42392304976487449 0 -0.3944977858259317 -0.43926335073686201 0 -0.39357845321732049 -0.39746174547711199 0 -0.40050668374064252 -0.41734442193795029 0 -0.38114412328536468 -0.40833987260765031 0 -0.40050668374064252 -0.41734442193795029 0 -0.38114412328536468 -0.40833987260765031 0 -0.38028594703985957 -0.42392304976487449 0 -0.38114412328536468 -0.40833987260765031 0 -0.38028594703985957 -0.42392304976487449 0 -0.36590226101420908 -0.41270082520662749 0 -0.38028594703985957 -0.42392304976487449 0 -0.3944977858259317 -0.43926335073686201 0 -0.3723601590800425 -0.44005613486137668 0 -0.3944977858259317 -0.43926335073686201 0 -0.38265619596279349 -0.45813348326120767 0 -0.3723601590800425 -0.44005613486137668 0 -0.40093272222703252 -0.45142790024540502 0 -0.3944977858
[...]
<PointData Scalars="" Vectors="displacement," Tensors="">
<DataArray type="Float64" Name="displacement" NumberOfComponents="3" format="ascii">
-0.024998256250580771 -0.024998256670201197 0 -0.024480885129955766 -0.024252894783332393 0 -0.022385996332337694 -0.024998414395962992 0 -0.024998256250580771 -0.024998256670201197 0 -0.024480885129955766 -0.024252894783332393 0 -0.024998082416691634 -0.021856737025661294 0 -0.024480885129955766 -0.024252894783332393 0 -0.024479818891788331 -0.02355597543286193 0 -0.024998082416691634 -0.021856737025661294 0 -0.024480885129955766 -0.024252894783332393 0 -0.024479818891788331 -0.02355597543286193 0 -0.023892895903137455 -0.024012262406785626 0 -0.024479818891788331 -0.02355597543286193 0 -0.024317880168920749 -0.023632986252815312 0 -0.023892895903137455 -0.024012262406785626 0 -0.024479818891788331 -0.02355597543286193 0 -0.024317880168920749 -0.023632986252815312 0 -0.024998082416691634 -0.021856737025661294 0 -0.024961544735809423 -0.022776086359828973 0 -0.024999648194653685 -0.021851503962628766 0 -0.025386377585529325 -0.022384535663215837 0 -0.025435000973118467 -0.022358669002634727 0 -0.025549173976260067 -0.022161599222623753 0 -0.024317880168920749 -0.023632986252815312 0 -0.023948716496974928 -0.02376617524813646 0 -0.023892895903137455 -0.024012262406785626 0 -0.025745028094734349 -0.022043635263034694 0 -0.025386377585529325 -0.022384535663215837 0 -0.025549173976260067 -0.022161599222623753 0 -0.024961544735809423 -0.022776086359828973 0 -0.024760209438773623 -0.023085881876572255 0 -0.023892895903137455 -0.024012262406785626 0 -0.023285961533123633 -0.024802239457129206 0 -0.02407913474550348 -0.024137794843653387 0 -0.023948716496974928 -0.02376617524813646 0 -0.023892895903137455 -0.024012262406785626 0 -0.02407913474550348 -0.024137794843653387 0 -0.023285961533123633 -0.024802239457129206 0 -0.024573305154760243 -0.024811518035486653 0 -0.02407913474550348 -0.024137794843653387 0 -0.023128132362923902 -0.024861414743466807 0 -0.023323593557169019 -0.025063737886411148 0 -0.024480885129955766 -0.024252894783332393 0 -0.023285961533123633 -0.024802239457129206 0 -0.022385996332337694 -0.024998414395962992 0 -0.024480885129955766 -0.024252894783332393 0 -0.023892895903137455 -0.024012262406785626 0 -0.023285961533123633 -0.024802239457129206 0 -0.023285961533123633 -0.024802239457129206 0 -0.022385996332337694 -0.024998414395962992 0 -0.021742739057622244 -0.025366059796676291 0 -0.022385996332337694 -0.024998414395962992 0 -0.021136469619559308 -0.025117934722832698 0 -0.021742739057622244 -0.025366059796676291 0 -0.022385996332337694 -0.024998414395962992 0 -0.021136469619559308 -0.025117934722832698 0 -0.018951446384212967 -0.025000434365981317 0 -0.021136469619559308 -0.025117934722832698 0 -0.021076084455843802 -0.025366223367932563 0 -0.021742739057622244 -0.025366059796676291 0 -0.02058347860997713 -0.025556365367054617 0 -0.022580100591041579 -0.025039237063774894 0 -0.022580100591041579 -0.025039237063774894 0 -0.023323593557169019 -0.025063737886411148 0 -0.025820432701861021 -0.024854255713650599 0 -0.024573305154760243 -0.024811518035486653 0 -0.025477169942354088 -0.023332862934839757 0 -0.021136469619559308 -0.025117934722832698 0 -0.020389712609250692 -0.025914006832136349 0 -0.018951446384212967 -0.025000434365981317 0 -0.018952124820797535 -0.024999903588094917 0 -0.019210952763487107 -0.025725093698874074 0 -0.018362376538778993 -0.02557836453965296 0 -0.020389712609250692 -0.025914006832136349 0 -0.018951446384212967 -0.025000434365981317 0 -0.01926153814235616 -0.025762268708345099 0 -0.019670549714997349 -0.025376332367736131 0 -0.01829880423525259 -0.025561397633772995 0 -0.018952498257834509 -0.025000345584812182 0 -0.019670549714997349 -0.025376332367736131 0 -0.022295180156453459 -0.024819850677456078 0 -0.021653504807383414 -0.024725187203544812 0 -0.021871537604181687 -0.025258983217723741 0 -0.022580100591041579 -0.025039237063774894 0 -0.019670549714997349 -0.025376332367736131 0 -0.022580100591041579 -0.025039237063774894 0 -0.023591910604317881 -0.024453191869345942 0 -0.019041556113438451 -0.025664844398699382 0 -0.018815578583355204 -0.026193483035008885 0 -0.019362821499313523 -0.026439520568304994 0 -0.019670549714997349 -0.025376332367736131 0 -0.023591910604317881 -0.024453191869345942 0 -0.019041556113438451 -0.025664844398699382 0 -0.018815578583355204 -0.026193483035008885 0 -0.018362376538778993 -0.02557836453965296 0 -0.025783645024059023 -0.022037819275813681 0 -0.025747401564659676 -0.022499923211907562 0 -0.02531529747301144 -0.022412916426651188 0 -0.018815578583355204 -0.026193483035008885 0 -0.019362821499313523 -0.026439520568304994 0 -0.018732251455306756 -0.027069780208045936 0 -0.023591910604317881 -0.024453191869345942 0 -0.021942623882767322 -0.024821583857153853 0 -0.025820432701861021 -0.024854255713650599 0 -0.026600114804389639 -0.023856144781721021 0 -0.025477169942354088 -0.023332862934839757 0 -0.026600114804389639 -0.023856144781721021 0 -0.025982831051107474 -0.022682598736122411 0 -0.025477169942354088 -0.023332862934839757 0 -0.023591910604317881 -0.024453191869345942 0 -0.026509802290217006 -0.022296506772577166 0 -0.025783645024059023 -0.022037819275813681 0 -0.025982831051107474 -0.022682598736122411 0 -0.025747401564659676 -0.022499923211907562 0 -0.025982831051107474 -0.022682598736122411 0 -0.02597582790818392 -0.022695298264959508 0 -0.025747401564659676 -0.022499923211907562 0 -0.025523206055451768 -0.022706521946486275 0 -0.02531529747301144 -0.022412916426651188 0 -0.02473758336894441 -0.022938017878610197 0 -0.025747401564659676 -0.022499923211907562 0 -0.025523206055451768 -0.022706521946486275 0 -0.02531529747301144 -0.022412916426651188 0 -0.02597582790818392 -0.022695298264959508 0 -0.025523206055451768 -0.022706521946486275 0 -0.025690140568988797 -0.023143306148390497 0 -0.02597582790818392 -0.022695298264959508 0 -0.025747401564659676 -0.022499923211907562 0 -0.025523206055451768 -0.022706521946486275 0 -0.024573305154760243 -0.024811518035486653 0 -0.02407913474550348 -0.024137794843653387 0 -0.025477169942354088 -0.023332862934839757 0 -0.024760209438773623 -0.023085881876572255 0 -0.02550421819160615 -0.023332612151610616 0 -0.023948716496974928 -0.02376617524813646 0 -0.02407913474550348 -0.024137794843653387 0 -0.025477169942354088 -0.023332862934839757 0 -0.025982831051107474 -0.022682598736122411 0 -0.025477169942354088 -0.023332862934839757 0 -0.02548619595309521 -0.022618905880693194 0 -0.025386377585529325 -0.022384535663215837 0 -0.025477169942354088 -0.023332862934839757 0 -0.02548619595309521 -0.022618905880693194 0 -0.025386377585529325 -0.022384535663215837 0 -0.02548619595309521 -0.022618905880693194 0 -0.025435000973118467 -0.022358669002634727 0 -0.025435000973118467 -0.022358669002634727 0 -0.025641796512411753 -0.022297739317416011 0 -0.025439811044859876 -0.022207153975345385 0 -0.02548619595309521 -0.022618905880693194 0 -0.025435000973118467 -0.022358669002634727 0 -0.025641796512411753 -0.022297739317416011 0 -0.025982831051107474 -0.022682598736122411 0 -0.02548619595309521 -0.022618905880693194 0 -0.025641796512411753 -0.022297739317416011 0 -0.026880494646290037 -0.018750060270946039 0 -0.027062100791206488 -0.018606873440698876 0 -0.02686334929409406 -0.018492846551005467 0 -0.026381718029633291 -0.020471812303788643 0 -0.026011632297695601 -0.020474644537160309 0 -0.026880494646290037 -0.018750060270946039 0 -0.02686334929409406 -0.018492846551005467 0 -0.026611342448510038 -0.018687607266817955 0 -0.025523206055451768 -0.022706521946486275 0 -0.025690140568988797 -0.023143306148390497 0 -0.02473758336894441 -0.022938017878610197 0 -0.026013299902592664 -0.021147989542045571 0 -0.020818787536523727 -0.024717706353452662 0 -0.02597582790818392 -0.022695298264959508 0 -0.025641796512411753 -0.022297739317416011 0 -0.026126488263685639 -0.02247758902274782 0 -0.026381718029633291 -0.020471812303788643 0 -0.026013299902592664 -0.021147989542045571 0 -0.025982831051107474 -0.022682598736122411 0 -0.02597582790818392 -0.022695298264959508 0 -0.025641796512411753 -0.022297739317416011 0 -0.025624708274612475 -0.022849939209070778 0 -0.026013299902592664 -0.021147989542045571 0 -0.026880494646290037 -0.018750060270946039 0 -0.027135476248077908 -0.018831420542926063 0 -0.027062100791206488 -0.018606873440698876 0 -0.026013299902592664 -0.021147989542045571 0 -0.024953277664229612 -0.020686336898224141 0 -0.027135476248077908 -0.018831420542926063 0 -0.027062100791206488 -0.018606873440698876 0 -0.027293809042753345 -0.018586735769727743 0 -0.027062100791206488 -0.018606873440698876 0 -0.027226844157525444 -0.018400729144699472 0 -0.027293809042753345 -0.018586735769727743 0 -0.027062100791206488 -0.018606873440698876 0 -0.027226844157525444 -0.018400729144699472 0 -0.027056762428184035 -0.018407618842220797 0 -0.027062100791206488 -0.018606873440698876 0 -0.027056762428184035 -0.018407618842220797 0 -0.02686334929409406 -0.018492846551005467 0 -0.027056762428184035 -0.018407618842220797 0 -0.026969825074496925 -0.018251177464974289 0 -0.027101658257877068 -0.01803955780186061 0 -0.027226844157525444 -0.018400729144699472 0 -0.027293100944894018 -0.018203971047780276 0 -0.027101658257877068 -0.01803955780186061 0 -0.027226844157525444 -0.018400729144699472 0 -0.027056762428184035 -0.018407618842220797 0 -0.027101658257877068 -0.01803955780186061 0 -0.02686334929409406 -0.018492846551005467 0 -0.026636893974809363 -0.018434444071289018 0 -0.026611342448510038 -0.018687607266817955 0 -0.02686334929409406 -0.018492846551005467 0 -0.026819035922418855 -0.018258911970446483 0 -0.026636893974809363 -0.018434444071289018 0 -0.027056762428184035 -0.018407618842220797 0 -0.02686334929409406 -0.018492846551005467 0 -0.026969825074496925 -0.018251177464974289 0 -0.02686334929409406 -0.018492846551005467 0 -0.026969825074496925 -0.018251177464974289 0 -0.026819035922418855 -0.018258911970446483 0 -0.026969825074496925 -0.018251177464974289 0 -0.026819035922418855 -0.018258911970446483 0 -0.026971282947726053 -0.018068314860067165 0 -0.026819035922418855 -0.018258911970446483 0 -0.026636893974809363 -0.018434444071289018 0 -0.026640264633898306 -0.018184839346095934 0 -0.026636893974809363 -0.018434444071289018 0 -0.026429118809932695 -0.01830305998340874 0 -0.026640264633898306 -0.018184839346095934 0 -0.026498136658789806 -0.018513694420106131 0 -0.026636893974809363 -0.018434444071289018 0 -0.026429118809932695 -0.01830305998340874 0 -0.026498136658789806 -0.018513694420106131 0 -0.026636893974809363 -0.018434444071289018 0 -0.026611342448510038 -0.018687607266817955 0 -0.026538669939049696 -0.018483299803057799 0 -0.025988654874569018 -0.020260587960068924 0 -0.026526936253881805 -0.01906765039948911 0 -0.026041783652724641 -0.019555179701664847 0 -0.026294167859127245 -0.020191415844491346 0 -0.026498136658789806 -0.018513694420106131 0 -0.026429118809932695 -0.01830305998340874 0 -0.026312690686237913 -0.018627354900640374 0 -0.026526936253881805 -0.01906765039948911 0 -0.026082174325232615 -0.019092698822537588 0 -0.026041783652724641 -0.019555179701664847 0 -0.026082174325232615 -0.019092698822537588 0 -0.025573646596050971 -0.019378376705423681 0 -0.025641596049210742 -0.018325297289354302 0 -0.026082174325232615 -0.019092698822537588 0 -0.025573646596050971 -0.019378376705423681 0 -0.026041783652724641 -0.019555179701664847 0 -0.024999896213550744 -0.01875032051759884 0 -0.025573646596050971 -0.019378376705423681 0 -0.024999939552897824 -0.020069586640090342 0 -0.024999896213550744 -0.01875032051759884 0 -0.025573646596050971 -0.019378376705423681 0 -0.025641596049210742 -0.018325297289354302 0 -0.025573646596050971 -0.019378376705423681 0 -0.024999939552897824 -0.020069586640090342 0 -0.025656150718475611 -0.020081097085221485 0 -0.025000055061558855 -0.020070106552023102 0 -0.025643457815914279 -0.020283865823420462 0 -0.025656150718475611 -0.020081097085221485 0 -0.026041783652724641 -0.019555179701664847 0 -0.026294167859127245 -0.020191415844491346 0 -0.025573646596050971 -0.019378376705423681 0 -0.025656150718475611 -0.020081097085221485 0 -0.026041783652724641 -0.019555179701664847 0 -0.025643457815914279 -0.020283865823420462 0 -0.025988654874569018 -0.020260587960068924 0 -0.025729861385733879 -0.02214859442295801 0 -0.025988654874569018 -0.020260587960068924 0 -0.025456794756375276 -0.021189453686665253 0 -0.025811312182987708 -0.021762791289153025 0 -0.026250454699411115 -0.020751334610441916 0 -0.025572407720574272 -0.020487217171807997 0 -0.025456794756375276 -0.021189453686665253 0 -0.026250454699411115 -0.020751334610441916 0 -0.025572407720574272 -0.020487217171807997 0 -0.025456794756375276 -0.021189453686665253 0 -0.024999710318375994 -0.020961025979596617 0 -0.024999992267025779 -0.020070307265125657 0 -0.025572407720574272 -0.020487217171807997 0 -0.024999710318375994 -0.020961025979596617 0 -0.025456794756375276 -0.021189453686665253 0 -0.024999710318375994 -0.020961025979596617 0 -0.025000178533677111 -0.021850910707628495 0 -0.025456794756375276 -0.021189453686665253 0 -0.025000178533677111 -0.021850910707628495 0 -0.025811312182987708 -0.021762791289153025 0 -0.025745028094734349 -0.022043635263034694 0 -0.025000178533677111 -0.021850910707628495 0 -0.025811312182987708 -0.021762791289153025 0 -0.025811312182987708 -0.021762791289153025 0 -0.025594284306800441 -0.022097358998728917 0 -0.025549173976260067 -0.022161599222623753 0 -0.025745028094734349 -0.022043635263034694 0 -0.025811312182987708 -0.021762791289153025 0 -0.025549173976260067 -0.022161599222623753 0 -0.025435000973118467 -0.022358669002634727 0 -0.025549173976260067 -0.022161599222623753 0 -0.025439811044859876 -0.022207153975345385 0 -0.025594284306800441 -0.022097358998728917 0 -0.025549173976260067 -0.022161599222623753 0 -0.025439811044859876 -0.022207153975345385 0 -0.025594284306800441 -0.022097358998728917 0 -0.025439811044859876 -0.022207153975345385 0 -0.025706521844589672 -0.022232595095407457 0 -0.026011632297695601 -0.020474644537160309 0 -0.025988654874569018 -0.020260587960068924 0 -0.026498136658789806 -0.018513694420106131 0 -0.026611342448510038 -0.018687607266817955 0 -0.026312690686237913 -0.018627354900640374 0 -0.025811312182987708 -0.021762791289153025 0 -0.025594284306800441 -0.022097358998728917 0 -0.025706521844589672 -0.022232595095407457 0 -0.012272821549001073 -0.026047655723605141 0 -0.012172353613130219 -0.026410981604885548 0 -0.011980861472799705 -0.026085524117555915 0 -0.012529739829042515 -0.026342986550908734 0 -0.012272821549001073 -0.026047655723605141 0 -0.012172353613130219 -0.026410981604885548 0 -0.01434989173076278 -0.026844310411740405 0 -0.014276202861470058 -0.026501787669443975 0 -0.013467447182096302 -0.02654839077017088 0 -0.013151834933831718 -0.026539247492500806 0 -0.012900346298338857 -0.026295235657880382 0 -0.014276202861470058 -0.026501787669443975 0 -0.013625488655287473 -0.025844903793420672 0 -0.014591684779659502 -0.026094986801580646 0 -0.014276202861470058 -0.026501787669443975 0 -0.013467447182096302 -0.02654839077017088 0 -0.013625488655287473 -0.025844903793420672 0 -0.012900346298338857 -0.026295235657880382 0 -0.01220874756959865 -0.025773886490277956 0 -0.013467447182096302 -0.02654839077017088 0 -0.013625488655287473 -0.025844903793420672 0 -0.012475309962342439 -0.025934888617458584 0 -0.012925255072999709 -0.025521615137053189 0 -0.013625488655287473 -0.025844903793420672 0 -0.012475309962342439 -0.025934888617458584 0 -0.012925255072999709 -0.025521615137053189 0 -0.012503400638343673 -0.024999815882881603 0 -0.013793231791462589 -0.02499992614169691 0 -0.012925255072999709 -0.025521615137053189 0 -0.012503400638343673 -0.024999815882881603 0 -0.01235925746023638 -0.025386402935857193 0 -0.012925255072999709 -0.025521615137053189 0 -0.013793231791462589 -0.02499992614169691 0 -0.013625488655287473 -0.025844903793420672 0 -0.013793231791462589 -0.02499992614169691 0 -0.013625488655287473 -0.025844903793420672 0 -0.014460365869564534 -0.025523726527235117 0 -0.013625488655287473 -0.025844903793420672 0 -0.014591684779659502 -0.026094986801580646 0 -0.014460365869564534 -0.025523726527235117 0 -0.014591684779659502 -0.026094986801580646 0 -0.014460365869564534 -0.025523726527235117 0 -0.015202201288114003 -0.025758362223974259 0 -0.013793231791462589 -0.02499992614169691 0 -0.014460365869564534 -0.025523726527235117 0 -0.015082827510138645 -0.02499990404836526 0 -0.014460365869564534 -0.025523726527235117 0 -0.015082827510138645 -0.02499990404836526 0 -0.015202201288114003 -0.025758362223974259 0 -0.015082827510138645 -0.02499990404836526 0 -0.015202201288114003 -0.025758362223974259 0 -0.016372507860775525 -0.024999885003852168 0 -0.014591684779659502 -0.026094986801580646 0 -0.015202201288114003 -0.025758362223974259 0 -0.015125838150578965 -0.026446897397694454 0 -0.015202201288114003 -0.025758362223974259 0 -0.015125838150578965 -0.026446897397694454 0 -0.015993882878937809 -0.025998279864192793 0 -0.014276202861470058 -0.026501787669443975 0 -0.014591684779659502 -0.026094986801580646 0 -0.015125838150578965 -0.026446897397694454 0 -0.014276202861470058 -0.026501787669443975 0 -0.015125838150578965 -0.026446897397694454 0 -0.01497845121386816 -0.026694387431343565 0 -0.01434989173076278 -0.026844310411740405 0 -0.014276202861470058 -0.026501787669443975 0 -0.01497845121386816 -0.026694387431343565 0 -0.015125838150578965 -0.026446897397694454 0 -0.01497845121386816 -0.026694387431343565 0 -0.015280485840285182 -0.026654056174711498 0 -0.015280485840285182 -0.026654056174711498 0 -0.01551873384697584 -0.026592618724207283 0 -0.01498030180672812 -0.026565002802305098 0 -0.015125838150578965 -0.026446897397694454 0 -0.015280485840285182 -0.026654056174711498 0 -0.01551873384697584 -0.026592618724207283 0 -0.015894364908941302 -0.02672997536925768 0 -0.015729601245558049 -0.027424959557604746 0 -0.016290100474188295 -0.027076490184280041 0 -0.01693234938242905 -0.027460649530410455 0 -0.016877000463146739 -0.026689425067991525 0 -0.01693234938242905 -0.027460649530410455 0 -0.016877000463146739 -0.026689425067991525 0 -0.017392803178917383 -0.027094794824048175 0 -0.016290100474188295 -0.027076490184280041 0 -0.01693234938242905 -0.027460649530410455 0 -0.016460561932570644 -0.0279660188975514 0 -0.015125838150578965 -0.026446897397694454 0 -0.01551873384697584 -0.026592618724207283 0 -0.015993882878937809 -0.025998279864192793 0 -0.016290100474188295 -0.027076490184280041 0 -0.016877000463146739 -0.026689425067991525 0 -0.015993882878937809 -0.025998279864192793 0 -0.015894364908941302 -0.02672997536925768 0 -0.015971891180360704 -0.026037407458316661 0 -0.015202201288114003 -0.025758362223974259 0 -0.015993882878937809 -0.025998279864192793 0 -0.016372507860775525 -0.024999885003852168 0 -0.015993882878937809 -0.025998279864192793 0 -0.016372507860775525 -0.024999885003852168 0 -0.017036639038047301 -0.025814098789480627 0 -0.016372507860775525 -0.024999885003852168 0 -0.017036639038047301 -0.025814098789480627 0 -0.017662494835330798 -0.024999948673357052 0 -0.016877000463146739 -0.026689425067991525 0 -0.017036639038047301 -0.025814098789480627 0 -0.017535426819373024 -0.026496658581448642 0 -0.016877000463146739 -0.026689425067991525 0 -0.015993882878937809 -0.025998279864192793 0 -0.017036639038047301 -0.025814098789480627 0 -0.017036639038047301 -0.025814098789480627 0 -0.017771789368464234 -0.025861200378695118 0 -0.017535426819373024 -0.026496658581448642 0 -0.017771789368464234 -0.025861200378695118 0 -0.018230668411327644 -0.026390078121435973 0 -0.017535426819373024 -0.026496658581448642 0 -0.017771789368464234 -0.025861200378695118 0 -0.017662494835330798 -0.024999948673357052 0 -0.018362376538778993 -0.02557836453965296 0 -0.017036639038047301 -0.025814098789480627 0 -0.01777178936846423