<?xml version="1.0"?>
<VTKFile type="UnstructuredGrid" version="0.1" byte_order="LittleEndian">
<UnstructuredGrid>
<Piece NumberOfPoints="30578" NumberOfCells="10723">
<Points>
<DataArray type="Float64" NumberOfComponents="3" format="ascii">
-0.5 -0.5 0 -0.47439485679867832 -0.48072581506667478 0 -0.5 -0.44765434486020428 0 -0.5 -0.5 0 -0.47439485679867832 -0.48072581506667478 0 -0.43702443379937372 -0.49999999999999922 0 -0.47439485679867832 -0.48072581506667478 0 -0.45530669598391149 -0.47718009944797551 0 -0.43702443379937372 -0.49999999999999922 0 -0.47439485679867832 -0.48072581506667478 0 -0.45530669598391149 -0.47718009944797551 0 -0.4597353119515426 -0.45943449384344293 0 -0.45530669598391149 -0.47718009944797551 0 -0.44381084376742141 -0.47114793899167112 0 -0.4597353119515426 -0.45943449384344293 0 -0.45530669598391149 -0.47718009944797551 0 -0.44381084376742141 -0.47114793899167112 0 -0.43702443379937372 -0.49999999999999922 0 -0.44381084376742141 -0.47114793899167112 0 -0.43702443379937372 -0.49999999999999922 0 -0.45059725373546922 -0.44229587798334291 0 -0.4339166039271336 -0.43498117536117131 0 -0.43309128002320102 -0.45351235807576151 0 -0.44381084376742141 -0.47114793899167112 0 -0.45059725373546922 -0.44229587798334291 0 -0.4597353119515426 -0.45943449384344293 0 -0.44381084376742141 -0.47114793899167112 0 -0.45059725373546922 -0.44229587798334291 0 -0.43309128002320102 -0.45351235807576151 0 -0.44381084376742141 -0.47114793899167112 0 -0.45059725373546922 -0.44229587798334291 0 -0.4597353119515426 -0.45943449384344293 0 -0.47505511338101108 -0.44868394208069429 0 -0.46517432262153441 -0.43649963461163338 0 -0.45059725373546922 -0.44229587798334291 0 -0.4597353119515426 -0.45943449384344293 0 -0.46517432262153441 -0.43649963461163338 0 -0.47505511338101108 -0.44868394208069429 0 -0.47820614292347569 -0.42776699273468149 0 -0.46517432262153441 -0.43649963461163338 0 -0.47505511338101108 -0.44868394208069429 0 -0.47820614292347569 -0.42776699273468149 0 -0.47439485679867832 -0.48072581506667478 0 -0.47505511338101108 -0.44868394208069429 0 -0.5 -0.44765434486020428 0 -0.47439485679867832 -0.48072581506667478 0 -0.4597353119515426 -0.45943449384344293 0 -0.47505511338101108 -0.44868394208069429 0 -0.47505511338101108 -0.44868394208069429 0 -0.5 -0.44765434486020428 0 -0.47820614292347569 -0.42776699273468149 0 -0.5 -0.44765434486020428 0 -0.49656450065014057 -0.42151023988558672 0 -0.47820614292347569 -0.42776699273468149 0 -0.5 -0.44765434486020428 0 -0.49656450065014057 -0.42151023988558672 0 -0.50000000000000089 -0.37904661106745707 0 -0.49656450065014057 -0.42151023988558672 0 -0.48135717246594062 -0.40685004338866881 0 -0.47820614292347569 -0.42776699273468149 0 -0.49656450065014057 -0.42151023988558672 0 -0.48135717246594062 -0.40685004338866881 0 -0.48135717246594062 -0.40685004338866881 0 -0.47820614292347569 -0.42776699273468149 0 -0.48135717246594062 -0.40685004338866881 0 -0.47820614292347569 -0.42776699273468149 0 -0.45738366370351707 -0.41344381697501481 0 -0.49656450065014057 -0.42151023988558672 0 -0.48135717246594062 -0.40685004338866881 0 -0.50000000000000089 -0.37904661106745707 0 -0.50000000000000089 -0.37904661106745707 0 -0.48466894952205442 -0.38486603086372417 0 -0.48717439863114548 -0.36823452950912272 0 -0.48135717246594062 -0.40685004338866881 0 -0.50000000000000089 -0.37904661106745707 0 -0.48466894952205442 -0.38486603086372417 0 -0.48466894952205442 -0.38486603086372417 0 -0.48717439863114548 -0.36823452950912272 0 -0.50000000000000089 -0.37904661106745707 0 -0.48466894952205442 -0.38486603086372417 0 -0.48135717246594062 -0.40685004338866881 0 -0.48466894952205442 -0.38486603086372417 0 -0.46593083509403682 -0.39197871725165279 0 -0.48135717246594062 -0.40685004338866881 0 -0.48466894952205442 -0.38486603086372417 0 -0.48135717246594062 -0.40685004338866881 0 -0.46593083509403682 -0.39197871725165279 0 -0.48466894952205442 -0.38486603086372417 0 -0.47195833844942919 -0.37959069520904498 0 -0.46593083509403682 -0.39197871725165279 0 -0.48466894952205442 -0.38486603086372417 0 -0.46593083509403682 -0.39197871725165279 0 -0.48466894952205442 -0.38486603086372417 0 -0.47195833844942919 -0.37959069520904498 0 -0.48717439863114548 -0.36823452950912272 0 -0.46593083509403682 -0.39197871725165279 0 -0.44890944387521442 -0.39029302340116001 0 -0.45132291774153199 -0.37789636588759368 0 -0.47195833844942919 -0.37959069520904498 0 -0.46593083509403682 -0.39197871725165279 0 -0.45132291774153199 -0.37789636588759368 0 -0.46593083509403682 -0.39197871725165279 0 -0.45132291774153199 -0.37789636588759368 0 -0.48135717246594062 -0.40685004338866881 0 -0.46593083509403682 -0.39197871725165279 0 -0.45738366370351707 -0.41344381697501481 0 -0.46593083509403682 -0.39197871725165279 0 -0.44275815558040038 -0.40077469311046232 0 -0.45738366370351707 -0.41344381697501481 0 -0.46593083509403682 -0.39197871725165279 0 -0.44275815558040038 -0.40077469311046232 0 -0.46593083509403682 -0.39197871725165279 0 -0.44275815558040038 -0.40077469311046232 0 -0.44890944387521442 -0.39029302340116001 0 -0.44275815558040038 -0.40077469311046232 0 -0.44064580868350911 -0.39542861624611658 0 -0.44890944387521442 -0.39029302340116001 0 -0.44225344557501872 -0.38376649822575309 0 -0.45132291774153199 -0.37789636588759368 0 -0.43671500038902772 -0.36381401452353412 0 -0.44890944387521442 -0.39029302340116001 0 -0.44225344557501872 -0.38376649822575309 0 -0.45132291774153199 -0.37789636588759368 0 -0.44064580868350911 -0.39542861624611658 0 -0.44225344557501872 -0.38376649822575309 0 -0.43040194378266172 -0.3881600185019185 0 -0.44064580868350911 -0.39542861624611658 0 -0.44890944387521442 -0.39029302340116001 0 -0.44225344557501872 -0.38376649822575309 0 -0.47820614292347569 -0.42776699273468149 0 -0.46517432262153441 -0.43649963461163338 0 -0.45738366370351707 -0.41344381697501481 0 -0.45059725373546922 -0.44229587798334291 0 -0.45738366370351707 -0.41344381697501481 0 -0.45059725373546922 -0.44229587798334291 0 -0.46517432262153441 -0.43649963461163338 0 -0.45738366370351707 -0.41344381697501481 0 -0.44275815558040038 -0.40077469311046232 0 -0.45738366370351707 -0.41344381697501481 0 -0.44164244492799948 -0.42121090558557039 0 -0.45059725373546922 -0.44229587798334291 0 -0.45738366370351707 -0.41344381697501481 0 -0.44164244492799948 -0.42121090558557039 0 -0.45059725373546922 -0.44229587798334291 0 -0.44164244492799948 -0.42121090558557039 0 -0.4339166039271336 -0.43498117536117131 0 -0.4339166039271336 -0.43498117536117131 0 -0.42355654769347711 -0.414558964497861 0 -0.41671115160429401 -0.44095791049380378 0 -0.44164244492799948 -0.42121090558557039 0 -0.4339166039271336 -0.43498117536117131 0 -0.42355654769347711 -0.414558964497861 0 -0.44275815558040038 -0.40077469311046232 0 -0.44164244492799948 -0.42121090558557039 0 -0.42355654769347711 -0.414558964497861 0 -0.42355654769347711 -0.414558964497861 0 -0.41056920252370888 -0.3963363404412637 0 -0.40050668374064252 -0.41734442193795029 0 -0.42355654769347711 -0.414558964497861 0 -0.41671115160429401 -0.44095791049380378 0 -0.42355654769347711 -0.414558964497861 0 -0.40050668374064252 -0.41734442193795029 0 -0.41671115160429401 -0.44095791049380378 0 -0.44225344557501872 -0.38376649822575309 0 -0.43040194378266172 -0.3881600185019185 0 -0.43671500038902772 -0.36381401452353412 0 -0.43040194378266172 -0.3881600185019185 0 -0.43671500038902772 -0.36381401452353412 0 -0.44064580868350911 -0.39542861624611658 0 -0.42355654769347711 -0.414558964497861 0 -0.43040194378266172 -0.3881600185019185 0 -0.42355654769347711 -0.414558964497861 0 -0.43040194378266172 -0.3881600185019185 0 -0.44275815558040038 -0.40077469311046232 0 -0.44064580868350911 -0.39542861624611658 0 -0.42355654769347711 -0.414558964497861 0 -0.44064580868350911 -0.39542861624611658 0 -0.43040194378266172 -0.3881600185019185 0 -0.42355654769347711 -0.414558964497861 0 -0.43040194378266172 -0.3881600185019185 0 -0.41056920252370888 -0.3963363404412637 0 -0.43040194378266172 -0.3881600185019185 0 -0.4079689369259607 -0.37224253963894771 0 -0.43040194378266172 -0.3881600185019185 0 -0.41056920252370888 -0.3963363404412637 0 -0.4079689369259607 -0.37224253963894771 0 -0.41056920252370888 -0.3963363404412637 0 -0.39195929229331972 -0.37982250283040359 0 -0.4079689369259607 -0.37224253963894771 0 -0.41056920252370888 -0.3963363404412637 0 -0.39195929229331972 -0.37982250283040359 0 -0.39357845321732049 -0.39746174547711199 0 -0.41056920252370888 -0.3963363404412637 0 -0.39357845321732049 -0.39746174547711199 0 -0.40050668374064252 -0.41734442193795029 0 -0.39357845321732049 -0.39746174547711199 0 -0.38114412328536468 -0.40833987260765031 0 -0.36544727141479139 -0.39026932065168712 0 -0.39195929229331972 -0.37982250283040359 0 -0.37549160074202448 -0.3732971907138336 0 -0.36544727141479139 -0.39026932065168712 0 -0.39195929229331972 -0.37982250283040359 0 -0.39357845321732049 -0.39746174547711199 0 -0.36544727141479139 -0.39026932065168712 0 -0.40050668374064252 -0.41734442193795029 0 -0.3944977858259317 -0.43926335073686201 0 -0.41671115160429401 -0.44095791049380378 0 -0.40050668374064252 -0.41734442193795029 0 -0.38028594703985957 -0.42392304976487449 0 -0.3944977858259317 -0.43926335073686201 0 -0.39357845321732049 -0.39746174547711199 0 -0.40050668374064252 -0.41734442193795029 0 -0.38114412328536468 -0.40833987260765031 0 -0.40050668374064252 -0.41734442193795029 0 -0.38114412328536468 -0.40833987260765031 0 -0.38028594703985957 -0.42392304976487449 0 -0.38114412328536468 -0.40833987260765031 0 -0.38028594703985957 -0.42392304976487449 0 -0.36590226101420908 -0.41270082520662749 0 -0.38028594703985957 -0.42392304976487449 0 -0.3944977858259317 -0.43926335073686201 0 -0.3723601590800425 -0.44005613486137668 0 -0.3944977858259317 -0.43926335073686201 0 -0.38265619596279349 -0.45813348326120767 0 -0.3723601590800425 -0.44005613486137668 0 -0.40093272222703252 -0.45142790024540502 0 -0.3944977858
[...]
<PointData Scalars="" Vectors="displacement," Tensors="">
<DataArray type="Float64" Name="displacement" NumberOfComponents="3" format="ascii">
-0.054996266470085722 -0.05499609440401447 0 -0.053828711676736474 -0.053327069492729022 0 -0.049248519376426526 -0.054996173125628982 0 -0.054996266470085722 -0.05499609440401447 0 -0.053828711676736474 -0.053327069492729022 0 -0.054995801226922852 -0.048085168752644722 0 -0.053828711676736474 -0.053327069492729022 0 -0.053826836073711616 -0.051912908303364952 0 -0.054995801226922852 -0.048085168752644722 0 -0.053828711676736474 -0.053327069492729022 0 -0.053826836073711616 -0.051912908303364952 0 -0.052368976589540144 -0.052946830302776075 0 -0.053826836073711616 -0.051912908303364952 0 -0.05348171856802833 -0.05222438978197811 0 -0.052368976589540144 -0.052946830302776075 0 -0.053826836073711616 -0.051912908303364952 0 -0.05348171856802833 -0.05222438978197811 0 -0.054995801226922852 -0.048085168752644722 0 -0.054727485849057247 -0.050441023416879657 0 -0.054999266182015956 -0.048073426811785953 0 -0.053734166982841766 -0.049706981933146037 0 -0.053360649298829284 -0.050697682186860125 0 -0.054809434497817472 -0.049930786024413976 0 -0.05348171856802833 -0.05222438978197811 0 -0.051797135985047239 -0.053052240340940048 0 -0.052368976589540144 -0.052946830302776075 0 -0.056313258803957211 -0.048899915409242094 0 -0.053734166982841766 -0.049706981933146037 0 -0.054809434497817472 -0.049930786024413976 0 -0.054727485849057247 -0.050441023416879657 0 -0.052920277960193891 -0.051382533481226032 0 -0.052368976589540144 -0.052946830302776075 0 -0.050913926033015706 -0.05425205901253561 0 -0.051642960899175562 -0.053005284916209316 0 -0.051797135985047239 -0.053052240340940048 0 -0.052368976589540144 -0.052946830302776075 0 -0.051642960899175562 -0.053005284916209316 0 -0.050913926033015706 -0.05425205901253561 0 -0.0518384056663986 -0.053224108776377566 0 -0.051642960899175562 -0.053005284916209316 0 -0.050495660402056081 -0.054287018211955189 0 -0.050049914137223567 -0.05436613453571966 0 -0.053828711676736474 -0.053327069492729022 0 -0.050913926033015706 -0.05425205901253561 0 -0.049248519376426526 -0.054996173125628982 0 -0.053828711676736474 -0.053327069492729022 0 -0.052368976589540144 -0.052946830302776075 0 -0.050913926033015706 -0.05425205901253561 0 -0.050913926033015706 -0.05425205901253561 0 -0.049248519376426526 -0.054996173125628982 0 -0.047806000097985385 -0.055635294918663779 0 -0.049248519376426526 -0.054996173125628982 0 -0.046502223515147968 -0.055247622121772692 0 -0.047806000097985385 -0.055635294918663779 0 -0.049248519376426526 -0.054996173125628982 0 -0.046502223515147968 -0.055247622121772692 0 -0.041693530914591152 -0.055001046294517922 0 -0.046502223515147968 -0.055247622121772692 0 -0.046466684970543112 -0.055669609204768468 0 -0.047806000097985385 -0.055635294918663779 0 -0.04567313064180091 -0.05605915838528993 0 -0.04801587459531706 -0.05472416433045095 0 -0.04801587459531706 -0.05472416433045095 0 -0.050049914137223567 -0.05436613453571966 0 -0.052421233950903701 -0.052927107695498826 0 -0.0518384056663986 -0.053224108776377566 0 -0.052210875975530313 -0.051812550177005409 0 -0.046502223515147968 -0.055247622121772692 0 -0.044850429097759749 -0.057002580175870149 0 -0.041693530914591152 -0.055001046294517922 0 -0.041693783174418887 -0.054999321518001146 0 -0.04206153094778927 -0.056272814204582515 0 -0.040317817333616425 -0.055882150092528567 0 -0.044850429097759749 -0.057002580175870149 0 -0.041693530914591152 -0.055001046294517922 0 -0.042370859587707886 -0.056671616888330979 0 -0.042696548109483909 -0.055574270157694394 0 -0.040192390096024565 -0.055828350104106743 0 -0.041695492903241746 -0.055000891871572172 0 -0.042696548109483909 -0.055574270157694394 0 -0.047006619213571223 -0.054380168983781396 0 -0.045704778449648771 -0.054189299084270406 0 -0.046138683971456602 -0.055273471870074704 0 -0.04801587459531706 -0.05472416433045095 0 -0.042696548109483909 -0.055574270157694394 0 -0.04801587459531706 -0.05472416433045095 0 -0.048099850698533966 -0.053657968222674809 0 -0.041184475136316602 -0.055751690438339274 0 -0.040949289923264444 -0.056318187974327305 0 -0.041910380083504221 -0.056433751700289046 0 -0.042696548109483909 -0.055574270157694394 0 -0.048099850698533966 -0.053657968222674809 0 -0.041184475136316602 -0.055751690438339274 0 -0.040949289923264444 -0.056318187974327305 0 -0.040317817333616425 -0.055882150092528567 0 -0.050369787732823725 -0.050987959437043776 0 -0.050778245695040414 -0.051600875325106432 0 -0.049605365647121175 -0.051575786884596582 0 -0.040949289923264444 -0.056318187974327305 0 -0.041910380083504221 -0.056433751700289046 0 -0.040900620645527901 -0.057363478435747704 0 -0.048099850698533966 -0.053657968222674809 0 -0.045090922735570978 -0.054696555376349515 0 -0.052421233950903701 -0.052927107695498826 0 -0.052678574192471891 -0.052159258407992334 0 -0.052210875975530313 -0.051812550177005409 0 -0.052678574192471891 -0.052159258407992334 0 -0.051961676293205555 -0.051674577373182602 0 -0.052210875975530313 -0.051812550177005409 0 -0.048099850698533966 -0.053657968222674809 0 -0.052582186604175303 -0.051232019117618779 0 -0.050369787732823725 -0.050987959437043776 0 -0.051961676293205555 -0.051674577373182602 0 -0.050778245695040414 -0.051600875325106432 0 -0.051961676293205555 -0.051674577373182602 0 -0.051602622024763907 -0.051929499651219048 0 -0.050778245695040414 -0.051600875325106432 0 -0.050180407212467658 -0.052170047837785907 0 -0.049605365647121175 -0.051575786884596582 0 -0.048130854699861544 -0.052822474780798385 0 -0.050778245695040414 -0.051600875325106432 0 -0.050180407212467658 -0.052170047837785907 0 -0.049605365647121175 -0.051575786884596582 0 -0.051602622024763907 -0.051929499651219048 0 -0.050180407212467658 -0.052170047837785907 0 -0.05066081423619407 -0.053353146142333073 0 -0.051602622024763907 -0.051929499651219048 0 -0.050778245695040414 -0.051600875325106432 0 -0.050180407212467658 -0.052170047837785907 0 -0.0518384056663986 -0.053224108776377566 0 -0.051642960899175562 -0.053005284916209316 0 -0.052210875975530313 -0.051812550177005409 0 -0.052920277960193891 -0.051382533481226032 0 -0.052398628641761091 -0.05178394611003518 0 -0.051797135985047239 -0.053052240340940048 0 -0.051642960899175562 -0.053005284916209316 0 -0.052210875975530313 -0.051812550177005409 0 -0.051961676293205555 -0.051674577373182602 0 -0.052210875975530313 -0.051812550177005409 0 -0.052605033174136992 -0.051108178407270215 0 -0.053734166982841766 -0.049706981933146037 0 -0.052210875975530313 -0.051812550177005409 0 -0.052605033174136992 -0.051108178407270215 0 -0.053734166982841766 -0.049706981933146037 0 -0.052605033174136992 -0.051108178407270215 0 -0.053360649298829284 -0.050697682186860125 0 -0.053360649298829284 -0.050697682186860125 0 -0.052381016360083917 -0.051641183891176438 0 -0.053729819781834331 -0.05119445690371878 0 -0.052605033174136992 -0.051108178407270215 0 -0.053360649298829284 -0.050697682186860125 0 -0.052381016360083917 -0.051641183891176438 0 -0.051961676293205555 -0.051674577373182602 0 -0.052605033174136992 -0.051108178407270215 0 -0.052381016360083917 -0.051641183891176438 0 -0.05584480479780958 -0.043414983821965923 0 -0.055683363106891426 -0.043493362283579022 0 -0.05591656870618792 -0.043415163699996165 0 -0.054690197695580478 -0.047548339671473136 0 -0.054599611815659845 -0.04753158037660301 0 -0.05584480479780958 -0.043414983821965923 0 -0.05591656870618792 -0.043415163699996165 0 -0.055889443405202598 -0.043465627083626092 0 -0.050180407212467658 -0.052170047837785907 0 -0.05066081423619407 -0.053353146142333073 0 -0.048130854699861544 -0.052822474780798385 0 -0.050743695293990303 -0.047775452142536728 0 -0.042000696024939679 -0.053763775845222371 0 -0.051602622024763907 -0.051929499651219048 0 -0.052381016360083917 -0.051641183891176438 0 -0.051525497020836107 -0.052025500558061842 0 -0.054690197695580478 -0.047548339671473136 0 -0.050743695293990303 -0.047775452142536728 0 -0.051961676293205555 -0.051674577373182602 0 -0.051602622024763907 -0.051929499651219048 0 -0.052381016360083917 -0.051641183891176438 0 -0.050449941165874396 -0.052325153897734893 0 -0.050743695293990303 -0.047775452142536728 0 -0.05584480479780958 -0.043414983821965923 0 -0.055505346622859143 -0.043425156549578119 0 -0.055683363106891426 -0.043493362283579022 0 -0.050743695293990303 -0.047775452142536728 0 -0.048673593539218976 -0.044740321448879308 0 -0.055505346622859143 -0.043425156549578119 0 -0.055683363106891426 -0.043493362283579022 0 -0.055303362536281535 -0.043648479499341669 0 -0.055683363106891426 -0.043493362283579022 0 -0.055523321325715899 -0.043621689945679602 0 -0.055303362536281535 -0.043648479499341669 0 -0.055683363106891426 -0.043493362283579022 0 -0.055523321325715899 -0.043621689945679602 0 -0.055766627313733733 -0.043469301208135941 0 -0.055683363106891426 -0.043493362283579022 0 -0.055766627313733733 -0.043469301208135941 0 -0.05591656870618792 -0.043415163699996165 0 -0.055766627313733733 -0.043469301208135941 0 -0.05596953555299302 -0.043301080041450404 0 -0.055790621202295464 -0.043309171938262704 0 -0.055523321325715899 -0.043621689945679602 0 -0.055489380827695153 -0.043651929075614451 0 -0.055790621202295464 -0.043309171938262704 0 -0.055523321325715899 -0.043621689945679602 0 -0.055766627313733733 -0.043469301208135941 0 -0.055790621202295464 -0.043309171938262704 0 -0.05591656870618792 -0.043415163699996165 0 -0.055921085474850661 -0.043357533890842286 0 -0.055889443405202598 -0.043465627083626092 0 -0.05591656870618792 -0.043415163699996165 0 -0.056050182097472333 -0.043231474269895556 0 -0.055921085474850661 -0.043357533890842286 0 -0.055766627313733733 -0.043469301208135941 0 -0.05591656870618792 -0.043415163699996165 0 -0.05596953555299302 -0.043301080041450404 0 -0.05591656870618792 -0.043415163699996165 0 -0.05596953555299302 -0.043301080041450404 0 -0.056050182097472333 -0.043231474269895556 0 -0.05596953555299302 -0.043301080041450404 0 -0.056050182097472333 -0.043231474269895556 0 -0.056172864597492364 -0.043106871395417162 0 -0.056050182097472333 -0.043231474269895556 0 -0.055921085474850661 -0.043357533890842286 0 -0.056017338257385828 -0.043072823175123939 0 -0.055921085474850661 -0.043357533890842286 0 -0.055738223140159124 -0.043234112852983411 0 -0.056017338257385828 -0.043072823175123939 0 -0.055820678641153788 -0.043396336287685293 0 -0.055921085474850661 -0.043357533890842286 0 -0.055738223140159124 -0.043234112852983411 0 -0.055820678641153788 -0.043396336287685293 0 -0.055921085474850661 -0.043357533890842286 0 -0.055889443405202598 -0.043465627083626092 0 -0.056324613901507302 -0.042366290859228661 0 -0.056307834838874936 -0.045737519331279237 0 -0.056795866189759771 -0.042394025819017259 0 -0.056781992819746586 -0.042947611876997679 0 -0.057089138621975843 -0.043712179929281718 0 -0.055820678641153788 -0.043396336287685293 0 -0.055738223140159124 -0.043234112852983411 0 -0.055708511478849518 -0.043478649200794216 0 -0.056795866189759771 -0.042394025819017259 0 -0.056916335172524882 -0.042329950480809397 0 -0.056781992819746586 -0.042947611876997679 0 -0.056916335172524882 -0.042329950480809397 0 -0.056093786265980924 -0.042689730363023391 0 -0.056191233261877964 -0.040406803530864809 0 -0.056916335172524882 -0.042329950480809397 0 -0.056093786265980924 -0.042689730363023391 0 -0.056781992819746586 -0.042947611876997679 0 -0.054999530919300058 -0.041251076817915656 0 -0.056093786265980924 -0.042689730363023391 0 -0.054999962414125414 -0.04415249235076462 0 -0.054999530919300058 -0.041251076817915656 0 -0.056093786265980924 -0.042689730363023391 0 -0.056191233261877964 -0.040406803530864809 0 -0.056093786265980924 -0.042689730363023391 0 -0.054999962414125414 -0.04415249235076462 0 -0.056215604489699929 -0.04384355798618849 0 -0.054999976518363199 -0.044154173358574182 0 -0.056232081925958528 -0.044542725304616615 0 -0.056215604489699929 -0.04384355798618849 0 -0.056781992819746586 -0.042947611876997679 0 -0.057089138621975843 -0.043712179929281718 0 -0.056093786265980924 -0.042689730363023391 0 -0.056215604489699929 -0.04384355798618849 0 -0.056781992819746586 -0.042947611876997679 0 -0.056232081925958528 -0.044542725304616615 0 -0.056307834838874936 -0.045737519331279237 0 -0.056492679921973432 -0.049571884145036257 0 -0.056307834838874936 -0.045737519331279237 0 -0.055871375844112871 -0.046926799137330708 0 -0.056617868496697886 -0.048635987587177111 0 -0.057788291457414973 -0.045920661538914588 0 -0.056152960696909913 -0.04524097734149695 0 -0.055871375844112871 -0.046926799137330708 0 -0.057788291457414973 -0.045920661538914588 0 -0.056152960696909913 -0.04524097734149695 0 -0.055871375844112871 -0.046926799137330708 0 -0.054999108963604076 -0.046114671702822893 0 -0.055000042610090692 -0.044154758740386692 0 -0.056152960696909913 -0.04524097734149695 0 -0.054999108963604076 -0.046114671702822893 0 -0.055871375844112871 -0.046926799137330708 0 -0.054999108963604076 -0.046114671702822893 0 -0.055000591547792792 -0.048072481381403583 0 -0.055871375844112871 -0.046926799137330708 0 -0.055000591547792792 -0.048072481381403583 0 -0.056617868496697886 -0.048635987587177111 0 -0.056313258803957211 -0.048899915409242094 0 -0.055000591547792792 -0.048072481381403583 0 -0.056617868496697886 -0.048635987587177111 0 -0.056617868496697886 -0.048635987587177111 0 -0.055202833410222439 -0.050293534922058264 0 -0.054809434497817472 -0.049930786024413976 0 -0.056313258803957211 -0.048899915409242094 0 -0.056617868496697886 -0.048635987587177111 0 -0.054809434497817472 -0.049930786024413976 0 -0.053360649298829284 -0.050697682186860125 0 -0.054809434497817472 -0.049930786024413976 0 -0.053729819781834331 -0.05119445690371878 0 -0.055202833410222439 -0.050293534922058264 0 -0.054809434497817472 -0.049930786024413976 0 -0.053729819781834331 -0.05119445690371878 0 -0.055202833410222439 -0.050293534922058264 0 -0.053729819781834331 -0.05119445690371878 0 -0.0560286597038165 -0.051367740298348931 0 -0.054599611815659845 -0.04753158037660301 0 -0.056307834838874936 -0.045737519331279237 0 -0.055820678641153788 -0.043396336287685293 0 -0.055889443405202598 -0.043465627083626092 0 -0.055708511478849518 -0.043478649200794216 0 -0.056617868496697886 -0.048635987587177111 0 -0.055202833410222439 -0.050293534922058264 0 -0.0560286597038165 -0.051367740298348931 0 -0.029991170382046552 -0.057671948985067473 0 -0.029517846350042877 -0.060272201520368079 0 -0.0280437283598759 -0.057964569590730611 0 -0.032349425887157335 -0.059735774048276867 0 -0.029991170382046552 -0.057671948985067473 0 -0.029517846350042877 -0.060272201520368079 0 -0.032235019741795067 -0.05789272425611279 0 -0.031839777013470551 -0.057608246451100804 0 -0.030114873353557309 -0.057850488563296644 0 -0.031898669528299943 -0.059012338077278362 0 -0.030070752122769034 -0.057699251426713116 0 -0.031839777013470551 -0.057608246451100804 0 -0.030213026888690295 -0.056585501074032887 0 -0.03231233738018284 -0.056968853231400385 0 -0.031839777013470551 -0.057608246451100804 0 -0.030114873353557309 -0.057850488563296644 0 -0.030213026888690295 -0.056585501074032887 0 -0.030070752122769034 -0.057699251426713116 0 -0.027681387009483419 -0.056470212226957847 0 -0.030114873353557309 -0.057850488563296644 0 -0.030213026888690295 -0.056585501074032887 0 -0.027672840318231768 -0.056847366323194343 0 -0.028579937502189758 -0.055998738804741113 0 -0.030213026888690295 -0.056585501074032887 0 -0.027672840318231768 -0.056847366323194343 0 -0.028579937502189758 -0.055998738804741113 0 -0.027507758009202878 -0.054999497935174606 0 -0.03034540884819379 -0.054999655658205887 0 -0.028579937502189758 -0.055998738804741113 0 -0.027507758009202878 -0.054999497935174606 0 -0.027299256216528525 -0.055743876021450797 0 -0.028579937502189758 -0.055998738804741113 0 -0.03034540884819379 -0.054999655658205887 0 -0.030213026888690295 -0.056585501074032887 0 -0.03034540884819379 -0.054999655658205887 0 -0.030213026888690295 -0.056585501074032887 0 -0.031919010111291606 -0.055957670413664722 0 -0.030213026888690295 -0.056585501074032887 0 -0.03231233738018284 -0.056968853231400385 0 -0.031919010111291606 -0.055957670413664722 0 -0.03231233738018284 -0.056968853231400385 0 -0.031919010111291606 -0.055957670413664722 0 -0.033584706319786523 -0.05632635001144351 0 -0.03034540884819379 -0.054999655658205887 0 -0.031919010111291606 -0.055957670413664722 0 -0.033182356595732661 -0.054999603747992225 0 -0.031919010111291606 -0.055957670413664722 0 -0.033182356595732661 -0.054999603747992225 0 -0.033584706319786523 -0.05632635001144351 0 -0.033182356595732661 -0.054999603747992225 0 -0.033584706319786523 -0.05632635001144351 0 -0.036019954803988494 -0.054999364717728212 0 -0.03231233738018284 -0.056968853231400385 0 -0.033584706319786523 -0.05632635001144351 0 -0.033403176555835391 -0.057504957988960992 0 -0.033584706319786523 -0.05632635001144351 0 -0.033403176555835391 -0.057504957988960992 0 -0.035490361953211466 -0.05669721962290946 0 -0.031839777013470551 -0.057608246451100804 0 -0.03231233738018284 -0.056968853231400385 0 -0.033403176555835391 -0.057504957988960992 0 -0.031839777013470551 -0.057608246451100804 0 -0.033403176555835391 -0.057504957988960992 0 -0.033319768828961982 -0.057422896441803491 0 -0.032235019741795067 -0.05789272425611279 0 -0.031839777013470551 -0.057608246451100804 0 -0.033319768828961982 -0.057422896441803491 0 -0.033403176555835391 -0.057504957988960992 0 -0.033319768828961982 -0.057422896441803491 0 -0.033574856499442397 -0.05730784953002261 0 -0.033574856499442397 -0.05730784953002261 0 -0.033863080619301718 -0.057650374085379028 0 -0.032175318497069436 -0.056486895767368976 0 -0.033403176555835391 -0.057504957988960992 0 -0.033574856499442397 -0.05730784953002261 0 -0.033863080619301718 -0.057650374085379028 0 -0.03550617790752543 -0.057416958897024327 0 -0.035262123029905272 -0.057524637853545793 0 -0.037274638776479123 -0.057774189995443932 0 -0.03816922671429758 -0.057932262509153697 0 -0.037718637321928157 -0.057410708871895574 0 -0.03816922671429758 -0.057932262509153697 0 -0.037718637321928157 -0.057410708871895574 0 -0.038623471377258758 -0.057646091065903862 0 -0.037274638776479123 -0.057774189995443932 0 -0.03816922671429758 -0.057932262509153697 0 -0.038178767839533993 -0.058078465380931935 0 -0.033403176555835391 -0.057504957988960992 0 -0.033863080619301718 -0.057650374085379028 0 -0.035490361953211466 -0.05669721962290946 0 -0.037274638776479123 -0.057774189995443932 0 -0.037718637321928157 -0.057410708871895574 0 -0.035490361953211466 -0.05669721962290946 0 -0.03550617790752543 -0.057416958897024327 0 -0.035506245783224887 -0.05663155516341941 0 -0.033584706319786523 -0.05632635001144351 0 -0.035490361953211466 -0.05669721962290946 0 -0.036019954803988494 -0.054999364717728212 0 -0.035490361953211466 -0.05669721962290946 0 -0.036019954803988494 -0.054999364717728212 0 -0.037715372042731551 -0.056266402032060847 0 -0.036019954803988494 -0.054999364717728212 0 -0.037715372042731551 -0.056266402032060847 0 -0.038857794892150056 -0.054999626637481605 0 -0.037718637321928157 -0.057410708871895574 0 -0.037715372042731551 -0.056266402032060847 0 -0.038791882794497058 -0.05702891721318705 0 -0.037718637321928157 -0.057410708871895574 0 -0.035490361953211466 -0.05669721962290946 0 -0.037715372042731551 -0.056266402032060847 0 -0.037715372042731551 -0.056266402032060847 0 -0.039176483773291214 -0.056247828031809992 0 -0.038791882794497058 -0.05702891721318705 0 -0.039176483773291214 -0.056247828031809992 0 -0.039989467571498002 -0.056705528466334691 0 -0.038791882794497058 -0.05702891721318705 0 -0.039176483773291214 -0.056247828031809992 0 -0.038857794892150056 -0.054999626637481605 0 -0.040317817333616425 -0.055882150092528567 0 -0.037715372042731551 -0.056266402032060847 0 -0.039176483773291214 -0.056247828031809992