<?xml version="1.0"?>
<VTKFile type="UnstructuredGrid" version="0.1" byte_order="LittleEndian">
<UnstructuredGrid>
<Piece NumberOfPoints="30361" NumberOfCells="10615">
<Points>
<DataArray type="Float64" NumberOfComponents="3" format="ascii">
-0.5 -0.5 0 -0.45499733535830861 -0.46532613235895959 0 -0.43501891104991458 -0.5 0 -0.5 -0.5 0 -0.45499733535830861 -0.46532613235895959 0 -0.47001126156763162 -0.44805068314367852 0 -0.45322142309163221 -0.44583753990851671 0 -0.44157210364247218 -0.43609289850525029 0 -0.43483715215483709 -0.45369047118926631 0 -0.45499733535830861 -0.46532613235895959 0 -0.45322142309163221 -0.44583753990851671 0 -0.43483715215483709 -0.45369047118926631 0 -0.45499733535830861 -0.46532613235895959 0 -0.47001126156763162 -0.44805068314367852 0 -0.45499733535830861 -0.46532613235895959 0 -0.45322142309163221 -0.44583753990851671 0 -0.47001126156763162 -0.44805068314367852 0 -0.45322142309163221 -0.44583753990851671 0 -0.47001126156763162 -0.44805068314367852 0 -0.46928731790478451 -0.4340949366224931 0 -0.47001126156763162 -0.44805068314367852 0 -0.48502518777695453 -0.43077523392839739 0 -0.5 -0.5 0 -0.47001126156763162 -0.44805068314367852 0 -0.50000000000000178 -0.44346003540298767 0 -0.47001126156763162 -0.44805068314367852 0 -0.48502518777695453 -0.43077523392839739 0 -0.46928731790478451 -0.4340949366224931 0 -0.47001126156763162 -0.44805068314367852 0 -0.50000000000000178 -0.44346003540298767 0 -0.48502518777695453 -0.43077523392839739 0 -0.48502518777695453 -0.43077523392839739 0 -0.49999999999999811 -0.41354479037480618 0 -0.50000000000000178 -0.44346003540298767 0 -0.48502518777695453 -0.43077523392839739 0 -0.50000000000000178 -0.44346003540298767 0 -0.48502518777695453 -0.43077523392839739 0 -0.49999999999999811 -0.41354479037480618 0 -0.48502518777695453 -0.43077523392839739 0 -0.49999999999999811 -0.41354479037480618 0 -0.49069254893016978 -0.41672147797216819 0 -0.49999999999999811 -0.41354479037480618 0 -0.49069254893016978 -0.41672147797216819 0 -0.49136152324382693 -0.40345811864848052 0 -0.49069254893016978 -0.41672147797216819 0 -0.47305911730809441 -0.42063906486880359 0 -0.46109304683923252 -0.41050289580921162 0 -0.49069254893016978 -0.41672147797216819 0 -0.46109304683923252 -0.41050289580921162 0 -0.49069254893016978 -0.41672147797216819 0 -0.47832051903786832 -0.3982345185454923 0 -0.46109304683923252 -0.41050289580921162 0 -0.48502518777695453 -0.43077523392839739 0 -0.47305911730809441 -0.42063906486880359 0 -0.46928731790478451 -0.4340949366224931 0 -0.48502518777695453 -0.43077523392839739 0 -0.49069254893016978 -0.41672147797216819 0 -0.47305911730809441 -0.42063906486880359 0 -0.48502518777695453 -0.43077523392839739 0 -0.47305911730809441 -0.42063906486880359 0 -0.5 -0.38582890228422961 0 -0.4683661890952438 -0.3794945364610402 0 -0.47906179951004269 -0.36184646878828042 0 -0.5 -0.38582890228422961 0 -0.47832051903786832 -0.3982345185454923 0 -0.4683661890952438 -0.3794945364610402 0 -0.49069254893016978 -0.41672147797216819 0 -0.49136152324382693 -0.40345811864848052 0 -0.47832051903786832 -0.3982345185454923 0 -0.49999999999999811 -0.41354479037480618 0 -0.5 -0.38582890228422961 0 -0.49136152324382693 -0.40345811864848052 0 -0.5 -0.38582890228422961 0 -0.49136152324382693 -0.40345811864848052 0 -0.47832051903786832 -0.3982345185454923 0 -0.4683661890952438 -0.3794945364610402 0 -0.44201632684367381 -0.37468782789898819 0 -0.47832051903786832 -0.3982345185454923 0 -0.4683661890952438 -0.3794945364610402 0 -0.45712795293829522 -0.39195601736049179 0 -0.4683661890952438 -0.3794945364610402 0 -0.45712795293829522 -0.39195601736049179 0 -0.44201632684367381 -0.37468782789898819 0 -0.47832051903786832 -0.3982345185454923 0 -0.45712795293829522 -0.39195601736049179 0 -0.46109304683923252 -0.41050289580921162 0 -0.43861745849936867 -0.39146436818900998 0 -0.46109304683923252 -0.41050289580921162 0 -0.45712795293829522 -0.39195601736049179 0 -0.43861745849936867 -0.39146436818900998 0 -0.46109304683923252 -0.41050289580921162 0 -0.43815346412145439 -0.40568350123033919 0 -0.43861745849936867 -0.39146436818900998 0 -0.46109304683923252 -0.41050289580921162 0 -0.45712795293829522 -0.39195601736049179 0 -0.43861745849936867 -0.39146436818900998 0 -0.44201632684367381 -0.37468782789898819 0 -0.45322142309163221 -0.44583753990851671 0 -0.46928731790478451 -0.4340949366224931 0 -0.45695926055369379 -0.42751421042101939 0 -0.47305911730809441 -0.42063906486880359 0 -0.46928731790478451 -0.4340949366224931 0 -0.45695926055369379 -0.42751421042101939 0 -0.47305911730809441 -0.42063906486880359 0 -0.45695926055369379 -0.42751421042101939 0 -0.46109304683923252 -0.41050289580921162 0 -0.45695926055369379 -0.42751421042101939 0 -0.46109304683923252 -0.41050289580921162 0 -0.44565464878411859 -0.42010409363139067 0 -0.47305911730809441 -0.42063906486880359 0 -0.46109304683923252 -0.41050289580921162 0 -0.43815346412145439 -0.40568350123033919 0 -0.46109304683923252 -0.41050289580921162 0 -0.43815346412145439 -0.40568350123033919 0 -0.46109304683923252 -0.41050289580921162 0 -0.44565464878411859 -0.42010409363139067 0 -0.43815346412145439 -0.40568350123033919 0 -0.44565464878411859 -0.42010409363139067 0 -0.43049536876374023 -0.42072696219113209 0 -0.45695926055369379 -0.42751421042101939 0 -0.44565464878411859 -0.42010409363139067 0 -0.44157210364247218 -0.43609289850525029 0 -0.44565464878411859 -0.42010409363139067 0 -0.44157210364247218 -0.43609289850525029 0 -0.43049536876374023 -0.42072696219113209 0 -0.45322142309163221 -0.44583753990851671 0 -0.45695926055369379 -0.42751421042101939 0 -0.44157210364247218 -0.43609289850525029 0 -0.44157210364247218 -0.43609289850525029 0 -0.43049536876374023 -0.42072696219113209 0 -0.42453930322323519 -0.43830636220068492 0 -0.43049536876374023 -0.42072696219113209 0 -0.41559530754905588 -0.4271104797956749 0 -0.42453930322323519 -0.43830636220068492 0 -0.43815346412145439 -0.40568350123033919 0 -0.43049536876374023 -0.42072696219113209 0 -0.41521388140367649 -0.40086410665146582 0 -0.41559530754905588 -0.4271104797956749 0 -0.41521388140367649 -0.40086410665146582 0 -0.39728073787689611 -0.421175342766137 0 -0.43049536876374023 -0.42072696219113209 0 -0.41559530754905588 -0.4271104797956749 0 -0.41521388140367649 -0.40086410665146582 0 -0.41083191039029671 -0.43661910757289962 0 -0.41559530754905588 -0.4271104797956749 0 -0.39728073787689611 -0.421175342766137 0 -0.41083191039029671 -0.43661910757289962 0 -0.41559530754905588 -0.4271104797956749 0 -0.42453930322323519 -0.43830636220068492 0 -0.43861745849936867 -0.39146436818900998 0 -0.44201632684367381 -0.37468782789898819 0 -0.41614187015950432 -0.37242584056880929 0 -0.43861745849936867 -0.39146436818900998 0 -0.42025694456147139 -0.38353256968356458 0 -0.41614187015950432 -0.37242584056880929 0 -0.43861745849936867 -0.39146436818900998 0 -0.41614187015950432 -0.37242584056880929 0 -0.43861745849936867 -0.39146436818900998 0 -0.42535752928223391 -0.3930737402819694 0 -0.42025694456147139 -0.38353256968356458 0 -0.43815346412145439 -0.40568350123033919 0 -0.42535752928223391 -0.3930737402819694 0 -0.41521388140367649 -0.40086410665146582 0 -0.43815346412145439 -0.40568350123033919 0 -0.41521388140367649 -0.40086410665146582 0 -0.43815346412145439 -0.40568350123033919 0 -0.43861745849936867 -0.39146436818900998 0 -0.42535752928223391 -0.3930737402819694 0 -0.41521388140367649 -0.40086410665146582 0 -0.41409449936390819 -0.38679526480476623 0 -0.40344057331977312 -0.38718040368656259 0 -0.42535752928223391 -0.3930737402819694 0 -0.41521388140367649 -0.40086410665146582 0 -0.41409449936390819 -0.38679526480476623 0 -0.42535752928223391 -0.3930737402819694 0 -0.42025694456147139 -0.38353256968356458 0 -0.41409449936390819 -0.38679526480476623 0 -0.42025694456147139 -0.38353256968356458 0 -0.41409449936390819 -0.38679526480476623 0 -0.41389585847065402 -0.38102547603600262 0 -0.41409449936390819 -0.38679526480476623 0 -0.40726855353931851 -0.37909107475457782 0 -0.40344057331977312 -0.38718040368656259 0 -0.41409449936390819 -0.38679526480476623 0 -0.41389585847065402 -0.38102547603600262 0 -0.40726855353931851 -0.37909107475457782 0 -0.40726855353931851 -0.37909107475457782 0 -0.4134344515931595 -0.37641072822083038 0 -0.40794530584453342 -0.37242565588136528 0 -0.41389585847065402 -0.38102547603600262 0 -0.40726855353931851 -0.37909107475457782 0 -0.4134344515931595 -0.37641072822083038 0 -0.42025694456147139 -0.38353256968356458 0 -0.4134344515931595 -0.37641072822083038 0 -0.41614187015950432 -0.37242584056880929 0 -0.42025694456147139 -0.38353256968356458 0 -0.41389585847065402 -0.38102547603600262 0 -0.4134344515931595 -0.37641072822083038 0 -0.39579225819096192 -0.38299387147655101 0 -0.39227429868589869 -0.39604471207259201 0 -0.38781703839341708 -0.37367077362211992 0 -0.39629066176023792 -0.3770567872828724 0 -0.39579225819096192 -0.38299387147655101 0 -0.38781703839341708 -0.37367077362211992 0 -0.39629066176023792 -0.3770567872828724 0 -0.40086934846939448 -0.38037288974239142 0 -0.39579225819096192 -0.38299387147655101 0 -0.39629066176023792 -0.3770567872828724 0 -0.40155469553668088 -0.37554231151139289 0 -0.39655193130877969 -0.37278219250639022 0 -0.40726855353931851 -0.37909107475457782 0 -0.40086934846939448 -0.38037288974239142 0 -0.40344057331977312 -0.38718040368656259 0 -0.39629066176023792 -0.3770567872828724 0 -0.40155469553668088 -0.37554231151139289 0 -0.40086934846939448 -0.38037288974239142 0 -0.40726855353931851 -0.37909107475457782 0 -0.40155469553668088 -0.37554231151139289 0 -0.40794530584453342 -0.37242565588136528 0 -0.40726855353931851 -0.37909107475457782 0 -0.40155469553668088 -0.37554231151139289 0 -0.40086934846939448 -0.38037288974239142 0 -0.40086934846939448 -0.38037288974239142 0 -0.40344057331977312 -0.38718040368656259 0 -0.39579225819096192 -0.38299387147655101 0 -0.40344057331977312 -0.38718040368656259 0 -0.39579225819096192 -0.382993871
[...]
<PointData Scalars="" Vectors="displacement," Tensors="">
<DataArray type="Float64" Name="displacement" NumberOfComponents="3" format="ascii">
0.014998386414692646 0.014999607220168553 0 0.015039624842784521 0.014102743511499528 0 0.014999460778503051 0.013051655135677903 0 0.014998386414692646 0.014999607220168553 0 0.015039624842784521 0.014102743511499528 0 0.014239224038528057 0.014625617636646901 0 0.015901041762429444 0.013968201076225067 0 0.016252370385303614 0.013538022158976025 0 0.015739977249679626 0.013280360599993692 0 0.015039624842784521 0.014102743511499528 0 0.015901041762429444 0.013968201076225067 0 0.015739977249679626 0.013280360599993692 0 0.014894601996522821 0.01411332497745138 0 0.015160033889463173 0.014598828377202859 0 0.015039624842784521 0.014102743511499528 0 0.015901041762429444 0.013968201076225067 0 0.015794384185120861 0.014577701508836995 0 0.015901041762429444 0.013968201076225067 0 0.015794384185120861 0.014577701508836995 0 0.016264970918681603 0.014521613443343528 0 0.015160033889463173 0.014598828377202859 0 0.014019033220569089 0.015059852890839488 0 0.014998386414692646 0.014999607220168553 0 0.014239224038528057 0.014625617636646901 0 0.01330833244558152 0.014998444532456957 0 0.015794384185120861 0.014577701508836995 0 0.016361556380542291 0.015038916348037808 0 0.016264970918681603 0.014521613443343528 0 0.014239224038528057 0.014625617636646901 0 0.01330833244558152 0.014998444532456957 0 0.013817160951845714 0.014824021645714225 0 0.014019033220569089 0.015059852890839488 0 0.012405426112167771 0.014999670307214646 0 0.013303523941246523 0.015000340279653466 0 0.014019033220569089 0.015059852890839488 0 0.013303805026003732 0.014999995804247211 0 0.012928426884040929 0.015445513283882242 0 0.012406355783655091 0.014999998275821987 0 0.01257893627290574 0.015250715461576051 0 0.012405818159671737 0.01499992071292453 0 0.012399979206330165 0.015175116226074217 0 0.012405818159671737 0.01499992071292453 0 0.012399979206330165 0.015175116226074217 0 0.01202554132431038 0.015179289978792783 0 0.012399979206330165 0.015175116226074217 0 0.012467064791143064 0.015354079749834066 0 0.012384687053658815 0.015469320632595587 0 0.012111674683573636 0.015498491860905142 0 0.013004562214830909 0.014958385062538651 0 0.012399979206330165 0.015175116226074217 0 0.011753610102791049 0.015462106269895762 0 0.011939275977169555 0.015839670212420082 0 0.016361556380542291 0.015038916348037808 0 0.016703679650425945 0.014637086438485899 0 0.016264970918681603 0.014521613443343528 0 0.01257893627290574 0.015250715461576051 0 0.012399979206330165 0.015175116226074217 0 0.012467064791143064 0.015354079749834066 0 0.014019033220569089 0.015059852890839488 0 0.014681447249472172 0.014797163904711847 0 0.011574700977081725 0.014999874598217713 0 0.011127125840071538 0.015670525061517122 0 0.010702605077283687 0.015453444743664689 0 0.011574700977081725 0.014999874598217713 0 0.011753610102791049 0.015462106269895762 0 0.011127125840071538 0.015670525061517122 0 0.012399979206330165 0.015175116226074217 0 0.01202554132431038 0.015179289978792783 0 0.011753610102791049 0.015462106269895762 0 0.012405818159671737 0.01499992071292453 0 0.011574700977081725 0.014999874598217713 0 0.01202554132431038 0.015179289978792783 0 0.011574700977081725 0.014999874598217713 0 0.01202554132431038 0.015179289978792783 0 0.011753610102791049 0.015462106269895762 0 0.011087918944490547 0.015663212013108076 0 0.010813425366546571 0.015986170661838335 0 0.011753610102791049 0.015462106269895762 0 0.011127125840071538 0.015670525061517122 0 0.011420293196447398 0.015869750160472564 0 0.011127125840071538 0.015670525061517122 0 0.011420293196447398 0.015869750160472564 0 0.011091598003950999 0.016026561046563949 0 0.011753610102791049 0.015462106269895762 0 0.011420293196447398 0.015869750160472564 0 0.011939275977169555 0.015839670212420082 0 0.010995974814204782 0.015662749196026133 0 0.013004562214830909 0.014958385062538651 0 0.011420293196447398 0.015869750160472564 0 0.011262817573410864 0.016083109797997951 0 0.011939275977169555 0.015839670212420082 0 0.01157570976961831 0.015119935227669624 0 0.01115278605856208 0.015109925562012329 0 0.011745534456028587 0.014443771362806137 0 0.011420293196447398 0.015869750160472564 0 0.011262817573410864 0.016083109797997951 0 0.011091598003950999 0.016026561046563949 0 0.015901041762429444 0.013968201076225067 0 0.016264970918681603 0.014521613443343528 0 0.01649330098382671 0.01407911761406147 0 0.016703679650425945 0.014637086438485899 0 0.016264970918681603 0.014521613443343528 0 0.01649330098382671 0.01407911761406147 0 0.016703679650425945 0.014637086438485899 0 0.01649330098382671 0.01407911761406147 0 0.017031846426680809 0.014213004908811225 0 0.01649330098382671 0.01407911761406147 0 0.017031846426680809 0.014213004908811225 0 0.016725772409856659 0.013683955014948172 0 0.014681447249472172 0.014797163904711847 0 0.013004562214830909 0.014958385062538651 0 0.014492029207901774 0.014121184998248484 0 0.013004562214830909 0.014958385062538651 0 0.017142954959416808 0.013432777427243955 0 0.017031846426680809 0.014213004908811225 0 0.016725772409856659 0.013683955014948172 0 0.017142954959416808 0.013432777427243955 0 0.016725772409856659 0.013683955014948172 0 0.016708025047445303 0.013185918817450331 0 0.01649330098382671 0.01407911761406147 0 0.016725772409856659 0.013683955014948172 0 0.016252370385303614 0.013538022158976025 0 0.016725772409856659 0.013683955014948172 0 0.016252370385303614 0.013538022158976025 0 0.016708025047445303 0.013185918817450331 0 0.015901041762429444 0.013968201076225067 0 0.01649330098382671 0.01407911761406147 0 0.016252370385303614 0.013538022158976025 0 0.016252370385303614 0.013538022158976025 0 0.016708025047445303 0.013185918817450331 0 0.016229550074491766 0.012972226441544615 0 0.016708025047445303 0.013185918817450331 0 0.016531796741476902 0.012746910128384683 0 0.016229550074491766 0.012972226441544615 0 0.017142954959416808 0.013432777427243955 0 0.016708025047445303 0.013185918817450331 0 0.017201607614523946 0.01276338718340736 0 0.016531796741476902 0.012746910128384683 0 0.017201607614523946 0.01276338718340736 0 0.016679537556126181 0.012290520242089271 0 0.016708025047445303 0.013185918817450331 0 0.016531796741476902 0.012746910128384683 0 0.017201607614523946 0.01276338718340736 0 0.016283347078165058 0.012596124472013758 0 0.016531796741476902 0.012746910128384683 0 0.016679537556126181 0.012290520242089271 0 0.016283347078165058 0.012596124472013758 0 0.016531796741476902 0.012746910128384683 0 0.016229550074491766 0.012972226441544615 0 0.011262817573410864 0.016083109797997951 0 0.011091598003950999 0.016026561046563949 0 0.010763507050137646 0.015774820841464574 0 0.01115278605856208 0.015109925562012329 0 0.010977216836772498 0.01561510360160509 0 0.010763507050137646 0.015774820841464574 0 0.010995974814204782 0.015662749196026133 0 0.010906465014613636 0.01570835679280003 0 0.01115278605856208 0.015109925562012329 0 0.011207186134507443 0.015463706519705115 0 0.010977216836772498 0.01561510360160509 0 0.01157570976961831 0.015119935227669624 0 0.011207186134507443 0.015463706519705115 0 0.011399404909505055 0.01570133672724314 0 0.014492029207901774 0.014121184998248484 0 0.014392743898366219 0.014248808939824206 0 0.01157570976961831 0.015119935227669624 0 0.01115278605856208 0.015109925562012329 0 0.011207186134507443 0.015463706519705115 0 0.011399404909505055 0.01570133672724314 0 0.011034298458266732 0.015740274288797096 0 0.011017210186395524 0.015974008142317482 0 0.011207186134507443 0.015463706519705115 0 0.011399404909505055 0.01570133672724314 0 0.011034298458266732 0.015740274288797096 0 0.011207186134507443 0.015463706519705115 0 0.010977216836772498 0.01561510360160509 0 0.011034298458266732 0.015740274288797096 0 0.010977216836772498 0.01561510360160509 0 0.011034298458266732 0.015740274288797096 0 0.01089909263435068 0.015757625751129784 0 0.011034298458266732 0.015740274288797096 0 0.010814920354331715 0.015888581612786834 0 0.011017210186395524 0.015974008142317482 0 0.011034298458266732 0.015740274288797096 0 0.01089909263435068 0.015757625751129784 0 0.010814920354331715 0.015888581612786834 0 0.010814920354331715 0.015888581612786834 0 0.010806427878609672 0.015784140599529952 0 0.010674936761903316 0.015885264673080567 0 0.01089909263435068 0.015757625751129784 0 0.010814920354331715 0.015888581612786834 0 0.010806427878609672 0.015784140599529952 0 0.010977216836772498 0.01561510360160509 0 0.010806427878609672 0.015784140599529952 0 0.010763507050137646 0.015774820841464574 0 0.010977216836772498 0.01561510360160509 0 0.01089909263435068 0.015757625751129784 0 0.010806427878609672 0.015784140599529952 0 0.010867586391365602 0.016161328780951112 0 0.011278461292226385 0.016263900581949702 0 0.010525611373219751 0.016398021367456113 0 0.010679419437947773 0.016134125500988448 0 0.010867586391365602 0.016161328780951112 0 0.010525611373219751 0.016398021367456113 0 0.010679419437947773 0.016134125500988448 0 0.010811143856792023 0.016028715396514397 0 0.010867586391365602 0.016161328780951112 0 0.010679419437947773 0.016134125500988448 0 0.010673883239793456 0.016005921922473566 0 0.010528086559310892 0.016105464145995004 0 0.010814920354331715 0.015888581612786834 0 0.010811143856792023 0.016028715396514397 0 0.011017210186395524 0.015974008142317482 0 0.010679419437947773 0.016134125500988448 0 0.010673883239793456 0.016005921922473566 0 0.010811143856792023 0.016028715396514397 0 0.010814920354331715 0.015888581612786834 0 0.010673883239793456 0.016005921922473566 0 0.010674936761903316 0.015885264673080567 0 0.010814920354331715 0.015888581612786834 0 0.010673883239793456 0.016005921922473566 0 0.010811143856792023 0.016028715396514397 0 0.010811143856792023 0.016028715396514397 0 0.011017210186395524 0.015974008142317482 0 0.010867586391365602 0.016161328780951112 0 0.011017210186395524 0.015974008142317482 0 0.010867586391365602 0.016161328780951112 0 0.011278461292226385 0.016263900581949702 0 0.017201607614523946 0.01276338718340736 0 0.017267349036057748 0.012212459504917398 0 0.016679537556126181 0.012290520242089271 0 0.011399404909505055 0.01570133672724314 0 0.011017210186395524 0.015974008142317482 0 0.011278461292226385 0.016263900581949702 0 0.014392743898366219 0.014248808939824206 0 0.013153226349195668 0.014221246668249529 0 0.015073271747340893 0.01240435662936802 0 0.015365586410359275 0.012664463363676095 0 0.01500242100522684 0.012799915603060628 0 0.013153226349195668 0.014221246668249529 0 0.011926432281370377 0.014207389438363537 0 0.0087204865140661988 0.016125462442188637 0 0.0088314784061644027 0.016034989908592555 0 0.0087666573798780151 0.015802975582837601 0 0.0087204865140661988 0.016125462442188637 0 0.0088314784061644027 0.016034989908592555 0 0.0089583563716690452 0.016123897997723746 0 0.0088287472537459024 0.015952190268223192 0 0.0088174229151551948 0.01584837857300778 0 0.013153226349195668 0.014221246668249529 0 0.0090366732018353439 0.016490660997810418 0 0.0088314784061644027 0.016034989908592555 0 0.008974807300275953 0.01598475947651061 0 0.0088842851552349972 0.015891846532186921 0 0.0088314784061644027 0.016034989908592555 0 0.0089583563716690452 0.016123897997723746 0 0.008974807300275953 0.01598475947651061 0 0.015585116321361545 0.012294744295597178 0 0.01573462652385826 0.01248184147319099 0 0.016008678429836654 0.012323795120036047 0 0.016846464765581267 0.012008169594508266 0 0.015718384959196762 0.012435912432980093 0 0.015585116321361545 0.012294744295597178 0 0.016008678429836654 0.012323795120036047 0 0.016032739824910734 0.012348567210841125 0 0.016283347078165058 0.012596124472013758 0 0.016679537556126181 0.012290520242089271 0 0.016032739824910734 0.012348567210841125 0 0.013153226349195668 0.014221246668249529 0 0.016846464765581267 0.012008169594508266 0 0.015073271747340893 0.01240435662936802 0 0.015585116321361545 0.012294744295597178 0 0.015365586410359275 0.012664463363676095 0 0.015585116321361545 0.012294744295597178 0 0.015365586410359275 0.012664463363676095 0 0.015599429039147303 0.012562718209507585 0 0.015365586410359275 0.012664463363676095 0 0.015599429039147303 0.012562718209507585 0 0.015747167116142942 0.012718147844002105 0 0.01573462652385826 0.01248184147319099 0 0.016008678429836654 0.012323795120036047 0 0.015747167116142942 0.012718147844002105 0 0.015599429039147303 0.012562718209507585 0 0.01573462652385826 0.01248184147319099 0 0.015747167116142942 0.012718147844002105 0 0.015585116321361545 0.012294744295597178 0 0.015599429039147303 0.012562718209507585 0 0.01573462652385826 0.01248184147319099 0 0.01602596946730259 0.012302338005010372 0 0.016134725670405935 0.012112201670858231 0 0.015942385184287023 0.012036611195714388 0 0.016008678429836654 0.012323795120036047 0 0.016540938616340428 0.011498286906501299 0 0.01627434456450557 0.011744190391426717 0 0.016062933566730386 0.011269550786230964 0 0.016353823472140462 0.010935165617577651 0 0.015942385184287023 0.012036611195714388 0 0.016126288275145294 0.011098864782440871 0 0.016540938616340428 0.011498286906501299 0 0.016106642871796899 0.011891824227107488 0 0.016238229084560109 0.011019456584880001 0 0.015942385184287023 0.012036611195714388 0 0.016032739824910734 0.012348567210841125 0 0.015982696564723436 0.012631308211165182 0 0.016106642871796899 0.011891824227107488 0 0.015997973848348675 0.012571315435543226 0 0.01627434456450557 0.011744190391426717 0 0.015783111800910781 0.012211669325407893 0 0.015982696564723436 0.012631308211165182 0 0.015942385184287023 0.012036611195714388 0 0.016008678429836654 0.012323795120036047 0 0.016032739824910734 0.012348567210841125 0 0.015783111800910781 0.012211669325407893 0 0.015836989007063186 0.011732880370225577 0 0.01543425221556039 0.012113943115107845 0 0.01627434456450557 0.011744190391426717 0 0.015783111800910781 0.012211669325407893 0 0.015836989007063186 0.011732880370225577 0 0.015836989007063186 0.011732880370225577 0 0.015646806085787474 0.011287640228746466 0 0.016062933566730386 0.011269550786230964 0 0.01627434456450557 0.011744190391426717 0 0.015836989007063186 0.011732880370225577 0 0.016062933566730386 0.011269550786230964 0 0.014999759427201319 0.011574706643011756 0 0.01543425221556039 0.012113943115107845 0 0.015646806085787474 0.011287640228746466 0 0.015836989007063186 0.011732880370225577 0 0.01543425221556039 0.012113943115107845 0 0.015646806085787474 0.011287640228746466 0 0.01543425221556039 0.012113943115107845 0 0.014999460778503051 0.013051655135677903 0 0.015469948113726832 0.012821896281252528 0 0.015039624842784521 0.014102743511499528 0 0.014999460778503051 0.013051655135677903 0 0.015469948113726832 0.012821896281252528 0 0.014999759427201319 0.011574706643011756 0 0.01543425221556039 0.012113943115107845 0 0.014999460778503051 0.013051655135677903 0 0.015039624842784521 0.014102743511499528 0 0.015469948113726832 0.012821896281252528 0 0.015739977249679626 0.013280360599993692 0 0.015469948113726832 0.012821896281252528 0 0.015739977249679626 0.013280360599993692 0 0.015982696564723436 0.012631308211165182 0 0.015739977249679626 0.013280360599993692 0 0.016229550074491766 0.012972226441544615 0 0.015982696564723436 0.012631308211165182 0 0.016252370385303614 0.013538022158976025 0 0.015739977249679626 0.013280360599993692 0 0.016229550074491766 0.012972226441544615 0 0.016283347078165058 0.012596124472013758 0 0.016229550074491766 0.012972226441544615 0 0.015982696564723436 0.012631308211165182 0 0.016283347078165058 0.012596124472013758 0 0.016032739824910734 0.012348567210841125 0 0.015982696564723436 0.012631308211165182 0 0.015783111800910781 0.012211669325407893 0 0.015469948113726832 0.012821896281252528 0 0.015982696564723436 0.012631308211165182 0 0.015783111800910781 0.012211669325407893 0 0.01543425221556039 0.012113943115107845 0 0.015469948113726832 0.012821896281252528 0 0.0081348124348262912 0.016055062373269577 0 0.0079207839311250181 0.016336081349538387 0 0.0075192025752109258 0.015931821426091522 0 0.0081348124348262912 0.016055062373269577 0 0.0085351676530849019 0.016266186538291035 0 0.0083335164004670666 0.016454571746004298 0 0.0081348124348262912 0.016055062373269577 0 0.0078541478581366508 0.015571569012570594 0 0.0085403954802401299 0.015691270391759254 0 0.0081348124348262912 0.016055062373269577 0 0.0078541478581366508 0.015571569012570594 0 0.0075192025752109258 0.015931821426091522 0 0.0078541478581366508 0.015571569012570594 0 0.0082489269359704489 0.014999941098190091 0 0.0074175496203753881 0.014999889359942941 0 0.0078541478581366508 0.015571569012570594 0 0.0082489269359704489 0.014999941098190091 0 0.0085403954802401299 0.015691270391759254 0 0.0082489269359704489 0.014999941098190091 0 0.0088154237711040272 0.015307005114406651 0 0.0090804282711826854 0.014999902735913237 0 0.0082489269359704489 0.014999941098190091 0 0.0085403954802401299 0.015691270391759254 0 0.0088154237711040272 0.015307005114406651 0 0.0088154237711040272 0.015307005114406651 0 0.0090804282711826854 0.014999902735913237 0 0.0093134462706871129 0.015388607309907407 0 0.0085403954802401299 0.015691270391759254 0 0.0088154237711040272 0.015307005114406651 0 0.0093134462706871129 0.015388607309907407 0 0.0085403954802401299 0.015691270391759254 0 0.0093134462706871129 0.015388607309907407 0 0.0089573910644086697 0.016037215657697605 0 0.0093135346083002956 0.015390003192691694 0 0.0092546818880197522 0.01592318898923167 0 0.0081348124348262912 0.016055062373269577 0 0.0085403954802401299 0.015691270391759254 0 0.0085351676530849019 0.016266186538291035 0 0.0085403954802401299 0.015691270391759254 0 0.0089573910644086697 0.016037215657697605 0 0.0085351676530849019 0.016266186538291035 0 0.0089573910644086697 0.016037215657697605 0 0.0085351676530849019 0.016266186538291035 0 0.0086762136176832573 0.016470799101955966 0 0.0092546818880197522 0.01592318898923167 0 0.0091653606725013922 0.01625977860646495 0 0.0095534925519941746 0.015869998963858264 0 0.0098174760533839261 0.015800837804802667 0 0.0098032676393954663 0.016025126483847157 0 0.0095534925519941746 0.015869998963858264 0 0.0098032676393954663 0.016025126483847157 0 0.0096563468433016469 0.016079065318406895 0 0.010039809129658133 0.015912973259817512 0 0.0098174760533839261 0.015800837804802667 0 0.0098032676393954663 0.016025126483847157 0 0.010039809129658133 0.015912973259817512 0 0.010085315855417994 0.016023512641859711 0 0.0098032676393954663 0.016025126483847157 0 0.010154631394839549 0.01569396748862522 0 0.0098174760533839261 0.015800837804802667 0 0.009911408077158821 0.015476244550329638 0 0.010039809129658133 0.015912973259817512 0 0.010154631394839549 0.01569396748862522 0 0.0098174760533839261 0.015800837804802667 0 0.0093134462706871129 0.015388607309907407 0 0.0095534925519941746 0.015869998963858264 0 0.0098174760533839261 0.015800837804802667 0 0.0093134462706871129 0.015388607309907407 0 0.0098174760533839261 0.015800837804802667 0 0.009911408077158821 0.015476244550329638 0 0.0090804282711826854 0.014999902735913237 0 0.0093134462706871129 0.015388607309907407 0 0.0099119093843733023 0.014999932196240824 0 0.0093134462706871129 0.015388607309907407 0 0.0099119093843733023 0.014999932196240824 0 0.009911408077158821 0.015476244550329638 0 0.0099119093843733023 0.014999932196240824 0 0.009911408077158821 0.015476244550329638 0 0.010308523821096788 0.015329221350969396 0 0.010154631394839549 0.01569396748862522 0 0.009911408077158821 0.015476244550329638 0 0.010308523821096788 0.015329221350969396 0 0.010154631394839549 0.01569396748862522 0 0.010308523821096788 0.015329221350969396 0 0.010702605077283687 0.015453444743664689 0 0.010743186840653736 0.014999904736556874 0 0.010308523821096788 0.015329221350969396 0 0.010702605077283687 0.015453444743664689 0 0.009911909384