<?xml version="1.0"?>
<VTKFile type="UnstructuredGrid" version="0.1" byte_order="LittleEndian">
<UnstructuredGrid>
<Piece NumberOfPoints="30361" NumberOfCells="10615">
<Points>
<DataArray type="Float64" NumberOfComponents="3" format="ascii">
-0.5 -0.5 0 -0.45499733535830861 -0.46532613235895959 0 -0.43501891104991458 -0.5 0 -0.5 -0.5 0 -0.45499733535830861 -0.46532613235895959 0 -0.47001126156763162 -0.44805068314367852 0 -0.45322142309163221 -0.44583753990851671 0 -0.44157210364247218 -0.43609289850525029 0 -0.43483715215483709 -0.45369047118926631 0 -0.45499733535830861 -0.46532613235895959 0 -0.45322142309163221 -0.44583753990851671 0 -0.43483715215483709 -0.45369047118926631 0 -0.45499733535830861 -0.46532613235895959 0 -0.47001126156763162 -0.44805068314367852 0 -0.45499733535830861 -0.46532613235895959 0 -0.45322142309163221 -0.44583753990851671 0 -0.47001126156763162 -0.44805068314367852 0 -0.45322142309163221 -0.44583753990851671 0 -0.47001126156763162 -0.44805068314367852 0 -0.46928731790478451 -0.4340949366224931 0 -0.47001126156763162 -0.44805068314367852 0 -0.48502518777695453 -0.43077523392839739 0 -0.5 -0.5 0 -0.47001126156763162 -0.44805068314367852 0 -0.50000000000000178 -0.44346003540298767 0 -0.47001126156763162 -0.44805068314367852 0 -0.48502518777695453 -0.43077523392839739 0 -0.46928731790478451 -0.4340949366224931 0 -0.47001126156763162 -0.44805068314367852 0 -0.50000000000000178 -0.44346003540298767 0 -0.48502518777695453 -0.43077523392839739 0 -0.48502518777695453 -0.43077523392839739 0 -0.49999999999999811 -0.41354479037480618 0 -0.50000000000000178 -0.44346003540298767 0 -0.48502518777695453 -0.43077523392839739 0 -0.50000000000000178 -0.44346003540298767 0 -0.48502518777695453 -0.43077523392839739 0 -0.49999999999999811 -0.41354479037480618 0 -0.48502518777695453 -0.43077523392839739 0 -0.49999999999999811 -0.41354479037480618 0 -0.49069254893016978 -0.41672147797216819 0 -0.49999999999999811 -0.41354479037480618 0 -0.49069254893016978 -0.41672147797216819 0 -0.49136152324382693 -0.40345811864848052 0 -0.49069254893016978 -0.41672147797216819 0 -0.47305911730809441 -0.42063906486880359 0 -0.46109304683923252 -0.41050289580921162 0 -0.49069254893016978 -0.41672147797216819 0 -0.46109304683923252 -0.41050289580921162 0 -0.49069254893016978 -0.41672147797216819 0 -0.47832051903786832 -0.3982345185454923 0 -0.46109304683923252 -0.41050289580921162 0 -0.48502518777695453 -0.43077523392839739 0 -0.47305911730809441 -0.42063906486880359 0 -0.46928731790478451 -0.4340949366224931 0 -0.48502518777695453 -0.43077523392839739 0 -0.49069254893016978 -0.41672147797216819 0 -0.47305911730809441 -0.42063906486880359 0 -0.48502518777695453 -0.43077523392839739 0 -0.47305911730809441 -0.42063906486880359 0 -0.5 -0.38582890228422961 0 -0.4683661890952438 -0.3794945364610402 0 -0.47906179951004269 -0.36184646878828042 0 -0.5 -0.38582890228422961 0 -0.47832051903786832 -0.3982345185454923 0 -0.4683661890952438 -0.3794945364610402 0 -0.49069254893016978 -0.41672147797216819 0 -0.49136152324382693 -0.40345811864848052 0 -0.47832051903786832 -0.3982345185454923 0 -0.49999999999999811 -0.41354479037480618 0 -0.5 -0.38582890228422961 0 -0.49136152324382693 -0.40345811864848052 0 -0.5 -0.38582890228422961 0 -0.49136152324382693 -0.40345811864848052 0 -0.47832051903786832 -0.3982345185454923 0 -0.4683661890952438 -0.3794945364610402 0 -0.44201632684367381 -0.37468782789898819 0 -0.47832051903786832 -0.3982345185454923 0 -0.4683661890952438 -0.3794945364610402 0 -0.45712795293829522 -0.39195601736049179 0 -0.4683661890952438 -0.3794945364610402 0 -0.45712795293829522 -0.39195601736049179 0 -0.44201632684367381 -0.37468782789898819 0 -0.47832051903786832 -0.3982345185454923 0 -0.45712795293829522 -0.39195601736049179 0 -0.46109304683923252 -0.41050289580921162 0 -0.43861745849936867 -0.39146436818900998 0 -0.46109304683923252 -0.41050289580921162 0 -0.45712795293829522 -0.39195601736049179 0 -0.43861745849936867 -0.39146436818900998 0 -0.46109304683923252 -0.41050289580921162 0 -0.43815346412145439 -0.40568350123033919 0 -0.43861745849936867 -0.39146436818900998 0 -0.46109304683923252 -0.41050289580921162 0 -0.45712795293829522 -0.39195601736049179 0 -0.43861745849936867 -0.39146436818900998 0 -0.44201632684367381 -0.37468782789898819 0 -0.45322142309163221 -0.44583753990851671 0 -0.46928731790478451 -0.4340949366224931 0 -0.45695926055369379 -0.42751421042101939 0 -0.47305911730809441 -0.42063906486880359 0 -0.46928731790478451 -0.4340949366224931 0 -0.45695926055369379 -0.42751421042101939 0 -0.47305911730809441 -0.42063906486880359 0 -0.45695926055369379 -0.42751421042101939 0 -0.46109304683923252 -0.41050289580921162 0 -0.45695926055369379 -0.42751421042101939 0 -0.46109304683923252 -0.41050289580921162 0 -0.44565464878411859 -0.42010409363139067 0 -0.47305911730809441 -0.42063906486880359 0 -0.46109304683923252 -0.41050289580921162 0 -0.43815346412145439 -0.40568350123033919 0 -0.46109304683923252 -0.41050289580921162 0 -0.43815346412145439 -0.40568350123033919 0 -0.46109304683923252 -0.41050289580921162 0 -0.44565464878411859 -0.42010409363139067 0 -0.43815346412145439 -0.40568350123033919 0 -0.44565464878411859 -0.42010409363139067 0 -0.43049536876374023 -0.42072696219113209 0 -0.45695926055369379 -0.42751421042101939 0 -0.44565464878411859 -0.42010409363139067 0 -0.44157210364247218 -0.43609289850525029 0 -0.44565464878411859 -0.42010409363139067 0 -0.44157210364247218 -0.43609289850525029 0 -0.43049536876374023 -0.42072696219113209 0 -0.45322142309163221 -0.44583753990851671 0 -0.45695926055369379 -0.42751421042101939 0 -0.44157210364247218 -0.43609289850525029 0 -0.44157210364247218 -0.43609289850525029 0 -0.43049536876374023 -0.42072696219113209 0 -0.42453930322323519 -0.43830636220068492 0 -0.43049536876374023 -0.42072696219113209 0 -0.41559530754905588 -0.4271104797956749 0 -0.42453930322323519 -0.43830636220068492 0 -0.43815346412145439 -0.40568350123033919 0 -0.43049536876374023 -0.42072696219113209 0 -0.41521388140367649 -0.40086410665146582 0 -0.41559530754905588 -0.4271104797956749 0 -0.41521388140367649 -0.40086410665146582 0 -0.39728073787689611 -0.421175342766137 0 -0.43049536876374023 -0.42072696219113209 0 -0.41559530754905588 -0.4271104797956749 0 -0.41521388140367649 -0.40086410665146582 0 -0.41083191039029671 -0.43661910757289962 0 -0.41559530754905588 -0.4271104797956749 0 -0.39728073787689611 -0.421175342766137 0 -0.41083191039029671 -0.43661910757289962 0 -0.41559530754905588 -0.4271104797956749 0 -0.42453930322323519 -0.43830636220068492 0 -0.43861745849936867 -0.39146436818900998 0 -0.44201632684367381 -0.37468782789898819 0 -0.41614187015950432 -0.37242584056880929 0 -0.43861745849936867 -0.39146436818900998 0 -0.42025694456147139 -0.38353256968356458 0 -0.41614187015950432 -0.37242584056880929 0 -0.43861745849936867 -0.39146436818900998 0 -0.41614187015950432 -0.37242584056880929 0 -0.43861745849936867 -0.39146436818900998 0 -0.42535752928223391 -0.3930737402819694 0 -0.42025694456147139 -0.38353256968356458 0 -0.43815346412145439 -0.40568350123033919 0 -0.42535752928223391 -0.3930737402819694 0 -0.41521388140367649 -0.40086410665146582 0 -0.43815346412145439 -0.40568350123033919 0 -0.41521388140367649 -0.40086410665146582 0 -0.43815346412145439 -0.40568350123033919 0 -0.43861745849936867 -0.39146436818900998 0 -0.42535752928223391 -0.3930737402819694 0 -0.41521388140367649 -0.40086410665146582 0 -0.41409449936390819 -0.38679526480476623 0 -0.40344057331977312 -0.38718040368656259 0 -0.42535752928223391 -0.3930737402819694 0 -0.41521388140367649 -0.40086410665146582 0 -0.41409449936390819 -0.38679526480476623 0 -0.42535752928223391 -0.3930737402819694 0 -0.42025694456147139 -0.38353256968356458 0 -0.41409449936390819 -0.38679526480476623 0 -0.42025694456147139 -0.38353256968356458 0 -0.41409449936390819 -0.38679526480476623 0 -0.41389585847065402 -0.38102547603600262 0 -0.41409449936390819 -0.38679526480476623 0 -0.40726855353931851 -0.37909107475457782 0 -0.40344057331977312 -0.38718040368656259 0 -0.41409449936390819 -0.38679526480476623 0 -0.41389585847065402 -0.38102547603600262 0 -0.40726855353931851 -0.37909107475457782 0 -0.40726855353931851 -0.37909107475457782 0 -0.4134344515931595 -0.37641072822083038 0 -0.40794530584453342 -0.37242565588136528 0 -0.41389585847065402 -0.38102547603600262 0 -0.40726855353931851 -0.37909107475457782 0 -0.4134344515931595 -0.37641072822083038 0 -0.42025694456147139 -0.38353256968356458 0 -0.4134344515931595 -0.37641072822083038 0 -0.41614187015950432 -0.37242584056880929 0 -0.42025694456147139 -0.38353256968356458 0 -0.41389585847065402 -0.38102547603600262 0 -0.4134344515931595 -0.37641072822083038 0 -0.39579225819096192 -0.38299387147655101 0 -0.39227429868589869 -0.39604471207259201 0 -0.38781703839341708 -0.37367077362211992 0 -0.39629066176023792 -0.3770567872828724 0 -0.39579225819096192 -0.38299387147655101 0 -0.38781703839341708 -0.37367077362211992 0 -0.39629066176023792 -0.3770567872828724 0 -0.40086934846939448 -0.38037288974239142 0 -0.39579225819096192 -0.38299387147655101 0 -0.39629066176023792 -0.3770567872828724 0 -0.40155469553668088 -0.37554231151139289 0 -0.39655193130877969 -0.37278219250639022 0 -0.40726855353931851 -0.37909107475457782 0 -0.40086934846939448 -0.38037288974239142 0 -0.40344057331977312 -0.38718040368656259 0 -0.39629066176023792 -0.3770567872828724 0 -0.40155469553668088 -0.37554231151139289 0 -0.40086934846939448 -0.38037288974239142 0 -0.40726855353931851 -0.37909107475457782 0 -0.40155469553668088 -0.37554231151139289 0 -0.40794530584453342 -0.37242565588136528 0 -0.40726855353931851 -0.37909107475457782 0 -0.40155469553668088 -0.37554231151139289 0 -0.40086934846939448 -0.38037288974239142 0 -0.40086934846939448 -0.38037288974239142 0 -0.40344057331977312 -0.38718040368656259 0 -0.39579225819096192 -0.38299387147655101 0 -0.40344057331977312 -0.38718040368656259 0 -0.39579225819096192 -0.382993871
[...]
<PointData Scalars="" Vectors="displacement," Tensors="">
<DataArray type="Float64" Name="displacement" NumberOfComponents="3" format="ascii">
6.8807641024929821e-07 0.014998272590122 0 -2.1205556123979962e-06 0.014708678676201004 0 -1.2250563147427959e-07 0.014999951718112111 0 6.8807641024929821e-07 0.014998272590122 0 -2.1205556123979962e-06 0.014708678676201004 0 -1.7852705386946578e-05 0.014326441852619724 0 -9.0028164848754275e-05 0.014702893888273385 0 -0.00012554366660070065 0.014743306045970385 0 -7.7006316247746267e-05 0.014797625347799746 0 -2.1205556123979962e-06 0.014708678676201004 0 -9.0028164848754275e-05 0.014702893888273385 0 -7.7006316247746267e-05 0.014797625347799746 0 -1.7272989212026487e-05 0.014633068785842515 0 2.8091512024840718e-05 0.014649392442053837 0 -2.1205556123979962e-06 0.014708678676201004 0 -9.0028164848754275e-05 0.014702893888273385 0 -7.3371462426696381e-05 0.014620928644914931 0 -9.0028164848754275e-05 0.014702893888273385 0 -7.3371462426696381e-05 0.014620928644914931 0 -0.00012891409873895117 0.014619450646654123 0 2.8091512024840718e-05 0.014649392442053837 0 -0.00035016526580864608 0.013044298985251546 0 6.8807641024929821e-07 0.014998272590122 0 -1.7852705386946578e-05 0.014326441852619724 0 -1.1685430540656004e-06 0.013307167745435102 0 -7.3371462426696381e-05 0.014620928644914931 0 -0.00014215301079228875 0.01454061201774387 0 -0.00012891409873895117 0.014619450646654123 0 -1.7852705386946578e-05 0.014326441852619724 0 -1.1685430540656004e-06 0.013307167745435102 0 -0.0004903502213081997 0.013810675979490332 0 -0.00035016526580864608 0.013044298985251546 0 -7.4350873236664422e-07 0.012405637023814088 0 -1.4990143292235458e-07 0.013303927478860505 0 -0.00035016526580864608 0.013044298985251546 0 -1.7135520663746596e-09 0.013302459003955394 0 -1.4327288192705003e-06 0.012923865141967351 0 -2.5401455752143916e-09 0.012407686914217531 0 -0.0012083115409687822 0.011475396909597068 0 -1.4395609441311327e-06 0.012404933616701063 0 -0.00030448744303232311 0.011804321556900685 0 -1.4395609441311327e-06 0.012404933616701063 0 -0.00030448744303232311 0.011804321556900685 0 -4.5778947279402652e-05 0.011742164599727024 0 -0.00030448744303232311 0.011804321556900685 0 -0.00056550325659256119 0.010799518349445213 0 -1.4435022913815149e-05 0.010133102984694763 0 -0.0001391360121621617 0.011115650434952447 0 -0.00064613084971682693 0.011894416142034091 0 -0.00030448744303232311 0.011804321556900685 0 -9.4594668839367214e-05 0.011260684186783615 0 -0.00038226425935020917 0.010858499524244962 0 -0.00014215301079228875 0.01454061201774387 0 -0.00017989513030864992 0.014596555858925709 0 -0.00012891409873895117 0.014619450646654123 0 -0.0012083115409687822 0.011475396909597068 0 -0.00030448744303232311 0.011804321556900685 0 -0.00056550325659256119 0.010799518349445213 0 -0.00035016526580864608 0.013044298985251546 0 -0.00041187020442294173 0.012711144190239596 0 4.0337569135819693e-07 0.011574645405832773 0 -7.0548585739506719e-05 0.010756229542963363 0 5.1468047703873088e-05 0.010609394646042153 0 4.0337569135819693e-07 0.011574645405832773 0 -9.4594668839367214e-05 0.011260684186783615 0 -7.0548585739506719e-05 0.010756229542963363 0 -0.00030448744303232311 0.011804321556900685 0 -4.5778947279402652e-05 0.011742164599727024 0 -9.4594668839367214e-05 0.011260684186783615 0 -1.4395609441311327e-06 0.012404933616701063 0 4.0337569135819693e-07 0.011574645405832773 0 -4.5778947279402652e-05 0.011742164599727024 0 4.0337569135819693e-07 0.011574645405832773 0 -4.5778947279402652e-05 0.011742164599727024 0 -9.4594668839367214e-05 0.011260684186783615 0 -9.3146435422536601e-05 0.010715335221757973 0 -0.00015429689250558875 0.010374506393329838 0 -9.4594668839367214e-05 0.011260684186783615 0 -7.0548585739506719e-05 0.010756229542963363 0 -0.00013801592361344773 0.010763444612613032 0 -7.0548585739506719e-05 0.010756229542963363 0 -0.00013801592361344773 0.010763444612613032 0 -8.5192786172208192e-05 0.010627806019359627 0 -9.4594668839367214e-05 0.011260684186783615 0 -0.00013801592361344773 0.010763444612613032 0 -0.00038226425935020917 0.010858499524244962 0 -0.00058751714060800708 0.010849698342996799 0 -0.00064613084971682693 0.011894416142034091 0 -0.00013801592361344773 0.010763444612613032 0 -0.00017455173582965326 0.010594874873480726 0 -0.00038226425935020917 0.010858499524244962 0 -0.0014293765835933689 0.011251369566954952 0 -0.00091315116388137371 0.011263824247391828 0 -0.0015906537759074373 0.012081151685114847 0 -0.00013801592361344773 0.010763444612613032 0 -0.00017455173582965326 0.010594874873480726 0 -8.5192786172208192e-05 0.010627806019359627 0 -9.0028164848754275e-05 0.014702893888273385 0 -0.00012891409873895117 0.014619450646654123 0 -0.00015108989813545772 0.01467238882703476 0 -0.00017989513030864992 0.014596555858925709 0 -0.00012891409873895117 0.014619450646654123 0 -0.00015108989813545772 0.01467238882703476 0 -0.00017989513030864992 0.014596555858925709 0 -0.00015108989813545772 0.01467238882703476 0 -0.0002074089495419816 0.014643855803422166 0 -0.00015108989813545772 0.01467238882703476 0 -0.0002074089495419816 0.014643855803422166 0 -0.0001677059037197348 0.014711163260845254 0 -0.00041187020442294173 0.012711144190239596 0 -0.00064613084971682693 0.011894416142034091 0 -0.0008668624608464009 0.013283929360374843 0 -0.00064613084971682693 0.011894416142034091 0 -0.00019625723840534468 0.014726259443407948 0 -0.0002074089495419816 0.014643855803422166 0 -0.0001677059037197348 0.014711163260845254 0 -0.00019625723840534468 0.014726259443407948 0 -0.0001677059037197348 0.014711163260845254 0 -0.00015878387655552122 0.014756611492417422 0 -0.00015108989813545772 0.01467238882703476 0 -0.0001677059037197348 0.014711163260845254 0 -0.00012554366660070065 0.014743306045970385 0 -0.0001677059037197348 0.014711163260845254 0 -0.00012554366660070065 0.014743306045970385 0 -0.00015878387655552122 0.014756611492417422 0 -9.0028164848754275e-05 0.014702893888273385 0 -0.00015108989813545772 0.01467238882703476 0 -0.00012554366660070065 0.014743306045970385 0 -0.00012554366660070065 0.014743306045970385 0 -0.00015878387655552122 0.014756611492417422 0 -0.00012266350002118747 0.014797514455516714 0 -0.00015878387655552122 0.014756611492417422 0 -0.0001385343098920312 0.014784556422979692 0 -0.00012266350002118747 0.014797514455516714 0 -0.00019625723840534468 0.014726259443407948 0 -0.00015878387655552122 0.014756611492417422 0 -0.000175531269866132 0.014756864633899252 0 -0.0001385343098920312 0.014784556422979692 0 -0.000175531269866132 0.014756864633899252 0 -0.00014245452192639314 0.014787723836345154 0 -0.00015878387655552122 0.014756611492417422 0 -0.0001385343098920312 0.014784556422979692 0 -0.000175531269866132 0.014756864633899252 0 -0.00011924396589252823 0.014799344532292919 0 -0.0001385343098920312 0.014784556422979692 0 -0.00014245452192639314 0.014787723836345154 0 -0.00011924396589252823 0.014799344532292919 0 -0.0001385343098920312 0.014784556422979692 0 -0.00012266350002118747 0.014797514455516714 0 -0.00017455173582965326 0.010594874873480726 0 -8.5192786172208192e-05 0.010627806019359627 0 -0.00019826148211838968 0.010392067548052565 0 -0.00091315116388137371 0.011263824247391828 0 -0.00062565273119819128 0.010559445609863083 0 -0.00019826148211838968 0.010392067548052565 0 -0.00058751714060800708 0.010849698342996799 0 -0.00019181364506609843 0.010440106250563979 0 -0.00091315116388137371 0.011263824247391828 0 -0.00097255791187952814 0.010761813876605433 0 -0.00062565273119819128 0.010559445609863083 0 -0.0014293765835933689 0.011251369566954952 0 -0.00097255791187952814 0.010761813876605433 0 -0.0012503652272286886 0.010391175292558414 0 -0.0008668624608464009 0.013283929360374843 0 -0.00073635540614138642 0.012553778878665515 0 -0.0014293765835933689 0.011251369566954952 0 -0.00091315116388137371 0.011263824247391828 0 -0.00097255791187952814 0.010761813876605433 0 -0.0012503652272286886 0.010391175292558414 0 -0.00075103124152500864 0.010337188920175523 0 -0.0007724967103734363 0.0099704768037268757 0 -0.00097255791187952814 0.010761813876605433 0 -0.0012503652272286886 0.010391175292558414 0 -0.00075103124152500864 0.010337188920175523 0 -0.00097255791187952814 0.010761813876605433 0 -0.00062565273119819128 0.010559445609863083 0 -0.00075103124152500864 0.010337188920175523 0 -0.00062565273119819128 0.010559445609863083 0 -0.00075103124152500864 0.010337188920175523 0 -0.00054702077933602839 0.010322024837813094 0 -0.00075103124152500864 0.010337188920175523 0 -0.00049946500927514363 0.010087527321017446 0 -0.0007724967103734363 0.0099704768037268757 0 -0.00075103124152500864 0.010337188920175523 0 -0.00054702077933602839 0.010322024837813094 0 -0.00049946500927514363 0.010087527321017446 0 -0.00049946500927514363 0.010087527321017446 0 -0.00037605147947851507 0.010297167863618331 0 -0.00029005030367327032 0.01010924322929282 0 -0.00054702077933602839 0.010322024837813094 0 -0.00049946500927514363 0.010087527321017446 0 -0.00037605147947851507 0.010297167863618331 0 -0.00062565273119819128 0.010559445609863083 0 -0.00037605147947851507 0.010297167863618331 0 -0.00019826148211838968 0.010392067548052565 0 -0.00062565273119819128 0.010559445609863083 0 -0.00054702077933602839 0.010322024837813094 0 -0.00037605147947851507 0.010297167863618331 0 -0.00064478868791242004 0.0097201943300962105 0 -0.0010589794868902365 0.0096105793355687041 0 -0.00035607813856155574 0.0094829368528328104 0 -0.00046834300622928523 0.0097257559056350886 0 -0.00064478868791242004 0.0097201943300962105 0 -0.00035607813856155574 0.0094829368528328104 0 -0.00046834300622928523 0.0097257559056350886 0 -0.00055829206933798734 0.0098770921536111677 0 -0.00064478868791242004 0.0097201943300962105 0 -0.00046834300622928523 0.0097257559056350886 0 -0.00041582129516563106 0.0098914384157439538 0 -0.00036631700748186789 0.0097179783991970126 0 -0.00049946500927514363 0.010087527321017446 0 -0.00055829206933798734 0.0098770921536111677 0 -0.0007724967103734363 0.0099704768037268757 0 -0.00046834300622928523 0.0097257559056350886 0 -0.00041582129516563106 0.0098914384157439538 0 -0.00055829206933798734 0.0098770921536111677 0 -0.00049946500927514363 0.010087527321017446 0 -0.00041582129516563106 0.0098914384157439538 0 -0.00029005030367327032 0.01010924322929282 0 -0.00049946500927514363 0.010087527321017446 0 -0.00041582129516563106 0.0098914384157439538 0 -0.00055829206933798734 0.0098770921536111677 0 -0.00055829206933798734 0.0098770921536111677 0 -0.0007724967103734363 0.0099704768037268757 0 -0.00064478868791242004 0.0097201943300962105 0 -0.0007724967103734363 0.0099704768037268757 0 -0.00064478868791242004 0.0097201943300962105 0 -0.0010589794868902365 0.0096105793355687041 0 -0.000175531269866132 0.014756864633899252 0 -0.00016885266435368365 0.01475628432732985 0 -0.00014245452192639314 0.014787723836345154 0 -0.0012503652272286886 0.010391175292558414 0 -0.0007724967103734363 0.0099704768037268757 0 -0.0010589794868902365 0.0096105793355687041 0 -0.00073635540614138642 0.012553778878665515 0 -0.00027359778553305884 0.012026654314673159 0 0.00096463880002605623 0.014467851296536691 0 0.00058117478960826089 0.014112806372008504 0 0.0010902912947638134 0.013897044092741792 0 -0.00027359778553305884 0.012026654314673159 0 0.00017787204045723387 0.011825667656815793 0 -0.00089861932408952087 0.0093785337944527689 0 -0.00082350817852182713 0.0093246687441831209 0 -0.00080962697499795708 0.0093513543331088834 0 -0.00089861932408952087 0.0093785337944527689 0 -0.00082350817852182713 0.0093246687441831209 0 -0.0006774363353754117 0.0093672593332695571 0 -0.00083163188647398124 0.0093716208792901188 0 -0.00086293072747691837 0.0089611876879456681 0 -0.00027359778553305884 0.012026654314673159 0 -0.00059742754864967526 0.0092063929592473802 0 -0.00082350817852182713 0.0093246687441831209 0 -0.00064717599647319936 0.0092068920655755965 0 -0.00073664090183276731 0.0091045610961884727 0 -0.00082350817852182713 0.0093246687441831209 0 -0.0006774363353754117 0.0093672593332695571 0 -0.00064717599647319936 0.0092068920655755965 0 0.00032867077510198079 0.014620788067455086 0 0.00015053270279275969 0.014414570148500396 0 -8.6668425616537393e-05 0.014717520695448136 0 0.0001860272196605955 0.014994998262610925 0 -0.00013428505845156089 0.014710430110544931 0 0.00032867077510198079 0.014620788067455086 0 -8.6668425616537393e-05 0.014717520695448136 0 -0.00011241283312176107 0.014781113853818535 0 -0.00011924396589252823 0.014799344532292919 0 -0.00014245452192639314 0.014787723836345154 0 -0.00011241283312176107 0.014781113853818535 0 -0.00027359778553305884 0.012026654314673159 0 0.0001860272196605955 0.014994998262610925 0 0.00096463880002605623 0.014467851296536691 0 0.00032867077510198079 0.014620788067455086 0 0.00058117478960826089 0.014112806372008504 0 0.00032867077510198079 0.014620788067455086 0 0.00058117478960826089 0.014112806372008504 0 0.00029162887506609342 0.014277248642003184 0 0.00058117478960826089 0.014112806372008504 0 0.00029162887506609342 0.014277248642003184 0 5.4794191328912868e-05 0.014046557720575815 0 0.00015053270279275969 0.014414570148500396 0 -8.6668425616537393e-05 0.014717520695448136 0 5.4794191328912868e-05 0.014046557720575815 0 0.00029162887506609342 0.014277248642003184 0 0.00015053270279275969 0.014414570148500396 0 5.4794191328912868e-05 0.014046557720575815 0 0.00032867077510198079 0.014620788067455086 0 0.00029162887506609342 0.014277248642003184 0 0.00015053270279275969 0.014414570148500396 0 -8.9242823696636042e-05 0.01468811747098869 0 -7.4380163567710907e-06 0.014400498432506754 0 -9.4073578777139732e-05 0.014711963321468733 0 -8.6668425616537393e-05 0.014717520695448136 0 -8.9710774694049043e-05 0.014759130042809312 0 -7.0863683989273317e-05 0.014971328019487503 0 -4.2309182845169999e-05 0.01498001772111731 0 -3.3439311510713183e-05 0.014978901317000375 0 -9.4073578777139732e-05 0.014711963321468733 0 -3.5884977685058892e-05 0.014809295423010656 0 -8.9710774694049043e-05 0.014759130042809312 0 -8.0208790621723934e-05 0.014843422424631962 0 -3.9678043387060433e-05 0.01489516520249682 0 -9.4073578777139732e-05 0.014711963321468733 0 -0.00011241283312176107 0.014781113853818535 0 -0.00011072962434931647 0.014850378649690205 0 -8.0208790621723934e-05 0.014843422424631962 0 -0.00010579221724268748 0.014846121513479868 0 -7.0863683989273317e-05 0.014971328019487503 0 -4.9128819231075116e-05 0.014926654936642641 0 -0.00011072962434931647 0.014850378649690205 0 -9.4073578777139732e-05 0.014711963321468733 0 -8.6668425616537393e-05 0.014717520695448136 0 -0.00011241283312176107 0.014781113853818535 0 -4.9128819231075116e-05 0.014926654936642641 0 -4.0348508116741059e-05 0.01496711541209075 0 -1.4449688595337641e-05 0.014955721383512569 0 -7.0863683989273317e-05 0.014971328019487503 0 -4.9128819231075116e-05 0.014926654936642641 0 -4.0348508116741059e-05 0.01496711541209075 0 -4.0348508116741059e-05 0.01496711541209075 0 -2.5694708876012657e-05 0.014983371599890431 0 -4.2309182845169999e-05 0.01498001772111731 0 -7.0863683989273317e-05 0.014971328019487503 0 -4.0348508116741059e-05 0.01496711541209075 0 -4.2309182845169999e-05 0.01498001772111731 0 2.4210062417594912e-08 0.014999915940523127 0 -1.4449688595337641e-05 0.014955721383512569 0 -2.5694708876012657e-05 0.014983371599890431 0 -4.0348508116741059e-05 0.01496711541209075 0 -1.4449688595337641e-05 0.014955721383512569 0 -2.5694708876012657e-05 0.014983371599890431 0 -1.4449688595337641e-05 0.014955721383512569 0 -1.2250563147427959e-07 0.014999951718112111 0 -3.0090633005349572e-05 0.014890350826613203 0 -2.1205556123979962e-06 0.014708678676201004 0 -1.2250563147427959e-07 0.014999951718112111 0 -3.0090633005349572e-05 0.014890350826613203 0 2.4210062417594912e-08 0.014999915940523127 0 -1.4449688595337641e-05 0.014955721383512569 0 -1.2250563147427959e-07 0.014999951718112111 0 -2.1205556123979962e-06 0.014708678676201004 0 -3.0090633005349572e-05 0.014890350826613203 0 -7.7006316247746267e-05 0.014797625347799746 0 -3.0090633005349572e-05 0.014890350826613203 0 -7.7006316247746267e-05 0.014797625347799746 0 -0.00011072962434931647 0.014850378649690205 0 -7.7006316247746267e-05 0.014797625347799746 0 -0.00012266350002118747 0.014797514455516714 0 -0.00011072962434931647 0.014850378649690205 0 -0.00012554366660070065 0.014743306045970385 0 -7.7006316247746267e-05 0.014797625347799746 0 -0.00012266350002118747 0.014797514455516714 0 -0.00011924396589252823 0.014799344532292919 0 -0.00012266350002118747 0.014797514455516714 0 -0.00011072962434931647 0.014850378649690205 0 -0.00011924396589252823 0.014799344532292919 0 -0.00011241283312176107 0.014781113853818535 0 -0.00011072962434931647 0.014850378649690205 0 -4.9128819231075116e-05 0.014926654936642641 0 -3.0090633005349572e-05 0.014890350826613203 0 -0.00011072962434931647 0.014850378649690205 0 -4.9128819231075116e-05 0.014926654936642641 0 -1.4449688595337641e-05 0.014955721383512569 0 -3.0090633005349572e-05 0.014890350826613203 0 9.8717992084950646e-05 0.0071118886406264853 0 9.9120171720904491e-05 0.0067809019112100048 0 2.1844371111880294e-05 0.0067434674950760283 0 9.8717992084950646e-05 0.0071118886406264853 0 -5.6939800143376867e-05 0.0070636861941410318 0 6.1512078072379904e-05 0.0068534623765025256 0 9.8717992084950646e-05 0.0071118886406264853 0 6.3393010215326558e-05 0.0073697809851619948 0 3.8905409139386197e-05 0.0079044818048823757 0 9.8717992084950646e-05 0.0071118886406264853 0 6.3393010215326558e-05 0.0073697809851619948 0 2.1844371111880294e-05 0.0067434674950760283 0 6.3393010215326558e-05 0.0073697809851619948 0 1.6850895774394334e-07 0.0082487333328663381 0 8.1819429034537485e-08 0.0074172743993440602 0 6.3393010215326558e-05 0.0073697809851619948 0 1.6850895774394334e-07 0.0082487333328663381 0 3.8905409139386197e-05 0.0079044818048823757 0 1.6850895774394334e-07 0.0082487333328663381 0 -4.2436106782064986e-05 0.0086103187843946435 0 -4.4973318099137772e-07 0.0090802974815749546 0 1.6850895774394334e-07 0.0082487333328663381 0 3.8905409139386197e-05 0.0079044818048823757 0 -4.2436106782064986e-05 0.0086103187843946435 0 -4.2436106782064986e-05 0.0086103187843946435 0 -4.4973318099137772e-07 0.0090802974815749546 0 -0.00020992653884071183 0.0091383430375154024 0 3.8905409139386197e-05 0.0079044818048823757 0 -4.2436106782064986e-05 0.0086103187843946435 0 -0.00020992653884071183 0.0091383430375154024 0 3.8905409139386197e-05 0.0079044818048823757 0 -0.00020992653884071183 0.0091383430375154024 0 -0.00045828982630066929 0.0074814540903039781 0 -0.00022290945360654149 0.0090884807793365999 0 -0.00021312027675210584 0.0087577725531232838 0 9.8717992084950646e-05 0.0071118886406264853 0 3.8905409139386197e-05 0.0079044818048823757 0 -5.6939800143376867e-05 0.0070636861941410318 0 3.8905409139386197e-05 0.0079044818048823757 0 -0.00045828982630066929 0.0074814540903039781 0 -5.6939800143376867e-05 0.0070636861941410318 0 -0.00045828982630066929 0.0074814540903039781 0 -5.6939800143376867e-05 0.0070636861941410318 0 -0.00018256548996284909 0.0068691749824683424 0 -0.00021312027675210584 0.0087577725531232838 0 6.4147629793460988e-05 0.0083828570200051716 0 -2.6576473519286828e-05 0.010058838238821682 0 0.00012131382965000734 0.010056499561158363 0 0.00012688966945648288 0.010006355642715924 0 -2.6576473519286828e-05 0.010058838238821682 0 0.00012688966945648288 0.010006355642715924 0 0.00032379383952823378 0.0098892821109413578 0 9.411248913426076e-05 0.010108566735972048 0 0.00012131382965000734 0.010056499561158363 0 0.00012688966945648288 0.010006355642715924 0 9.411248913426076e-05 0.010108566735972048 0 4.9708521957069308e-06 0.0099987364968447193 0 0.00012688966945648288 0.010006355642715924 0 0.00012059702692861343 0.010187857284839051 0 0.00012131382965000734 0.010056499561158363 0 7.0188102463796196e-05 0.009880162646833