<?xml version="1.0"?>
<VTKFile type="UnstructuredGrid" version="0.1" byte_order="LittleEndian">
<UnstructuredGrid>
<Piece NumberOfPoints="30881" NumberOfCells="10862">
<Points>
<DataArray type="Float64" NumberOfComponents="3" format="ascii">
-0.49999999999999828 -0.48677703703187492 0 -0.5 -0.5 0 -0.48129281494584059 -0.49338851851593718 0 -0.5 -0.5 0 -0.48129281494584059 -0.49338851851593718 0 -0.46258562989168328 -0.5 0 -0.49999999999999828 -0.48677703703187492 0 -0.48129281494584059 -0.49338851851593718 0 -0.49999999999999828 -0.48677703703187492 0 -0.4824545428279598 -0.47451624516148783 0 -0.48129281494584059 -0.49338851851593718 0 -0.49999999999999828 -0.48677703703187492 0 -0.4824545428279598 -0.47451624516148783 0 -0.5 -0.46599539173150673 0 -0.4824545428279598 -0.47451624516148783 0 -0.46853075243710779 -0.48354990242643758 0 -0.46411508256092049 -0.46598235294430129 0 -0.4824545428279598 -0.47451624516148783 0 -0.48129281494584059 -0.49338851851593718 0 -0.46853075243710779 -0.48354990242643758 0 -0.48129281494584059 -0.49338851851593718 0 -0.46258562989168328 -0.5 0 -0.48129281494584059 -0.49338851851593718 0 -0.46258562989168328 -0.5 0 -0.46853075243710779 -0.48354990242643758 0 -0.46258562989168328 -0.5 0 -0.46853075243710779 -0.48354990242643758 0 -0.45147378687733691 -0.48362213557840178 0 -0.46853075243710779 -0.48354990242643758 0 -0.45147378687733691 -0.48362213557840178 0 -0.46411508256092049 -0.46598235294430129 0 -0.4457251648104853 -0.47020164095208389 0 -0.45147378687733691 -0.48362213557840178 0 -0.46411508256092049 -0.46598235294430129 0 -0.4457251648104853 -0.47020164095208389 0 -0.45147378687733691 -0.48362213557840178 0 -0.43513446131126993 -0.48199891714758791 0 -0.45147378687733691 -0.48362213557840178 0 -0.43275163025255442 -0.5 0 -0.43513446131126993 -0.48199891714758791 0 -0.46258562989168328 -0.5 0 -0.45147378687733691 -0.48362213557840178 0 -0.43275163025255442 -0.5 0 -0.4467190029717853 -0.45478934699519452 0 -0.4422915115958943 -0.43555510214664611 0 -0.43246707723660932 -0.44794326854796312 0 -0.4457251648104853 -0.47020164095208389 0 -0.4467190029717853 -0.45478934699519452 0 -0.46411508256092049 -0.46598235294430129 0 -0.4457251648104853 -0.47020164095208389 0 -0.4467190029717853 -0.45478934699519452 0 -0.43016578207734568 -0.46313500011938619 0 -0.4467190029717853 -0.45478934699519452 0 -0.46411508256092049 -0.46598235294430129 0 -0.47114575579794699 -0.4403844242888923 0 -0.4467190029717853 -0.45478934699519452 0 -0.47114575579794699 -0.4403844242888923 0 -0.4422915115958943 -0.43555510214664611 0 -0.47114575579794699 -0.4403844242888923 0 -0.4422915115958943 -0.43555510214664611 0 -0.46411508256092049 -0.46598235294430129 0 -0.47114575579794699 -0.4403844242888923 0 -0.48354307623736548 -0.45841843211146538 0 -0.4824545428279598 -0.47451624516148783 0 -0.46411508256092049 -0.46598235294430129 0 -0.48354307623736548 -0.45841843211146538 0 -0.4824545428279598 -0.47451624516148783 0 -0.48354307623736548 -0.45841843211146538 0 -0.5 -0.46599539173150673 0 -0.48354307623736548 -0.45841843211146538 0 -0.5 -0.46599539173150673 0 -0.49999999999999972 -0.44521374643113848 0 -0.47114575579794699 -0.4403844242888923 0 -0.49999999999999972 -0.44521374643113848 0 -0.47114575579794699 -0.4403844242888923 0 -0.49999999999999972 -0.44521374643113848 0 -0.48704432221743971 -0.42935617662229603 0 -0.47114575579794699 -0.4403844242888923 0 -0.48354307623736548 -0.45841843211146538 0 -0.49999999999999972 -0.44521374643113848 0 -0.49999999999999972 -0.44521374643113848 0 -0.48704432221743971 -0.42935617662229603 0 -0.5 -0.41591957503128979 0 -0.48704432221743971 -0.42935617662229603 0 -0.5 -0.41591957503128979 0 -0.47703153307181151 -0.41590696073786332 0 -0.5 -0.41591957503128979 0 -0.47703153307181151 -0.41590696073786332 0 -0.48817838912021821 -0.4022119694541284 0 -0.47114575579794699 -0.4403844242888923 0 -0.48704432221743971 -0.42935617662229603 0 -0.47703153307181151 -0.41590696073786332 0 -0.5 -0.38662540363144121 0 -0.47568202340906118 -0.39039593841591919 0 -0.4947615751445838 -0.37332156409002909 0 -0.47568202340906118 -0.39039593841591919 0 -0.4947615751445838 -0.37332156409002909 0 -0.5 -0.38662540363144121 0 -0.48817838912021821 -0.4022119694541284 0 -0.47568202340906118 -0.39039593841591919 0 -0.5 -0.41591957503128979 0 -0.5 -0.38662540363144121 0 -0.48817838912021821 -0.4022119694541284 0 -0.47703153307181151 -0.41590696073786332 0 -0.48817838912021821 -0.4022119694541284 0 -0.47568202340906118 -0.39039593841591919 0 -0.47703153307181151 -0.41590696073786332 0 -0.47568202340906118 -0.39039593841591919 0 -0.45660247167353862 -0.40747031274180939 0 -0.47568202340906118 -0.39039593841591919 0 -0.48030931097003587 -0.37191064435083931 0 -0.46669490250066459 -0.37481721741951951 0 -0.47568202340906118 -0.39039593841591919 0 -0.4947615751445838 -0.37332156409002909 0 -0.48030931097003587 -0.37191064435083931 0 -0.45332061783919553 -0.38729481725706361 0 -0.46669490250066459 -0.37481721741951951 0 -0.45095991715087752 -0.36968037302039969 0 -0.47568202340906118 -0.39039593841591919 0 -0.45332061783919553 -0.38729481725706361 0 -0.46669490250066459 -0.37481721741951951 0 -0.47568202340906118 -0.39039593841591919 0 -0.45660247167353862 -0.40747031274180939 0 -0.47568202340906118 -0.39039593841591919 0 -0.45332061783919553 -0.38729481725706361 0 -0.45660247167353862 -0.40747031274180939 0 -0.44332653075004852 -0.401690115615219 0 -0.44646247228389868 -0.41654464256061052 0 -0.42870657106664078 -0.39987574649354879 0 -0.45332061783919553 -0.38729481725706361 0 -0.44332653075004852 -0.401690115615219 0 -0.43479631603355468 -0.39077639303142497 0 -0.45332061783919553 -0.38729481725706361 0 -0.44332653075004852 -0.401690115615219 0 -0.45660247167353862 -0.40747031274180939 0 -0.45332061783919553 -0.38729481725706361 0 -0.43421362475025049 -0.37527491429266319 0 -0.43479631603355468 -0.39077639303142497 0 -0.45332061783919553 -0.38729481725706361 0 -0.43421362475025049 -0.37527491429266319 0 -0.45095991715087752 -0.36968037302039969 0 -0.47114575579794699 -0.4403844242888923 0 -0.45663439814062529 -0.42533932462455271 0 -0.4422915115958943 -0.43555510214664611 0 -0.47114575579794699 -0.4403844242888923 0 -0.47703153307181151 -0.41590696073786332 0 -0.45663439814062529 -0.42533932462455271 0 -0.45663439814062529 -0.42533932462455271 0 -0.45660247167353862 -0.40747031274180939 0 -0.44646247228389868 -0.41654464256061052 0 -0.47703153307181151 -0.41590696073786332 0 -0.45663439814062529 -0.42533932462455271 0 -0.45660247167353862 -0.40747031274180939 0 -0.44332653075004852 -0.401690115615219 0 -0.45660247167353862 -0.40747031274180939 0 -0.44646247228389868 -0.41654464256061052 0 -0.45660247167353862 -0.40747031274180939 0 -0.44646247228389868 -0.41654464256061052 0 -0.44646247228389868 -0.41654464256061052 0 -0.4375229199380159 -0.42454468706769971 0 -0.45663439814062529 -0.42533932462455271 0 -0.4375229199380159 -0.42454468706769971 0 -0.4422915115958943 -0.43555510214664611 0 -0.45663439814062529 -0.42533932462455271 0 -0.44646247228389868 -0.41654464256061052 0 -0.4375229199380159 -0.42454468706769971 0 -0.4375229199380159 -0.42454468706769971 0 -0.4422915115958943 -0.43555510214664611 0 -0.43077617074680319 -0.43406335077952207 0 -0.43077617074680319 -0.43406335077952207 0 -0.42550232634077589 -0.42345940056268039 0 -0.41950844772475421 -0.43888456563633732 0 -0.4375229199380159 -0.42454468706769971 0 -0.43077617074680319 -0.43406335077952207 0 -0.42550232634077589 -0.42345940056268039 0 -0.44646247228389868 -0.41654464256061052 0 -0.41657232816672918 -0.41306671883907142 0 -0.42870657106664078 -0.39987574649354879 0 -0.44646247228389868 -0.41654464256061052 0 -0.4375229199380159 -0.42454468706769971 0 -0.42550232634077589 -0.42345940056268039 0 -0.44646247228389868 -0.41654464256061052 0 -0.42550232634077589 -0.42345940056268039 0 -0.41657232816672918 -0.41306671883907142 0 -0.44646247228389868 -0.41654464256061052 0 -0.41657232816672918 -0.41306671883907142 0 -0.42550232634077589 -0.42345940056268039 0 -0.41657232816672918 -0.41306671883907142 0 -0.41333489101611293 -0.42699700567040988 0 -0.41657232816672918 -0.41306671883907142 0 -0.41333489101611293 -0.42699700567040988 0 -0.39893236021425188 -0.42931692235905211 0 -0.41333489101611293 -0.42699700567040988 0 -0.39893236021425188 -0.42931692235905211 0 -0.41950844772475421 -0.43888456563633732 0 -0.42550232634077589 -0.42345940056268039 0 -0.41333489101611293 -0.42699700567040988 0 -0.41950844772475421 -0.43888456563633732 0 -0.43421362475025049 -0.37527491429266319 0 -0.42478231784314502 -0.38643128255249681 0 -0.41656514696884139 -0.37636588688318029 0 -0.43421362475025049 -0.37527491429266319 0 -0.42478231784314502 -0.38643128255249681 0 -0.43479631603355468 -0.39077639303142497 0 -0.42478231784314502 -0.38643128255249681 0 -0.43479631603355468 -0.39077639303142497 0 -0.42870657106664078 -0.39987574649354879 0 -0.44332653075004852 -0.401690115615219 0 -0.43479631603355468 -0.39077639303142497 0 -0.42870657106664078 -0.39987574649354879 0 -0.41657232816672918 -0.41306671883907142 0 -0.40962993039643741 -0.3898634720616666 0 -0.3946356370269814 -0.39577424904278191 0 -0.42478231784314502 -0.38643128255249681 0 -0.42870657106664078 -0.39987574649354879 0 -0.40962993039643741 -0.3898634720616666 0 -0.41657232816672918 -0.41306671883907142 0 -0.42870657106664078 -0.39987574649354879 0 -0.40962993039643741 -0.3898634720616666 0 -0.42478231784314502 -0.38643128255249681 0 -0.40962993039643741 -0.3898634720616666 0 -0.41656514696884139 -0.37636588688318029 0 -0.40962993039643741 -0.3898634720616666 0 -0.41656514696884139 -0.37636588688318029 0 -0.40465459864295228 -0.37650109000307358 0 -0.39431275766669582 -0.38061373190328529 0 -0.40465459864295228 -0.37650109000307358 0 -0.3968495855878465 -0.36923685638487008 0 -0.40962993039643741 -0.3898634720616666 0 -0.39431275766669582 -0.38061373190328529 0 -0.40465459864295228 -0.376501090003
[...]
<PointData Scalars="" Vectors="displacement," Tensors="">
<DataArray type="Float64" Name="displacement" NumberOfComponents="3" format="ascii">
-0.034077546549750218 -0.034999419944050536 0 -0.03499815785598507 -0.034999859720591574 0 -0.035276412359991287 -0.033844366811424657 0 -0.03499815785598507 -0.034999859720591574 0 -0.035276412359991287 -0.033844366811424657 0 -0.035000524831297654 -0.032381855227504433 0 -0.034075827915676073 -0.034997591633450925 0 -0.034517644655474015 -0.03366506844372831 0 -0.034071577303149157 -0.034998515604052392 0 -0.033360952113899729 -0.03387450717948215 0 -0.033533106588036439 -0.03341217066942475 0 -0.034071577303149157 -0.034998515604052392 0 -0.033360952113899729 -0.03387450717948215 0 -0.032619992355032768 -0.034998807433348225 0 -0.033360952113899729 -0.03387450717948215 0 -0.033772848350912842 -0.032776783206823118 0 -0.033239237637387807 -0.032743093891388374 0 -0.033360952113899729 -0.03387450717948215 0 -0.033533106588036439 -0.03341217066942475 0 -0.033772848350912842 -0.032776783206823118 0 -0.034517644655474015 -0.03366506844372831 0 -0.034998455032975426 -0.032383318204554798 0 -0.033533106588036439 -0.03341217066942475 0 -0.034995237029438304 -0.032380137889567416 0 -0.033772848350912842 -0.032776783206823118 0 -0.034995237029438304 -0.032380137889567416 0 -0.033772848350912842 -0.032776783206823118 0 -0.034135896874233615 -0.031924796525715345 0 -0.033772848350912842 -0.032776783206823118 0 -0.034135896874233615 -0.031924796525715345 0 -0.033239237637387807 -0.032743093891388374 0 -0.033562548683422767 -0.031877228129991643 0 -0.034135896874233615 -0.031924796525715345 0 -0.033239237637387807 -0.032743093891388374 0 -0.033562548683422767 -0.031877228129991643 0 -0.034135896874233615 -0.031924796525715345 0 -0.034162008344999981 -0.031044995675475227 0 -0.034135896874233615 -0.031924796525715345 0 -0.034999326717103173 -0.030294469530817734 0 -0.034162008344999981 -0.031044995675475227 0 -0.034995237029438304 -0.032380137889567416 0 -0.034135896874233615 -0.031924796525715345 0 -0.034999326717103173 -0.030294469530817734 0 -0.032948757852358047 -0.032235399540014024 0 -0.03174813804889659 -0.03273383906770265 0 -0.032448923745074326 -0.032040114462853979 0 -0.033562548683422767 -0.031877228129991643 0 -0.032948757852358047 -0.032235399540014024 0 -0.033239237637387807 -0.032743093891388374 0 -0.033562548683422767 -0.031877228129991643 0 -0.032948757852358047 -0.032235399540014024 0 -0.033165582131634522 -0.031515347109422276 0 -0.032948757852358047 -0.032235399540014024 0 -0.033239237637387807 -0.032743093891388374 0 -0.033044716956421631 -0.033091535302429947 0 -0.032948757852358047 -0.032235399540014024 0 -0.033044716956421631 -0.033091535302429947 0 -0.03174813804889659 -0.03273383906770265 0 -0.031431661328800209 -0.034141603236688509 0 -0.03151556959809082 -0.03383322848603814 0 -0.033239237637387807 -0.032743093891388374 0 -0.033044716956421631 -0.033091535302429947 0 -0.032655147019233312 -0.034070078003941198 0 -0.033360952113899729 -0.03387450717948215 0 -0.033239237637387807 -0.032743093891388374 0 -0.032655147019233312 -0.034070078003941198 0 -0.033360952113899729 -0.03387450717948215 0 -0.032655147019233312 -0.034070078003941198 0 -0.032619992355032768 -0.034998807433348225 0 -0.032655147019233312 -0.034070078003941198 0 -0.032619992355032768 -0.034998807433348225 0 -0.03116946762715701 -0.034998841212860787 0 -0.031431661328800209 -0.034141603236688509 0 -0.03116543162480935 -0.034998667987729569 0 -0.030191224331123059 -0.03518645801904053 0 -0.031162919185432663 -0.034999762735338925 0 -0.030100043596599447 -0.035242334240828704 0 -0.033044716956421631 -0.033091535302429947 0 -0.032655147019233312 -0.034070078003941198 0 -0.03116946762715701 -0.034998841212860787 0 -0.031162919185432663 -0.034999762735338925 0 -0.030100043596599447 -0.035242334240828704 0 -0.029115763542778353 -0.034999311828423162 0 -0.030100043596599447 -0.035242334240828704 0 -0.029115763542778353 -0.034999311828423162 0 -0.029963489674066771 -0.035242678486429042 0 -0.029115763542778353 -0.034999311828423162 0 -0.029963489674066771 -0.035242678486429042 0 -0.028663415730466171 -0.035239425493803551 0 -0.030191224331123059 -0.03518645801904053 0 -0.030100043596599447 -0.035242334240828704 0 -0.029963489674066771 -0.035242678486429042 0 -0.02706504005983711 -0.034999468476624454 0 -0.028368012291881878 -0.035660170782366954 0 -0.026304234211413809 -0.035288098518066149 0 -0.028293206677736511 -0.035046109207307448 0 -0.027714563451477357 -0.034866130106773044 0 -0.02706504005983711 -0.034999468476624454 0 -0.028663415730466171 -0.035239425493803551 0 -0.028368012291881878 -0.035660170782366954 0 -0.029115763542778353 -0.034999311828423162 0 -0.02706504005983711 -0.034999468476624454 0 -0.028663415730466171 -0.035239425493803551 0 -0.029963489674066771 -0.035242678486429042 0 -0.028663415730466171 -0.035239425493803551 0 -0.028368012291881878 -0.035660170782366954 0 -0.029963489674066771 -0.035242678486429042 0 -0.028368012291881878 -0.035660170782366954 0 -0.030427793234915495 -0.034853523301202061 0 -0.027628322821076381 -0.036457716236280156 0 -0.026497855250180048 -0.036127567540358646 0 -0.026971412067380664 -0.036771542345652275 0 -0.027628322821076381 -0.036457716236280156 0 -0.026304234211413809 -0.035288098518066149 0 -0.026497855250180048 -0.036127567540358646 0 -0.027640711164350861 -0.037185038704233266 0 -0.026971412067380664 -0.036771542345652275 0 -0.027186400599195453 -0.037176329586330478 0 -0.027628322821076381 -0.036457716236280156 0 -0.027640711164350861 -0.037185038704233266 0 -0.026971412067380664 -0.036771542345652275 0 -0.028293206677736511 -0.035046109207307448 0 -0.02928937916534919 -0.034942643246803615 0 -0.027628322821076381 -0.036457716236280156 0 -0.027640711164350861 -0.037185038704233266 0 -0.027900305573034891 -0.037176633863123303 0 -0.02782784553184324 -0.037282683018917108 0 -0.027679287326334245 -0.037336406068900346 0 -0.027808704962487375 -0.03711722017621763 0 -0.027640711164350861 -0.037185038704233266 0 -0.02782784553184324 -0.037282683018917108 0 -0.027970345774240988 -0.037262954184336429 0 -0.027640711164350861 -0.037185038704233266 0 -0.02782784553184324 -0.037282683018917108 0 -0.027900305573034891 -0.037176633863123303 0 -0.027640711164350861 -0.037185038704233266 0 -0.0280076917996975 -0.037360480060970931 0 -0.027970345774240988 -0.037262954184336429 0 -0.027640711164350861 -0.037185038704233266 0 -0.0280076917996975 -0.037360480060970931 0 -0.027186400599195453 -0.037176329586330478 0 -0.030191224331123059 -0.03518645801904053 0 -0.030997033817702843 -0.034243058694550549 0 -0.03174813804889659 -0.03273383906770265 0 -0.030191224331123059 -0.03518645801904053 0 -0.029963489674066771 -0.035242678486429042 0 -0.030997033817702843 -0.034243058694550549 0 -0.030997033817702843 -0.034243058694550549 0 -0.030427793234915495 -0.034853523301202061 0 -0.031274660699934412 -0.033827082909076406 0 -0.029963489674066771 -0.035242678486429042 0 -0.030997033817702843 -0.034243058694550549 0 -0.030427793234915495 -0.034853523301202061 0 -0.02782784553184324 -0.037282683018917108 0 -0.027900305573034891 -0.037176633863123303 0 -0.027679287326334245 -0.037336406068900346 0 -0.02928937916534919 -0.034942643246803615 0 -0.029949150872995906 -0.034765241817997353 0 -0.029949150872995906 -0.034765241817997353 0 -0.02995946766985158 -0.034563607234746524 0 -0.030997033817702843 -0.034243058694550549 0 -0.031814161965384752 -0.032738877897415641 0 -0.03174813804889659 -0.03273383906770265 0 -0.030997033817702843 -0.034243058694550549 0 -0.031274660699934412 -0.033827082909076406 0 -0.031814161965384752 -0.032738877897415641 0 -0.031814161965384752 -0.032738877897415641 0 -0.03174813804889659 -0.03273383906770265 0 -0.031933981532581771 -0.032240186268036673 0 -0.031933981532581771 -0.032240186268036673 0 -0.03193886501367673 -0.032091528250110725 0 -0.032101844938274157 -0.031768041147298545 0 -0.031814161965384752 -0.032738877897415641 0 -0.031933981532581771 -0.032240186268036673 0 -0.03193886501367673 -0.032091528250110725 0 -0.027679287326334245 -0.037336406068900346 0 -0.027228063815503301 -0.036673818497537591 0 -0.027808704962487375 -0.03711722017621763 0 -0.032242110782174607 -0.033118367460682599 0 -0.031814161965384752 -0.032738877897415641 0 -0.03193886501367673 -0.032091528250110725 0 -0.032242110782174607 -0.033118367460682599 0 -0.03193886501367673 -0.032091528250110725 0 -0.032146366010115036 -0.031699534199096727 0 -0.029949150872995906 -0.034765241817997353 0 -0.029708584530875524 -0.034100037631482678 0 -0.03193886501367673 -0.032091528250110725 0 -0.032146366010115036 -0.031699534199096727 0 -0.031921754285813168 -0.031693778545514736 0 -0.032146366010115036 -0.031699534199096727 0 -0.031921754285813168 -0.031693778545514736 0 -0.031737851189652916 -0.031430884855438518 0 -0.031921754285813168 -0.031693778545514736 0 -0.031737851189652916 -0.031430884855438518 0 -0.032101844938274157 -0.031768041147298545 0 -0.03193886501367673 -0.032091528250110725 0 -0.031921754285813168 -0.031693778545514736 0 -0.032101844938274157 -0.031768041147298545 0 -0.0280076917996975 -0.037360480060970931 0 -0.02827060913389659 -0.037082805890003262 0 -0.028789281392866892 -0.036990203133529902 0 -0.0280076917996975 -0.037360480060970931 0 -0.02827060913389659 -0.037082805890003262 0 -0.027970345774240988 -0.037262954184336429 0 -0.02827060913389659 -0.037082805890003262 0 -0.027970345774240988 -0.037262954184336429 0 -0.027808704962487375 -0.03711722017621763 0 -0.02782784553184324 -0.037282683018917108 0 -0.027970345774240988 -0.037262954184336429 0 -0.027808704962487375 -0.03711722017621763 0 -0.027228063815503301 -0.036673818497537591 0 -0.02847589723090739 -0.036280619484293168 0 -0.028381456665350697 -0.034848129676117952 0 -0.02827060913389659 -0.037082805890003262 0 -0.027808704962487375 -0.03711722017621763 0 -0.02847589723090739 -0.036280619484293168 0 -0.027228063815503301 -0.036673818497537591 0 -0.027808704962487375 -0.03711722017621763 0 -0.02847589723090739 -0.036280619484293168 0 -0.02827060913389659 -0.037082805890003262 0 -0.02847589723090739 -0.036280619484293168 0 -0.028789281392866892 -0.036990203133529902 0 -0.02847589723090739 -0.036280619484293168 0 -0.028789281392866892 -0.036990203133529902 0 -0.029373556539347406 -0.036058353357877632 0 -0.029476674230725409 -0.034907247343133357 0 -0.029373556539347406 -0.036058353357877632 0 -0.030402737279932732 -0.03527700980878213 0 -0.02847589723090739 -0.036280619484293168 0 -0.029476674230725409 -0.034907247343133357 0 -0.029373556539347406 -0.036058353357877632 0 -0.02847589723090739 -0.036280619484293168 0 -0.029476674230725409 -0.034907247343133357 0 -0.028381456665350697 -0.034848129676117952 0 -0.028381456665350697 -0.034848129676117952 0 -0.027355471467279222 -0.033983454782124098 0 -0.028885053374902485 -0.032655442122280713 0 -0.028381456665350697 -0.034848129676117952 0 -0.029987939899103769 -0.032660399819909328 0 -0.028885053374902485 -0.032655442122280713 0 -0.029476674230725409 -0.034907247343133357 0 -0.028381456665350697 -0.034848129676117952 0 -0.029987939899103769 -0.032660399819909328 0 -0.029476674230725409 -0.034907247343133357 0 -0.029987939899103769 -0.032660399819909328 0 -0.030753446227835751 -0.033881539703553551 0 -0.032146366010115036 -0.031699534199096727 0 -0.031737851189652916 -0.031430884855438518 0 -0.031282412789487249 -0.031269243510987761 0 -0.027228063815503301 -0.036673818497537591 0 -0.028381456665350697 -0.034848129676117952 0 -0.027355471467279222 -0.033983454782124098 0 -0.029708584530875524 -0.034100037631482678 0 -0.029538092410089006 -0.03322367670428529 0 -0.031282412789487249 -0.031269243510987761 0 -0.03137007540322162 -0.031392491052378936 0 -0.030560708910180843 -0.031438805811155129 0 -0.03137007540322162 -0.031392491052378936 0 -0.03196229613396321 -0.031517546485494555 0 -0.031292650182399927 -0.031568522553938529 0 -0.031737851189652916 -0.031430884855438518 0 -0.03137007540322162 -0.031392491052378936 0 -0.03196229613396321 -0.031517546485494555 0 -0.031737851189652916 -0.031430884855438518 0 -0.031282412789487249 -0.031269243510987761 0 -0.03137007540322162 -0.031392491052378936 0 -0.03196229613396321 -0.031517546485494555 0 -0.032381290949200697 -0.031428303704522646 0 -0.032795259625784952 -0.031526887622592273 0 -0.031737851189652916 -0.031430884855438518 0 -0.03196229613396321 -0.031517546485494555 0 -0.032381290949200697 -0.031428303704522646 0 -0.032381290949200697 -0.031428303704522646 0 -0.032795259625784952 -0.031526887622592273 0 -0.033238281821333607 -0.031181085948889176 0 -0.03196229613396321 -0.031517546485494555 0 -0.032795259625784952 -0.031526887622592273 0 -0.032568690327107644 -0.031862938004383522 0 -0.032795259625784952 -0.031526887622592273 0 -0.033403961627335353 -0.031830095539891405 0 -0.032568690327107644 -0.031862938004383522 0 -0.033403961627335353 -0.031830095539891405 0 -0.034317704381841695 -0.031517680952483716 0 -0.033490134862683804 -0.031390100370567629 0 -0.032795259625784952 -0.031526887622592273 0 -0.033403961627335353 -0.031830095539891405 0 -0.033490134862683804 -0.031390100370567629 0 -0.034683137274505366 -0.028493588975746043 0 -0.034498940033018961 -0.026772999297384265 0 -0.035536330746020597 -0.027397377267548748 0 -0.034998918293441164 -0.028206254713680014 0 -0.035000629331948543 -0.026114693648785811 0 -0.035536330746020597 -0.027397377267548748 0 -0.03539378817546928 -0.025941394310564619 0 -0.035000629331948543 -0.026114693648785811 0 -0.033403961627335353 -0.031830095539891405 0 -0.034317704381841695 -0.031517680952483716 0 -0.034109356334096591 -0.032214485285864611 0 -0.034683137274505366 -0.028493588975746043 0 -0.034730261592953025 -0.02883382732410188 0 -0.034317704381841695 -0.031517680952483716 0 -0.033490134862683804 -0.031390100370567629 0 -0.033872806704105557 -0.030834135053608731 0 -0.035536330746020597 -0.027397377267548748 0 -0.034998918293441164 -0.028206254713680014 0 -0.03491475328046894 -0.029661120415693843 0 -0.034317704381841695 -0.031517680952483716 0 -0.033872806704105557 -0.030834135053608731 0 -0.03491475328046894 -0.029661120415693843 0 -0.032795259625784952 -0.031526887622592273 0 -0.033490134862683804 -0.031390100370567629 0 -0.033238281821333607 -0.031181085948889176 0 -0.033490134862683804 -0.031390100370567629 0 -0.033872806704105557 -0.030834135053608731 0 -0.033238281821333607 -0.031181085948889176 0 -0.033238281821333607 -0.031181085948889176 0 -0.033738377643506824 -0.030742158175342999 0 -0.03296145683461827 -0.031255254995292275 0 -0.033872806704105557 -0.030834135053608731 0 -0.033738377643506824 -0.030742158175342999 0 -0.03491475328046894 -0.029661120415693843 0 -0.033872806704105557 -0.030834135053608731 0 -0.033238281821333607 -0.031181085948889176 0 -0.033738377643506824 -0.030742158175342999 0 -0.033738377643506824 -0.030742158175342999 0 -0.03491475328046894 -0.029661120415693843 0 -0.034513213931283419 -0.030410250888232526 0 -0.034998918293441164 -0.028206254713680014 0 -0.03491475328046894 -0.029661120415693843 0 -0.034999326717103173 -0.030294469530817734 0 -0.03491475328046894 -0.029661120415693843 0 -0.034513213931283419 -0.030410250888232526 0 -0.034999326717103173 -0.030294469530817734 0 -0.034513213931283419 -0.030410250888232526 0 -0.034999326717103173 -0.030294469530817734 0 -0.034162008344999981 -0.031044995675475227 0 -0.033562548683422767 -0.031877228129991643 0 -0.034162008344999981 -0.031044995675475227 0 -0.033165582131634522 -0.031515347109422276 0 -0.033738377643506824 -0.030742158175342999 0 -0.034162008344999981 -0.031044995675475227 0 -0.033165582131634522 -0.031515347109422276 0 -0.033738377643506824 -0.030742158175342999 0 -0.034513213931283419 -0.030410250888232526 0 -0.034162008344999981 -0.031044995675475227 0 -0.032948757852358047 -0.032235399540014024 0 -0.033165582131634522 -0.031515347109422276 0 -0.032448923745074326 -0.032040114462853979 0 -0.033165582131634522 -0.031515347109422276 0 -0.032563142989550625 -0.031587315352583599 0 -0.03296145683461827 -0.031255254995292275 0 -0.033165582131634522 -0.031515347109422276 0 -0.032448923745074326 -0.032040114462853979 0 -0.032563142989550625 -0.031587315352583599 0 -0.03174813804889659 -0.03273383906770265 0 -0.031933981532581771 -0.032240186268036673 0 -0.032448923745074326 -0.032040114462853979 0 -0.031933981532581771 -0.032240186268036673 0 -0.032448923745074326 -0.032040114462853979 0 -0.032101844938274157 -0.031768041147298545 0 -0.032448923745074326 -0.032040114462853979 0 -0.032563142989550625 -0.031587315352583599 0 -0.032101844938274157 -0.031768041147298545 0 -0.031737851189652916 -0.031430884855438518 0 -0.032381290949200697 -0.031428303704522646 0 -0.032101844938274157 -0.031768041147298545 0 -0.032381290949200697 -0.031428303704522646 0 -0.032563142989550625 -0.031587315352583599 0 -0.032101844938274157 -0.031768041147298545 0 -0.032381290949200697 -0.031428303704522646 0 -0.032563142989550625 -0.031587315352583599 0 -0.03296145683461827 -0.031255254995292275 0 -0.032381290949200697 -0.031428303704522646 0 -0.033238281821333607 -0.031181085948889176 0 -0.03296145683461827 -0.031255254995292275 0 -0.033738377643506824 -0.030742158175342999 0 -0.033165582131634522 -0.031515347109422276 0 -0.03296145683461827 -0.031255254995292275 0 -0.01785205324033361 -0.03859041098783364 0 -0.018230396738921392 -0.040134209626564013 0 -0.017120363058183333 -0.039672061317334431 0 -0.01785205324033361 -0.03859041098783364 0 -0.019220122015067415 -0.03953531476325934 0 -0.018230396738921392 -0.040134209626564013 0 -0.01785205324033361 -0.03859041098783364 0 -0.017120363058183333 -0.039672061317334431 0 -0.017099157565248258 -0.038516185627889055 0 -0.01785205324033361 -0.03859041098783364 0 -0.019220122015067415 -0.03953531476325934 0 -0.01901470507321994 -0.037661274306495039 0 -0.019220122015067415 -0.03953531476325934 0 -0.01901470507321994 -0.037661274306495039 0 -0.02064567282430246 -0.038741839701128898 0 -0.01901470507321994 -0.037661274306495039 0 -0.017774259842394544 -0.036264447122187113 0 -0.017195405621962159 -0.037632609525416867 0 -0.01785205324033361 -0.03859041098783364 0 -0.01901470507321994 -0.037661274306495039 0 -0.017195405621962159 -0.037632609525416867 0 -0.01785205324033361 -0.03859041098783364 0 -0.017195405621962159 -0.037632609525416867 0 -0.017099157565248258 -0.038516185627889055 0 -0.017774259842394544 -0.036264447122187113 0 -0.018861516353639914 -0.035000012540238212 0 -0.016810061092633454 -0.034999557824043882 0 -0.017774259842394544 -0.036264447122187113 0 -0.018861516353639914 -0.035000012540238212 0 -0.019679533835743723 -0.036156378519636198 0 -0.01901470507321994 -0.037661274306495039 0 -0.017774259842394544 -0.036264447122187113 0 -0.019679533835743723 -0.036156378519636198 0 -0.01901470507321994 -0.037661274306495039 0 -0.019679533835743723 -0.036156378519636198 0 -0.021034016601531088 -0.037032436827525737 0 -0.019679533835743723 -0.036156378519636198 0 -0.020912129494266626 -0.034999805388534602 0 -0.021034016601531088 -0.037032436827525737 0 -0.018861516353639914 -0.035000012540238212 0 -0.019679533835743723 -0.036156378519636198 0 -0.020912129494266626 -0.034999805388534602 0 -0.020912129494266626 -0.034999805388534602 0 -0.021034016601531088 -0.037032436827525737 0 -0.022933085854271135 -0.036399862580652212 0 -0.021034016601531088 -0.037032436827525737 0 -0.02064567282430246 -0.038741839701128898 0 -0.023078633057748835 -0.038474515911780062 0 -0.01901470507321994 -0.037661274306495039 0 -0.021034016601531088 -0.037032436827525737 0 -0.02064567282430246 -0.038741839701128898 0 -0.019220122015067415 -0.03953531476325934 0 -0.02064567282430246 -0.038741839701128898 0 -0.020439941613313296 -0.039947647207946212 0 -0.02064567282430246 -0.038741839701128898 0 -0.023078633057748835 -0.038474515911780062 0 -0.021634040900446475 