<?xml version="1.0"?>
<VTKFile type="UnstructuredGrid" version="0.1" byte_order="LittleEndian">
<UnstructuredGrid>
<Piece NumberOfPoints="30881" NumberOfCells="10862">
<Points>
<DataArray type="Float64" NumberOfComponents="3" format="ascii">
-0.49999999999999828 -0.48677703703187492 0 -0.5 -0.5 0 -0.48129281494584059 -0.49338851851593718 0 -0.5 -0.5 0 -0.48129281494584059 -0.49338851851593718 0 -0.46258562989168328 -0.5 0 -0.49999999999999828 -0.48677703703187492 0 -0.48129281494584059 -0.49338851851593718 0 -0.49999999999999828 -0.48677703703187492 0 -0.4824545428279598 -0.47451624516148783 0 -0.48129281494584059 -0.49338851851593718 0 -0.49999999999999828 -0.48677703703187492 0 -0.4824545428279598 -0.47451624516148783 0 -0.5 -0.46599539173150673 0 -0.4824545428279598 -0.47451624516148783 0 -0.46853075243710779 -0.48354990242643758 0 -0.46411508256092049 -0.46598235294430129 0 -0.4824545428279598 -0.47451624516148783 0 -0.48129281494584059 -0.49338851851593718 0 -0.46853075243710779 -0.48354990242643758 0 -0.48129281494584059 -0.49338851851593718 0 -0.46258562989168328 -0.5 0 -0.48129281494584059 -0.49338851851593718 0 -0.46258562989168328 -0.5 0 -0.46853075243710779 -0.48354990242643758 0 -0.46258562989168328 -0.5 0 -0.46853075243710779 -0.48354990242643758 0 -0.45147378687733691 -0.48362213557840178 0 -0.46853075243710779 -0.48354990242643758 0 -0.45147378687733691 -0.48362213557840178 0 -0.46411508256092049 -0.46598235294430129 0 -0.4457251648104853 -0.47020164095208389 0 -0.45147378687733691 -0.48362213557840178 0 -0.46411508256092049 -0.46598235294430129 0 -0.4457251648104853 -0.47020164095208389 0 -0.45147378687733691 -0.48362213557840178 0 -0.43513446131126993 -0.48199891714758791 0 -0.45147378687733691 -0.48362213557840178 0 -0.43275163025255442 -0.5 0 -0.43513446131126993 -0.48199891714758791 0 -0.46258562989168328 -0.5 0 -0.45147378687733691 -0.48362213557840178 0 -0.43275163025255442 -0.5 0 -0.4467190029717853 -0.45478934699519452 0 -0.4422915115958943 -0.43555510214664611 0 -0.43246707723660932 -0.44794326854796312 0 -0.4457251648104853 -0.47020164095208389 0 -0.4467190029717853 -0.45478934699519452 0 -0.46411508256092049 -0.46598235294430129 0 -0.4457251648104853 -0.47020164095208389 0 -0.4467190029717853 -0.45478934699519452 0 -0.43016578207734568 -0.46313500011938619 0 -0.4467190029717853 -0.45478934699519452 0 -0.46411508256092049 -0.46598235294430129 0 -0.47114575579794699 -0.4403844242888923 0 -0.4467190029717853 -0.45478934699519452 0 -0.47114575579794699 -0.4403844242888923 0 -0.4422915115958943 -0.43555510214664611 0 -0.47114575579794699 -0.4403844242888923 0 -0.4422915115958943 -0.43555510214664611 0 -0.46411508256092049 -0.46598235294430129 0 -0.47114575579794699 -0.4403844242888923 0 -0.48354307623736548 -0.45841843211146538 0 -0.4824545428279598 -0.47451624516148783 0 -0.46411508256092049 -0.46598235294430129 0 -0.48354307623736548 -0.45841843211146538 0 -0.4824545428279598 -0.47451624516148783 0 -0.48354307623736548 -0.45841843211146538 0 -0.5 -0.46599539173150673 0 -0.48354307623736548 -0.45841843211146538 0 -0.5 -0.46599539173150673 0 -0.49999999999999972 -0.44521374643113848 0 -0.47114575579794699 -0.4403844242888923 0 -0.49999999999999972 -0.44521374643113848 0 -0.47114575579794699 -0.4403844242888923 0 -0.49999999999999972 -0.44521374643113848 0 -0.48704432221743971 -0.42935617662229603 0 -0.47114575579794699 -0.4403844242888923 0 -0.48354307623736548 -0.45841843211146538 0 -0.49999999999999972 -0.44521374643113848 0 -0.49999999999999972 -0.44521374643113848 0 -0.48704432221743971 -0.42935617662229603 0 -0.5 -0.41591957503128979 0 -0.48704432221743971 -0.42935617662229603 0 -0.5 -0.41591957503128979 0 -0.47703153307181151 -0.41590696073786332 0 -0.5 -0.41591957503128979 0 -0.47703153307181151 -0.41590696073786332 0 -0.48817838912021821 -0.4022119694541284 0 -0.47114575579794699 -0.4403844242888923 0 -0.48704432221743971 -0.42935617662229603 0 -0.47703153307181151 -0.41590696073786332 0 -0.5 -0.38662540363144121 0 -0.47568202340906118 -0.39039593841591919 0 -0.4947615751445838 -0.37332156409002909 0 -0.47568202340906118 -0.39039593841591919 0 -0.4947615751445838 -0.37332156409002909 0 -0.5 -0.38662540363144121 0 -0.48817838912021821 -0.4022119694541284 0 -0.47568202340906118 -0.39039593841591919 0 -0.5 -0.41591957503128979 0 -0.5 -0.38662540363144121 0 -0.48817838912021821 -0.4022119694541284 0 -0.47703153307181151 -0.41590696073786332 0 -0.48817838912021821 -0.4022119694541284 0 -0.47568202340906118 -0.39039593841591919 0 -0.47703153307181151 -0.41590696073786332 0 -0.47568202340906118 -0.39039593841591919 0 -0.45660247167353862 -0.40747031274180939 0 -0.47568202340906118 -0.39039593841591919 0 -0.48030931097003587 -0.37191064435083931 0 -0.46669490250066459 -0.37481721741951951 0 -0.47568202340906118 -0.39039593841591919 0 -0.4947615751445838 -0.37332156409002909 0 -0.48030931097003587 -0.37191064435083931 0 -0.45332061783919553 -0.38729481725706361 0 -0.46669490250066459 -0.37481721741951951 0 -0.45095991715087752 -0.36968037302039969 0 -0.47568202340906118 -0.39039593841591919 0 -0.45332061783919553 -0.38729481725706361 0 -0.46669490250066459 -0.37481721741951951 0 -0.47568202340906118 -0.39039593841591919 0 -0.45660247167353862 -0.40747031274180939 0 -0.47568202340906118 -0.39039593841591919 0 -0.45332061783919553 -0.38729481725706361 0 -0.45660247167353862 -0.40747031274180939 0 -0.44332653075004852 -0.401690115615219 0 -0.44646247228389868 -0.41654464256061052 0 -0.42870657106664078 -0.39987574649354879 0 -0.45332061783919553 -0.38729481725706361 0 -0.44332653075004852 -0.401690115615219 0 -0.43479631603355468 -0.39077639303142497 0 -0.45332061783919553 -0.38729481725706361 0 -0.44332653075004852 -0.401690115615219 0 -0.45660247167353862 -0.40747031274180939 0 -0.45332061783919553 -0.38729481725706361 0 -0.43421362475025049 -0.37527491429266319 0 -0.43479631603355468 -0.39077639303142497 0 -0.45332061783919553 -0.38729481725706361 0 -0.43421362475025049 -0.37527491429266319 0 -0.45095991715087752 -0.36968037302039969 0 -0.47114575579794699 -0.4403844242888923 0 -0.45663439814062529 -0.42533932462455271 0 -0.4422915115958943 -0.43555510214664611 0 -0.47114575579794699 -0.4403844242888923 0 -0.47703153307181151 -0.41590696073786332 0 -0.45663439814062529 -0.42533932462455271 0 -0.45663439814062529 -0.42533932462455271 0 -0.45660247167353862 -0.40747031274180939 0 -0.44646247228389868 -0.41654464256061052 0 -0.47703153307181151 -0.41590696073786332 0 -0.45663439814062529 -0.42533932462455271 0 -0.45660247167353862 -0.40747031274180939 0 -0.44332653075004852 -0.401690115615219 0 -0.45660247167353862 -0.40747031274180939 0 -0.44646247228389868 -0.41654464256061052 0 -0.45660247167353862 -0.40747031274180939 0 -0.44646247228389868 -0.41654464256061052 0 -0.44646247228389868 -0.41654464256061052 0 -0.4375229199380159 -0.42454468706769971 0 -0.45663439814062529 -0.42533932462455271 0 -0.4375229199380159 -0.42454468706769971 0 -0.4422915115958943 -0.43555510214664611 0 -0.45663439814062529 -0.42533932462455271 0 -0.44646247228389868 -0.41654464256061052 0 -0.4375229199380159 -0.42454468706769971 0 -0.4375229199380159 -0.42454468706769971 0 -0.4422915115958943 -0.43555510214664611 0 -0.43077617074680319 -0.43406335077952207 0 -0.43077617074680319 -0.43406335077952207 0 -0.42550232634077589 -0.42345940056268039 0 -0.41950844772475421 -0.43888456563633732 0 -0.4375229199380159 -0.42454468706769971 0 -0.43077617074680319 -0.43406335077952207 0 -0.42550232634077589 -0.42345940056268039 0 -0.44646247228389868 -0.41654464256061052 0 -0.41657232816672918 -0.41306671883907142 0 -0.42870657106664078 -0.39987574649354879 0 -0.44646247228389868 -0.41654464256061052 0 -0.4375229199380159 -0.42454468706769971 0 -0.42550232634077589 -0.42345940056268039 0 -0.44646247228389868 -0.41654464256061052 0 -0.42550232634077589 -0.42345940056268039 0 -0.41657232816672918 -0.41306671883907142 0 -0.44646247228389868 -0.41654464256061052 0 -0.41657232816672918 -0.41306671883907142 0 -0.42550232634077589 -0.42345940056268039 0 -0.41657232816672918 -0.41306671883907142 0 -0.41333489101611293 -0.42699700567040988 0 -0.41657232816672918 -0.41306671883907142 0 -0.41333489101611293 -0.42699700567040988 0 -0.39893236021425188 -0.42931692235905211 0 -0.41333489101611293 -0.42699700567040988 0 -0.39893236021425188 -0.42931692235905211 0 -0.41950844772475421 -0.43888456563633732 0 -0.42550232634077589 -0.42345940056268039 0 -0.41333489101611293 -0.42699700567040988 0 -0.41950844772475421 -0.43888456563633732 0 -0.43421362475025049 -0.37527491429266319 0 -0.42478231784314502 -0.38643128255249681 0 -0.41656514696884139 -0.37636588688318029 0 -0.43421362475025049 -0.37527491429266319 0 -0.42478231784314502 -0.38643128255249681 0 -0.43479631603355468 -0.39077639303142497 0 -0.42478231784314502 -0.38643128255249681 0 -0.43479631603355468 -0.39077639303142497 0 -0.42870657106664078 -0.39987574649354879 0 -0.44332653075004852 -0.401690115615219 0 -0.43479631603355468 -0.39077639303142497 0 -0.42870657106664078 -0.39987574649354879 0 -0.41657232816672918 -0.41306671883907142 0 -0.40962993039643741 -0.3898634720616666 0 -0.3946356370269814 -0.39577424904278191 0 -0.42478231784314502 -0.38643128255249681 0 -0.42870657106664078 -0.39987574649354879 0 -0.40962993039643741 -0.3898634720616666 0 -0.41657232816672918 -0.41306671883907142 0 -0.42870657106664078 -0.39987574649354879 0 -0.40962993039643741 -0.3898634720616666 0 -0.42478231784314502 -0.38643128255249681 0 -0.40962993039643741 -0.3898634720616666 0 -0.41656514696884139 -0.37636588688318029 0 -0.40962993039643741 -0.3898634720616666 0 -0.41656514696884139 -0.37636588688318029 0 -0.40465459864295228 -0.37650109000307358 0 -0.39431275766669582 -0.38061373190328529 0 -0.40465459864295228 -0.37650109000307358 0 -0.3968495855878465 -0.36923685638487008 0 -0.40962993039643741 -0.3898634720616666 0 -0.39431275766669582 -0.38061373190328529 0 -0.40465459864295228 -0.376501090003
[...]
<PointData Scalars="" Vectors="displacement," Tensors="">
<DataArray type="Float64" Name="displacement" NumberOfComponents="3" format="ascii">
4.8679469741400045e-07 -0.034077437226532371 0 -3.2463338917542929e-07 -0.034998046618950396 0 1.5816051585874254e-07 -0.034972179781571036 0 -3.2463338917542929e-07 -0.034998046618950396 0 1.5816051585874254e-07 -0.034972179781571036 0 1.6105147563523403e-07 -0.035000860167234082 0 1.1114170798753429e-07 -0.034075112347262806 0 -3.665554146750503e-06 -0.034513280006717786 0 -1.3894843728345304e-07 -0.034072252195179668 0 -0.00018814517020967429 -0.033547101240872637 0 -0.0001780106938570866 -0.033886605123098129 0 -1.3894843728345304e-07 -0.034072252195179668 0 -0.00018814517020967429 -0.033547101240872637 0 -1.0269453779413497e-06 -0.032620018458484758 0 -0.00018814517020967429 -0.033547101240872637 0 -0.00011410883727144758 -0.034241931968773363 0 -0.00015853587157716804 -0.033998305793606465 0 -0.00018814517020967429 -0.033547101240872637 0 -0.0001780106938570866 -0.033886605123098129 0 -0.00011410883727144758 -0.034241931968773363 0 -3.665554146750503e-06 -0.034513280006717786 0 -1.6550864649333477e-07 -0.034999175632277744 0 -0.0001780106938570866 -0.033886605123098129 0 -1.1986591745156237e-06 -0.034997634710564697 0 -0.00011410883727144758 -0.034241931968773363 0 -1.1986591745156237e-06 -0.034997634710564697 0 -0.00011410883727144758 -0.034241931968773363 0 -0.00011368878438493497 -0.034554032195824133 0 -0.00011410883727144758 -0.034241931968773363 0 -0.00011368878438493497 -0.034554032195824133 0 -0.00015853587157716804 -0.033998305793606465 0 -0.00017711979854104034 -0.034285534166405063 0 -0.00011368878438493497 -0.034554032195824133 0 -0.00015853587157716804 -0.033998305793606465 0 -0.00017711979854104034 -0.034285534166405063 0 -0.00011368878438493497 -0.034554032195824133 0 -8.8496194188071088e-05 -0.034572686304567161 0 -0.00011368878438493497 -0.034554032195824133 0 3.0545025199650095e-07 -0.034999503884728472 0 -8.8496194188071088e-05 -0.034572686304567161 0 -1.1986591745156237e-06 -0.034997634710564697 0 -0.00011368878438493497 -0.034554032195824133 0 3.0545025199650095e-07 -0.034999503884728472 0 -0.00022167401003062289 -0.033958956050912217 0 -0.00070961907201831241 -0.03338275701783372 0 -0.00047961446705549498 -0.033833599895690403 0 -0.00017711979854104034 -0.034285534166405063 0 -0.00022167401003062289 -0.033958956050912217 0 -0.00015853587157716804 -0.033998305793606465 0 -0.00017711979854104034 -0.034285534166405063 0 -0.00022167401003062289 -0.033958956050912217 0 -0.00027922955291541357 -0.034162064989330075 0 -0.00022167401003062289 -0.033958956050912217 0 -0.00015853587157716804 -0.033998305793606465 0 0.0002606432858241634 -0.033763230926817808 0 -0.00022167401003062289 -0.033958956050912217 0 0.0002606432858241634 -0.033763230926817808 0 -0.00070961907201831241 -0.03338275701783372 0 -0.00015085044328154776 -0.031998208532770717 0 -0.00021882209574525076 -0.032541476073452133 0 -0.00015853587157716804 -0.033998305793606465 0 0.0002606432858241634 -0.033763230926817808 0 -0.00017421079008189661 -0.033039796046773331 0 -0.00018814517020967429 -0.033547101240872637 0 -0.00015853587157716804 -0.033998305793606465 0 -0.00017421079008189661 -0.033039796046773331 0 -0.00018814517020967429 -0.033547101240872637 0 -0.00017421079008189661 -0.033039796046773331 0 -1.0269453779413497e-06 -0.032620018458484758 0 -0.00017421079008189661 -0.033039796046773331 0 -1.0269453779413497e-06 -0.032620018458484758 0 1.9380496723467356e-06 -0.031168294930226416 0 -0.00015085044328154776 -0.031998208532770717 0 -3.7599616898811417e-07 -0.031165822246844964 0 -0.00082627428817387864 -0.030200030043253712 0 -2.3280353874017753e-07 -0.031161571354236219 0 -0.00033782771998884856 -0.030044094913571795 0 0.0002606432858241634 -0.033763230926817808 0 -0.00017421079008189661 -0.033039796046773331 0 1.9380496723467356e-06 -0.031168294930226416 0 -2.3280353874017753e-07 -0.031161571354236219 0 -0.00033782771998884856 -0.030044094913571795 0 -8.7354370113920045e-07 -0.029115584288584736 0 -0.00033782771998884856 -0.030044094913571795 0 -8.7354370113920045e-07 -0.029115584288584736 0 -3.289165297773929e-05 -0.029815232344474623 0 -8.7354370113920045e-07 -0.029115584288584736 0 -3.289165297773929e-05 -0.029815232344474623 0 8.1752436673503318e-05 -0.028731317890835037 0 -0.00082627428817387864 -0.030200030043253712 0 -0.00033782771998884856 -0.030044094913571795 0 -3.289165297773929e-05 -0.029815232344474623 0 1.5326038457353396e-06 -0.027063652992854438 0 0.00065560069727444966 -0.029159274475598282 0 0.00023650274821233864 -0.025981375190083197 0 -3.7501640028807329e-05 -0.027532826362047447 0 -1.8751321229361233e-05 -0.027289491100985271 0 1.5326038457353396e-06 -0.027063652992854438 0 8.1752436673503318e-05 -0.028731317890835037 0 0.00065560069727444966 -0.029159274475598282 0 -8.7354370113920045e-07 -0.029115584288584736 0 1.5326038457353396e-06 -0.027063652992854438 0 8.1752436673503318e-05 -0.028731317890835037 0 -3.289165297773929e-05 -0.029815232344474623 0 8.1752436673503318e-05 -0.028731317890835037 0 0.00065560069727444966 -0.029159274475598282 0 -3.289165297773929e-05 -0.029815232344474623 0 0.00065560069727444966 -0.029159274475598282 0 0.00063667489998779376 -0.031174833454048822 0 0.00023605931172045869 -0.023829372301992075 0 0.00012305004038774622 -0.024357110338217025 0 0.00016819364887483022 -0.023914553991088949 0 0.00023605931172045869 -0.023829372301992075 0 0.00023650274821233864 -0.025981375190083197 0 0.00012305004038774622 -0.024357110338217025 0 -0.0002059152852887182 -0.024206723358646941 0 0.00016819364887483022 -0.023914553991088949 0 0.00023645743946215444 -0.024183399671903427 0 0.00023605931172045869 -0.023829372301992075 0 -0.0002059152852887182 -0.024206723358646941 0 0.00016819364887483022 -0.023914553991088949 0 -3.7501640028807329e-05 -0.027532826362047447 0 -0.00028429807541278598 -0.028354310744019333 0 0.00023605931172045869 -0.023829372301992075 0 -0.0002059152852887182 -0.024206723358646941 0 -0.0011314072364897083 -0.024086349705734804 0 -0.001029998698900996 -0.024685588446047967 0 -0.0018313543481966823 -0.024516852063650008 0 -0.0011285125578786128 -0.025490881340575006 0 -0.0002059152852887182 -0.024206723358646941 0 -0.001029998698900996 -0.024685588446047967 0 -0.00053569206731841315 -0.025091872073007455 0 -0.0002059152852887182 -0.024206723358646941 0 -0.001029998698900996 -0.024685588446047967 0 -0.0011314072364897083 -0.024086349705734804 0 -0.0002059152852887182 -0.024206723358646941 0 0.00017418384961733036 -0.024994851028286073 0 -0.00053569206731841315 -0.025091872073007455 0 -0.0002059152852887182 -0.024206723358646941 0 0.00017418384961733036 -0.024994851028286073 0 0.00023645743946215444 -0.024183399671903427 0 -0.00082627428817387864 -0.030200030043253712 0 -0.00014320622548853683 -0.031536272632712248 0 -0.00070961907201831241 -0.03338275701783372 0 -0.00082627428817387864 -0.030200030043253712 0 -3.289165297773929e-05 -0.029815232344474623 0 -0.00014320622548853683 -0.031536272632712248 0 -0.00014320622548853683 -0.031536272632712248 0 0.00063667489998779376 -0.031174833454048822 0 0.00039366365916066034 -0.03237626514466431 0 -3.289165297773929e-05 -0.029815232344474623 0 -0.00014320622548853683 -0.031536272632712248 0 0.00063667489998779376 -0.031174833454048822 0 -0.001029998698900996 -0.024685588446047967 0 -0.0011314072364897083 -0.024086349705734804 0 -0.0018313543481966823 -0.024516852063650008 0 -0.00028429807541278598 -0.028354310744019333 0 -0.00043245524122631062 -0.028950484273916791 0 -0.00043245524122631062 -0.028950484273916791 0 -0.00073517848043746289 -0.029546174830300833 0 -0.00014320622548853683 -0.031536272632712248 0 -0.00032767311649190147 -0.033526449765183097 0 -0.00070961907201831241 -0.03338275701783372 0 -0.00014320622548853683 -0.031536272632712248 0 0.00039366365916066034 -0.03237626514466431 0 -0.00032767311649190147 -0.033526449765183097 0 -0.00032767311649190147 -0.033526449765183097 0 -0.00070961907201831241 -0.03338275701783372 0 -0.00057517570057872864 -0.033705926724745976 0 -0.00057517570057872864 -0.033705926724745976 0 -0.00054833398618582964 -0.033690016162479318 0 -0.00058201947262926941 -0.033817369136608953 0 -0.00032767311649190147 -0.033526449765183097 0 -0.00057517570057872864 -0.033705926724745976 0 -0.00054833398618582964 -0.033690016162479318 0 -0.0018313543481966823 -0.024516852063650008 0 -0.0021506882085158378 -0.026303157656483212 0 -0.0011285125578786128 -0.025490881340575006 0 -0.00023583604994920185 -0.033469086186907422 0 -0.00032767311649190147 -0.033526449765183097 0 -0.00054833398618582964 -0.033690016162479318 0 -0.00023583604994920185 -0.033469086186907422 0 -0.00054833398618582964 -0.033690016162479318 0 -0.00072840977964654823 -0.033754442618293752 0 -0.00043245524122631062 -0.028950484273916791 0 -0.0010554792004577854 -0.029989316225191163 0 -0.00054833398618582964 -0.033690016162479318 0 -0.00072840977964654823 -0.033754442618293752 0 -0.00067489834569734613 -0.033719807616725397 0 -0.00072840977964654823 -0.033754442618293752 0 -0.00067489834569734613 -0.033719807616725397 0 -0.00078800914107972299 -0.033574181017791499 0 -0.00067489834569734613 -0.033719807616725397 0 -0.00078800914107972299 -0.033574181017791499 0 -0.00058201947262926941 -0.033817369136608953 0 -0.00054833398618582964 -0.033690016162479318 0 -0.00067489834569734613 -0.033719807616725397 0 -0.00058201947262926941 -0.033817369136608953 0 0.00017418384961733036 -0.024994851028286073 0 -0.00034169605384946227 -0.025688214615944047 0 0.00025438804842952849 -0.026179125596593616 0 0.00017418384961733036 -0.024994851028286073 0 -0.00034169605384946227 -0.025688214615944047 0 -0.00053569206731841315 -0.025091872073007455 0 -0.00034169605384946227 -0.025688214615944047 0 -0.00053569206731841315 -0.025091872073007455 0 -0.0011285125578786128 -0.025490881340575006 0 -0.001029998698900996 -0.024685588446047967 0 -0.00053569206731841315 -0.025091872073007455 0 -0.0011285125578786128 -0.025490881340575006 0 -0.0021506882085158378 -0.026303157656483212 0 -0.00058278408929955075 -0.026839410342612068 0 -0.0010456777447600651 -0.028191397919803667 0 -0.00034169605384946227 -0.025688214615944047 0 -0.0011285125578786128 -0.025490881340575006 0 -0.00058278408929955075 -0.026839410342612068 0 -0.0021506882085158378 -0.026303157656483212 0 -0.0011285125578786128 -0.025490881340575006 0 -0.00058278408929955075 -0.026839410342612068 0 -0.00034169605384946227 -0.025688214615944047 0 -0.00058278408929955075 -0.026839410342612068 0 0.00025438804842952849 -0.026179125596593616 0 -0.00058278408929955075 -0.026839410342612068 0 0.00025438804842952849 -0.026179125596593616 0 0.00036737368039138483 -0.027239998239742352 0 0.00013159275175756346 -0.028220616186416202 0 0.00036737368039138483 -0.027239998239742352 0 0.0010235163469269758 -0.027985884748186068 0 -0.00058278408929955075 -0.026839410342612068 0 0.00013159275175756346 -0.028220616186416202 0 0.00036737368039138483 -0.027239998239742352 0 -0.00058278408929955075 -0.026839410342612068 0 0.00013159275175756346 -0.028220616186416202 0 -0.0010456777447600651 -0.028191397919803667 0 -0.0010456777447600651 -0.028191397919803667 0 -0.0023006250546597144 -0.028914101042127865 0 -0.0010091432898883005 -0.030199829103490804 0 -0.0010456777447600651 -0.028191397919803667 0 0.00022532090252539127 -0.03008471993406036 0 -0.0010091432898883005 -0.030199829103490804 0 0.00013159275175756346 -0.028220616186416202 0 -0.0010456777447600651 -0.028191397919803667 0 0.00022532090252539127 -0.03008471993406036 0 0.00013159275175756346 -0.028220616186416202 0 0.00022532090252539127 -0.03008471993406036 0 0.0010051956963354289 -0.029073127959212852 0 -0.00072840977964654823 -0.033754442618293752 0 -0.00078800914107972299 -0.033574181017791499 0 -0.001322692507364512 -0.033325403785546152 0 -0.0021506882085158378 -0.026303157656483212 0 -0.0010456777447600651 -0.028191397919803667 0 -0.0023006250546597144 -0.028914101042127865 0 -0.0010554792004577854 -0.029989316225191163 0 -0.0013744384713653048 -0.030915287098598362 0 -0.001322692507364512 -0.033325403785546152 0 -0.00095759909961781763 -0.033144063490783922 0 -0.0012344797026307495 -0.032505551733212755 0 -0.00095759909961781763 -0.033144063490783922 0 -0.00063343563792971785 -0.03326551591486316 0 -0.00093170413440463098 -0.032760499462536403 0 -0.00078800914107972299 -0.033574181017791499 0 -0.00095759909961781763 -0.033144063490783922 0 -0.00063343563792971785 -0.03326551591486316 0 -0.00078800914107972299 -0.033574181017791499 0 -0.001322692507364512 -0.033325403785546152 0 -0.00095759909961781763 -0.033144063490783922 0 -0.00063343563792971785 -0.03326551591486316 0 -0.00049595790855283431 -0.033766665978911571 0 -0.00030153844835726577 -0.033511652888798024 0 -0.00078800914107972299 -0.033574181017791499 0 -0.00063343563792971785 -0.03326551591486316 0 -0.00049595790855283431 -0.033766665978911571 0 -0.00049595790855283431 -0.033766665978911571 0 -0.00030153844835726577 -0.033511652888798024 0 -0.00019904206608902018 -0.033927798239660981 0 -0.00063343563792971785 -0.03326551591486316 0 -0.00030153844835726577 -0.033511652888798024 0 -0.00034795924311658232 -0.033067297581726073 0 -0.00030153844835726577 -0.033511652888798024 0 1.715865981616377e-05 -0.033281184637896491 0 -0.00034795924311658232 -0.033067297581726073 0 1.715865981616377e-05 -0.033281184637896491 0 0.00045488371577529781 -0.033649180158211889 0 -4.32036268877816e-05 -0.033704609135871116 0 -0.00030153844835726577 -0.033511652888798024 0 1.715865981616377e-05 -0.033281184637896491 0 -4.32036268877816e-05 -0.033704609135871116 0 1.0276563715183632e-05 -0.034440617234911354 0 -0.00010909022423376246 -0.034721890099357867 0 2.0217321421044399e-05 -0.035033502518998443 0 -1.508976390986381e-09 -0.034999387640141405 0 3.7066687629959208e-08 -0.035000405638074855 0 2.0217321421044399e-05 -0.035033502518998443 0 -7.7807710312777986e-06 -0.034996920533062227 0 3.7066687629959208e-08 -0.035000405638074855 0 1.715865981616377e-05 -0.033281184637896491 0 0.00045488371577529781 -0.033649180158211889 0 0.00049901049882722468 -0.033013586000664299 0 1.0276563715183632e-05 -0.034440617234911354 0 3.3819527996707753e-05 -0.034465949004614388 0 0.00045488371577529781 -0.033649180158211889 0 -4.32036268877816e-05 -0.033704609135871116 0 -3.6137432318211544e-07 -0.034129376868363863 0 2.0217321421044399e-05 -0.035033502518998443 0 -1.508976390986381e-09 -0.034999387640141405 0 0.00011134860541866127 -0.034732639429174997 0 0.00045488371577529781 -0.033649180158211889 0 -3.6137432318211544e-07 -0.034129376868363863 0 0.00011134860541866127 -0.034732639429174997 0 -0.00030153844835726577 -0.033511652888798024 0 -4.32036268877816e-05 -0.033704609135871116 0 -0.00019904206608902018 -0.033927798239660981 0 -4.32036268877816e-05 -0.033704609135871116 0 -3.6137432318211544e-07 -0.034129376868363863 0 -0.00019904206608902018 -0.033927798239660981 0 -0.00019904206608902018 -0.033927798239660981 0 -0.00013441232151407544 -0.034361986072034841 0 -0.0003287977047598705 -0.034053639407480477 0 -3.6137432318211544e-07 -0.034129376868363863 0 -0.00013441232151407544 -0.034361986072034841 0 0.00011134860541866127 -0.034732639429174997 0 -3.6137432318211544e-07 -0.034129376868363863 0 -0.00019904206608902018 -0.033927798239660981 0 -0.00013441232151407544 -0.034361986072034841 0 -0.00013441232151407544 -0.034361986072034841 0 0.00011134860541866127 -0.034732639429174997 0 -1.4318931111304972e-05 -0.034677240756053766 0 -1.508976390986381e-09 -0.034999387640141405 0 0.00011134860541866127 -0.034732639429174997 0 3.0545025199650095e-07 -0.034999503884728472 0 0.00011134860541866127 -0.034732639429174997 0 -1.4318931111304972e-05 -0.034677240756053766 0 3.0545025199650095e-07 -0.034999503884728472 0 -1.4318931111304972e-05 -0.034677240756053766 0 3.0545025199650095e-07 -0.034999503884728472 0 -8.8496194188071088e-05 -0.034572686304567161 0 -0.00017711979854104034 -0.034285534166405063 0 -8.8496194188071088e-05 -0.034572686304567161 0 -0.00027922955291541357 -0.034162064989330075 0 -0.00013441232151407544 -0.034361986072034841 0 -8.8496194188071088e-05 -0.034572686304567161 0 -0.00027922955291541357 -0.034162064989330075 0 -0.00013441232151407544 -0.034361986072034841 0 -1.4318931111304972e-05 -0.034677240756053766 0 -8.8496194188071088e-05 -0.034572686304567161 0 -0.00022167401003062289 -0.033958956050912217 0 -0.00027922955291541357 -0.034162064989330075 0 -0.00047961446705549498 -0.033833599895690403 0 -0.00027922955291541357 -0.034162064989330075 0 -0.00045429029849841413 -0.033943364686530871 0 -0.0003287977047598705 -0.034053639407480477 0 -0.00027922955291541357 -0.034162064989330075 0 -0.00047961446705549498 -0.033833599895690403 0 -0.00045429029849841413 -0.033943364686530871 0 -0.00070961907201831241 -0.03338275701783372 0 -0.00057517570057872864 -0.033705926724745976 0 -0.00047961446705549498 -0.033833599895690403 0 -0.00057517570057872864 -0.033705926724745976 0 -0.00047961446705549498 -0.033833599895690403 0 -0.00058201947262926941 -0.033817369136608953 0 -0.00047961446705549498 -0.033833599895690403 0 -0.00045429029849841413 -0.033943364686530871 0 -0.00058201947262926941 -0.033817369136608953 0 -0.00078800914107972299 -0.033574181017791499 0 -0.00049595790855283431 -0.033766665978911571 0 -0.00058201947262926941 -0.033817369136608953 0 -0.00049595790855283431 -0.033766665978911571 0 -0.00045429029849841413 -0.033943364686530871 0 -0.00058201947262926941 -0.033817369136608953 0 -0.00049595790855283431 -0.033766665978911571 0 -0.00045429029849841413 -0.033943364686530871 0 -0.0003287977047598705 -0.034053639407480477 0 -0.00049595790855283431 -0.033766665978911571 0 -0.00019904206608902018 -0.033927798239660981 0 -0.0003287977047598705 -0.034053639407480477 0 -0.00013441232151407544 -0.034361986072034841 0 -0.00027922955291541357 -0.034162064989330075 0 -0.0003287977047598705 -0.034053639407480477 0 -0.00011457627015554801 -0.020041636860718894 0 -0.00016261501227176348 -0.020612854835360548 0 0.00016390845171194589 -0.02047451510367412 0 -0.00011457627015554801 -0.020041636860718894 0 -0.00034459642546335277 -0.020550689402623168 0 -0.00016261501227176348 -0.020612854835360548 0 -0.00011457627015554801 -0.020041636860718894 0 0.00016390845171194589 -0.02047451510367412 0 0.00018582089056090744 -0.019871891961365306 0 -0.00011457627015554801 -0.020041636860718894 0 -0.00034459642546335277 -0.020550689402623168 0 -0.00034869554979283338 -0.020045740925787758 0 -0.00034459642546335277 -0.020550689402623168 0 -0.00034869554979283338 -0.020045740925787758 0 -0.00042889365439585978 -0.020776907094821342 0 -0.00034869554979283338 -0.020045740925787758 0 -0.00010910790803058116 -0.018626068039485424 0 5.0649225975886911e-05 -0.01927695612703401 0 -0.00011457627015554801 -0.020041636860718894 0 -0.00034869554979283338 -0.020045740925787758 0 5.0649225975886911e-05 -0.01927695612703401 0 -0.00011457627015554801 -0.020041636860718894 0 5.0649225975886911e-05 -0.01927695612703401 0 0.00018582089056090744 -0.019871891961365306 0 -0.00010910790803058116 -0.018626068039485424 0 -3.6951054217593868e-07 -0.018861952871647963 0 -2.7306538902661515e-07 -0.016810575361031845 0 -0.00010910790803058116 -0.018626068039485424 0 -3.6951054217593868e-07 -0.018861952871647963 0 -0.00023474785157911603 -0.019966667663552651 0 -0.00034869554979283338 -0.020045740925787758 0 -0.00010910790803058116 -0.018626068039485424 0 -0.00023474785157911603 -0.019966667663552651 0 -0.00034869554979283338 -0.020045740925787758 0 -0.00023474785157911603 -0.019966667663552651 0 -0.00032773829813139961 -0.021015452258311414 0 -0.00023474785157911603 -0.019966667663552651 0 -5.5945463465384175e-07 -0.020912211971724205 0 -0.00032773829813139961 -0.021015452258311414 0 -3.6951054217593868e-07 -0.018861952871647963 0 -0