<?xml version="1.0"?>
<VTKFile type="UnstructuredGrid" version="0.1" byte_order="LittleEndian">
<UnstructuredGrid>
<Piece NumberOfPoints="30881" NumberOfCells="10862">
<Points>
<DataArray type="Float64" NumberOfComponents="3" format="ascii">
-0.49999999999999828 -0.48677703703187492 0 -0.5 -0.5 0 -0.48129281494584059 -0.49338851851593718 0 -0.5 -0.5 0 -0.48129281494584059 -0.49338851851593718 0 -0.46258562989168328 -0.5 0 -0.49999999999999828 -0.48677703703187492 0 -0.48129281494584059 -0.49338851851593718 0 -0.49999999999999828 -0.48677703703187492 0 -0.4824545428279598 -0.47451624516148783 0 -0.48129281494584059 -0.49338851851593718 0 -0.49999999999999828 -0.48677703703187492 0 -0.4824545428279598 -0.47451624516148783 0 -0.5 -0.46599539173150673 0 -0.4824545428279598 -0.47451624516148783 0 -0.46853075243710779 -0.48354990242643758 0 -0.46411508256092049 -0.46598235294430129 0 -0.4824545428279598 -0.47451624516148783 0 -0.48129281494584059 -0.49338851851593718 0 -0.46853075243710779 -0.48354990242643758 0 -0.48129281494584059 -0.49338851851593718 0 -0.46258562989168328 -0.5 0 -0.48129281494584059 -0.49338851851593718 0 -0.46258562989168328 -0.5 0 -0.46853075243710779 -0.48354990242643758 0 -0.46258562989168328 -0.5 0 -0.46853075243710779 -0.48354990242643758 0 -0.45147378687733691 -0.48362213557840178 0 -0.46853075243710779 -0.48354990242643758 0 -0.45147378687733691 -0.48362213557840178 0 -0.46411508256092049 -0.46598235294430129 0 -0.4457251648104853 -0.47020164095208389 0 -0.45147378687733691 -0.48362213557840178 0 -0.46411508256092049 -0.46598235294430129 0 -0.4457251648104853 -0.47020164095208389 0 -0.45147378687733691 -0.48362213557840178 0 -0.43513446131126993 -0.48199891714758791 0 -0.45147378687733691 -0.48362213557840178 0 -0.43275163025255442 -0.5 0 -0.43513446131126993 -0.48199891714758791 0 -0.46258562989168328 -0.5 0 -0.45147378687733691 -0.48362213557840178 0 -0.43275163025255442 -0.5 0 -0.4467190029717853 -0.45478934699519452 0 -0.4422915115958943 -0.43555510214664611 0 -0.43246707723660932 -0.44794326854796312 0 -0.4457251648104853 -0.47020164095208389 0 -0.4467190029717853 -0.45478934699519452 0 -0.46411508256092049 -0.46598235294430129 0 -0.4457251648104853 -0.47020164095208389 0 -0.4467190029717853 -0.45478934699519452 0 -0.43016578207734568 -0.46313500011938619 0 -0.4467190029717853 -0.45478934699519452 0 -0.46411508256092049 -0.46598235294430129 0 -0.47114575579794699 -0.4403844242888923 0 -0.4467190029717853 -0.45478934699519452 0 -0.47114575579794699 -0.4403844242888923 0 -0.4422915115958943 -0.43555510214664611 0 -0.47114575579794699 -0.4403844242888923 0 -0.4422915115958943 -0.43555510214664611 0 -0.46411508256092049 -0.46598235294430129 0 -0.47114575579794699 -0.4403844242888923 0 -0.48354307623736548 -0.45841843211146538 0 -0.4824545428279598 -0.47451624516148783 0 -0.46411508256092049 -0.46598235294430129 0 -0.48354307623736548 -0.45841843211146538 0 -0.4824545428279598 -0.47451624516148783 0 -0.48354307623736548 -0.45841843211146538 0 -0.5 -0.46599539173150673 0 -0.48354307623736548 -0.45841843211146538 0 -0.5 -0.46599539173150673 0 -0.49999999999999972 -0.44521374643113848 0 -0.47114575579794699 -0.4403844242888923 0 -0.49999999999999972 -0.44521374643113848 0 -0.47114575579794699 -0.4403844242888923 0 -0.49999999999999972 -0.44521374643113848 0 -0.48704432221743971 -0.42935617662229603 0 -0.47114575579794699 -0.4403844242888923 0 -0.48354307623736548 -0.45841843211146538 0 -0.49999999999999972 -0.44521374643113848 0 -0.49999999999999972 -0.44521374643113848 0 -0.48704432221743971 -0.42935617662229603 0 -0.5 -0.41591957503128979 0 -0.48704432221743971 -0.42935617662229603 0 -0.5 -0.41591957503128979 0 -0.47703153307181151 -0.41590696073786332 0 -0.5 -0.41591957503128979 0 -0.47703153307181151 -0.41590696073786332 0 -0.48817838912021821 -0.4022119694541284 0 -0.47114575579794699 -0.4403844242888923 0 -0.48704432221743971 -0.42935617662229603 0 -0.47703153307181151 -0.41590696073786332 0 -0.5 -0.38662540363144121 0 -0.47568202340906118 -0.39039593841591919 0 -0.4947615751445838 -0.37332156409002909 0 -0.47568202340906118 -0.39039593841591919 0 -0.4947615751445838 -0.37332156409002909 0 -0.5 -0.38662540363144121 0 -0.48817838912021821 -0.4022119694541284 0 -0.47568202340906118 -0.39039593841591919 0 -0.5 -0.41591957503128979 0 -0.5 -0.38662540363144121 0 -0.48817838912021821 -0.4022119694541284 0 -0.47703153307181151 -0.41590696073786332 0 -0.48817838912021821 -0.4022119694541284 0 -0.47568202340906118 -0.39039593841591919 0 -0.47703153307181151 -0.41590696073786332 0 -0.47568202340906118 -0.39039593841591919 0 -0.45660247167353862 -0.40747031274180939 0 -0.47568202340906118 -0.39039593841591919 0 -0.48030931097003587 -0.37191064435083931 0 -0.46669490250066459 -0.37481721741951951 0 -0.47568202340906118 -0.39039593841591919 0 -0.4947615751445838 -0.37332156409002909 0 -0.48030931097003587 -0.37191064435083931 0 -0.45332061783919553 -0.38729481725706361 0 -0.46669490250066459 -0.37481721741951951 0 -0.45095991715087752 -0.36968037302039969 0 -0.47568202340906118 -0.39039593841591919 0 -0.45332061783919553 -0.38729481725706361 0 -0.46669490250066459 -0.37481721741951951 0 -0.47568202340906118 -0.39039593841591919 0 -0.45660247167353862 -0.40747031274180939 0 -0.47568202340906118 -0.39039593841591919 0 -0.45332061783919553 -0.38729481725706361 0 -0.45660247167353862 -0.40747031274180939 0 -0.44332653075004852 -0.401690115615219 0 -0.44646247228389868 -0.41654464256061052 0 -0.42870657106664078 -0.39987574649354879 0 -0.45332061783919553 -0.38729481725706361 0 -0.44332653075004852 -0.401690115615219 0 -0.43479631603355468 -0.39077639303142497 0 -0.45332061783919553 -0.38729481725706361 0 -0.44332653075004852 -0.401690115615219 0 -0.45660247167353862 -0.40747031274180939 0 -0.45332061783919553 -0.38729481725706361 0 -0.43421362475025049 -0.37527491429266319 0 -0.43479631603355468 -0.39077639303142497 0 -0.45332061783919553 -0.38729481725706361 0 -0.43421362475025049 -0.37527491429266319 0 -0.45095991715087752 -0.36968037302039969 0 -0.47114575579794699 -0.4403844242888923 0 -0.45663439814062529 -0.42533932462455271 0 -0.4422915115958943 -0.43555510214664611 0 -0.47114575579794699 -0.4403844242888923 0 -0.47703153307181151 -0.41590696073786332 0 -0.45663439814062529 -0.42533932462455271 0 -0.45663439814062529 -0.42533932462455271 0 -0.45660247167353862 -0.40747031274180939 0 -0.44646247228389868 -0.41654464256061052 0 -0.47703153307181151 -0.41590696073786332 0 -0.45663439814062529 -0.42533932462455271 0 -0.45660247167353862 -0.40747031274180939 0 -0.44332653075004852 -0.401690115615219 0 -0.45660247167353862 -0.40747031274180939 0 -0.44646247228389868 -0.41654464256061052 0 -0.45660247167353862 -0.40747031274180939 0 -0.44646247228389868 -0.41654464256061052 0 -0.44646247228389868 -0.41654464256061052 0 -0.4375229199380159 -0.42454468706769971 0 -0.45663439814062529 -0.42533932462455271 0 -0.4375229199380159 -0.42454468706769971 0 -0.4422915115958943 -0.43555510214664611 0 -0.45663439814062529 -0.42533932462455271 0 -0.44646247228389868 -0.41654464256061052 0 -0.4375229199380159 -0.42454468706769971 0 -0.4375229199380159 -0.42454468706769971 0 -0.4422915115958943 -0.43555510214664611 0 -0.43077617074680319 -0.43406335077952207 0 -0.43077617074680319 -0.43406335077952207 0 -0.42550232634077589 -0.42345940056268039 0 -0.41950844772475421 -0.43888456563633732 0 -0.4375229199380159 -0.42454468706769971 0 -0.43077617074680319 -0.43406335077952207 0 -0.42550232634077589 -0.42345940056268039 0 -0.44646247228389868 -0.41654464256061052 0 -0.41657232816672918 -0.41306671883907142 0 -0.42870657106664078 -0.39987574649354879 0 -0.44646247228389868 -0.41654464256061052 0 -0.4375229199380159 -0.42454468706769971 0 -0.42550232634077589 -0.42345940056268039 0 -0.44646247228389868 -0.41654464256061052 0 -0.42550232634077589 -0.42345940056268039 0 -0.41657232816672918 -0.41306671883907142 0 -0.44646247228389868 -0.41654464256061052 0 -0.41657232816672918 -0.41306671883907142 0 -0.42550232634077589 -0.42345940056268039 0 -0.41657232816672918 -0.41306671883907142 0 -0.41333489101611293 -0.42699700567040988 0 -0.41657232816672918 -0.41306671883907142 0 -0.41333489101611293 -0.42699700567040988 0 -0.39893236021425188 -0.42931692235905211 0 -0.41333489101611293 -0.42699700567040988 0 -0.39893236021425188 -0.42931692235905211 0 -0.41950844772475421 -0.43888456563633732 0 -0.42550232634077589 -0.42345940056268039 0 -0.41333489101611293 -0.42699700567040988 0 -0.41950844772475421 -0.43888456563633732 0 -0.43421362475025049 -0.37527491429266319 0 -0.42478231784314502 -0.38643128255249681 0 -0.41656514696884139 -0.37636588688318029 0 -0.43421362475025049 -0.37527491429266319 0 -0.42478231784314502 -0.38643128255249681 0 -0.43479631603355468 -0.39077639303142497 0 -0.42478231784314502 -0.38643128255249681 0 -0.43479631603355468 -0.39077639303142497 0 -0.42870657106664078 -0.39987574649354879 0 -0.44332653075004852 -0.401690115615219 0 -0.43479631603355468 -0.39077639303142497 0 -0.42870657106664078 -0.39987574649354879 0 -0.41657232816672918 -0.41306671883907142 0 -0.40962993039643741 -0.3898634720616666 0 -0.3946356370269814 -0.39577424904278191 0 -0.42478231784314502 -0.38643128255249681 0 -0.42870657106664078 -0.39987574649354879 0 -0.40962993039643741 -0.3898634720616666 0 -0.41657232816672918 -0.41306671883907142 0 -0.42870657106664078 -0.39987574649354879 0 -0.40962993039643741 -0.3898634720616666 0 -0.42478231784314502 -0.38643128255249681 0 -0.40962993039643741 -0.3898634720616666 0 -0.41656514696884139 -0.37636588688318029 0 -0.40962993039643741 -0.3898634720616666 0 -0.41656514696884139 -0.37636588688318029 0 -0.40465459864295228 -0.37650109000307358 0 -0.39431275766669582 -0.38061373190328529 0 -0.40465459864295228 -0.37650109000307358 0 -0.3968495855878465 -0.36923685638487008 0 -0.40962993039643741 -0.3898634720616666 0 -0.39431275766669582 -0.38061373190328529 0 -0.40465459864295228 -0.376501090003
[...]
<PointData Scalars="" Vectors="displacement," Tensors="">
<DataArray type="Float64" Name="displacement" NumberOfComponents="3" format="ascii">
-0.034999790180576598 9.664111574808439e-08 0 -0.034999307057235099 -1.9523497226157131e-07 0 -0.033952269843624233 3.2810251325985637e-08 0 -0.034999307057235099 -1.9523497226157131e-07 0 -0.033952269843624233 3.2810251325985637e-08 0 -0.03238258775157668 2.932271747454404e-07 0 -0.034996903528517226 -5.0552326102618387e-07 0 -0.033711293946236155 -4.6848357411742525e-05 0 -0.034998006773537836 -6.1187238396320606e-07 0 -0.034137517792856911 -0.0002513949756919863 0 -0.033623194427753508 -0.00029746067189999055 0 -0.034998006773537836 -6.1187238396320606e-07 0 -0.034137517792856911 -0.0002513949756919863 0 -0.034999482448223276 -4.4659758285683553e-08 0 -0.034137517792856911 -0.0002513949756919863 0 -0.033248003124937565 -0.00021189116876096342 0 -0.033534021284355592 -0.00028949358545800297 0 -0.034137517792856911 -0.0002513949756919863 0 -0.033623194427753508 -0.00029746067189999055 0 -0.033248003124937565 -0.00021189116876096342 0 -0.033711293946236155 -4.6848357411742525e-05 0 -0.032384183149236342 3.3345532525833754e-07 0 -0.033623194427753508 -0.00029746067189999055 0 -0.032380531028425939 -1.1182378791597007e-06 0 -0.033248003124937565 -0.00021189116876096342 0 -0.032380531028425939 -1.1182378791597007e-06 0 -0.033248003124937565 -0.00021189116876096342 0 -0.032389301207223067 -0.00018832565344377677 0 -0.033248003124937565 -0.00021189116876096342 0 -0.032389301207223067 -0.00018832565344377677 0 -0.033534021284355592 -0.00028949358545800297 0 -0.032724848358362424 -0.00015958890413760897 0 -0.032389301207223067 -0.00018832565344377677 0 -0.033534021284355592 -0.00028949358545800297 0 -0.032724848358362424 -0.00015958890413760897 0 -0.032389301207223067 -0.00018832565344377677 0 -0.03173148424969606 -6.49067731109282e-05 0 -0.032389301207223067 -0.00018832565344377677 0 -0.030294291853636704 -2.3494232150082802e-07 0 -0.03173148424969606 -6.49067731109282e-05 0 -0.032380531028425939 -1.1182378791597007e-06 0 -0.032389301207223067 -0.00018832565344377677 0 -0.030294291853636704 -2.3494232150082802e-07 0 -0.033295302047486139 -0.00014021756217403239 0 -0.033777621526793922 2.2981241251434217e-05 0 -0.033260493339605172 0.00013307033592682512 0 -0.032724848358362424 -0.00015958890413760897 0 -0.033295302047486139 -0.00014021756217403239 0 -0.033534021284355592 -0.00028949358545800297 0 -0.032724848358362424 -0.00015958890413760897 0 -0.033295302047486139 -0.00014021756217403239 0 -0.032663111642816746 0.00010265172357644738 0 -0.033295302047486139 -0.00014021756217403239 0 -0.033534021284355592 -0.00028949358545800297 0 -0.033978529283438696 -0.00034046032615496773 0 -0.033295302047486139 -0.00014021756217403239 0 -0.033978529283438696 -0.00034046032615496773 0 -0.033777621526793922 2.2981241251434217e-05 0 -0.034590036991975638 -0.00012982618549809121 0 -0.034423376381094668 -3.6602203041027303e-05 0 -0.033534021284355592 -0.00028949358545800297 0 -0.033978529283438696 -0.00034046032615496773 0 -0.034345709749833857 -0.00021152850657893529 0 -0.034137517792856911 -0.0002513949756919863 0 -0.033534021284355592 -0.00028949358545800297 0 -0.034345709749833857 -0.00021152850657893529 0 -0.034137517792856911 -0.0002513949756919863 0 -0.034345709749833857 -0.00021152850657893529 0 -0.034999482448223276 -4.4659758285683553e-08 0 -0.034345709749833857 -0.00021152850657893529 0 -0.034999482448223276 -4.4659758285683553e-08 0 -0.034998521109151824 -2.9204845679845956e-07 0 -0.034590036991975638 -0.00012982618549809121 0 -0.034999241850341284 -2.3952969151467031e-07 0 -0.034602650260730686 -8.3637275028219233e-05 0 -0.034999749654652752 -3.5686303759056592e-08 0 -0.034834158649111671 -4.5369164814923955e-05 0 -0.033978529283438696 -0.00034046032615496773 0 -0.034345709749833857 -0.00021152850657893529 0 -0.034998521109151824 -2.9204845679845956e-07 0 -0.034999749654652752 -3.5686303759056592e-08 0 -0.034834158649111671 -4.5369164814923955e-05 0 -0.034999681402168005 -8.8016169493246624e-08 0 -0.034834158649111671 -4.5369164814923955e-05 0 -0.034999681402168005 -8.8016169493246624e-08 0 -0.034733051524815851 -7.7176177762528988e-05 0 -0.034999681402168005 -8.8016169493246624e-08 0 -0.034733051524815851 -7.7176177762528988e-05 0 -0.034914886615974472 -5.1932563080377671e-05 0 -0.034602650260730686 -8.3637275028219233e-05 0 -0.034834158649111671 -4.5369164814923955e-05 0 -0.034733051524815851 -7.7176177762528988e-05 0 -0.03499969864305983 -6.9528448091263138e-08 0 -0.034918204727961477 -5.9290906398513465e-05 0 -0.034864144760835415 -4.5838010058220882e-05 0 -0.034224712136380342 0.0001848310403985763 0 -0.034368207082967055 9.3298746035838683e-05 0 -0.03499969864305983 -6.9528448091263138e-08 0 -0.034914886615974472 -5.1932563080377671e-05 0 -0.034918204727961477 -5.9290906398513465e-05 0 -0.034999681402168005 -8.8016169493246624e-08 0 -0.03499969864305983 -6.9528448091263138e-08 0 -0.034914886615974472 -5.1932563080377671e-05 0 -0.034733051524815851 -7.7176177762528988e-05 0 -0.034914886615974472 -5.1932563080377671e-05 0 -0.034918204727961477 -5.9290906398513465e-05 0 -0.034733051524815851 -7.7176177762528988e-05 0 -0.034918204727961477 -5.9290906398513465e-05 0 -0.034649619598248478 1.4522429784921739e-06 0 -0.033702366295613892 0.00015208334529604167 0 -0.034485682823854343 0.00011027879552725208 0 -0.034139636349022326 0.00039478225681539083 0 -0.033702366295613892 0.00015208334529604167 0 -0.034864144760835415 -4.5838010058220882e-05 0 -0.034485682823854343 0.00011027879552725208 0 -0.03358165249081884 0.00078738965171710172 0 -0.034139636349022326 0.00039478225681539083 0 -0.033994547300325063 0.00075079870723249946 0 -0.033702366295613892 0.00015208334529604167 0 -0.03358165249081884 0.00078738965171710172 0 -0.034139636349022326 0.00039478225681539083 0 -0.034224712136380342 0.0001848310403985763 0 -0.033963731489783287 0.0004016949383362876 0 -0.033702366295613892 0.00015208334529604167 0 -0.03358165249081884 0.00078738965171710172 0 -0.033030094211621508 0.00072736511637323711 0 -0.03314298382790392 0.0010711048543077144 0 -0.032852157480191158 0.0010221754292921287 0 -0.033149128281438831 0.0013687251065492526 0 -0.03358165249081884 0.00078738965171710172 0 -0.03314298382790392 0.0010711048543077144 0 -0.033294871456390707 0.0012478299556266308 0 -0.03358165249081884 0.00078738965171710172 0 -0.03314298382790392 0.0010711048543077144 0 -0.033030094211621508 0.00072736511637323711 0 -0.03358165249081884 0.00078738965171710172 0 -0.03355308810678994 0.0012314362380552646 0 -0.033294871456390707 0.0012478299556266308 0 -0.03358165249081884 0.00078738965171710172 0 -0.03355308810678994 0.0012314362380552646 0 -0.033994547300325063 0.00075079870723249946 0 -0.034602650260730686 -8.3637275028219233e-05 0 -0.034335508359768965 -5.398733433560183e-05 0 -0.033777621526793922 2.2981241251434217e-05 0 -0.034602650260730686 -8.3637275028219233e-05 0 -0.034733051524815851 -7.7176177762528988e-05 0 -0.034335508359768965 -5.398733433560183e-05 0 -0.034335508359768965 -5.398733433560183e-05 0 -0.034649619598248478 1.4522429784921739e-06 0 -0.034368542272020436 8.473858458960875e-05 0 -0.034733051524815851 -7.7176177762528988e-05 0 -0.034335508359768965 -5.398733433560183e-05 0 -0.034649619598248478 1.4522429784921739e-06 0 -0.03314298382790392 0.0010711048543077144 0 -0.033030094211621508 0.00072736511637323711 0 -0.032852157480191158 0.0010221754292921287 0 -0.033963731489783287 0.0004016949383362876 0 -0.033828646430498814 0.00054573014173120709 0 -0.033828646430498814 0.00054573014173120709 0 -0.033898776618864111 0.00045473625340136973 0 -0.034335508359768965 -5.398733433560183e-05 0 -0.033900992958043975 0.00016376646662826153 0 -0.033777621526793922 2.2981241251434217e-05 0 -0.034335508359768965 -5.398733433560183e-05 0 -0.034368542272020436 8.473858458960875e-05 0 -0.033900992958043975 0.00016376646662826153 0 -0.033900992958043975 0.00016376646662826153 0 -0.033777621526793922 2.2981241251434217e-05 0 -0.033612851740133114 0.00021847410610559222 0 -0.033612851740133114 0.00021847410610559222 0 -0.033734582935153995 0.00031576289817075856 0 -0.033337846204934025 0.00040263979406000058 0 -0.033900992958043975 0.00016376646662826153 0 -0.033612851740133114 0.00021847410610559222 0 -0.033734582935153995 0.00031576289817075856 0 -0.032852157480191158 0.0010221754292921287 0 -0.033061248940956856 0.0015246985814548512 0 -0.033149128281438831 0.0013687251065492526 0 -0.033995616995220239 5.465817311870745e-05 0 -0.033900992958043975 0.00016376646662826153 0 -0.033734582935153995 0.00031576289817075856 0 -0.033995616995220239 5.465817311870745e-05 0 -0.033734582935153995 0.00031576289817075856 0 -0.033754726163795705 0.00046053912568695091 0 -0.033828646430498814 0.00054573014173120709 0 -0.033557568246933372 0.00078629237817157507 0 -0.033734582935153995 0.00031576289817075856 0 -0.033754726163795705 0.00046053912568695091 0 -0.0335181523947864 0.00052190814412236223 0 -0.033754726163795705 0.00046053912568695091 0 -0.0335181523947864 0.00052190814412236223 0 -0.033340463922932967 0.0007785115848644382 0 -0.0335181523947864 0.00052190814412236223 0 -0.033340463922932967 0.0007785115848644382 0 -0.033337846204934025 0.00040263979406000058 0 -0.033734582935153995 0.00031576289817075856 0 -0.0335181523947864 0.00052190814412236223 0 -0.033337846204934025 0.00040263979406000058 0 -0.03355308810678994 0.0012314362380552646 0 -0.033232250956482218 0.0014366674207714719 0 -0.03318090698412389 0.0016067176924318711 0 -0.03355308810678994 0.0012314362380552646 0 -0.033232250956482218 0.0014366674207714719 0 -0.033294871456390707 0.0012478299556266308 0 -0.033232250956482218 0.0014366674207714719 0 -0.033294871456390707 0.0012478299556266308 0 -0.033149128281438831 0.0013687251065492526 0 -0.03314298382790392 0.0010711048543077144 0 -0.033294871456390707 0.0012478299556266308 0 -0.033149128281438831 0.0013687251065492526 0 -0.033061248940956856 0.0015246985814548512 0 -0.033084643540199424 0.0015591860347718501 0 -0.033064129100037878 0.001402594459146088 0 -0.033232250956482218 0.0014366674207714719 0 -0.033149128281438831 0.0013687251065492526 0 -0.033084643540199424 0.0015591860347718501 0 -0.033061248940956856 0.0015246985814548512 0 -0.033149128281438831 0.0013687251065492526 0 -0.033084643540199424 0.0015591860347718501 0 -0.033232250956482218 0.0014366674207714719 0 -0.033084643540199424 0.0015591860347718501 0 -0.03318090698412389 0.0016067176924318711 0 -0.033084643540199424 0.0015591860347718501 0 -0.03318090698412389 0.0016067176924318711 0 -0.032932808240006023 0.0016112725837222894 0 -0.032817989191957261 0.0014164545360834022 0 -0.032932808240006023 0.0016112725837222894 0 -0.032609410490576439 0.0015044903862437122 0 -0.033084643540199424 0.0015591860347718501 0 -0.032817989191957261 0.0014164545360834022 0 -0.032932808240006023 0.0016112725837222894 0 -0.033084643540199424 0.0015591860347718501 0 -0.032817989191957261 0.0014164545360834022 0 -0.033064129100037878 0.001402594459146088 0 -0.033064129100037878 0.001402594459146088 0 -0.033226983261334511 0.001258429740058945 0 -0.032997019307744999 0.00096523727494850112 0 -0.033064129100037878 0.001402594459146088 0 -0.032594150549720556 0.00091991345684346807 0 -0.032997019307744999 0.00096523727494850112 0 -0.032817989191957261 0.0014164545360834022 0 -0.033064129100037878 0.001402594459146088 0 -0.032594150549720556 0.00091991345684346807 0 -0.032817989191957261 0.0014164545360834022 0 -0.032594150549720556 0.00091991345684346807 0 -0.032393619732888949 0.0011761362561348585 0 -0.033754726163795705 0.00046053912568695091 0 -0.033340463922932967 0.0007785115848644382 0 -0.033425823374915516 0.00094974508255798974 0 -0.033061248940956856 0.0015246985814548512 0 -0.033064129100037878 0.001402594459146088 0 -0.033226983261334511 0.001258429740058945 0 -0.033557568246933372 0.00078629237817157507 0 -0.033420914516226086 0.00088898005955190349 0 -0.033425823374915516 0.00094974508255798974 0 -0.033264479947984781 0.00097872965202931597 0 -0.033242433941229277 0.00089960364074193207 0 -0.033264479947984781 0.00097872965202931597 0 -0.032955144793018518 0.0010515363337457828 0 -0.033145355126300735 0.0010531171262346656 0 -0.033340463922932967 0.0007785115848644382 0 -0.033264479947984781 0.00097872965202931597 0 -0.032955144793018518 0.0010515363337457828 0 -0.033340463922932967 0.0007785115848644382 0 -0.033425823374915516 0.00094974508255798974 0 -0.033264479947984781 0.00097872965202931597 0 -0.032955144793018518 0.0010515363337457828 0 -0.032852586274085771 0.00070958676547307989 0 -0.032322873927012032 0.0010763597515309864 0 -0.033340463922932967 0.0007785115848644382 0 -0.032955144793018518 0.0010515363337457828 0 -0.032852586274085771 0.00070958676547307989 0 -0.032852586274085771 0.00070958676547307989 0 -0.032322873927012032 0.0010763597515309864 0 -0.032008230173588836 0.00079417072306122653 0 -0.032955144793018518 0.0010515363337457828 0 -0.032322873927012032 0.0010763597515309864 0 -0.032482240142171603 0.001300310966942692 0 -0.032322873927012032 0.0010763597515309864 0 -0.031792811765202274 0.0013447546685357277 0 -0.032482240142171603 0.001300310966942692 0 -0.031792811765202274 0.0013447546685357277 0 -0.031052107197772183 0.0011974034041359824 0 -0.031671552819083806 0.0010736640271089082 0 -0.032322873927012032 0.0010763597515309864 0 -0.031792811765202274 0.0013447546685357277 0 -0.031671552819083806 0.0010736640271089082 0 -0.027394849268935734 -0.00010364185959596886 0 -0.026214235525815335 0.00055011878088134867 0 -0.027484553167627931 1.1735715142943089e-05 0 -0.028205158916784396 9.790568077008287e-07 0 -0.026116732317788743 -2.2345734009441178e-07 0 -0.027484553167627931 1.1735715142943089e-05 0 -0.026221773017903113 4.8103500721255484e-05 0 -0.026116732317788743 -2.2345734009441178e-07 0 -0.031792811765202274 0.0013447546685357277 0 -0.031052107197772183 0.0011974034041359824 0 -0.031279916890903814 0.0016262305702011964 0 -0.027394849268935734 -0.00010364185959596886 0 -0.027799409326687431 -0.0004578729410205544 0 -0.031052107197772183 0.0011974034041359824 0 -0.031671552819083806 0.0010736640271089082 0 -0.031234734268207855 0.00079486115515060428 0 -0.027484553167627931 1.1735715142943089e-05 0 -0.028205158916784396 9.790568077008287e-07 0 -0.029952642022042189 0.00017278942615736991 0 -0.031052107197772183 0.0011974034041359824 0 -0.031234734268207855 0.00079486115515060428 0 -0.029952642022042189 0.00017278942615736991 0 -0.032322873927012032 0.0010763597515309864 0 -0.031671552819083806 0.0010736640271089082 0 -0.032008230173588836 0.00079417072306122653 0 -0.031671552819083806 0.0010736640271089082 0 -0.031234734268207855 0.00079486115515060428 0 -0.032008230173588836 0.00079417072306122653 0 -0.032008230173588836 0.00079417072306122653 0 -0.031742204088969092 0.0002670388097927321 0 -0.032488706339200327 0.00043921406113251431 0 -0.031234734268207855 0.00079486115515060428 0 -0.031742204088969092 0.0002670388097927321 0 -0.029952642022042189 0.00017278942615736991 0 -0.031234734268207855 0.00079486115515060428 0 -0.032008230173588836 0.00079417072306122653 0 -0.031742204088969092 0.0002670388097927321 0 -0.031742204088969092 0.0002670388097927321 0 -0.029952642022042189 0.00017278942615736991 0 -0.030880537800983258 6.6462566442450753e-05 0 -0.028205158916784396 9.790568077008287e-07 0 -0.029952642022042189 0.00017278942615736991 0 -0.030294291853636704 -2.3494232150082802e-07 0 -0.029952642022042189 0.00017278942615736991 0 -0.030880537800983258 6.6462566442450753e-05 0 -0.030294291853636704 -2.3494232150082802e-07 0 -0.030880537800983258 6.6462566442450753e-05 0 -0.030294291853636704 -2.3494232150082802e-07 0 -0.03173148424969606 -6.49067731109282e-05 0 -0.032724848358362424 -0.00015958890413760897 0 -0.03173148424969606 -6.49067731109282e-05 0 -0.032663111642816746 0.00010265172357644738 0 -0.031742204088969092 0.0002670388097927321 0 -0.03173148424969606 -6.49067731109282e-05 0 -0.032663111642816746 0.00010265172357644738 0 -0.031742204088969092 0.0002670388097927321 0 -0.030880537800983258 6.6462566442450753e-05 0 -0.03173148424969606 -6.49067731109282e-05 0 -0.033295302047486139 -0.00014021756217403239 0 -0.032663111642816746 0.00010265172357644738 0 -0.033260493339605172 0.00013307033592682512 0 -0.032663111642816746 0.00010265172357644738 0 -0.032954772311907077 0.00035219412240052728 0 -0.032488706339200327 0.00043921406113251431 0 -0.032663111642816746 0.00010265172357644738 0 -0.033260493339605172 0.00013307033592682512 0 -0.032954772311907077 0.00035219412240052728 0 -0.033777621526793922 2.2981241251434217e-05 0 -0.033612851740133114 0.00021847410610559222 0 -0.033260493339605172 0.00013307033592682512 0 -0.033612851740133114 0.00021847410610559222 0 -0.033260493339605172 0.00013307033592682512 0 -0.033337846204934025 0.00040263979406000058 0 -0.033260493339605172 0.00013307033592682512 0 -0.032954772311907077 0.00035219412240052728 0 -0.033337846204934025 0.00040263979406000058 0 -0.033340463922932967 0.0007785115848644382 0 -0.032852586274085771 0.00070958676547307989 0 -0.033337846204934025 0.00040263979406000058 0 -0.032852586274085771 0.00070958676547307989 0 -0.032954772311907077 0.00035219412240052728 0 -0.033337846204934025 0.00040263979406000058 0 -0.032852586274085771 0.00070958676547307989 0 -0.032954772311907077 0.00035219412240052728 0 -0.032488706339200327 0.00043921406113251431 0 -0.032852586274085771 0.00070958676547307989 0 -0.032008230173588836 0.00079417072306122653 0 -0.032488706339200327 0.00043921406113251431 0 -0.031742204088969092 0.0002670388097927321 0 -0.032663111642816746 0.00010265172357644738 0 -0.032488706339200327 0.00043921406113251431 0 -0.034889373555787591 -3.1911682631026006e-05 0 -0.034895957146348522 -6.8056572785112718e-06 0 -0.034887061674675458 -2.3828458778397057e-05 0 -0.034889373555787591 -3.1911682631026006e-05 0 -0.034914580786334498 9.7197100155598921e-06 0 -0.034895957146348522 -6.8056572785112718e-06 0 -0.034889373555787591 -3.1911682631026006e-05 0 -0.034887061674675458 -2.3828458778397057e-05 0 -0.034863363825272567 -5.674192042183979e-05 0 -0.034889373555787591 -3.1911682631026006e-05 0 -0.034914580786334498 9.7197100155598921e-06 0 -0.034942440221328502 1.1024755626499925e-05 0 -0.034914580786334498 9.7197100155598921e-06 0 -0.034942440221328502 1.1024755626499925e-05 0 -0.034946641060598187 5.8763283641384922e-05 0 -0.034942440221328502 1.1024755626499925e-05 0 -0.034928831660145168 2.1702715145781159e-05 0 -0.034866833617059993 -4.5078971978095379e-05 0 -0.034889373555787591 -3.1911682631026006e-05 0 -0.034942440221328502 1.1024755626499925e-05 0 -0.034866833617059993 -4.5078971978095379e-05 0 -0.034889373555787591 -3.1911682631026006e-05 0 -0.034866833617059993 -4.5078971978095379e-05 0 -0.034863363825272567 -5.674192042183979e-05 0 -0.034928831660145168 2.1702715145781159e-05 0 -0.034999999054308104 -1.4026044805519375e-08 0 -0.034999653134421355 2.0692143434095555e-07 0 -0.034928831660145168 2.1702715145781159e-05 0 -0.034999999054308104 -1.4026044805519375e-08 0 -0.034981188317257141 2.6075590910307326e-05 0 -0.034942440221328502 1.1024755626499925e-05 0 -0.034928831660145168 2.1702715145781159e-05 0 -0.034981188317257141 2.6075590910307326e-05 0 -0.034942440221328502 1.1024755626499925e-05 0 -0.034981188317257141 2.6075590910307326e-05 0 -0.034975299801660385 6.0529268867718579e-05 0 -0.034981188317257141 2.6075590910307326e-05 0 -0.034999970099991597 3.8887073850202197e-08 0 -0.034975299801660385 6.0529268867718579e-05 0 -0.034999999054308104 -1.4026044805519375e-08 0 -0.034981188317257141 2.6075590910307326e-05 0 -0.034999970099991597 3.8887073850202197e-08 0 -0.034999970099991597 3.8887073850202197e-08 0 -0.034975299801660385 6.0529268867718579e-05 0 -0.034971580033226146 8.4143595161116839e-05 0 -0.034975299801660385 6.0