<?xml version="1.0"?>
<VTKFile type="UnstructuredGrid" version="0.1" byte_order="LittleEndian">
<UnstructuredGrid>
<Piece NumberOfPoints="31898" NumberOfCells="11152">
<Points>
<DataArray type="Float64" NumberOfComponents="3" format="ascii">
-0.5 -0.5 0 -0.47620991077874902 -0.44978878706170539 0 -0.49999999999999473 -0.42132396840504388 0 -0.5 -0.5 0 -0.47160970827802529 -0.4793630013852106 0 -0.47620991077874902 -0.44978878706170539 0 -0.5 -0.5 0 -0.47160970827802529 -0.4793630013852106 0 -0.44860394795025399 -0.5 0 -0.47160970827802529 -0.4793630013852106 0 -0.44860394795025399 -0.5 0 -0.4490820238307246 -0.45820516232899983 0 -0.44860394795025399 -0.5 0 -0.4490820238307246 -0.45820516232899983 0 -0.42881687682924802 -0.47781464288736519 0 -0.4490820238307246 -0.45820516232899983 0 -0.45555437223955858 -0.42914059360647611 0 -0.4490820238307246 -0.45820516232899983 0 -0.45555437223955858 -0.42914059360647611 0 -0.43867285131603428 -0.4271457417558665 0 -0.4490820238307246 -0.45820516232899983 0 -0.43867285131603428 -0.4271457417558665 0 -0.4263356171060747 -0.44269880333887462 0 -0.47160970827802529 -0.4793630013852106 0 -0.4490820238307246 -0.45820516232899983 0 -0.47620991077874902 -0.44978878706170539 0 -0.4490820238307246 -0.45820516232899983 0 -0.47620991077874902 -0.44978878706170539 0 -0.45555437223955858 -0.42914059360647611 0 -0.47620991077874902 -0.44978878706170539 0 -0.48101336032419229 -0.41069999664450008 0 -0.45555437223955858 -0.42914059360647611 0 -0.47620991077874902 -0.44978878706170539 0 -0.49999999999999473 -0.42132396840504388 0 -0.48101336032419229 -0.41069999664450008 0 -0.49999999999999473 -0.42132396840504388 0 -0.48101336032419229 -0.41069999664450008 0 -0.5 -0.393886241813306 0 -0.49999999999999473 -0.42132396840504388 0 -0.48101336032419229 -0.41069999664450008 0 -0.5 -0.393886241813306 0 -0.47854472220918332 -0.38978458738689759 0 -0.48422759779560409 -0.37130120630367158 0 -0.5 -0.393886241813306 0 -0.5 -0.36644851522156802 0 -0.48422759779560409 -0.37130120630367158 0 -0.48101336032419229 -0.41069999664450008 0 -0.5 -0.393886241813306 0 -0.47854472220918332 -0.38978458738689759 0 -0.48101336032419229 -0.41069999664450008 0 -0.47854472220918332 -0.38978458738689759 0 -0.46202672064839212 -0.40007602488395211 0 -0.48101336032419229 -0.41069999664450008 0 -0.46202672064839212 -0.40007602488395211 0 -0.47854472220918332 -0.38978458738689759 0 -0.46725442735267431 -0.37660061361585562 0 -0.46202672064839212 -0.40007602488395211 0 -0.47854472220918332 -0.38978458738689759 0 -0.46725442735267431 -0.37660061361585562 0 -0.48422759779560409 -0.37130120630367158 0 -0.46725442735267431 -0.37660061361585562 0 -0.46202672064839212 -0.40007602488395211 0 -0.46725442735267431 -0.37660061361585562 0 -0.45645674801697989 -0.38644133236760531 0 -0.46202672064839212 -0.40007602488395211 0 -0.46725442735267431 -0.37660061361585562 0 -0.45645674801697989 -0.38644133236760531 0 -0.4540003998136638 -0.37455519391687309 0 -0.45645674801697989 -0.38644133236760531 0 -0.46202672064839212 -0.40007602488395211 0 -0.44257020456291563 -0.38918913383950271 0 -0.46202672064839212 -0.40007602488395211 0 -0.44257020456291563 -0.38918913383950271 0 -0.44727608925983742 -0.41095911152778891 0 -0.46202672064839212 -0.40007602488395211 0 -0.44257020456291563 -0.38918913383950271 0 -0.44257020456291563 -0.38918913383950271 0 -0.44727608925983742 -0.41095911152778891 0 -0.43479358559901082 -0.4041454901736512 0 -0.44257020456291563 -0.38918913383950271 0 -0.4540003998136638 -0.37455519391687309 0 -0.44172858264042247 -0.37082207246888088 0 -0.45645674801697989 -0.38644133236760531 0 -0.44257020456291563 -0.38918913383950271 0 -0.4540003998136638 -0.37455519391687309 0 -0.46202672064839212 -0.40007602488395211 0 -0.45555437223955858 -0.42914059360647611 0 -0.44727608925983742 -0.41095911152778891 0 -0.46202672064839212 -0.40007602488395211 0 -0.45555437223955858 -0.42914059360647611 0 -0.48101336032419229 -0.41069999664450008 0 -0.46202672064839212 -0.40007602488395211 0 -0.45555437223955858 -0.42914059360647611 0 -0.44727608925983742 -0.41095911152778891 0 -0.43867285131603428 -0.4271457417558665 0 -0.43676601469929588 -0.41441201227470881 0 -0.44727608925983742 -0.41095911152778891 0 -0.43676601469929588 -0.41441201227470881 0 -0.43479358559901082 -0.4041454901736512 0 -0.45555437223955858 -0.42914059360647611 0 -0.44727608925983742 -0.41095911152778891 0 -0.43867285131603428 -0.4271457417558665 0 -0.43867285131603428 -0.4271457417558665 0 -0.42681803064840879 -0.42717069814352421 0 -0.4263356171060747 -0.44269880333887462 0 -0.42681803064840879 -0.42717069814352421 0 -0.41531815884496182 -0.42985383783075998 0 -0.4263356171060747 -0.44269880333887462 0 -0.42681803064840879 -0.42717069814352421 0 -0.42624289495594048 -0.42089725947505818 0 -0.42083332353326591 -0.42146747131641099 0 -0.42681803064840879 -0.42717069814352421 0 -0.43096994786351572 -0.41951492446283251 0 -0.42624289495594048 -0.42089725947505818 0 -0.43867285131603428 -0.4271457417558665 0 -0.42681803064840879 -0.42717069814352421 0 -0.43096994786351572 -0.41951492446283251 0 -0.43867285131603428 -0.4271457417558665 0 -0.43676601469929588 -0.41441201227470881 0 -0.43096994786351572 -0.41951492446283251 0 -0.43676601469929588 -0.41441201227470881 0 -0.43096994786351572 -0.41951492446283251 0 -0.42907264086257813 -0.41311715872526122 0 -0.43676601469929588 -0.41441201227470881 0 -0.42907264086257813 -0.41311715872526122 0 -0.43479358559901082 -0.4041454901736512 0 -0.42907264086257813 -0.41311715872526122 0 -0.43479358559901082 -0.4041454901736512 0 -0.42460885511582858 -0.40417321677700252 0 -0.42907264086257813 -0.41311715872526122 0 -0.41997834854398469 -0.41180534796019508 0 -0.42907264086257813 -0.41311715872526122 0 -0.42635027777857132 -0.41543594397746519 0 -0.41997834854398469 -0.41180534796019508 0 -0.42907264086257813 -0.41311715872526122 0 -0.41997834854398469 -0.41180534796019508 0 -0.42460885511582858 -0.40417321677700252 0 -0.42635027777857132 -0.41543594397746519 0 -0.41997834854398469 -0.41180534796019508 0 -0.42635027777857132 -0.41543594397746519 0 -0.42083332353326591 -0.42146747131641099 0 -0.41997834854398469 -0.41180534796019508 0 -0.43096994786351572 -0.41951492446283251 0 -0.42624289495594048 -0.42089725947505818 0 -0.42635027777857132 -0.41543594397746519 0 -0.43096994786351572 -0.41951492446283251 0 -0.42907264086257813 -0.41311715872526122 0 -0.42635027777857132 -0.41543594397746519 0 -0.42624289495594048 -0.42089725947505818 0 -0.42635027777857132 -0.41543594397746519 0 -0.42083332353326591 -0.42146747131641099 0 -0.42083332353326591 -0.42146747131641099 0 -0.41997834854398469 -0.41180534796019508 0 -0.40992282953163789 -0.42011435591993562 0 -0.41997834854398469 -0.41180534796019508 0 -0.39756877647335259 -0.40857286797681719 0 -0.41997834854398469 -0.41180534796019508 0 -0.40992282953163789 -0.42011435591993562 0 -0.39756877647335259 -0.40857286797681719 0 -0.40992282953163789 -0.42011435591993562 0 -0.41531815884496182 -0.42985383783075998 0 -0.39591554026262499 -0.42887225451549271 0 -0.41531815884496182 -0.42985383783075998 0 -0.39591554026262499 -0.42887225451549271 0 -0.41160927495564159 -0.44339431233754628 0 -0.42083332353326591 -0.42146747131641099 0 -0.40992282953163789 -0.42011435591993562 0 -0.41531815884496182 -0.42985383783075998 0 -0.42681803064840879 -0.42717069814352421 0 -0.42083332353326591 -0.42146747131641099 0 -0.41531815884496182 -0.42985383783075998 0 -0.44257020456291563 -0.38918913383950271 0 -0.42311368847744002 -0.37830224279505142 0 -0.42594061475171041 -0.39368797999533162 0 -0.44257020456291563 -0.38918913383950271 0 -0.42311368847744002 -0.37830224279505142 0 -0.44172858264042247 -0.37082207246888088 0 -0.44257020456291563 -0.38918913383950271 0 -0.42311368847744002 -0.37830224279505142 0 -0.42311368847744002 -0.37830224279505142 0 -0.42594061475171041 -0.39368797999533162 0 -0.416587075656149 -0.38785930376960043 0 -0.44257020456291563 -0.38918913383950271 0 -0.42594061475171041 -0.39368797999533162 0 -0.43479358559901082 -0.4041454901736512 0 -0.42594061475171041 -0.39368797999533162 0 -0.43479358559901082 -0.4041454901736512 0 -0.42460885511582858 -0.40417321677700252 0 -0.41997834854398469 -0.41180534796019508 0 -0.41325908582185972 -0.39811010703057192 0 -0.39770572831670092 -0.39911486077581648 0 -0.41997834854398469 -0.41180534796019508 0 -0.39770572831670092 -0.39911486077581648 0 -0.42594061475171041 -0.39368797999533162 0 -0.42460885511582858 -0.40417321677700252 0 -0.41325908582185972 -0.39811010703057192 0 -0.41997834854398469 -0.41180534796019508 0 -0.42460885511582858 -0.40417321677700252 0 -0.41325908582185972 -0.39811010703057192 0 -0.42594061475171041 -0.39368797999533162 0 -0.41325908582185972 -0.39811010703057192 0 -0.416587075656149 -0.38785930376960043 0 -0.41325908582185972 -0.39811010703057192 0 -0.416587075656149 -0.38785930376960043 0 -0.40403491357358612 -0.38133688525744702 0 -0.42311368847744002 -0.37830224279505142 0 -0.40403491357358612 -0.38133688525744702 0 -0.40365717239196519 -0.36741535175059892 0 -0.42311368847744002 -0.37830224279505142 0 -0.416587075656149 -0.38785930376960043 0 -0.40403491357358612 -0.38133688525744702 0 -0.40403491357358612 -0.38133688525744702 0 -0.39190790742475001 -0.38540387676521748 0 -0.39770572831670092 -0.39911486077581648 0 -0.40403491357358612 -0.38133688525744702 0 -0.39190790742475001 -0.38540387676521748 0 -0.3904578797192948 -0.37473938743617019 0 -0.41325908582185972 -0.39811010703057192 0 -0.40403491357358612 -0.38133688525744702 0 -0.39770572831670092 -0.39911486077581648 0 -0.39770572831670092 -0.39911486077581648 0 -0.37543310808941849 -0.38642437359143528 0 -0.39770572831670092 -0.39911486077581648 0 -0.37515920440272033 -0.40534038799344108 0 -0.37543310808941849 -0.38642437359143528 0 -0.39770572831670092 -0.39911486077581648 0 -0.37515920440272033 -0.40534038799344108 0 -0.39756877647335259 -0.40857286797681719
[...]
<PointData Scalars="" Vectors="displacement," Tensors="">
<DataArray type="Float64" Name="displacement" NumberOfComponents="3" format="ascii">
-0.10499136100312272 -8.0316589203699526e-07 0 -0.10234357782292347 -0.00053315880473128502 0 -0.10499296948922268 -2.2240932327405203e-06 0 -0.10499136100312272 -8.0316589203699526e-07 0 -0.10040466486673254 -0.00035336284529058251 0 -0.10234357782292347 -0.00053315880473128502 0 -0.10499136100312272 -8.0316589203699526e-07 0 -0.10040466486673254 -0.00035336284529058251 0 -0.094212631694108775 -7.78769640675665e-07 0 -0.10040466486673254 -0.00035336284529058251 0 -0.094212631694108775 -7.78769640675665e-07 0 -0.098533201199176926 0.00024685756618382152 0 -0.094212631694108775 -7.78769640675665e-07 0 -0.098533201199176926 0.00024685756618382152 0 -0.093626394638167368 -0.00020222501855371675 0 -0.099523293625113557 0.00065723736435571191 0 -0.10004180745121467 0.00065945493416744605 0 -0.098533201199176926 0.00024685756618382152 0 -0.096716499174142184 0.0010463598685970729 0 -0.096550859433416181 0.0003365050945829584 0 -0.098533201199176926 0.00024685756618382152 0 -0.096550859433416181 0.0003365050945829584 0 -0.096714074380189988 3.2446411492855043e-05 0 -0.10040466486673254 -0.00035336284529058251 0 -0.098533201199176926 0.00024685756618382152 0 -0.10234357782292347 -0.00053315880473128502 0 -0.098533201199176926 0.00024685756618382152 0 -0.10234357782292347 -0.00053315880473128502 0 -0.10333016617864309 0.0008132613294406459 0 -0.10234357782292347 -0.00053315880473128502 0 -0.10465418698918674 -8.5738080293566065e-05 0 -0.10333016617864309 0.0008132613294406459 0 -0.10234357782292347 -0.00053315880473128502 0 -0.10499296948922268 -2.2240932327405203e-06 0 -0.10465418698918674 -8.5738080293566065e-05 0 -0.1049999964267961 2.9963297195598392e-10 0 -0.10499556274951408 -1.263363789949948e-06 0 -0.10499999457350867 -1.6206554701598249e-09 0 -0.10499676801093112 1.2718567953951954e-06 0 -0.10340130113644351 0.0004059145792774176 0 -0.10499999457350867 -1.6206554701598249e-09 0 -0.10499476126736561 -2.3035032062909334e-06 0 -0.10499777879135368 -3.7596731644738034e-06 0 -0.10499999457350867 -1.6206554701598249e-09 0 -0.10499999105381545 -5.6885386427503102e-09 0 -0.10499777879135368 -3.7596731644738034e-06 0 -0.10499556274951408 -1.263363789949948e-06 0 -0.10499999457350867 -1.6206554701598249e-09 0 -0.10499476126736561 -2.3035032062909334e-06 0 -0.10499556274951408 -1.263363789949948e-06 0 -0.10499476126736561 -2.3035032062909334e-06 0 -0.10498904644039986 -1.809483646937456e-06 0 -0.10340130113644351 0.0004059145792774176 0 -0.10093812945762666 0.00048208878863590114 0 -0.10499476126736561 -2.3035032062909334e-06 0 -0.10499351257198586 -2.4848948510470829e-06 0 -0.10498904644039986 -1.809483646937456e-06 0 -0.10499476126736561 -2.3035032062909334e-06 0 -0.10499351257198586 -2.4848948510470829e-06 0 -0.10499777879135368 -3.7596731644738034e-06 0 -0.10252229425931711 0.00020096248988862048 0 -0.10093812945762666 0.00048208878863590114 0 -0.10045716357377282 0.00043865088847879391 0 -0.099907522175794003 0.0010871648215635664 0 -0.099125450006326596 0.0007695599267084506 0 -0.10045716357377282 0.00043865088847879391 0 -0.099907522175794003 0.0010871648215635664 0 -0.10060746357912641 0.0012439244777592269 0 -0.099907522175794003 0.0010871648215635664 0 -0.099125450006326596 0.0007695599267084506 0 -0.099763102538498488 0.0018871463924357702 0 -0.095771664765076564 0.0012267784902279899 0 -0.095409735581843957 0.00063058004469613768 0 -0.096121891977805365 0.00073986469544733808 0 -0.10093812945762666 0.00048208878863590114 0 -0.098343769413901813 0.0011364327589831016 0 -0.095409735581843957 0.00063058004469613768 0 -0.096121891977805365 0.00073986469544733808 0 -0.09591971364637554 0.00037371331638839255 0 -0.099763102538498488 0.0018871463924357702 0 -0.10060746357912641 0.0012439244777592269 0 -0.10081961618675549 0.0019382815957758508 0 -0.099907522175794003 0.0010871648215635664 0 -0.099763102538498488 0.0018871463924357702 0 -0.10060746357912641 0.0012439244777592269 0 -0.095771664765076564 0.0012267784902279899 0 -0.096716499174142184 0.0010463598685970729 0 -0.096121891977805365 0.00073986469544733808 0 -0.10093812945762666 0.00048208878863590114 0 -0.10004180745121467 0.00065945493416744605 0 -0.10465418698918674 -8.5738080293566065e-05 0 -0.10502190836915885 0.00072509844557777875 0 -0.10333016617864309 0.0008132613294406459 0 -0.096121891977805365 0.00073986469544733808 0 -0.096550859433416181 0.0003365050945829584 0 -0.096267250432506821 0.00040571555641087138 0 -0.096121891977805365 0.00073986469544733808 0 -0.096267250432506821 0.00040571555641087138 0 -0.09591971364637554 0.00037371331638839255 0 -0.096716499174142184 0.0010463598685970729 0 -0.096121891977805365 0.00073986469544733808 0 -0.096550859433416181 0.0003365050945829584 0 -0.096550859433416181 0.0003365050945829584 0 -0.096548731539313412 0.00020263184534174741 0 -0.096714074380189988 3.2446411492855043e-05 0 -0.096548731539313412 0.00020263184534174741 0 -0.096566485423156143 0.00033513881522163083 0 -0.096714074380189988 3.2446411492855043e-05 0 -0.096548731539313412 0.00020263184534174741 0 -0.09647188361311522 0.00021718887999684931 0 -0.096500840489098655 0.00025336296301868241 0 -0.096548731539313412 0.00020263184534174741 0 -0.096430562537252545 0.00026000249699980623 0 -0.09647188361311522 0.00021718887999684931 0 -0.096550859433416181 0.0003365050945829584 0 -0.096548731539313412 0.00020263184534174741 0 -0.096430562537252545 0.00026000249699980623 0 -0.096550859433416181 0.0003365050945829584 0 -0.096267250432506821 0.00040571555641087138 0 -0.096430562537252545 0.00026000249699980623 0 -0.096267250432506821 0.00040571555641087138 0 -0.096430562537252545 0.00026000249699980623 0 -0.096285074339068688 0.00022123890005856347 0 -0.096267250432506821 0.00040571555641087138 0 -0.096285074339068688 0.00022123890005856347 0 -0.09591971364637554 0.00037371331638839255 0 -0.096285074339068688 0.00022123890005856347 0 -0.09591971364637554 0.00037371331638839255 0 -0.095917192111741045 2.931462552603977e-05 0 -0.086686968288139293 0.0024499214814350991 0 -0.086372670649330852 0.0026207293767586759 0 -0.096285074339068688 0.00022123890005856347 0 -0.096401282405639763 0.0001804517579307652 0 -0.096305854261494933 1.6265598721288328e-05 0 -0.096285074339068688 0.00022123890005856347 0 -0.096205380510547514 -0.00014019390561228318 0 -0.095917192111741045 2.931462552603977e-05 0 -0.08667222448083145 0.002720963946249432 0 -0.086372670649330852 0.0026207293767586759 0 -0.096401282405639763 0.0001804517579307652 0 -0.096500840489098655 0.00025336296301868241 0 -0.096525449020378892 0.00026745438031252011 0 -0.096430562537252545 0.00026000249699980623 0 -0.09647188361311522 0.00021718887999684931 0 -0.096401282405639763 0.0001804517579307652 0 -0.096430562537252545 0.00026000249699980623 0 -0.096285074339068688 0.00022123890005856347 0 -0.096401282405639763 0.0001804517579307652 0 -0.09647188361311522 0.00021718887999684931 0 -0.096401282405639763 0.0001804517579307652 0 -0.096500840489098655 0.00025336296301868241 0 -0.096500840489098655 0.00025336296301868241 0 -0.096525449020378892 0.00026745438031252011 0 -0.096523443987468718 0.00035160927863904713 0 -0.086372670649330852 0.0026207293767586759 0 -0.084058005774107991 0.0020595820626062218 0 -0.096525449020378892 0.00026745438031252011 0 -0.096523443987468718 0.00035160927863904713 0 -0.096561982775955679 0.00044664521231889046 0 -0.096523443987468718 0.00035160927863904713 0 -0.096566485423156143 0.00033513881522163083 0 -0.096483959984887194 0.00047402824730037591 0 -0.096566485423156143 0.00033513881522163083 0 -0.096483959984887194 0.00047402824730037591 0 -0.096501203269012112 0.00054048596982217238 0 -0.096500840489098655 0.00025336296301868241 0 -0.096523443987468718 0.00035160927863904713 0 -0.096566485423156143 0.00033513881522163083 0 -0.096548731539313412 0.00020263184534174741 0 -0.096500840489098655 0.00025336296301868241 0 -0.096566485423156143 0.00033513881522163083 0 -0.095409735581843957 0.00063058004469613768 0 -0.094957501981471334 -2.3587966770448953e-05 0 -0.095533005454755862 7.2686459250983761e-05 0 -0.099763102538498488 0.0018871463924357702 0 -0.10039384828102342 0.0029624891452505013 0 -0.10081961618675549 0.0019382815957758508 0 -0.098343769413901813 0.0011364327589831016 0 -0.096328360243154665 0.0021942543978638223 0 -0.094957501981471334 -2.3587966770448953e-05 0 -0.095533005454755862 7.2686459250983761e-05 0 -0.095297590651146638 -0.00025929875432809818 0 -0.095409735581843957 0.00063058004469613768 0 -0.095533005454755862 7.2686459250983761e-05 0 -0.09591971364637554 0.00037371331638839255 0 -0.095533005454755862 7.2686459250983761e-05 0 -0.09591971364637554 0.00037371331638839255 0 -0.095917192111741045 2.931462552603977e-05 0 -0.096205380510547514 -0.00014019390561228318 0 -0.095680438275927232 -0.00038364343136824015 0 -0.095707432533829323 -0.00096624184333391643 0 -0.086372670649330852 0.0026207293767586759 0 -0.084414805626292194 0.0029121877669116697 0 -0.095533005454755862 7.2686459250983761e-05 0 -0.095917192111741045 2.931462552603977e-05 0 -0.095680438275927232 -0.00038364343136824015 0 -0.096205380510547514 -0.00014019390561228318 0 -0.095917192111741045 2.931462552603977e-05 0 -0.095680438275927232 -0.00038364343136824015 0 -0.095533005454755862 7.2686459250983761e-05 0 -0.095680438275927232 -0.00038364343136824015 0 -0.095297590651146638 -0.00025929875432809818 0 -0.095680438275927232 -0.00038364343136824015 0 -0.095297590651146638 -0.00025929875432809818 0 -0.095021249246085751 -0.00070705352756530624 0 -0.094957501981471334 -2.3587966770448953e-05 0 -0.095021249246085751 -0.00070705352756530624 0 -0.094533258939142856 -0.00071376835958883304 0 -0.094957501981471334 -2.3587966770448953e-05 0 -0.095297590651146638 -0.00025929875432809818 0 -0.095021249246085751 -0.00070705352756530624 0 -0.095021249246085751 -0.00070705352756530624 0 -0.095154352295684475 -0.0012065091910047131 0 -0.095707432533829323 -0.00096624184333391643 0 -0.095021249246085751 -0.00070705352756530624 0 -0.095154352295684475 -0.0012065091910047131 0 -0.094703562226302995 -0.0012683589349078473 0 -0.095680438275927232 -0.00038364343136824015 0 -0.095021249246085751 -0.00070705352756530624 0 -0.095707432533829323 -0.00096624184333391643 0 -0.084414805626292194 0.0029121877669116697 0 -0.079185529429531734 0.0033579203000098871 0 -0.082383478019215903 0.0025887635031526671 0 -0.082657938839543213 0.0015640428027256766 0 -0.081797277455194314 0.0015777003129777002 0 -0.082383478019215903 0.0025887635031526671 0 -0.082657938839543213 0.0015640428027256766 0 -0.082814464874225405 0.0025820367152717284 0 -0.079200946550443727 0.0012824224709692615 0 -0.079185529429531734 0.0033579203000098871 0 -0.095177752158273482 -0.0018925079738434788 0 -0.094703562226302995 -0.0012683589349078473 0 -0.094446877124456846 -0.0018954291292627478 0 -0.095154352295684475 -0.0012065091910047131 0 -0.095177752158273482 -0.0018925079738434788 0 -0.094703562226302995 -0.0012683589349078473 0 -0.079185529429531734 0.0033579203000098871 0 -0.083873167081169597 0.0030941872269064298 0 -0.095154352295684475 -0.0012065091910047131 0 -0.095707432533829323 -0.00096624184333391643 0 -0.095177752158273482 -0.0018925079738434788 0 -0.082975100880857647 0.0035982978438914952 0 -0.082383478019215903 0.0025887635031526671 0 -0.082814464874225405 0.0025820367152717284 0 -0.096523443987468718 0.00035160927863904713 0 -0.096483959984887194 0.00047402824730037591 0 -0.096561982775955679 0.00044664521231889046 0 -0.096533404364190584 0.00054476047879531127 0 -0.096483959984887194 0.00047402824730037591 0 -0.096561982775955679 0.00044664521231889046 0 -0.079200946550443727 0.0012824224709692615 0 -0.084058005774107991 0.0020595820626062218 0 -0.096533404364190584 0.00054476047879531127 0 -0.096483959984887194 0.00047402824730037591 0 -0.096445412689117271 0.00055152371707494472 0 -0.096483959984887194 0.00047402824730037591 0 -0.096445006430896651 0.00051087244786609534 0 -0.096445412689117271 0.00055152371707494472 0 -0.096445006430896651 0.00051087244786609534 0 -0.096353825213494837 0.00056900491030145066 0 -0.096445412689117271 0.00055152371707494472 0 -0.096483959984887194 0.00047402824730037591 0 -0.096445006430896651 0.00051087244786609534 0 -0.096501203269012112 0.00054048596982217238 0 -0.096445006430896651 0.00051087244786609534 0 -0.096430462823138524 0.00051083909061509574 0 -0.096501203269012112 0.00054048596982217238 0 -0.095052949599249592 0.0018611275605981163 0 -0.089108198584844436 0.0022037390716619972 0 -0.093199920662655075 0.00063998286907305298 0 -0.071302931066585515 0.0049713364106766279 0 -0.071937697788316948 0.0025581306841565609 0 -0.074773093913163877 0.0031469664410713411 0 -0.084913961372642732 -0.0016862954018994384 0 -0.082207271323774644 -0.0001305063735470562 0 -0.084913961372642732 -0.0016862954018994384 0 -0.084941962765875428 -0.0016760094353705324 0 -0.084913961372642732 -0.0016862954018994384 0 -0.082621493731128745 0.00052837511822038019 0 -0.096445006430896651 0.00051087244786609534 0 -0.096430462823138524 0.00051083909061509574 0 -0.096388460381997693 0.00052583370901195686 0 -0.096445006430896651 0.00051087244786609534 0 -0.096388460381997693 0.00052583370901195686 0 -0.096353825213494837 0.00056900491030145066 0 -0.082621493731128745 0.00052837511822038019 0 -0.080128594099212844 0.0021744873096545816 0 -0.071937697788316948 0.0025581306841565609 0 -0.073579484974624881 0.001670499237856236 0 -0.072579940322294464 8.2916897061025279e-05 0 -0.073579484974624881 0.001670499237856236 0 -0.074773093913163877 0.0031469664410713411 0 -0.074519865250781997 2.2978481346383321e-05 0 -0.074773093913163877 0.0031469664410713411 0 -0.076593242983679033 -0.00038027386448863642 0 -0.074519865250781997 2.2978481346383321e-05 0 -0.073579484974624881 0.001670499237856236 0 -0.074519865250781997 2.2978481346383321e-05 0 -0.072579940322294464 8.2916897061025279e-05 0 -0.071937697788316948 0.0025581306841565609 0 -0.073579484974624881 0.001670499237856236 0 -0.074773093913163877 0.0031469664410713411 0 -0.080002687839705627 5.745850483575605e-07 0 -0.082207271323774644 -0.0001305063735470562 0 -0.079990040422427022 5.376978632280788e-06 0 -0.074773093913163877 0.0031469664410713411 0 -0.076593242983679033 -0.00038027386448863642 0 -0.080009210816125442 8.4866528442809778e-06 0 -0.089108198584844436 0.0022037390716619972 0 -0.086096213968814742 -1.517603512695137e-06 0 -0.089108198584844436 0.0022037390716619972 0 -0.093199920662655075 0.00063998286907305298 0 -0.086096213968814742 -1.517603512695137e-06 0 -0.093199920662655075 0.00063998286907305298 0 -0.086096213968814742 -1.517603512695137e-06 0 -0.093626394638167368 -0.00020222501855371675 0 -0.094212631694108775 -7.78769640675665e-07 0 -0.086096213968814742 -1.517603512695137e-06 0 -0.093626394638167368 -0.00020222501855371675 0 -0.093199920662655075 0.00063998286907305298 0 -0.093626394638167368 -0.00020222501855371675 0 -0.095805601006805866 7.5700783411906605e-05 0 -0.098533201199176926 0.00024685756618382152 0 -0.093626394638167368 -0.00020222501855371675 0 -0.095805601006805866 7.5700783411906605e-05 0 -0.098533201199176926 0.00024685756618382152 0 -0.095805601006805866 7.5700783411906605e-05 0 -0.096714074380189988 3.2446411492855043e-05 0 -0.095805601006805866 7.5700783411906605e-05 0 -0.096714074380189988 3.2446411492855043e-05 0 -0.095824894576677019 0.00042546482977523075 0 -0.096714074380189988 3.2446411492855043e-05 0 -0.096501203269012112 0.00054048596982217238 0 -0.095824894576677019 0.00042546482977523075 0 -0.096566485423156143 0.00033513881522163083 0 -0.096714074380189988 3.2446411492855043e-05 0 -0.096501203269012112 0.00054048596982217238 0 -0.095175015311360051 0.0017718498501746475 0 -0.096501203269012112 0.00054048596982217238 0 -0.095233954806073981 0.0014647179729592634 0 -0.096501203269012112 0.00054048596982217238 0 -0.095233954806073981 0.0014647179729592634 0 -0.095824894576677019 0.00042546482977523075 0 -0.084913961372642732 -0.0016862954018994384 0 -0.087715968483497594 -0.0023762054531651818 0 -0.093199920662655075 0.00063998286907305298 0 -0.095233954806073981 0.0014647179729592634 0 -0.095824894576677019 0.00042546482977523075 0 -0.095052949599249592 0.0018611275605981163 0 -0.093199920662655075 0.00063998286907305298 0 -0.095233954806073981 0.0014647179729592634 0 -0.093199920662655075 0.00063998286907305298 0 -0.095805601006805866 7.5700783411906605e-05 0 -0.095824894576677019 0.00042546482977523075 0 -0.096857935181874161 0.0011174069282960507 0 -0.092361886062212656 0.003941620515408922 0 -0.10432571522061017 -0.0010153293927344714 0 -0.10447005682371209 -0.004409000882295195 0 -0.10265752187376923 -0.0016658138765264655 0 -0.10480451294799843 0.00031157250073655886 0 -0.10486782607037134 0.00023916441085986993 0 -0.10488292788715647 0.00040512166244506477 0 -0.10480451294799843 0.00031157250073655886 0 -0.10478641621294373 0.00045095945291223275 0 -0.10488292788715647 0.00040512166244506477 0 -0.10480451294799843 0.00031157250073655886 0 -0.10471377233568072 0.00044200311757097444 0 -0.10478641621294373 0.00045095945291223275 0 -0.10480451294799843 0.00031157250073655886 0 -0.10481704674114062 0.00017208548977728748 0 -0.10483318481738343 0.00016014242087719518 0 -0.10480451294799843 0.00031157250073655886 0 -0.10481704674114062 0.00017208548977728748 0 -0.10486782607037134 0.00023916441085986993 0 -0.096857935181874161 0.0011174069282960507 0 -0.098210686024180371 0.00080997025177611084 0 -0.10481704674114062 0.00017208548977728748 0 -0.10486782607037134 0.00023916441085986993 0 -0.10467639065584754 0.00016895420482140788 0 -0.10432571522061017 -0.0010153293927344714 0 -0.10467639065584754 0.00016895420482140788 0 -0.10286310528491727 0.00014613331512398542 0 -0.10467639065584754 0.00016895420482140788 0 -0.10499969737841962 3.4112744078271892e-07 0 -0.1048760019945765 0.00010688577298755502 0 -0.10467639065584754 0.00016895420482140788 0 -0.10499969737841962 3.4112744078271892e-07 0 -0.10417498361453431 0.00020521954311884187 0 -0.10499969737841962 3.4112744078271892e-07 0 -0.1048760019945765 0.00010688577298755502 0 -0.10499979348717636 -1.1541518794043351e-08 0 -0.10481704674114062 0.00017208548977728748 0 -0.10467639065584754 0.00016895420482140788 0 -0.1048760019945765 0.00010688577298755502 0 -0.10481704674114062 0.00017208548977728748 0 -0.1048760019945765 0.00010688577298755502 0 -0.10483318481738343 0.00016014242087719518 0 -0.10483318481738343 0.00016014242087719518 0 -0.10489197344132016 3.0975900990449052e-05 0 -0.10479273280614308 0.00012068666461363912 0 -0.1048760019945765 0.00010688577298755502 0 -0.10483318481738343 0.00016014242087719518 0 -0.10489197344132016 3.0975900990449052e-05 0 -0.10499979348717636 -1.1541518794043351e-08 0 -0.10489197344132016 3.0975900990449052e-05 0 -0.10499978131429638 2.8907602766907874e-08 0 -0.1048760019945765 0.00010688577298755502 0 -0.10499979348717636 -1.1541518794043351e-08 0 -0.10489197344132016 3.0975900990449052e-05 0 -0.10489197344132016 3.0975900990449052e-05 0 -0.10499978131429638 2.8907602766907874e-08 0 -0.10484231827402987 -2.8034763245512859e-05 0 -0.10484231827402987 -2.8034763245512859e-05 0 -0.10479273280614308 0.00012068666461363912 0 -0.10453892096089107 0.00010119635600267098 0 -0.10489197344132016 3.0975900990449052e-05 0 -0.10484231827402987 -2.8034763245512859e-05 0 -0.10479273280614308 0.00012068666461363912 0 -0.10479273280614308 0.00012068666461363912 0 -0.10461354576280976 0.00027821004359741987 0 -0.10453892096089107 0.00010119635600267098 0 -0.10461354576280976 0.00027821004359741987 0 -0.10459876925577261 0.00042658102569232494 0 -0.10445552869075948 0.00041579124329196458 0 -0.10461354576280976 0.00027821004359741987 0 -0.10474854009600698 0.00028814863771429761 0 -0.1045987692557726