<?xml version="1.0"?>
<VTKFile type="UnstructuredGrid" version="0.1" byte_order="LittleEndian">
<UnstructuredGrid>
<Piece NumberOfPoints="30979" NumberOfCells="10840">
<Points>
<DataArray type="Float64" NumberOfComponents="3" format="ascii">
-0.5 -0.5 0 -0.45566396609255122 -0.46738184304253999 0 -0.48168049895180642 -0.44054721128114638 0 -0.5 -0.5 0 -0.48168049895180642 -0.44054721128114638 0 -0.5 -0.41826907986550721 0 -0.5 -0.5 0 -0.4437440370372035 -0.5 0 -0.45566396609255122 -0.46738184304253999 0 -0.4437440370372035 -0.5 0 -0.45566396609255122 -0.46738184304253999 0 -0.42809511023068592 -0.47672877674729941 0 -0.44230143731911947 -0.44175467822505898 0 -0.45566396609255122 -0.46738184304253999 0 -0.48168049895180642 -0.44054721128114638 0 -0.44230143731911947 -0.44175467822505898 0 -0.45566396609255122 -0.46738184304253999 0 -0.4245901042273888 -0.45839720476864299 0 -0.48168049895180642 -0.44054721128114638 0 -0.5 -0.41826907986550721 0 -0.46065406903617789 -0.42050628408324969 0 -0.5 -0.41826907986550721 0 -0.47894729271241038 -0.39512202691991383 0 -0.46065406903617789 -0.42050628408324969 0 -0.48168049895180642 -0.44054721128114638 0 -0.46065406903617789 -0.42050628408324969 0 -0.5 -0.41826907986550721 0 -0.47894729271241038 -0.39512202691991383 0 -0.5 -0.35841782388268417 0 -0.47894729271241038 -0.39512202691991383 0 -0.47860696210132803 -0.36435486710316412 0 -0.45574650359470142 -0.37412855344555501 0 -0.47894729271241038 -0.39512202691991383 0 -0.43962763912054942 -0.40046535688535312 0 -0.46065406903617789 -0.42050628408324969 0 -0.47894729271241038 -0.39512202691991383 0 -0.43962763912054942 -0.40046535688535312 0 -0.45574650359470142 -0.37412855344555501 0 -0.43962763912054942 -0.40046535688535312 0 -0.43643624458113078 -0.37614954950182389 0 -0.45574650359470142 -0.37412855344555501 0 -0.43962763912054942 -0.40046535688535312 0 -0.46065406903617789 -0.42050628408324969 0 -0.42928209368157039 -0.41865460272783422 0 -0.44230143731911947 -0.44175467822505898 0 -0.48168049895180642 -0.44054721128114638 0 -0.46065406903617789 -0.42050628408324969 0 -0.44230143731911947 -0.44175467822505898 0 -0.46065406903617789 -0.42050628408324969 0 -0.42928209368157039 -0.41865460272783422 0 -0.43962763912054942 -0.40046535688535312 0 -0.46065406903617789 -0.42050628408324969 0 -0.44230143731911947 -0.44175467822505898 0 -0.42928209368157039 -0.41865460272783422 0 -0.41508809379409511 -0.43319730311662052 0 -0.43962763912054942 -0.40046535688535312 0 -0.42928209368157039 -0.41865460272783422 0 -0.41412050099289671 -0.4064420045106692 0 -0.41063832349300899 -0.41970077410794099 0 -0.41412050099289671 -0.4064420045106692 0 -0.39825486268490951 -0.411985419321795 0 -0.42928209368157039 -0.41865460272783422 0 -0.41063832349300899 -0.41970077410794099 0 -0.41412050099289671 -0.4064420045106692 0 -0.41063832349300899 -0.41970077410794099 0 -0.41508809379409511 -0.43319730311662052 0 -0.39644606631157348 -0.42822454086278677 0 -0.42928209368157039 -0.41865460272783422 0 -0.41063832349300899 -0.41970077410794099 0 -0.41508809379409511 -0.43319730311662052 0 -0.43962763912054942 -0.40046535688535312 0 -0.41860120920492089 -0.3804244296874566 0 -0.43962763912054942 -0.40046535688535312 0 -0.43643624458113078 -0.37614954950182389 0 -0.41860120920492089 -0.3804244296874566 0 -0.43962763912054942 -0.40046535688535312 0 -0.41412050099289671 -0.4064420045106692 0 -0.41293465319379657 -0.39322660128121761 0 -0.43962763912054942 -0.40046535688535312 0 -0.41293465319379657 -0.39322660128121761 0 -0.41860120920492089 -0.3804244296874566 0 -0.41412050099289671 -0.4064420045106692 0 -0.41293465319379657 -0.39322660128121761 0 -0.40092696773705572 -0.39947867840182799 0 -0.41293465319379657 -0.39322660128121761 0 -0.41860120920492089 -0.3804244296874566 0 -0.39600251545542342 -0.38224660206833327 0 -0.40092696773705572 -0.39947867840182799 0 -0.38524472509184832 -0.40521618567257578 0 -0.39825486268490951 -0.411985419321795 0 -0.41293465319379657 -0.39322660128121761 0 -0.39600251545542342 -0.38224660206833327 0 -0.40092696773705572 -0.39947867840182799 0 -0.41412050099289671 -0.4064420045106692 0 -0.40092696773705572 -0.39947867840182799 0 -0.39825486268490951 -0.411985419321795 0 -0.39600251545542342 -0.38224660206833327 0 -0.40092696773705572 -0.39947867840182799 0 -0.38524472509184832 -0.40521618567257578 0 -0.37981789051486531 -0.40249136897996052 0 -0.38093630885333318 -0.39155049565269678 0 -0.36845583533737852 -0.38560237085173249 0 -0.39600251545542342 -0.38224660206833327 0 -0.38524472509184832 -0.40521618567257578 0 -0.39600251545542342 -0.38224660206833327 0 -0.38524472509184832 -0.40521618567257578 0 -0.38093630885333318 -0.39155049565269678 0 -0.38524472509184832 -0.40521618567257578 0 -0.37981789051486531 -0.40249136897996052 0 -0.38093630885333318 -0.39155049565269678 0 -0.37981789051486531 -0.40249136897996052 0 -0.37601704211179948 -0.41047839704081651 0 -0.36960007437807008 -0.39879557688083861 0 -0.38524472509184832 -0.40521618567257578 0 -0.37981789051486531 -0.40249136897996052 0 -0.37601704211179948 -0.41047839704081651 0 -0.39600251545542342 -0.38224660206833327 0 -0.38093630885333318 -0.39155049565269678 0 -0.38187580265442911 -0.38355052738800238 0 -0.38093630885333318 -0.39155049565269678 0 -0.3759023492620272 -0.37814682537852329 0 -0.36845583533737852 -0.38560237085173249 0 -0.38093630885333318 -0.39155049565269678 0 -0.3759023492620272 -0.37814682537852329 0 -0.38093630885333318 -0.39155049565269678 0 -0.38187580265442911 -0.38355052738800238 0 -0.3759023492620272 -0.37814682537852329 0 -0.38187580265442911 -0.38355052738800238 0 -0.37979388515948742 -0.37896530263301598 0 -0.3759023492620272 -0.37814682537852329 0 -0.38187580265442911 -0.38355052738800238 0 -0.37979388515948742 -0.37896530263301598 0 -0.38307336420015298 -0.37702770842289968 0 -0.37979388515948742 -0.37896530263301598 0 -0.3759023492620272 -0.37814682537852329 0 -0.38075208743137801 -0.37436048879717287 0 -0.37979388515948742 -0.37896530263301598 0 -0.38307336420015298 -0.37702770842289968 0 -0.38075208743137801 -0.37436048879717287 0 -0.39600251545542342 -0.38224660206833327 0 -0.38307336420015298 -0.37702770842289968 0 -0.38798606415442682 -0.37257274489144399 0 -0.39600251545542342 -0.38224660206833327 0 -0.38187580265442911 -0.38355052738800238 0 -0.38307336420015298 -0.37702770842289968 0 -0.41508809379409511 -0.43319730311662052 0 -0.39644606631157348 -0.42822454086278677 0 -0.40373881166512637 -0.44887363791454099 0 -0.39644606631157348 -0.42822454086278677 0 -0.39825486268490951 -0.411985419321795 0 -0.38860814720415099 -0.41840297878349397 0 -0.41063832349300899 -0.41970077410794099 0 -0.39644606631157348 -0.42822454086278677 0 -0.39825486268490951 -0.411985419321795 0 -0.38524472509184832 -0.40521618567257578 0 -0.39825486268490951 -0.411985419321795 0 -0.38860814720415099 -0.41840297878349397 0 -0.38524472509184832 -0.40521618567257578 0 -0.38860814720415099 -0.41840297878349397 0 -0.3744869347282731 -0.42818576927681828 0 -0.38524472509184832 -0.40521618567257578 0 -0.3744869347282731 -0.42818576927681828 0 -0.38524472509184832 -0.40521618567257578 0 -0.37601704211179948 -0.41047839704081651 0 -0.3744869347282731 -0.42818576927681828 0 -0.39644606631157348 -0.42822454086278677 0 -0.38860814720415099 -0.41840297878349397 0 -0.3744869347282731 -0.42818576927681828 0 -0.39644606631157348 -0.42822454086278677 0 -0.38811639353944938 -0.44189261653749018 0 -0.3744869347282731 -0.42818576927681828 0 -0.38811639353944938 -0.44189261653749018 0 -0.36372914436469789 -0.45115535288106079 0 -0.3744869347282731 -0.42818576927681828 0 -0.38811639353944938 -0.44189261653749018 0 -0.38912887489226172 -0.46024280839623039 0 -0.36372914436469789 -0.45115535288106079 0 -0.39644606631157348 -0.42822454086278677 0 -0.38811639353944938 -0.44189261653749018 0 -0.40373881166512637 -0.44887363791454099 0 -0.38811639353944938 -0.44189261653749018 0 -0.40373881166512637 -0.44887363791454099 0 -0.38912887489226172 -0.46024280839623039 0 -0.38912887489226172 -0.46024280839623039 0 -0.3936650873929336 -0.47656217978209042 0 -0.40777201582978201 -0.46789701495477382 0 -0.40373881166512637 -0.44887363791454099 0 -0.38912887489226172 -0.46024280839623039 0 -0.40777201582978201 -0.46789701495477382 0 -0.38912887489226172 -0.46024280839623039 0 -0.37502175290265061 -0.47431805020415158 0 -0.36372914436469789 -0.45115535288106079 0 -0.38912887489226172 -0.46024280839623039 0 -0.37502175290265061 -0.47431805020415158 0 -0.3936650873929336 -0.47656217978209042 0 -0.38568059225937951 -0.49008316144307451 0 -0.40030267429403987 -0.5 0 -0.36394707794846332 -0.49358884076630988 0 -0.37502175290265061 -0.47431805020415158 0 -0.38568059225937951 -0.49008316144307451 0 -0.3936650873929336 -0.47656217978209042 0 -0.38568059225937951 -0.49008316144307451 0 -0.40741410657029559 -0.48657748211983898 0 -0.38568059225937951 -0.49008316144307451 0 -0.3936650873929336 -0.47656217978209042 0 -0.40741410657029559 -0.48657748211983898 0 -0.38568059225937951 -0.49008316144307451 0 -0.40030267429403987 -0.5 0 -0.40741410657029559 -0.48657748211983898 0 -0.3936650873929336 -0.47656217978209042 0 -0.40741410657029559 -0.48657748211983898 0 -0.40777201582978201 -0.46789701495477382 0 -0.4437440370372035 -0.5 0 -0.40741410657029559 -0.48657748211983898 0 -0.42809511023068592 -0.47672877674729941 0 -0.4437440370372035 -0.5 0 -0.40030267429403987 -0.5 0 -0.40741410657029559 -0.48657748211983898 0 -0.40741410657029559 -0.48657748211983898 0 -0.42809511023068592 -0.47672877674729941 0 -0.40777201582978201 -0.46789701495477382 0 -0.45566396609255122 -0.46738184304253999 0 -0.42809511023068592 -0.47672877674729941 0 -0.4245901042273888 -0.45839720476864299 0 -0.44230143731911947 -0.44175467822505898 0 -0.41508809379409511 -0.43319730311662052 0 -0.4245901042273888 -0.45839720476864299 0 -0.41508809379409511 -0.43319730311662052 0 -0.40373881166512637 -0.44887363791454099 0 -0.424590104227
[...]
<PointData Scalars="" Vectors="displacement," Tensors="">
<DataArray type="Float64" Name="displacement" NumberOfComponents="3" format="ascii">
-0.034996785649901732 -2.1228709744777672e-07 0 -0.032800322109283672 -0.00025339493881539375 0 -0.034138215658960039 3.7514022702313872e-05 0 -0.034996785649901732 -2.1228709744777672e-07 0 -0.034138215658960039 3.7514022702313872e-05 0 -0.034997425451945584 3.0769825021454142e-07 0 -0.034996785649901732 -2.1228709744777672e-07 0 -0.031064281462023665 -1.1448981099736424e-06 0 -0.032800322109283672 -0.00025339493881539375 0 -0.031064281462023665 -1.1448981099736424e-06 0 -0.032800322109283672 -0.00025339493881539375 0 -0.031267887575206169 -0.00023995032929116276 0 -0.032500669655389322 -0.00035851727153388927 0 -0.032800322109283672 -0.00025339493881539375 0 -0.034138215658960039 3.7514022702313872e-05 0 -0.032500669655389322 -0.00035851727153388927 0 -0.032800322109283672 -0.00025339493881539375 0 -0.031826975168917637 -0.00035472326524510538 0 -0.034138215658960039 3.7514022702313872e-05 0 -0.034997425451945584 3.0769825021454142e-07 0 -0.034540717192983565 0.00038286385215866649 0 -0.034997425451945584 3.0769825021454142e-07 0 -0.034545677304768811 0.00039678882748904806 0 -0.034540717192983565 0.00038286385215866649 0 -0.034019897828232094 4.2764623420462422e-05 0 -0.033499567562185258 0.0001187542468190609 0 -0.034997425451945584 3.0769825021454142e-07 0 -0.034545677304768811 0.00039678882748904806 0 -0.034999574908851847 3.1094565342268932e-07 0 -0.034545677304768811 0.00039678882748904806 0 -0.034561195314855186 0.00028097025112408552 0 -0.033555707875860839 0.00092866475848119435 0 -0.034545677304768811 0.00039678882748904806 0 -0.034263510195358546 0.00030001946937202421 0 -0.034540717192983565 0.00038286385215866649 0 -0.034545677304768811 0.00039678882748904806 0 -0.034263510195358546 0.00030001946937202421 0 -0.033555707875860839 0.00092866475848119435 0 -0.034263510195358546 0.00030001946937202421 0 -0.032967386730912832 2.4321606015720532e-05 0 -0.033555707875860839 0.00092866475848119435 0 -0.031573892989833298 -0.00022880229900381542 0 -0.032456148416310004 -7.2435006769532085e-05 0 -0.03198988294335655 -0.00048068237478355837 0 -0.032500669655389322 -0.00035851727153388927 0 -0.034138215658960039 3.7514022702313872e-05 0 -0.032456148416310004 -7.2435006769532085e-05 0 -0.032500669655389322 -0.00035851727153388927 0 -0.032456148416310004 -7.2435006769532085e-05 0 -0.03198988294335655 -0.00048068237478355837 0 -0.032899887506652216 -3.966277112992718e-06 0 -0.033499567562185258 0.0001187542468190609 0 -0.032500669655389322 -0.00035851727153388927 0 -0.03198988294335655 -0.00048068237478355837 0 -0.031954215576817276 -0.00054913077553450629 0 -0.031573892989833298 -0.00022880229900381542 0 -0.03198988294335655 -0.00048068237478355837 0 -0.03158939537786197 -0.00083078057727904719 0 -0.031827381454772728 -0.00071806254986585337 0 -0.03158939537786197 -0.00083078057727904719 0 -0.031682485628511725 -0.000945633737428342 0 -0.03198988294335655 -0.00048068237478355837 0 -0.031827381454772728 -0.00071806254986585337 0 -0.03158939537786197 -0.00083078057727904719 0 -0.031827381454772728 -0.00071806254986585337 0 -0.031954215576817276 -0.00054913077553450629 0 -0.031784965879830332 -0.00061827332593449274 0 -0.03198988294335655 -0.00048068237478355837 0 -0.031827381454772728 -0.00071806254986585337 0 -0.031954215576817276 -0.00054913077553450629 0 -0.032899887506652216 -3.966277112992718e-06 0 -0.031733950828331872 -0.00098121230810234807 0 -0.034263510195358546 0.00030001946937202421 0 -0.032967386730912832 2.4321606015720532e-05 0 -0.03292267683969801 -0.0010831029186235085 0 -0.031573892989833298 -0.00022880229900381542 0 -0.03158939537786197 -0.00083078057727904719 0 -0.031104974055550679 -0.00099106059188047756 0 -0.031573892989833298 -0.00022880229900381542 0 -0.031104974055550679 -0.00099106059188047756 0 -0.030541058891366865 -0.00093248862730133456 0 -0.03158939537786197 -0.00083078057727904719 0 -0.031104974055550679 -0.00099106059188047756 0 -0.031332167205080599 -0.0012099915226679331 0 -0.031104974055550679 -0.00099106059188047756 0 -0.030541058891366865 -0.00093248862730133456 0 -0.030359500634544501 -0.0019790405466462158 0 -0.031332167205080599 -0.0012099915226679331 0 -0.031629112409240538 -0.001156493215150752 0 -0.031682485628511725 -0.000945633737428342 0 -0.031104974055550679 -0.00099106059188047756 0 -0.030359500634544501 -0.0019790405466462158 0 -0.031332167205080599 -0.0012099915226679331 0 -0.03158939537786197 -0.00083078057727904719 0 -0.031332167205080599 -0.0012099915226679331 0 -0.031682485628511725 -0.000945633737428342 0 -0.030359500634544501 -0.0019790405466462158 0 -0.031332167205080599 -0.0012099915226679331 0 -0.031629112409240538 -0.001156493215150752 0 -0.026134312902543054 -0.0011324445272261612 0 -0.02842340270195285 -0.0011002384766734788 0 -0.029591682435366633 0.0014813107564250118 0 -0.030066927786663675 -0.0019336826675537165 0 -0.028619975155166334 -0.0014697938696680848 0 -0.030359500634544501 -0.0019790405466462158 0 -0.02571140604390414 -0.001997478645834409 0 -0.02842340270195285 -0.0011002384766734788 0 -0.02571140604390414 -0.001997478645834409 0 -0.026134312902543054 -0.0011324445272261612 0 -0.02842340270195285 -0.0011002384766734788 0 -0.026134312902543054 -0.0011324445272261612 0 -0.024829981381290538 -0.00092945791060307511 0 -0.026498922573874314 4.4397509377376557e-05 0 -0.02571140604390414 -0.001997478645834409 0 -0.026134312902543054 -0.0011324445272261612 0 -0.024829981381290538 -0.00092945791060307511 0 -0.030359500634544501 -0.0019790405466462158 0 -0.02842340270195285 -0.0011002384766734788 0 -0.029515055724656798 -0.0013782740181874701 0 -0.02842340270195285 -0.0011002384766734788 0 -0.031084932742082964 -4.2677514866457491e-05 0 -0.029591682435366633 0.0014813107564250118 0 -0.029734219140910758 -0.00043253177451408237 0 -0.025545160283533541 -5.0921966445271375e-05 0 -0.02842340270195285 -0.0011002384766734788 0 -0.029515055724656798 -0.0013782740181874701 0 -0.030128101671566335 -0.0012774012334589762 0 -0.029515055724656798 -0.0013782740181874701 0 -0.029970699577491038 -0.0014073724534329594 0 -0.030128101671566335 -0.0012774012334589762 0 -0.029515055724656798 -0.0013782740181874701 0 -0.029970699577491038 -0.0014073724534329594 0 -0.030092153075197827 -0.0015868568022633599 0 -0.029970699577491038 -0.0014073724534329594 0 -0.030128101671566335 -0.0012774012334589762 0 -0.030181852380869519 -0.0015607875026360076 0 -0.029970699577491038 -0.0014073724534329594 0 -0.030092153075197827 -0.0015868568022633599 0 -0.030181852380869519 -0.0015607875026360076 0 -0.030359500634544501 -0.0019790405466462158 0 -0.030092153075197827 -0.0015868568022633599 0 -0.030306128043750137 -0.001795077211334644 0 -0.030359500634544501 -0.0019790405466462158 0 -0.029515055724656798 -0.0013782740181874701 0 -0.030092153075197827 -0.0015868568022633599 0 -0.031954215576817276 -0.00054913077553450629 0 -0.031784965879830332 -0.00061827332593449274 0 -0.031615459366197828 -0.0003431798796316647 0 -0.031784965879830332 -0.00061827332593449274 0 -0.031682485628511725 -0.000945633737428342 0 -0.031733624679649068 -0.00074987517402819441 0 -0.031827381454772728 -0.00071806254986585337 0 -0.031784965879830332 -0.00061827332593449274 0 -0.031682485628511725 -0.000945633737428342 0 -0.031629112409240538 -0.001156493215150752 0 -0.031682485628511725 -0.000945633737428342 0 -0.031733624679649068 -0.00074987517402819441 0 -0.031629112409240538 -0.001156493215150752 0 -0.031733624679649068 -0.00074987517402819441 0 -0.031754609563812909 -0.00020526136217253023 0 -0.028619975155166334 -0.0014697938696680848 0 -0.027328991764724614 -0.00057922811491450553 0 -0.02571140604390414 -0.001997478645834409 0 -0.024829981381290538 -0.00092945791060307511 0 -0.02292720360804102 -0.00094462587101826591 0 -0.031784965879830332 -0.00061827332593449274 0 -0.031733624679649068 -0.00074987517402819441 0 -0.031754609563812909 -0.00020526136217253023 0 -0.031784965879830332 -0.00061827332593449274 0 -0.03157156901693374 -0.0002448810511159084 0 -0.031754609563812909 -0.00020526136217253023 0 -0.03157156901693374 -0.0002448810511159084 0 -0.031261572714844872 0.00052350217542819369 0 -0.031754609563812909 -0.00020526136217253023 0 -0.03157156901693374 -0.0002448810511159084 0 -0.031123346924104817 1.4838190935644832e-05 0 -0.031261572714844872 0.00052350217542819369 0 -0.031784965879830332 -0.00061827332593449274 0 -0.03157156901693374 -0.0002448810511159084 0 -0.031615459366197828 -0.0003431798796316647 0 -0.03157156901693374 -0.0002448810511159084 0 -0.031615459366197828 -0.0003431798796316647 0 -0.031123346924104817 1.4838190935644832e-05 0 -0.031123346924104817 1.4838190935644832e-05 0 -0.030537804695251625 0.00015044507259782248 0 -0.031113252635534099 -0.00017834200879900111 0 -0.031615459366197828 -0.0003431798796316647 0 -0.031123346924104817 1.4838190935644832e-05 0 -0.031113252635534099 -0.00017834200879900111 0 -0.031123346924104817 1.4838190935644832e-05 0 -0.030615742318503798 0.00042486034475269828 0 -0.031261572714844872 0.00052350217542819369 0 -0.031123346924104817 1.4838190935644832e-05 0 -0.030615742318503798 0.00042486034475269828 0 -0.030537804695251625 0.00015044507259782248 0 -0.027322373217656855 8.4921936840260759e-05 0 -0.028022643775849558 5.3214359122239803e-07 0 -0.025652808038680669 2.9834715875913784e-05 0 -0.030615742318503798 0.00042486034475269828 0 -0.030202610807180136 0.00028105510404089932 0 -0.030537804695251625 0.00015044507259782248 0 -0.028797811599056214 6.0258866476195669e-05 0 -0.029549638807412421 -0.00026301939275848852 0 -0.030202610807180136 0.00028105510404089932 0 -0.030537804695251625 0.00015044507259782248 0 -0.029744783867069621 -8.2145253056062711e-05 0 -0.027322373217656855 8.4921936840260759e-05 0 -0.028022643775849558 5.3214359122239803e-07 0 -0.029744783867069621 -8.2145253056062711e-05 0 -0.030537804695251625 0.00015044507259782248 0 -0.029744783867069621 -8.2145253056062711e-05 0 -0.031113252635534099 -0.00017834200879900111 0 -0.031064281462023665 -1.1448981099736424e-06 0 -0.029744783867069621 -8.2145253056062711e-05 0 -0.031267887575206169 -0.00023995032929116276 0 -0.031064281462023665 -1.1448981099736424e-06 0 -0.028022643775849558 5.3214359122239803e-07 0 -0.029744783867069621 -8.2145253056062711e-05 0 -0.029744783867069621 -8.2145253056062711e-05 0 -0.031267887575206169 -0.00023995032929116276 0 -0.031113252635534099 -0.00017834200879900111 0 -0.032800322109283672 -0.00025339493881539375 0 -0.031267887575206169 -0.00023995032929116276 0 -0.031826975168917637 -0.00035472326524510538 0 -0.032500669655389322 -0.00035851727153388927 0 -0.031954215576817276 -0.00054913077553450629 0 -0.031826975168917637 -0.00035472326524510538 0 -0.031954215576817276 -0.00054913077553450629 0 -0.031615459366197828 -0.0003431798796316647 0 -0.031826975168917637 -0.00035472326524510538 0 -0.031615459366197828 -0.0003431798796316647 0 -0.031826975168917637 -0.00035472326524510538 0 -0.031113252635534099 -0.00017834200879900111 0 -0.031267887575206169 -0.00023995032929116276 0 -0.031826975168917637 -0.00035472326524510538 0 -0.031113252635534099 -0.00017834200879900111 0 -0.030523352576441877 0.0018079963400182554 0 -0.030615817526502859 0.0018941258150989859 0 -0.030516941249203473 0.0018831199867381174 0 -0.030523352576441877 0.0018079963400182554 0 -0.030516941249203473 0.0018831199867381174 0 -0.030423195233898102 0.0018322314683926772 0 -0.030523352576441877 0.0018079963400182554 0 -0.030436083334676782 0.0017530402868394029 0 -0.030423195233898102 0.0018322314683926772 0 -0.030523352576441877 0.0018079963400182554 0 -0.030616158835405343 0.0018303728121411471 0 -0.030615817526502859 0.0018941258150989859 0 -0.030616158835405343 0.0018303728121411471 0 -0.030615817526502859 0.0018941258150989859 0 -0.030698697886959132 0.0018781051468069975 0 -0.030615817526502859 0.0018941258150989859 0 -0.030651530378567701 0.0019633961300296525 0 -0.030714555567185154 0.0019262615570931397 0 -0.030615817526502859 0.0018941258150989859 0 -0.030560154967682562 0.0019460373941159789 0 -0.030651530378567701 0.0019633961300296525 0 -0.030560154967682562 0.0019460373941159789 0 -0.030516941249203473 0.0018831199867381174 0 -0.030444840987455302 0.0019146459334033734 0 -0.030560154967682562 0.0019460373941159789 0 -0.030488657899413615 0.0020233058572847514 0 -0.030444840987455302 0.0019146459334033734 0 -0.030615817526502859 0.0018941258150989859 0 -0.030560154967682562 0.0019460373941159789 0 -0.030516941249203473 0.0018831199867381174 0 -0.030560154967682562 0.0019460373941159789 0 -0.030603701419961736 0.0020040703614381422 0 -0.030488657899413615 0.0020233058572847514 0 -0.030638243282596778 0.002074506577705922 0 -0.030603701419961736 0.0020040703614381422 0 -0.030488657899413615 0.0020233058572847514 0 -0.033780420636112016 0.00043462672067167367 0 -0.032564169935422209 0.0010499649446057771 0 -0.034999979084571357 -1.4898931316065882e-09 0 -0.034998981629350952 -9.4791613917540131e-07 0 -0.03499083707972752 -2.9611332502895045e-06 0 -0.033780420636112016 0.00043462672067167367 0 -0.035459532053230089 -0.00011840396348497646 0 -0.034901546550882775 7.6730404557985225e-06 0 -0.03499083707972752 -2.9611332502895045e-06 0 -0.034971788650144532 2.5453028349062886e-05 0 -0.033780420636112016 0.00043462672067167367 0 -0.032707857949405499 0.0013429237544820589 0 -0.035276497875478374 0.00018463044931346894 0 -0.03512404707043483 0.00042100427107715269 0 -0.035002651340895696 9.9728752165045133e-07 0 -0.030638243282596778 0.002074506577705922 0 -0.030673926382217814 0.0020132476938178336 0 -0.030748617291148455 0.0020382811154185444 0 -0.034999979084571357 -1.4898931316065882e-09 0 -0.034998981629350952 -9.4791613917540131e-07 0 -0.035000005726480252 9.8794473578161961e-10 0 -0.033780420636112016 0.00043462672067167367 0 -0.035000616119408301 4.936754016481485e-07 0 -0.030638243282596778 0.002074506577705922 0 -0.030673926382217814 0.0020132476938178336 0 -0.030603701419961736 0.0020040703614381422 0 -0.030560154967682562 0.0019460373941159789 0 -0.030603701419961736 0.0020040703614381422 0 -0.030651530378567701 0.0019633961300296525 0 -0.030673926382217814 0.0020132476938178336 0 -0.030603701419961736 0.0020040703614381422 0 -0.030651530378567701 0.0019633961300296525 0 -0.030673926382217814 0.0020132476938178336 0 -0.030651530378567701 0.0019633961300296525 0 -0.030734022654524067 0.0019775817396132517 0 -0.030734022654524067 0.0019775817396132517 0 -0.030748617291148455 0.0020382811154185444 0 -0.030862697152841612 0.0019844569952616863 0 -0.030651530378567701 0.0019633961300296525 0 -0.030734022654524067 0.0019775817396132517 0 -0.030714555567185154 0.0019262615570931397 0 -0.030734022654524067 0.0019775817396132517 0 -0.030786925443593988 0.0019308234878512177 0 -0.030714555567185154 0.0019262615570931397 0 -0.030673926382217814 0.0020132476938178336 0 -0.030734022654524067 0.0019775817396132517 0 -0.030748617291148455 0.0020382811154185444 0 -0.03512404707043483 0.00042100427107715269 0 -0.035002651340895696 9.9728752165045133e-07 0 -0.034996577895145188 -7.4080863320019692e-07 0 -0.032707857949405499 0.0013429237544820589 0 -0.032259568946983674 0.0016519387003300777 0 -0.034996577895145188 -7.4080863320019692e-07 0 -0.033727627520208414 0.0014893874459806383 0 -0.031477764876353204 0.0014381038582672253 0 -0.03512404707043483 0.00042100427107715269 0 -0.034996577895145188 -7.4080863320019692e-07 0 -0.033727627520208414 0.0014893874459806383 0 -0.030734022654524067 0.0019775817396132517 0 -0.030862697152841612 0.0019844569952616863 0 -0.030786925443593988 0.0019308234878512177 0 -0.030862697152841612 0.0019844569952616863 0 -0.030852828405276395 0.0018943700660753007 0 -0.03095387465329693 0.0018317895280492037 0 -0.030862697152841612 0.0019844569952616863 0 -0.030786925443593988 0.0019308234878512177 0 -0.030852828405276395 0.0018943700660753007 0 -0.030852828405276395 0.0018943700660753007 0 -0.030787788202343971 0.0019129373803815409 0 -0.030851094078363391 0.0019141416063147218 0 -0.030787788202343971 0.0019129373803815409 0 -0.030802690590466999 0.0019288282288956041 0 -0.030851094078363391 0.0019141416063147218 0 -0.030786925443593988 0.0019308234878512177 0 -0.030852828405276395 0.0018943700660753007 0 -0.030787788202343971 0.0019129373803815409 0 -0.030786925443593988 0.0019308234878512177 0 -0.030787788202343971 0.0019129373803815409 0 -0.030714555567185154 0.0019262615570931397 0 -0.030615817526502859 0.0018941258150989859 0 -0.030714555567185154 0.0019262615570931397 0 -0.030698697886959132 0.0018781051468069975 0 -0.030787788202343971 0.0019129373803815409 0 -0.030714555567185154 0.0019262615570931397 0 -0.030698697886959132 0.0018781051468069975 0 -0.030698697886959132 0.0018781051468069975 0 -0.030736213534716422 0.0018655413278562195 0 -0.030656252920338679 0.001805053472106037 0 -0.030616158835405343 0.0018303728121411471 0 -0.030698697886959132 0.0018781051468069975 0 -0.030656252920338679 0.001805053472106037 0 -0.030787788202343971 0.0019129373803815409 0 -0.030698697886959132 0.0018781051468069975 0 -0.030736213534716422 0.0018655413278562195 0 -0.030787788202343971 0.0019129373803815409 0 -0.030736213534716422 0.0018655413278562195 0 -0.030802690590466999 0.0019288282288956041 0 -0.030736213534716422 0.0018655413278562195 0 -0.030802690590466999 0.0019288282288956041 0 -0.030778052285384543 0.0018762831196333313 0 -0.030834978306681703 0.0019557390280748972 0 -0.030326221692756047 0.0020714615566072613 0 -0.030764160856078873 0.0019693960304397072 0 -0.030802690590466999 0.0019288282288956041 0 -0.030834978306681703 0.0019557390280748972 0 -0.030764160856078873 0.0019693960304397072 0 -0.030802690590466999 0.0019288282288956041 0 -0.030834978306681703 0.0019557390280748972 0 -0.030778052285384543 0.0018762831196333313 0 -0.027201760948083763 0.00054081820803542427 0 -0.029936693690795955 0.00067396334143214945 0 -0.030326221692756047 0.0020714615566072613 0 -0.029237898434650963 0.0012796303198719795 0 -0.030069248632858592 0.0019415267141652192 0 -0.030326221692756047 0.0020714615566072613 0 -0.030796168745106971 0.0019244571124357455 0 -0.03049719002210019 0.0024304880105560246 0 -0.030326221692756047 0.0020714615566072613 0 -0.030796168745106971 0.0019244571124357455 0 -0.030764160856078873 0.0019693960304397072 0 -0.030796168745106971 0.0019244571124357455 0 -0.030851094078363391 0.0019141416063147218 0 -0.03095387465329693 0.0018317895280492037 0 -0.030796168745106971 0.0019244571124357455 0 -0.030764160856078873 0.0019693960304397072 0 -0.030851094078363391 0.0019141416063147218 0 -0.030802690590466999 0.0019288282288956041 0 -0.030764160856078873 0.0019693960304397072 0 -0.030851094078363391 0.0019141416063147218 0 -0.032259568946983674 0.0016519387003300777 0 -0.031322279142522676 0.001735240267129574 0 -0.030852828405276395 0.0018943700660753007 0 -0.030851094078363391 0.0019141416063147218 0 -0.03095387465329693 0.0018317895280492037 0 -0.03500037174444124 -3.0169967826192017e-08 0 -0.035028840335075001 8.1660477606057731e-05 0 -0.034998535004158698 9.4011217639405594e-05 0 -0.03500037174444124 -3.0169967826192017e-08 0 -0.034998535004158698 9.4011217639405594e-05 0 -0.034999574908851847 3.1094565342268932e-07 0 -0.030862697152841612 0.0019844569952616863 0 -0.03095387465329693 0.0018317895280492037 0 -0.031219617623744412 0.0016806434118087482 0 -0.033727627520208414 0.0014893874459806383 0 -0.031477764876353204 0.0014381038582672253 0 -0.031219617623744412 0.0016806434118087482 0 -0.030796168745106971 0.0019244571124357455 0 -0.03095387465329693 0.0018317895280492037 0 -0.031219617623744412 0.0016806434118087482 0 -0.034849547859070254 2.3449669611482479e-05 0 -0.033302187400472659 0.00079598478741345899 0 -0.035028840335075001 8.1660477606057731e-05 0 -0.03493194021024195 0.00046380827