<?xml version="1.0"?>
<VTKFile type="UnstructuredGrid" version="0.1" byte_order="LittleEndian">
<UnstructuredGrid>
<Piece NumberOfPoints="30979" NumberOfCells="10840">
<Points>
<DataArray type="Float64" NumberOfComponents="3" format="ascii">
-0.5 -0.5 0 -0.45566396609255122 -0.46738184304253999 0 -0.48168049895180642 -0.44054721128114638 0 -0.5 -0.5 0 -0.48168049895180642 -0.44054721128114638 0 -0.5 -0.41826907986550721 0 -0.5 -0.5 0 -0.4437440370372035 -0.5 0 -0.45566396609255122 -0.46738184304253999 0 -0.4437440370372035 -0.5 0 -0.45566396609255122 -0.46738184304253999 0 -0.42809511023068592 -0.47672877674729941 0 -0.44230143731911947 -0.44175467822505898 0 -0.45566396609255122 -0.46738184304253999 0 -0.48168049895180642 -0.44054721128114638 0 -0.44230143731911947 -0.44175467822505898 0 -0.45566396609255122 -0.46738184304253999 0 -0.4245901042273888 -0.45839720476864299 0 -0.48168049895180642 -0.44054721128114638 0 -0.5 -0.41826907986550721 0 -0.46065406903617789 -0.42050628408324969 0 -0.5 -0.41826907986550721 0 -0.47894729271241038 -0.39512202691991383 0 -0.46065406903617789 -0.42050628408324969 0 -0.48168049895180642 -0.44054721128114638 0 -0.46065406903617789 -0.42050628408324969 0 -0.5 -0.41826907986550721 0 -0.47894729271241038 -0.39512202691991383 0 -0.5 -0.35841782388268417 0 -0.47894729271241038 -0.39512202691991383 0 -0.47860696210132803 -0.36435486710316412 0 -0.45574650359470142 -0.37412855344555501 0 -0.47894729271241038 -0.39512202691991383 0 -0.43962763912054942 -0.40046535688535312 0 -0.46065406903617789 -0.42050628408324969 0 -0.47894729271241038 -0.39512202691991383 0 -0.43962763912054942 -0.40046535688535312 0 -0.45574650359470142 -0.37412855344555501 0 -0.43962763912054942 -0.40046535688535312 0 -0.43643624458113078 -0.37614954950182389 0 -0.45574650359470142 -0.37412855344555501 0 -0.43962763912054942 -0.40046535688535312 0 -0.46065406903617789 -0.42050628408324969 0 -0.42928209368157039 -0.41865460272783422 0 -0.44230143731911947 -0.44175467822505898 0 -0.48168049895180642 -0.44054721128114638 0 -0.46065406903617789 -0.42050628408324969 0 -0.44230143731911947 -0.44175467822505898 0 -0.46065406903617789 -0.42050628408324969 0 -0.42928209368157039 -0.41865460272783422 0 -0.43962763912054942 -0.40046535688535312 0 -0.46065406903617789 -0.42050628408324969 0 -0.44230143731911947 -0.44175467822505898 0 -0.42928209368157039 -0.41865460272783422 0 -0.41508809379409511 -0.43319730311662052 0 -0.43962763912054942 -0.40046535688535312 0 -0.42928209368157039 -0.41865460272783422 0 -0.41412050099289671 -0.4064420045106692 0 -0.41063832349300899 -0.41970077410794099 0 -0.41412050099289671 -0.4064420045106692 0 -0.39825486268490951 -0.411985419321795 0 -0.42928209368157039 -0.41865460272783422 0 -0.41063832349300899 -0.41970077410794099 0 -0.41412050099289671 -0.4064420045106692 0 -0.41063832349300899 -0.41970077410794099 0 -0.41508809379409511 -0.43319730311662052 0 -0.39644606631157348 -0.42822454086278677 0 -0.42928209368157039 -0.41865460272783422 0 -0.41063832349300899 -0.41970077410794099 0 -0.41508809379409511 -0.43319730311662052 0 -0.43962763912054942 -0.40046535688535312 0 -0.41860120920492089 -0.3804244296874566 0 -0.43962763912054942 -0.40046535688535312 0 -0.43643624458113078 -0.37614954950182389 0 -0.41860120920492089 -0.3804244296874566 0 -0.43962763912054942 -0.40046535688535312 0 -0.41412050099289671 -0.4064420045106692 0 -0.41293465319379657 -0.39322660128121761 0 -0.43962763912054942 -0.40046535688535312 0 -0.41293465319379657 -0.39322660128121761 0 -0.41860120920492089 -0.3804244296874566 0 -0.41412050099289671 -0.4064420045106692 0 -0.41293465319379657 -0.39322660128121761 0 -0.40092696773705572 -0.39947867840182799 0 -0.41293465319379657 -0.39322660128121761 0 -0.41860120920492089 -0.3804244296874566 0 -0.39600251545542342 -0.38224660206833327 0 -0.40092696773705572 -0.39947867840182799 0 -0.38524472509184832 -0.40521618567257578 0 -0.39825486268490951 -0.411985419321795 0 -0.41293465319379657 -0.39322660128121761 0 -0.39600251545542342 -0.38224660206833327 0 -0.40092696773705572 -0.39947867840182799 0 -0.41412050099289671 -0.4064420045106692 0 -0.40092696773705572 -0.39947867840182799 0 -0.39825486268490951 -0.411985419321795 0 -0.39600251545542342 -0.38224660206833327 0 -0.40092696773705572 -0.39947867840182799 0 -0.38524472509184832 -0.40521618567257578 0 -0.37981789051486531 -0.40249136897996052 0 -0.38093630885333318 -0.39155049565269678 0 -0.36845583533737852 -0.38560237085173249 0 -0.39600251545542342 -0.38224660206833327 0 -0.38524472509184832 -0.40521618567257578 0 -0.39600251545542342 -0.38224660206833327 0 -0.38524472509184832 -0.40521618567257578 0 -0.38093630885333318 -0.39155049565269678 0 -0.38524472509184832 -0.40521618567257578 0 -0.37981789051486531 -0.40249136897996052 0 -0.38093630885333318 -0.39155049565269678 0 -0.37981789051486531 -0.40249136897996052 0 -0.37601704211179948 -0.41047839704081651 0 -0.36960007437807008 -0.39879557688083861 0 -0.38524472509184832 -0.40521618567257578 0 -0.37981789051486531 -0.40249136897996052 0 -0.37601704211179948 -0.41047839704081651 0 -0.39600251545542342 -0.38224660206833327 0 -0.38093630885333318 -0.39155049565269678 0 -0.38187580265442911 -0.38355052738800238 0 -0.38093630885333318 -0.39155049565269678 0 -0.3759023492620272 -0.37814682537852329 0 -0.36845583533737852 -0.38560237085173249 0 -0.38093630885333318 -0.39155049565269678 0 -0.3759023492620272 -0.37814682537852329 0 -0.38093630885333318 -0.39155049565269678 0 -0.38187580265442911 -0.38355052738800238 0 -0.3759023492620272 -0.37814682537852329 0 -0.38187580265442911 -0.38355052738800238 0 -0.37979388515948742 -0.37896530263301598 0 -0.3759023492620272 -0.37814682537852329 0 -0.38187580265442911 -0.38355052738800238 0 -0.37979388515948742 -0.37896530263301598 0 -0.38307336420015298 -0.37702770842289968 0 -0.37979388515948742 -0.37896530263301598 0 -0.3759023492620272 -0.37814682537852329 0 -0.38075208743137801 -0.37436048879717287 0 -0.37979388515948742 -0.37896530263301598 0 -0.38307336420015298 -0.37702770842289968 0 -0.38075208743137801 -0.37436048879717287 0 -0.39600251545542342 -0.38224660206833327 0 -0.38307336420015298 -0.37702770842289968 0 -0.38798606415442682 -0.37257274489144399 0 -0.39600251545542342 -0.38224660206833327 0 -0.38187580265442911 -0.38355052738800238 0 -0.38307336420015298 -0.37702770842289968 0 -0.41508809379409511 -0.43319730311662052 0 -0.39644606631157348 -0.42822454086278677 0 -0.40373881166512637 -0.44887363791454099 0 -0.39644606631157348 -0.42822454086278677 0 -0.39825486268490951 -0.411985419321795 0 -0.38860814720415099 -0.41840297878349397 0 -0.41063832349300899 -0.41970077410794099 0 -0.39644606631157348 -0.42822454086278677 0 -0.39825486268490951 -0.411985419321795 0 -0.38524472509184832 -0.40521618567257578 0 -0.39825486268490951 -0.411985419321795 0 -0.38860814720415099 -0.41840297878349397 0 -0.38524472509184832 -0.40521618567257578 0 -0.38860814720415099 -0.41840297878349397 0 -0.3744869347282731 -0.42818576927681828 0 -0.38524472509184832 -0.40521618567257578 0 -0.3744869347282731 -0.42818576927681828 0 -0.38524472509184832 -0.40521618567257578 0 -0.37601704211179948 -0.41047839704081651 0 -0.3744869347282731 -0.42818576927681828 0 -0.39644606631157348 -0.42822454086278677 0 -0.38860814720415099 -0.41840297878349397 0 -0.3744869347282731 -0.42818576927681828 0 -0.39644606631157348 -0.42822454086278677 0 -0.38811639353944938 -0.44189261653749018 0 -0.3744869347282731 -0.42818576927681828 0 -0.38811639353944938 -0.44189261653749018 0 -0.36372914436469789 -0.45115535288106079 0 -0.3744869347282731 -0.42818576927681828 0 -0.38811639353944938 -0.44189261653749018 0 -0.38912887489226172 -0.46024280839623039 0 -0.36372914436469789 -0.45115535288106079 0 -0.39644606631157348 -0.42822454086278677 0 -0.38811639353944938 -0.44189261653749018 0 -0.40373881166512637 -0.44887363791454099 0 -0.38811639353944938 -0.44189261653749018 0 -0.40373881166512637 -0.44887363791454099 0 -0.38912887489226172 -0.46024280839623039 0 -0.38912887489226172 -0.46024280839623039 0 -0.3936650873929336 -0.47656217978209042 0 -0.40777201582978201 -0.46789701495477382 0 -0.40373881166512637 -0.44887363791454099 0 -0.38912887489226172 -0.46024280839623039 0 -0.40777201582978201 -0.46789701495477382 0 -0.38912887489226172 -0.46024280839623039 0 -0.37502175290265061 -0.47431805020415158 0 -0.36372914436469789 -0.45115535288106079 0 -0.38912887489226172 -0.46024280839623039 0 -0.37502175290265061 -0.47431805020415158 0 -0.3936650873929336 -0.47656217978209042 0 -0.38568059225937951 -0.49008316144307451 0 -0.40030267429403987 -0.5 0 -0.36394707794846332 -0.49358884076630988 0 -0.37502175290265061 -0.47431805020415158 0 -0.38568059225937951 -0.49008316144307451 0 -0.3936650873929336 -0.47656217978209042 0 -0.38568059225937951 -0.49008316144307451 0 -0.40741410657029559 -0.48657748211983898 0 -0.38568059225937951 -0.49008316144307451 0 -0.3936650873929336 -0.47656217978209042 0 -0.40741410657029559 -0.48657748211983898 0 -0.38568059225937951 -0.49008316144307451 0 -0.40030267429403987 -0.5 0 -0.40741410657029559 -0.48657748211983898 0 -0.3936650873929336 -0.47656217978209042 0 -0.40741410657029559 -0.48657748211983898 0 -0.40777201582978201 -0.46789701495477382 0 -0.4437440370372035 -0.5 0 -0.40741410657029559 -0.48657748211983898 0 -0.42809511023068592 -0.47672877674729941 0 -0.4437440370372035 -0.5 0 -0.40030267429403987 -0.5 0 -0.40741410657029559 -0.48657748211983898 0 -0.40741410657029559 -0.48657748211983898 0 -0.42809511023068592 -0.47672877674729941 0 -0.40777201582978201 -0.46789701495477382 0 -0.45566396609255122 -0.46738184304253999 0 -0.42809511023068592 -0.47672877674729941 0 -0.4245901042273888 -0.45839720476864299 0 -0.44230143731911947 -0.44175467822505898 0 -0.41508809379409511 -0.43319730311662052 0 -0.4245901042273888 -0.45839720476864299 0 -0.41508809379409511 -0.43319730311662052 0 -0.40373881166512637 -0.44887363791454099 0 -0.424590104227
[...]
<PointData Scalars="" Vectors="displacement," Tensors="">
<DataArray type="Float64" Name="displacement" NumberOfComponents="3" format="ascii">
-2.7194653216071954e-07 -0.034997729390168084 0 -0.00011916010379761448 -0.033654343295441834 0 0.00019699061928546739 -0.031148749656915758 0 -2.7194653216071954e-07 -0.034997729390168084 0 0.00019699061928546739 -0.031148749656915758 0 2.7205330423637918e-07 -0.029280338027015712 0 -2.7194653216071954e-07 -0.034997729390168084 0 -1.9467240376005221e-07 -0.034998100728512609 0 -0.00011916010379761448 -0.033654343295441834 0 -1.9467240376005221e-07 -0.034998100728512609 0 -0.00011916010379761448 -0.033654343295441834 0 -3.551270183741885e-06 -0.034473537497827798 0 0.00049500415450454973 -0.033655335060329951 0 -0.00011916010379761448 -0.033654343295441834 0 0.00019699061928546739 -0.031148749656915758 0 0.00049500415450454973 -0.033655335060329951 0 -0.00011916010379761448 -0.033654343295441834 0 0.00022950599114753594 -0.034200304209305747 0 0.00019699061928546739 -0.031148749656915758 0 2.7205330423637918e-07 -0.029280338027015712 0 -0.00022260337303301413 -0.028458626957041214 0 2.7205330423637918e-07 -0.029280338027015712 0 -0.00036381925135040905 -0.027655670007548074 0 -0.00022260337303301413 -0.028458626957041214 0 0.00020764106579150313 -0.030998691492643789 0 0.00040898602655346371 -0.030595923705017559 0 2.7205330423637918e-07 -0.029280338027015712 0 -0.00036381925135040905 -0.027655670007548074 0 -1.2243341589569307e-06 -0.02508954381671635 0 -0.00036381925135040905 -0.027655670007548074 0 -0.00016416422058377584 -0.026117028101687794 0 -0.00037430152294931336 -0.026963529167028318 0 -0.00036381925135040905 -0.027655670007548074 0 -0.00080285365771422344 -0.02776761235639421 0 -0.00022260337303301413 -0.028458626957041214 0 -0.00036381925135040905 -0.027655670007548074 0 -0.00080285365771422344 -0.02776761235639421 0 -0.00037430152294931336 -0.026963529167028318 0 -0.00080285365771422344 -0.02776761235639421 0 -0.00036307131706723837 -0.02795040279083455 0 -0.00037430152294931336 -0.026963529167028318 0 0.0012826771112911088 -0.033408488984934301 0 0.0012207221306390758 -0.032713928694152655 0 0.0010045204084341876 -0.033640466970130734 0 0.00049500415450454973 -0.033655335060329951 0 0.00019699061928546739 -0.031148749656915758 0 0.0012207221306390758 -0.032713928694152655 0 0.00049500415450454973 -0.033655335060329951 0 0.0012207221306390758 -0.032713928694152655 0 0.0010045204084341876 -0.033640466970130734 0 0.00023484143653367058 -0.030618772156007494 0 0.00040898602655346371 -0.030595923705017559 0 0.00049500415450454973 -0.033655335060329951 0 0.0010045204084341876 -0.033640466970130734 0 0.00067442235750705558 -0.033955027296303994 0 0.0012826771112911088 -0.033408488984934301 0 0.0010045204084341876 -0.033640466970130734 0 0.0011020940736569942 -0.033590596403056713 0 0.00090480747216707387 -0.033801527335026046 0 0.0011020940736569942 -0.033590596403056713 0 0.00099086970433301521 -0.033772907372826788 0 0.0010045204084341876 -0.033640466970130734 0 0.00090480747216707387 -0.033801527335026046 0 0.0011020940736569942 -0.033590596403056713 0 0.00090480747216707387 -0.033801527335026046 0 0.00067442235750705558 -0.033955027296303994 0 0.00072181158495164077 -0.034048314984023276 0 0.0010045204084341876 -0.033640466970130734 0 0.00090480747216707387 -0.033801527335026046 0 0.00067442235750705558 -0.033955027296303994 0 0.00023484143653367058 -0.030618772156007494 0 0.0002294910671835719 -0.03131033399550559 0 -0.00080285365771422344 -0.02776761235639421 0 -0.00036307131706723837 -0.02795040279083455 0 -0.00079593534364471208 -0.029187437239519245 0 0.0012826771112911088 -0.033408488984934301 0 0.0011020940736569942 -0.033590596403056713 0 0.0011715042824689504 -0.033437400348320878 0 0.0012826771112911088 -0.033408488984934301 0 0.0011715042824689504 -0.033437400348320878 0 0.0010737093120568668 -0.033390141901563551 0 0.0011020940736569942 -0.033590596403056713 0 0.0011715042824689504 -0.033437400348320878 0 0.0011445279803750949 -0.033481582412913019 0 0.0011715042824689504 -0.033437400348320878 0 0.0010737093120568668 -0.033390141901563551 0 0.0011059425389594066 -0.032896398556271689 0 0.0011445279803750949 -0.033481582412913019 0 0.0011106736380128055 -0.033918454865769498 0 0.00099086970433301521 -0.033772907372826788 0 0.0011715042824689504 -0.033437400348320878 0 0.0011059425389594066 -0.032896398556271689 0 0.0011445279803750949 -0.033481582412913019 0 0.0011020940736569942 -0.033590596403056713 0 0.0011445279803750949 -0.033481582412913019 0 0.00099086970433301521 -0.033772907372826788 0 0.0011059425389594066 -0.032896398556271689 0 0.0011445279803750949 -0.033481582412913019 0 0.0011106736380128055 -0.033918454865769498 0 0.0015434546829494551 -0.032761971227961775 0 0.0013133432374359628 -0.03267198930092239 0 0.0011922955887240299 -0.032355593222643877 0 0.0011157145222583079 -0.033006485833450672 0 0.0012868869052207368 -0.033321700344688635 0 0.0011059425389594066 -0.032896398556271689 0 0.001583649075069976 -0.032758390895864839 0 0.0013133432374359628 -0.03267198930092239 0 0.001583649075069976 -0.032758390895864839 0 0.0015434546829494551 -0.032761971227961775 0 0.0013133432374359628 -0.03267198930092239 0 0.0015434546829494551 -0.032761971227961775 0 0.0014949218246766013 -0.032944840364591756 0 0.001554609300656839 -0.032855204368712129 0 0.001583649075069976 -0.032758390895864839 0 0.0015434546829494551 -0.032761971227961775 0 0.0014949218246766013 -0.032944840364591756 0 0.0011059425389594066 -0.032896398556271689 0 0.0013133432374359628 -0.03267198930092239 0 0.0011049601627758174 -0.03265039284143894 0 0.0013133432374359628 -0.03267198930092239 0 0.0010206638256381616 -0.032527860948768729 0 0.0011922955887240299 -0.032355593222643877 0 0.0012350820678456516 -0.032321415319772874 0 0.0023113337166486563 -0.03061680681306787 0 0.0013133432374359628 -0.03267198930092239 0 0.0011049601627758174 -0.03265039284143894 0 0.00093381674965084874 -0.032591104328555651 0 0.0011049601627758174 -0.03265039284143894 0 0.00098898270987023769 -0.032614551978454615 0 0.00093381674965084874 -0.032591104328555651 0 0.0011049601627758174 -0.03265039284143894 0 0.00098898270987023769 -0.032614551978454615 0 0.00097660877635559755 -0.032599004686581737 0 0.00098898270987023769 -0.032614551978454615 0 0.00093381674965084874 -0.032591104328555651 0 0.00097075201572657322 -0.03261240993712456 0 0.00098898270987023769 -0.032614551978454615 0 0.00097660877635559755 -0.032599004686581737 0 0.00097075201572657322 -0.03261240993712456 0 0.0011059425389594066 -0.032896398556271689 0 0.00097660877635559755 -0.032599004686581737 0 0.00094938223827830315 -0.032530040775762104 0 0.0011059425389594066 -0.032896398556271689 0 0.0011049601627758174 -0.03265039284143894 0 0.00097660877635559755 -0.032599004686581737 0 0.00067442235750705558 -0.033955027296303994 0 0.00072181158495164077 -0.034048314984023276 0 0.00039096359459691064 -0.034247076618015085 0 0.00072181158495164077 -0.034048314984023276 0 0.00099086970433301521 -0.033772907372826788 0 0.00087635768349100763 -0.034040077874386052 0 0.00090480747216707387 -0.033801527335026046 0 0.00072181158495164077 -0.034048314984023276 0 0.00099086970433301521 -0.033772907372826788 0 0.0011106736380128055 -0.033918454865769498 0 0.00099086970433301521 -0.033772907372826788 0 0.00087635768349100763 -0.034040077874386052 0 0.0011106736380128055 -0.033918454865769498 0 0.00087635768349100763 -0.034040077874386052 0 0.00069091263584251201 -0.034422988881505988 0 0.0012868869052207368 -0.033321700344688635 0 0.00088188583839809726 -0.033766133179921352 0 0.001583649075069976 -0.032758390895864839 0 0.0014949218246766013 -0.032944840364591756 0 0.0010573185225227473 -0.033117427355189334 0 0.00072181158495164077 -0.034048314984023276 0 0.00087635768349100763 -0.034040077874386052 0 0.00069091263584251201 -0.034422988881505988 0 0.00072181158495164077 -0.034048314984023276 0 0.00047975122617318689 -0.034311883129849063 0 0.00069091263584251201 -0.034422988881505988 0 0.00047975122617318689 -0.034311883129849063 0 0.00034481576346430734 -0.034618030953023765 0 0.00069091263584251201 -0.034422988881505988 0 0.00047975122617318689 -0.034311883129849063 0 0.00024544309398566151 -0.034432682058391527 0 0.00034481576346430734 -0.034618030953023765 0 0.00072181158495164077 -0.034048314984023276 0 0.00047975122617318689 -0.034311883129849063 0 0.00039096359459691064 -0.034247076618015085 0 0.00047975122617318689 -0.034311883129849063 0 0.00039096359459691064 -0.034247076618015085 0 0.00024544309398566151 -0.034432682058391527 0 0.00024544309398566151 -0.034432682058391527 0 0.00010788357374988095 -0.034528661505297695 0 0.00014312259918787572 -0.034451579309301643 0 0.00039096359459691064 -0.034247076618015085 0 0.00024544309398566151 -0.034432682058391527 0 0.00014312259918787572 -0.034451579309301643 0 0.00024544309398566151 -0.034432682058391527 0 0.00015696592788231036 -0.034548076351392648 0 0.00034481576346430734 -0.034618030953023765 0 0.00024544309398566151 -0.034432682058391527 0 0.00015696592788231036 -0.034548076351392648 0 0.00010788357374988095 -0.034528661505297695 0 1.6304346763864417e-05 -0.03500961500522088 0 6.6042064323345163e-08 -0.034999719809549072 0 3.9768955919359246e-06 -0.035002603928689584 0 0.00015696592788231036 -0.034548076351392648 0 0.00012365868113823161 -0.034520524822572514 0 0.00010788357374988095 -0.034528661505297695 0 6.4390286203586504e-05 -0.03476234392178084 0 5.7674543165249375e-05 -0.034737706236866485 0 0.00012365868113823161 -0.034520524822572514 0 0.00010788357374988095 -0.034528661505297695 0 5.1559617265074854e-05 -0.03473640944238586 0 1.6304346763864417e-05 -0.03500961500522088 0 6.6042064323345163e-08 -0.034999719809549072 0 5.1559617265074854e-05 -0.03473640944238586 0 0.00010788357374988095 -0.034528661505297695 0 5.1559617265074854e-05 -0.03473640944238586 0 0.00014312259918787572 -0.034451579309301643 0 -1.9467240376005221e-07 -0.034998100728512609 0 5.1559617265074854e-05 -0.03473640944238586 0 -3.551270183741885e-06 -0.034473537497827798 0 -1.9467240376005221e-07 -0.034998100728512609 0 6.6042064323345163e-08 -0.034999719809549072 0 5.1559617265074854e-05 -0.03473640944238586 0 5.1559617265074854e-05 -0.03473640944238586 0 -3.551270183741885e-06 -0.034473537497827798 0 0.00014312259918787572 -0.034451579309301643 0 -0.00011916010379761448 -0.033654343295441834 0 -3.551270183741885e-06 -0.034473537497827798 0 0.00022950599114753594 -0.034200304209305747 0 0.00049500415450454973 -0.033655335060329951 0 0.00067442235750705558 -0.033955027296303994 0 0.00022950599114753594 -0.034200304209305747 0 0.00067442235750705558 -0.033955027296303994 0 0.00039096359459691064 -0.034247076618015085 0 0.00022950599114753594 -0.034200304209305747 0 0.00039096359459691064 -0.034247076618015085 0 0.00022950599114753594 -0.034200304209305747 0 0.00014312259918787572 -0.034451579309301643 0 -3.551270183741885e-06 -0.034473537497827798 0 0.00022950599114753594 -0.034200304209305747 0 0.00014312259918787572 -0.034451579309301643 0 0.001496123723489666 -0.023269331155494982 0 0.0017097709191681966 -0.023691911775441339 0 0.001408185491150407 -0.023593344454030673 0 0.001496123723489666 -0.023269331155494982 0 0.001408185491150407 -0.023593344454030673 0 0.0011249867219389562 -0.023312495728991706 0 0.001496123723489666 -0.023269331155494982 0 0.0012461700368664277 -0.022943772455508681 0 0.0011249867219389562 -0.023312495728991706 0 0.001496123723489666 -0.023269331155494982 0 0.0017561796750878921 -0.023441431083165543 0 0.0017097709191681966 -0.023691911775441339 0 0.0017561796750878921 -0.023441431083165543 0 0.0017097709191681966 -0.023691911775441339 0 0.0019406448311948695 -0.023689928856080112 0 0.0017097709191681966 -0.023691911775441339 0 0.0017674743834208617 -0.023960884750128291 0 0.0019566728517847738 -0.023891584852665865 0 0.0017097709191681966 -0.023691911775441339 0 0.0014984531793572507 -0.023861174448500683 0 0.0017674743834208617 -0.023960884750128291 0 0.0014984531793572507 -0.023861174448500683 0 0.001408185491150407 -0.023593344454030673 0 0.0011230913800596492 -0.023720652625336371 0 0.0014984531793572507 -0.023861174448500683 0 0.0012076995271605583 -0.02413299766708649 0 0.0011230913800596492 -0.023720652625336371 0 0.0017097709191681966 -0.023691911775441339 0 0.0014984531793572507 -0.023861174448500683 0 0.001408185491150407 -0.023593344454030673 0 0.0014984531793572507 -0.023861174448500683 0 0.0015943711140976456 -0.024076522446772407 0 0.0012076995271605583 -0.02413299766708649 0 0.0016539946506377806 -0.02430282860989938 0 0.0015943711140976456 -0.024076522446772407 0 0.0012076995271605583 -0.02413299766708649 0 0.0010404909102664838 -0.01977375663298948 0 0.00090374984934556905 -0.0201284156635172 0 3.6806924205317418e-07 -0.018144160545207573 0 4.2265218438225264e-06 -0.018697289480914543 0 8.0678567520185484e-05 -0.017042903955407609 0 0.0010404909102664838 -0.01977375663298948 0 5.4199540918535834e-05 -0.016924382957261817 0 0.001751300693679598 -0.016806222379052414 0 8.0678567520185484e-05 -0.017042903955407609 0 0.00024863149900896395 -0.015812040554094218 0 0.0010404909102664838 -0.01977375663298948 0 0.00092368211578368103 -0.022609453693400328 0 0.00084868274883727812 -0.020294402946508656 0 -0.00012449275377634288 -0.020660713242117722 0 5.6437421615535305e-07 -0.019776671976131324 0 0.0016539946506377806 -0.02430282860989938 0 0.0018034599031684874 -0.024119581758711098 0 0.0020016978889243575 -0.024181954451405835 0 3.6806924205317418e-07 -0.018144160545207573 0 4.2265218438225264e-06 -0.018697289480914543 0 -7.9264624074268644e-08 -0.019773326941993043 0 0.0010404909102664838 -0.01977375663298948 0 -4.0885291654427791e-07 -0.019773576790336745 0 0.0016539946506377806 -0.02430282860989938 0 0.0018034599031684874 -0.024119581758711098 0 0.0015943711140976456 -0.024076522446772407 0 0.0014984531793572507 -0.023861174448500683 0 0.0015943711140976456 -0.024076522446772407 0 0.0017674743834208617 -0.023960884750128291 0 0.0018034599031684874 -0.024119581758711098 0 0.0015943711140976456 -0.024076522446772407 0 0.0017674743834208617 -0.023960884750128291 0 0.0018034599031684874 -0.024119581758711098 0 0.0017674743834208617 -0.023960884750128291 0 0.0019946862716070241 -0.024045531064149694 0 0.0019946862716070241 -0.024045531064149694 0 0.0020016978889243575 -0.024181954451405835 0 0.0022874545492618335 -0.023940677766050512 0 0.0017674743834208617 -0.023960884750128291 0 0.0019946862716070241 -0.024045531064149694 0 0.0019566728517847738 -0.023891584852665865 0 0.0019946862716070241 -0.024045531064149694 0 0.0021211998632235636 -0.023998138911537088 0 0.0019566728517847738 -0.023891584852665865 0 0.0018034599031684874 -0.024119581758711098 0 0.0019946862716070241 -0.024045531064149694 0 0.0020016978889243575 -0.024181954451405835 0 -0.00012449275377634288 -0.020660713242117722 0 5.6437421615535305e-07 -0.019776671976131324 0 1.2152341221414428e-07 -0.021111540830363904 0 0.00092368211578368103 -0.022609453693400328 0 0.0013207430354344287 -0.022808687996344671 0 1.2152341221414428e-07 -0.021111540830363904 0 0.00060934112963637228 -0.021592432503660382 0 0.0015747025761483179 -0.022915954586613885 0 -0.00012449275377634288 -0.020660713242117722 0 1.2152341221414428e-07 -0.021111540830363904 0 0.00060934112963637228 -0.021592432503660382 0 0.0019946862716070241 -0.024045531064149694 0 0.0022874545492618335 -0.023940677766050512 0 0.0021211998632235636 -0.023998138911537088 0 0.0022874545492618335 -0.023940677766050512 0 0.0022021489257961387 -0.024038628917259081 0 0.0021587666476918224 -0.024010643905495302 0 0.0022874545492618335 -0.023940677766050512 0 0.0021211998632235636 -0.023998138911537088 0 0.0022021489257961387 -0.024038628917259081 0 0.0022021489257961387 -0.024038628917259081 0 0.0021161922259656635 -0.023944020369757762 0 0.0021879654403270917 -0.024188094701134331 0 0.0021161922259656635 -0.023944020369757762 0 0.0021610921130649956 -0.023951745283079945 0 0.0021879654403270917 -0.024188094701134331 0 0.0021211998632235636 -0.023998138911537088 0 0.0022021489257961387 -0.024038628917259081 0 0.0021161922259656635 -0.023944020369757762 0 0.0021211998632235636 -0.023998138911537088 0 0.0021161922259656635 -0.023944020369757762 0 0.0019566728517847738 -0.023891584852665865 0 0.0017097709191681966 -0.023691911775441339 0 0.0019566728517847738 -0.023891584852665865 0 0.0019406448311948695 -0.023689928856080112 0 0.0021161922259656635 -0.023944020369757762 0 0.0019566728517847738 -0.023891584852665865 0 0.0019406448311948695 -0.023689928856080112 0 0.0019406448311948695 -0.023689928856080112 0 0.0020679304441103973 -0.02360963350976782 0 0.0018936965119516695 -0.023376598541457887 0 0.0017561796750878921 -0.023441431083165543 0 0.0019406448311948695 -0.023689928856080112 0 0.0018936965119516695 -0.023376598541457887 0 0.0021161922259656635 -0.023944020369757762 0 0.0019406448311948695 -0.023689928856080112 0 0.0020679304441103973 -0.02360963350976782 0 0.0021161922259656635 -0.023944020369757762 0 0.0020679304441103973 -0.02360963350976782 0 0.0021610921130649956 -0.023951745283079945 0 0.0020679304441103973 -0.02360963350976782 0 0.0021610921130649956 -0.023951745283079945 0 0.0021956727307484319 -0.023617989069929152 0 0.0023640418263045151 -0.023773684718640303 0 0.0020393568404406372 -0.025057255805859598 0 0.0021696536886036274 -0.024358998058246879 0 0.0021610921130649956 -0.023951745283079945 0 0.0023640418263045151 -0.023773684718640303 0 0.0021696536886036274 -0.024358998058246879 0 0.0021610921130649956 -0.023951745283079945 0 0.0023640418263045151 -0.023773684718640303 0 0.0021956727307484319 -0.023617989069929152 0 0.0034827950905961616 -0.027830505902705936 0 0.0019794493267014084 -0.027235440918492428 0 0.0020393568404406372 -0.025057255805859598 0 0.0027673914158398336 -0.025902250682113537 0 0.0020830066356724692 -0.024969738550178203 0 0.0020393568404406372 -0.025057255805859598 0 0.0020289030482271994 -0.024365326469573723 0 0.0013381077942789081 -0.024660966357172312 0 0.0020393568404406372 -0.025057255805859598 0 0.0020289030482271994 -0.024365326469573723 0 0.0021696536886036274 -0.024358998058246879 0 0.0020289030482271994 -0.024365326469573723 0 0.0021879654403270917 -0.024188094701134331 0 0.0021587666476918224 -0.024010643905495302 0 0.0020289030482271994 -0.024365326469573723 0 0.0021696536886036274 -0.024358998058246879 0 0.0021879654403270917 -0.024188094701134331 0 0.0021610921130649956 -0.023951745283079945 0 0.0021696536886036274 -0.024358998058246879 0 0.0021879654403270917 -0.024188094701134331 0 0.0013207430354344287 -0.022808687996344671 0 0.0014334919069320968 -0.023210775189957875 0 0.0022021489257961387 -0.024038628917259081 0 0.0021879654403270917 -0.024188094701134331 0 0.0021587666476918224 -0.024010643905495302 0 1.8833377715613477e-06 -0.021115831427871424 0 0.00019252517582473008 -0.023817128830024632 0 5.287077634382265e-05 -0.024702026990711431 0 1.8833377715613477e-06 -0.021115831427871424 0 5.287077634382265e-05 -0.024702026990711431 0 -1.2243341589569307e-06 -0.02508954381671635 0 0.0022874545492618335 -0.023940677766050512 0 0.0021587666476918224 -0.024010643905495302 0 0.0016304507144401543 -0.02333624241755837 0 0.00060934112963637228 -0.021592432503660382 0 0.0015747025761483179 -0.022915954586613885 0 0.0016304507144401543 -0.02333624241755837 0 0.0020289030482271994 -0.024365326469573723 0 0.0021587666476918224 -0.024010643905495302 0 0.0016304507144401543 -0.02333624241755837 0 0.00020254619485001043 -0.021460406546238479 0 0.0008057070495771832 -0.023281401342943358 0 0.00019252517582473008 -0.023817128830024632 0 9.4185106600217633e-05 -0.025933552244571265 0 5.287077634382265e-05 -0.024702026990711431 0 0.0015747025761483179 -0.022915954586613885 0 0.0016304507144401543 -0.02333624241755837 0 0.0