<?xml version="1.0"?>
<VTKFile type="UnstructuredGrid" version="0.1" byte_order="LittleEndian">
<UnstructuredGrid>
<Piece NumberOfPoints="30979" NumberOfCells="10840">
<Points>
<DataArray type="Float64" NumberOfComponents="3" format="ascii">
-0.5 -0.5 0 -0.45566396609255122 -0.46738184304253999 0 -0.48168049895180642 -0.44054721128114638 0 -0.5 -0.5 0 -0.48168049895180642 -0.44054721128114638 0 -0.5 -0.41826907986550721 0 -0.5 -0.5 0 -0.4437440370372035 -0.5 0 -0.45566396609255122 -0.46738184304253999 0 -0.4437440370372035 -0.5 0 -0.45566396609255122 -0.46738184304253999 0 -0.42809511023068592 -0.47672877674729941 0 -0.44230143731911947 -0.44175467822505898 0 -0.45566396609255122 -0.46738184304253999 0 -0.48168049895180642 -0.44054721128114638 0 -0.44230143731911947 -0.44175467822505898 0 -0.45566396609255122 -0.46738184304253999 0 -0.4245901042273888 -0.45839720476864299 0 -0.48168049895180642 -0.44054721128114638 0 -0.5 -0.41826907986550721 0 -0.46065406903617789 -0.42050628408324969 0 -0.5 -0.41826907986550721 0 -0.47894729271241038 -0.39512202691991383 0 -0.46065406903617789 -0.42050628408324969 0 -0.48168049895180642 -0.44054721128114638 0 -0.46065406903617789 -0.42050628408324969 0 -0.5 -0.41826907986550721 0 -0.47894729271241038 -0.39512202691991383 0 -0.5 -0.35841782388268417 0 -0.47894729271241038 -0.39512202691991383 0 -0.47860696210132803 -0.36435486710316412 0 -0.45574650359470142 -0.37412855344555501 0 -0.47894729271241038 -0.39512202691991383 0 -0.43962763912054942 -0.40046535688535312 0 -0.46065406903617789 -0.42050628408324969 0 -0.47894729271241038 -0.39512202691991383 0 -0.43962763912054942 -0.40046535688535312 0 -0.45574650359470142 -0.37412855344555501 0 -0.43962763912054942 -0.40046535688535312 0 -0.43643624458113078 -0.37614954950182389 0 -0.45574650359470142 -0.37412855344555501 0 -0.43962763912054942 -0.40046535688535312 0 -0.46065406903617789 -0.42050628408324969 0 -0.42928209368157039 -0.41865460272783422 0 -0.44230143731911947 -0.44175467822505898 0 -0.48168049895180642 -0.44054721128114638 0 -0.46065406903617789 -0.42050628408324969 0 -0.44230143731911947 -0.44175467822505898 0 -0.46065406903617789 -0.42050628408324969 0 -0.42928209368157039 -0.41865460272783422 0 -0.43962763912054942 -0.40046535688535312 0 -0.46065406903617789 -0.42050628408324969 0 -0.44230143731911947 -0.44175467822505898 0 -0.42928209368157039 -0.41865460272783422 0 -0.41508809379409511 -0.43319730311662052 0 -0.43962763912054942 -0.40046535688535312 0 -0.42928209368157039 -0.41865460272783422 0 -0.41412050099289671 -0.4064420045106692 0 -0.41063832349300899 -0.41970077410794099 0 -0.41412050099289671 -0.4064420045106692 0 -0.39825486268490951 -0.411985419321795 0 -0.42928209368157039 -0.41865460272783422 0 -0.41063832349300899 -0.41970077410794099 0 -0.41412050099289671 -0.4064420045106692 0 -0.41063832349300899 -0.41970077410794099 0 -0.41508809379409511 -0.43319730311662052 0 -0.39644606631157348 -0.42822454086278677 0 -0.42928209368157039 -0.41865460272783422 0 -0.41063832349300899 -0.41970077410794099 0 -0.41508809379409511 -0.43319730311662052 0 -0.43962763912054942 -0.40046535688535312 0 -0.41860120920492089 -0.3804244296874566 0 -0.43962763912054942 -0.40046535688535312 0 -0.43643624458113078 -0.37614954950182389 0 -0.41860120920492089 -0.3804244296874566 0 -0.43962763912054942 -0.40046535688535312 0 -0.41412050099289671 -0.4064420045106692 0 -0.41293465319379657 -0.39322660128121761 0 -0.43962763912054942 -0.40046535688535312 0 -0.41293465319379657 -0.39322660128121761 0 -0.41860120920492089 -0.3804244296874566 0 -0.41412050099289671 -0.4064420045106692 0 -0.41293465319379657 -0.39322660128121761 0 -0.40092696773705572 -0.39947867840182799 0 -0.41293465319379657 -0.39322660128121761 0 -0.41860120920492089 -0.3804244296874566 0 -0.39600251545542342 -0.38224660206833327 0 -0.40092696773705572 -0.39947867840182799 0 -0.38524472509184832 -0.40521618567257578 0 -0.39825486268490951 -0.411985419321795 0 -0.41293465319379657 -0.39322660128121761 0 -0.39600251545542342 -0.38224660206833327 0 -0.40092696773705572 -0.39947867840182799 0 -0.41412050099289671 -0.4064420045106692 0 -0.40092696773705572 -0.39947867840182799 0 -0.39825486268490951 -0.411985419321795 0 -0.39600251545542342 -0.38224660206833327 0 -0.40092696773705572 -0.39947867840182799 0 -0.38524472509184832 -0.40521618567257578 0 -0.37981789051486531 -0.40249136897996052 0 -0.38093630885333318 -0.39155049565269678 0 -0.36845583533737852 -0.38560237085173249 0 -0.39600251545542342 -0.38224660206833327 0 -0.38524472509184832 -0.40521618567257578 0 -0.39600251545542342 -0.38224660206833327 0 -0.38524472509184832 -0.40521618567257578 0 -0.38093630885333318 -0.39155049565269678 0 -0.38524472509184832 -0.40521618567257578 0 -0.37981789051486531 -0.40249136897996052 0 -0.38093630885333318 -0.39155049565269678 0 -0.37981789051486531 -0.40249136897996052 0 -0.37601704211179948 -0.41047839704081651 0 -0.36960007437807008 -0.39879557688083861 0 -0.38524472509184832 -0.40521618567257578 0 -0.37981789051486531 -0.40249136897996052 0 -0.37601704211179948 -0.41047839704081651 0 -0.39600251545542342 -0.38224660206833327 0 -0.38093630885333318 -0.39155049565269678 0 -0.38187580265442911 -0.38355052738800238 0 -0.38093630885333318 -0.39155049565269678 0 -0.3759023492620272 -0.37814682537852329 0 -0.36845583533737852 -0.38560237085173249 0 -0.38093630885333318 -0.39155049565269678 0 -0.3759023492620272 -0.37814682537852329 0 -0.38093630885333318 -0.39155049565269678 0 -0.38187580265442911 -0.38355052738800238 0 -0.3759023492620272 -0.37814682537852329 0 -0.38187580265442911 -0.38355052738800238 0 -0.37979388515948742 -0.37896530263301598 0 -0.3759023492620272 -0.37814682537852329 0 -0.38187580265442911 -0.38355052738800238 0 -0.37979388515948742 -0.37896530263301598 0 -0.38307336420015298 -0.37702770842289968 0 -0.37979388515948742 -0.37896530263301598 0 -0.3759023492620272 -0.37814682537852329 0 -0.38075208743137801 -0.37436048879717287 0 -0.37979388515948742 -0.37896530263301598 0 -0.38307336420015298 -0.37702770842289968 0 -0.38075208743137801 -0.37436048879717287 0 -0.39600251545542342 -0.38224660206833327 0 -0.38307336420015298 -0.37702770842289968 0 -0.38798606415442682 -0.37257274489144399 0 -0.39600251545542342 -0.38224660206833327 0 -0.38187580265442911 -0.38355052738800238 0 -0.38307336420015298 -0.37702770842289968 0 -0.41508809379409511 -0.43319730311662052 0 -0.39644606631157348 -0.42822454086278677 0 -0.40373881166512637 -0.44887363791454099 0 -0.39644606631157348 -0.42822454086278677 0 -0.39825486268490951 -0.411985419321795 0 -0.38860814720415099 -0.41840297878349397 0 -0.41063832349300899 -0.41970077410794099 0 -0.39644606631157348 -0.42822454086278677 0 -0.39825486268490951 -0.411985419321795 0 -0.38524472509184832 -0.40521618567257578 0 -0.39825486268490951 -0.411985419321795 0 -0.38860814720415099 -0.41840297878349397 0 -0.38524472509184832 -0.40521618567257578 0 -0.38860814720415099 -0.41840297878349397 0 -0.3744869347282731 -0.42818576927681828 0 -0.38524472509184832 -0.40521618567257578 0 -0.3744869347282731 -0.42818576927681828 0 -0.38524472509184832 -0.40521618567257578 0 -0.37601704211179948 -0.41047839704081651 0 -0.3744869347282731 -0.42818576927681828 0 -0.39644606631157348 -0.42822454086278677 0 -0.38860814720415099 -0.41840297878349397 0 -0.3744869347282731 -0.42818576927681828 0 -0.39644606631157348 -0.42822454086278677 0 -0.38811639353944938 -0.44189261653749018 0 -0.3744869347282731 -0.42818576927681828 0 -0.38811639353944938 -0.44189261653749018 0 -0.36372914436469789 -0.45115535288106079 0 -0.3744869347282731 -0.42818576927681828 0 -0.38811639353944938 -0.44189261653749018 0 -0.38912887489226172 -0.46024280839623039 0 -0.36372914436469789 -0.45115535288106079 0 -0.39644606631157348 -0.42822454086278677 0 -0.38811639353944938 -0.44189261653749018 0 -0.40373881166512637 -0.44887363791454099 0 -0.38811639353944938 -0.44189261653749018 0 -0.40373881166512637 -0.44887363791454099 0 -0.38912887489226172 -0.46024280839623039 0 -0.38912887489226172 -0.46024280839623039 0 -0.3936650873929336 -0.47656217978209042 0 -0.40777201582978201 -0.46789701495477382 0 -0.40373881166512637 -0.44887363791454099 0 -0.38912887489226172 -0.46024280839623039 0 -0.40777201582978201 -0.46789701495477382 0 -0.38912887489226172 -0.46024280839623039 0 -0.37502175290265061 -0.47431805020415158 0 -0.36372914436469789 -0.45115535288106079 0 -0.38912887489226172 -0.46024280839623039 0 -0.37502175290265061 -0.47431805020415158 0 -0.3936650873929336 -0.47656217978209042 0 -0.38568059225937951 -0.49008316144307451 0 -0.40030267429403987 -0.5 0 -0.36394707794846332 -0.49358884076630988 0 -0.37502175290265061 -0.47431805020415158 0 -0.38568059225937951 -0.49008316144307451 0 -0.3936650873929336 -0.47656217978209042 0 -0.38568059225937951 -0.49008316144307451 0 -0.40741410657029559 -0.48657748211983898 0 -0.38568059225937951 -0.49008316144307451 0 -0.3936650873929336 -0.47656217978209042 0 -0.40741410657029559 -0.48657748211983898 0 -0.38568059225937951 -0.49008316144307451 0 -0.40030267429403987 -0.5 0 -0.40741410657029559 -0.48657748211983898 0 -0.3936650873929336 -0.47656217978209042 0 -0.40741410657029559 -0.48657748211983898 0 -0.40777201582978201 -0.46789701495477382 0 -0.4437440370372035 -0.5 0 -0.40741410657029559 -0.48657748211983898 0 -0.42809511023068592 -0.47672877674729941 0 -0.4437440370372035 -0.5 0 -0.40030267429403987 -0.5 0 -0.40741410657029559 -0.48657748211983898 0 -0.40741410657029559 -0.48657748211983898 0 -0.42809511023068592 -0.47672877674729941 0 -0.40777201582978201 -0.46789701495477382 0 -0.45566396609255122 -0.46738184304253999 0 -0.42809511023068592 -0.47672877674729941 0 -0.4245901042273888 -0.45839720476864299 0 -0.44230143731911947 -0.44175467822505898 0 -0.41508809379409511 -0.43319730311662052 0 -0.4245901042273888 -0.45839720476864299 0 -0.41508809379409511 -0.43319730311662052 0 -0.40373881166512637 -0.44887363791454099 0 -0.424590104227
[...]
<PointData Scalars="" Vectors="displacement," Tensors="">
<DataArray type="Float64" Name="displacement" NumberOfComponents="3" format="ascii">
-0.034998926629504094 -0.03499748348571121 0 -0.033912876253610939 -0.032588920121299922 0 -0.031873312303427923 -0.034778611965236697 0 -0.034998926629504094 -0.03499748348571121 0 -0.031873312303427923 -0.034778611965236697 0 -0.029282106735812767 -0.034997004177726845 0 -0.034998926629504094 -0.03499748348571121 0 -0.034997292716639851 -0.031064405543116524 0 -0.033912876253610939 -0.032588920121299922 0 -0.034997292716639851 -0.031064405543116524 0 -0.033912876253610939 -0.032588920121299922 0 -0.03466731331879664 -0.030693413528231541 0 -0.033934449262421902 -0.031607507712332922 0 -0.033912876253610939 -0.032588920121299922 0 -0.031873312303427923 -0.034778611965236697 0 -0.033934449262421902 -0.031607507712332922 0 -0.033912876253610939 -0.032588920121299922 0 -0.034382016117214309 -0.030806037444731121 0 -0.031873312303427923 -0.034778611965236697 0 -0.029282106735812767 -0.034997004177726845 0 -0.029019801014904065 -0.036343416279869228 0 -0.029282106735812767 -0.034997004177726845 0 -0.027722157286213047 -0.035891787201396061 0 -0.029019801014904065 -0.036343416279869228 0 -0.03189455100696479 -0.034698592814351135 0 -0.031681900551883725 -0.034399636545317587 0 -0.029282106735812767 -0.034997004177726845 0 -0.027722157286213047 -0.035891787201396061 0 -0.02508962406535304 -0.034999918343962412 0 -0.027722157286213047 -0.035891787201396061 0 -0.02591637472393753 -0.035901897690294109 0 -0.027149801624639619 -0.036214083343371874 0 -0.027722157286213047 -0.035891787201396061 0 -0.02745115425979203 -0.036212994251040104 0 -0.029019801014904065 -0.036343416279869228 0 -0.027722157286213047 -0.035891787201396061 0 -0.02745115425979203 -0.036212994251040104 0 -0.027149801624639619 -0.036214083343371874 0 -0.02745115425979203 -0.036212994251040104 0 -0.027452038734594009 -0.035438709889541592 0 -0.027149801624639619 -0.036214083343371874 0 -0.034457734336306167 -0.030982771315839139 0 -0.034379820330215791 -0.032558576462164791 0 -0.034293146817082884 -0.030936410226702623 0 -0.033934449262421902 -0.031607507712332922 0 -0.031873312303427923 -0.034778611965236697 0 -0.034379820330215791 -0.032558576462164791 0 -0.033934449262421902 -0.031607507712332922 0 -0.034379820330215791 -0.032558576462164791 0 -0.034293146817082884 -0.030936410226702623 0 -0.030942777893602804 -0.033559727511883762 0 -0.031681900551883725 -0.034399636545317587 0 -0.033934449262421902 -0.031607507712332922 0 -0.034293146817082884 -0.030936410226702623 0 -0.034280344806569704 -0.030710092858008384 0 -0.034457734336306167 -0.030982771315839139 0 -0.034293146817082884 -0.030936410226702623 0 -0.03411821575471724 -0.030616723718933203 0 -0.034246899448658788 -0.030699013426615778 0 -0.03411821575471724 -0.030616723718933203 0 -0.03416775570356375 -0.030799823185714541 0 -0.034293146817082884 -0.030936410226702623 0 -0.034246899448658788 -0.030699013426615778 0 -0.03411821575471724 -0.030616723718933203 0 -0.034246899448658788 -0.030699013426615778 0 -0.034280344806569704 -0.030710092858008384 0 -0.034296242499745909 -0.030722675611084698 0 -0.034293146817082884 -0.030936410226702623 0 -0.034246899448658788 -0.030699013426615778 0 -0.034280344806569704 -0.030710092858008384 0 -0.030942777893602804 -0.033559727511883762 0 -0.030226494278969143 -0.032239687737705719 0 -0.02745115425979203 -0.036212994251040104 0 -0.027452038734594009 -0.035438709889541592 0 -0.027190729067189324 -0.034288940194354287 0 -0.034457734336306167 -0.030982771315839139 0 -0.03411821575471724 -0.030616723718933203 0 -0.033782665961882098 -0.030436505626249936 0 -0.034457734336306167 -0.030982771315839139 0 -0.033782665961882098 -0.030436505626249936 0 -0.033224280551331573 -0.03001120429928724 0 -0.03411821575471724 -0.030616723718933203 0 -0.033782665961882098 -0.030436505626249936 0 -0.033897810774050602 -0.030788848284721199 0 -0.033782665961882098 -0.030436505626249936 0 -0.033224280551331573 -0.03001120429928724 0 -0.033040703459774654 -0.031106873281317216 0 -0.033897810774050602 -0.030788848284721199 0 -0.03409618724040249 -0.031056605230590832 0 -0.03416775570356375 -0.030799823185714541 0 -0.033782665961882098 -0.030436505626249936 0 -0.033040703459774654 -0.031106873281317216 0 -0.033897810774050602 -0.030788848284721199 0 -0.03411821575471724 -0.030616723718933203 0 -0.033897810774050602 -0.030788848284721199 0 -0.03416775570356375 -0.030799823185714541 0 -0.033040703459774654 -0.031106873281317216 0 -0.033897810774050602 -0.030788848284721199 0 -0.03409618724040249 -0.031056605230590832 0 -0.037579206502689207 -0.030873351487671192 0 -0.035176088482086205 -0.031761789507750542 0 -0.033791931283311857 -0.034740585171110963 0 -0.033457710926465489 -0.030950614267189376 0 -0.035922434617533812 -0.030819807637462567 0 -0.033040703459774654 -0.031106873281317216 0 -0.037916710991815719 -0.030454045691913911 0 -0.035176088482086205 -0.031761789507750542 0 -0.037916710991815719 -0.030454045691913911 0 -0.037579206502689207 -0.030873351487671192 0 -0.035176088482086205 -0.031761789507750542 0 -0.037579206502689207 -0.030873351487671192 0 -0.038078664723022446 -0.02976435486641929 0 -0.037584293879728788 -0.03034201343549223 0 -0.037916710991815719 -0.030454045691913911 0 -0.037579206502689207 -0.030873351487671192 0 -0.038078664723022446 -0.02976435486641929 0 -0.033040703459774654 -0.031106873281317216 0 -0.035176088482086205 -0.031761789507750542 0 -0.03349893826334123 -0.032221061849940939 0 -0.035176088482086205 -0.031761789507750542 0 -0.031976405101841417 -0.032947960401930813 0 -0.033791931283311857 -0.034740585171110963 0 -0.034993023985961512 -0.031402034907911526 0 -0.028837462687106484 -0.030219740945987394 0 -0.035176088482086205 -0.031761789507750542 0 -0.03349893826334123 -0.032221061849940939 0 -0.032315525813974434 -0.033519084257931119 0 -0.03349893826334123 -0.032221061849940939 0 -0.032572066102742221 -0.032803335605869025 0 -0.032315525813974434 -0.033519084257931119 0 -0.03349893826334123 -0.032221061849940939 0 -0.032572066102742221 -0.032803335605869025 0 -0.032289380704769895 -0.032434955999457192 0 -0.032572066102742221 -0.032803335605869025 0 -0.032315525813974434 -0.033519084257931119 0 -0.031848940673523021 -0.032773258217399438 0 -0.032572066102742221 -0.032803335605869025 0 -0.032289380704769895 -0.032434955999457192 0 -0.031848940673523021 -0.032773258217399438 0 -0.033040703459774654 -0.031106873281317216 0 -0.032289380704769895 -0.032434955999457192 0 -0.03158996905410625 -0.032179953449358145 0 -0.033040703459774654 -0.031106873281317216 0 -0.03349893826334123 -0.032221061849940939 0 -0.032289380704769895 -0.032434955999457192 0 -0.034280344806569704 -0.030710092858008384 0 -0.034296242499745909 -0.030722675611084698 0 -0.034417000147570875 -0.030526602226264427 0 -0.034296242499745909 -0.030722675611084698 0 -0.03416775570356375 -0.030799823185714541 0 -0.034225978200655989 -0.030859221531628237 0 -0.034246899448658788 -0.030699013426615778 0 -0.034296242499745909 -0.030722675611084698 0 -0.03416775570356375 -0.030799823185714541 0 -0.03409618724040249 -0.031056605230590832 0 -0.03416775570356375 -0.030799823185714541 0 -0.034225978200655989 -0.030859221531628237 0 -0.03409618724040249 -0.031056605230590832 0 -0.034225978200655989 -0.030859221531628237 0 -0.034302092803575775 -0.030830240043822437 0 -0.035922434617533812 -0.030819807637462567 0 -0.035944755710682473 -0.029702002349365278 0 -0.037916710991815719 -0.030454045691913911 0 -0.038078664723022446 -0.02976435486641929 0 -0.03743604981305608 -0.028484054170932298 0 -0.034296242499745909 -0.030722675611084698 0 -0.034225978200655989 -0.030859221531628237 0 -0.034302092803575775 -0.030830240043822437 0 -0.034296242499745909 -0.030722675611084698 0 -0.034386911277037802 -0.030662862498040448 0 -0.034302092803575775 -0.030830240043822437 0 -0.034386911277037802 -0.030662862498040448 0 -0.034489301101341435 -0.030838830504492914 0 -0.034302092803575775 -0.030830240043822437 0 -0.034386911277037802 -0.030662862498040448 0 -0.034556554879899185 -0.03051490907777132 0 -0.034489301101341435 -0.030838830504492914 0 -0.034296242499745909 -0.030722675611084698 0 -0.034386911277037802 -0.030662862498040448 0 -0.034417000147570875 -0.030526602226264427 0 -0.034386911277037802 -0.030662862498040448 0 -0.034417000147570875 -0.030526602226264427 0 -0.034556554879899185 -0.03051490907777132 0 -0.034556554879899185 -0.03051490907777132 0 -0.034805743974080906 -0.030254066354836805 0 -0.034632677558969149 -0.030194838098945409 0 -0.034417000147570875 -0.030526602226264427 0 -0.034556554879899185 -0.03051490907777132 0 -0.034632677558969149 -0.030194838098945409 0 -0.034556554879899185 -0.03051490907777132 0 -0.034815174513349409 -0.030676431191791573 0 -0.034489301101341435 -0.030838830504492914 0 -0.034556554879899185 -0.03051490907777132 0 -0.034815174513349409 -0.030676431191791573 0 -0.034805743974080906 -0.030254066354836805 0 -0.035657402682078072 -0.027035484111224282 0 -0.034999339940010206 -0.028023449716858353 0 -0.035440066543295061 -0.025490675039557383 0 -0.034815174513349409 -0.030676431191791573 0 -0.03520541654465606 -0.030484087038110452 0 -0.034805743974080906 -0.030254066354836805 0 -0.035366043671868221 -0.028652052992501391 0 -0.035286518890834472 -0.029229897057480157 0 -0.03520541654465606 -0.030484087038110452 0 -0.034805743974080906 -0.030254066354836805 0 -0.035222102825956732 -0.029310743656689359 0 -0.035657402682078072 -0.027035484111224282 0 -0.034999339940010206 -0.028023449716858353 0 -0.035222102825956732 -0.029310743656689359 0 -0.034805743974080906 -0.030254066354836805 0 -0.035222102825956732 -0.029310743656689359 0 -0.034632677558969149 -0.030194838098945409 0 -0.034997292716639851 -0.031064405543116524 0 -0.035222102825956732 -0.029310743656689359 0 -0.03466731331879664 -0.030693413528231541 0 -0.034997292716639851 -0.031064405543116524 0 -0.034999339940010206 -0.028023449716858353 0 -0.035222102825956732 -0.029310743656689359 0 -0.035222102825956732 -0.029310743656689359 0 -0.03466731331879664 -0.030693413528231541 0 -0.034632677558969149 -0.030194838098945409 0 -0.033912876253610939 -0.032588920121299922 0 -0.03466731331879664 -0.030693413528231541 0 -0.034382016117214309 -0.030806037444731121 0 -0.033934449262421902 -0.031607507712332922 0 -0.034280344806569704 -0.030710092858008384 0 -0.034382016117214309 -0.030806037444731121 0 -0.034280344806569704 -0.030710092858008384 0 -0.034417000147570875 -0.030526602226264427 0 -0.034382016117214309 -0.030806037444731121 0 -0.034417000147570875 -0.030526602226264427 0 -0.034382016117214309 -0.030806037444731121 0 -0.034632677558969149 -0.030194838098945409 0 -0.03466731331879664 -0.030693413528231541 0 -0.034382016117214309 -0.030806037444731121 0 -0.034632677558969149 -0.030194838098945409 0 -0.021837610513286167 -0.036932128377547113 0 -0.02260438490878925 -0.036092782278102378 0 -0.021628415594661918 -0.036127911069877651 0 -0.021837610513286167 -0.036932128377547113 0 -0.021628415594661918 -0.036127911069877651 0 -0.020840179771120924 -0.036568813306727302 0 -0.021837610513286167 -0.036932128377547113 0 -0.021043920141307907 -0.037273900877080948 0 -0.020840179771120924 -0.036568813306727302 0 -0.021837610513286167 -0.036932128377547113 0 -0.022825640168049617 -0.036896292999057681 0 -0.02260438490878925 -0.036092782278102378 0 -0.022825640168049617 -0.036896292999057681 0 -0.02260438490878925 -0.036092782278102378 0 -0.023623932007553333 -0.036502153317434498 0 -0.02260438490878925 -0.036092782278102378 0 -0.02281219850939897 -0.035198556606861262 0 -0.023590327662082796 -0.035670119461452862 0 -0.02260438490878925 -0.036092782278102378 0 -0.021908901056319624 -0.035448171776477647 0 -0.02281219850939897 -0.035198556606861262 0 -0.021908901056319624 -0.035448171776477647 0 -0.021628415594661918 -0.036127911069877651 0 -0.020913076447402736 -0.035786085216476624 0 -0.021908901056319624 -0.035448171776477647 0 -0.021089746785948781 -0.034689578466862589 0 -0.020913076447402736 -0.035786085216476624 0 -0.02260438490878925 -0.036092782278102378 0 -0.021908901056319624 -0.035448171776477647 0 -0.021628415594661918 -0.036127911069877651 0 -0.021908901056319624 -0.035448171776477647 0 -0.02222358806494177 -0.03474959505549946 0 -0.021089746785948781 -0.034689578466862589 0 -0.022397344655028163 -0.033860381047373218 0 -0.02222358806494177 -0.03474959505549946 0 -0.021089746785948781 -0.034689578466862589 0 -0.019890192112555199 -0.035134340062742957 0 -0.019397772154047789 -0.035472331777913771 0 -0.018144433306480467 -0.034999986782537337 0 -0.018823962819081119 -0.035582291315126295 0 -0.017278079205958634 -0.035313520658002723 0 -0.019890192112555199 -0.035134340062742957 0 -0.016995675100821471 -0.035360075297327639 0 -0.018848160273308594 -0.035561970422319296 0 -0.017278079205958634 -0.035313520658002723 0 -0.017358054255945436 -0.036459674874202687 0 -0.019890192112555199 -0.035134340062742957 0 -0.022146512104628348 -0.034990038132027834 0 -0.018788438184119148 -0.035610306416458973 0 -0.020244148294755709 -0.035903302591106107 0 -0.019773102672499387 -0.035001088273063696 0 -0.022397344655028163 -0.033860381047373218 0 -0.022954658443336159 -0.034537653983695876 0 -0.023767027539271623 -0.034090970726594241 0 -0.018144433306480467 -0.034999986782537337 0 -0.018823962819081119 -0.035582291315126295 0 -0.019774178264909858 -0.035000002983852856 0 -0.019890192112555199 -0.035134340062742957 0 -0.019773137019878286 -0.035000657704299769 0 -0.022397344655028163 -0.033860381047373218 0 -0.022954658443336159 -0.034537653983695876 0 -0.02222358806494177 -0.03474959505549946 0 -0.021908901056319624 -0.035448171776477647 0 -0.02222358806494177 -0.03474959505549946 0 -0.02281219850939897 -0.035198556606861262 0 -0.022954658443336159 -0.034537653983695876 0 -0.02222358806494177 -0.03474959505549946 0 -0.02281219850939897 -0.035198556606861262 0 -0.022954658443336159 -0.034537653983695876 0 -0.02281219850939897 -0.035198556606861262 0 -0.023705750926656704 -0.034857662788717207 0 -0.023705750926656704 -0.034857662788717207 0 -0.023767027539271623 -0.034090970726594241 0 -0.025219111015425604 -0.034486776411720273 0 -0.02281219850939897 -0.035198556606861262 0 -0.023705750926656704 -0.034857662788717207 0 -0.023590327662082796 -0.035670119461452862 0 -0.023705750926656704 -0.034857662788717207 0 -0.02439507279556959 -0.03528839523056658 0 -0.023590327662082796 -0.035670119461452862 0 -0.022954658443336159 -0.034537653983695876 0 -0.023705750926656704 -0.034857662788717207 0 -0.023767027539271623 -0.034090970726594241 0 -0.020244148294755709 -0.035903302591106107 0 -0.019773102672499387 -0.035001088273063696 0 -0.021114831580577385 -0.034998035561191153 0 -0.022146512104628348 -0.034990038132027834 0 -0.023896503612477773 -0.035218168042411735 0 -0.021114831580577385 -0.034998035561191153 0 -0.022662574259706535 -0.036106994599816693 0 -0.025604801521242341 -0.034995903217827459 0 -0.020244148294755709 -0.035903302591106107 0 -0.021114831580577385 -0.034998035561191153 0 -0.022662574259706535 -0.036106994599816693 0 -0.023705750926656704 -0.034857662788717207 0 -0.025219111015425604 -0.034486776411720273 0 -0.02439507279556959 -0.03528839523056658 0 -0.025219111015425604 -0.034486776411720273 0 -0.025119844754116483 -0.035373999312728228 0 -0.025757239338209045 -0.035219473337648383 0 -0.025219111015425604 -0.034486776411720273 0 -0.02439507279556959 -0.03528839523056658 0 -0.025119844754116483 -0.035373999312728228 0 -0.025119844754116483 -0.035373999312728228 0 -0.024547872457212828 -0.036073160952754486 0 -0.025641101761670629 -0.035819669258457046 0 -0.024547872457212828 -0.036073160952754486 0 -0.025184762862909132 -0.036682165565374777 0 -0.025641101761670629 -0.035819669258457046 0 -0.02439507279556959 -0.03528839523056658 0 -0.025119844754116483 -0.035373999312728228 0 -0.024547872457212828 -0.036073160952754486 0 -0.02439507279556959 -0.03528839523056658 0 -0.024547872457212828 -0.036073160952754486 0 -0.023590327662082796 -0.035670119461452862 0 -0.02260438490878925 -0.036092782278102378 0 -0.023590327662082796 -0.035670119461452862 0 -0.023623932007553333 -0.036502153317434498 0 -0.024547872457212828 -0.036073160952754486 0 -0.023590327662082796 -0.035670119461452862 0 -0.023623932007553333 -0.036502153317434498 0 -0.023623932007553333 -0.036502153317434498 0 -0.02440760787320791 -0.037233273631130187 0 -0.023472235254628802 -0.037418371654548775 0 -0.022825640168049617 -0.036896292999057681 0 -0.023623932007553333 -0.036502153317434498 0 -0.023472235254628802 -0.037418371654548775 0 -0.024547872457212828 -0.036073160952754486 0 -0.023623932007553333 -0.036502153317434498 0 -0.02440760787320791 -0.037233273631130187 0 -0.024547872457212828 -0.036073160952754486 0 -0.02440760787320791 -0.037233273631130187 0 -0.025184762862909132 -0.036682165565374777 0 -0.02440760787320791 -0.037233273631130187 0 -0.025184762862909132 -0.036682165565374777 0 -0.025066535372125807 -0.037485636127257235 0 -0.025923152843643434 -0.037404206042679487 0 -0.02772334775155404 -0.035986129393088567 0 -0.026167083054248669 -0.036278042180391462 0 -0.025184762862909132 -0.036682165565374777 0 -0.025923152843643434 -0.037404206042679487 0 -0.026167083054248669 -0.036278042180391462 0 -0.025184762862909132 -0.036682165565374777 0 -0.025923152843643434 -0.037404206042679487 0 -0.025066535372125807 -0.037485636127257235 0 -0.029418616771141798 -0.034818380503212842 0 -0.028366352497434744 -0.035168664161907413 0 -0.02772334775155404 -0.035986129393088567 0 -0.027718929772064568 -0.036484490428523537 0 -0.027784285472579193 -0.035799182361902784 0 -0.02772334775155404 -0.035986129393088567 0 -0.02657323907197651 -0.03557838639219181 0 -0.028152655863366103 -0.035694543987896489 0 -0.02772334775155404 -0.035986129393088567 0 -0.02657323907197651 -0.03557838639219181 0 -0.026167083054248669 -0.036278042180391462 0 -0.02657323907197651 -0.03557838639219181 0 -0.025641101761670629 -0.035819669258457046 0 -0.025757239338209045 -0.035219473337648383 0 -0.02657323907197651 -0.03557838639219181 0 -0.026167083054248669 -0.036278042180391462 0 -0.025641101761670629 -0.035819669258457046 0 -0.025184762862909132 -0.036682165565374777 0 -0.026167083054248669 -0.036278042180391462 0 -0.025641101761670629 -0.035819669258457046 0 -0.023896503612477773 -0.035218168042411735 0 -0.025802167261825819 -0.035230101606904013 0 -0.025119844754116483 -0.035373999312728228 0 -0.025641101761670629 -0.035819669258457046 0 -0.025757239338209045 -0.035219473337648383 0 -0.021113229385575204 -0.034999761691648638 0 -0.022927649960061809 -0.035917213240340078 0 -0.024246910728554893 -0.035629658679744887 0 -0.021113229385575204 -0.034999761691648638 0 -0.024246910728554893 -0.035629658679744887 0 -0.02508962406535304 -0.034999918343962412 0 -0.025219111015425604 -0.034486776411720273 0 -0.025757239338209045 -0.035219473337648383 0 -0.026142728732288754 -0.035142758952756509 0 -0.022662574259706535 -0.036106994599816693 0 -0.025604801521242341 -0.034995903217827459 0 -0.026142728732288754 -0.035142758952756509 0 -0.02657323907197651 -0.03557838639219181 0 -0.025757239338209045 -0.035219473337648383 0 -0.026142728732288754 -0.035142758952756509 0 -0.021448961617924853 -0.034949934137448069 0 -0.024245748715628849 -0.035528629946841216 0 -0.022927649960061809 -0.035917213240340078 0 -0.024927756557693477 -0.036504441343785818 0 -0.024246910728554893 -0.035629658679744887 0 -0.025604801521242341 -0.034995903217827459 0 -0.026142728732288754 -0.035142758952756509 0 -0.028152655863366103 -0.035694543987896489 0 -0.024245748715628849 -0.035528629946841216 0 -0.026461207664182092 -0.036073935361177756 0 -0.02657323907197651 -0.03557838639219181 0 -0.026142728732288754 -0.035142758952756509 0 -0.028152655863366103 -0.035694543987896489 0