<?xml version="1.0"?>
<VTKFile type="UnstructuredGrid" version="0.1" byte_order="LittleEndian">
<UnstructuredGrid>
<Piece NumberOfPoints="31611" NumberOfCells="11060">
<Points>
<DataArray type="Float64" NumberOfComponents="3" format="ascii">
-0.5 -0.5 0 -0.46828038073245648 -0.47886534663837521 0 -0.44865810322365568 -0.48409953664285638 0 -0.5 -0.5 0 -0.49999999999999972 -0.48510845838876121 0 -0.48570950625765019 -0.47768115510604992 0 -0.5 -0.5 0 -0.48570950625765019 -0.47768115510604992 0 -0.46828038073245648 -0.47886534663837521 0 -0.5 -0.5 0 -0.44865810322365568 -0.48409953664285638 0 -0.43065798387075171 -0.5 0 -0.49999999999999972 -0.48510845838876121 0 -0.4941949942269972 -0.45916426609095218 0 -0.49999999999999972 -0.48510845838876121 0 -0.49069418980235951 -0.47133381242174988 0 -0.4941949942269972 -0.45916426609095218 0 -0.49999999999999972 -0.48510845838876121 0 -0.48570950625765019 -0.47768115510604992 0 -0.49069418980235951 -0.47133381242174988 0 -0.48570950625765019 -0.47768115510604992 0 -0.49069418980235951 -0.47133381242174988 0 -0.48287225872479073 -0.46338137010123648 0 -0.48570950625765019 -0.47768115510604992 0 -0.46828038073245648 -0.47886534663837521 0 -0.47348037271648358 -0.46746596895788939 0 -0.48570950625765019 -0.47768115510604992 0 -0.47348037271648358 -0.46746596895788939 0 -0.48287225872479073 -0.46338137010123648 0 -0.46828038073245648 -0.47886534663837521 0 -0.45685729718066292 -0.46317756925396197 0 -0.47348037271648358 -0.46746596895788939 0 -0.46828038073245648 -0.47886534663837521 0 -0.44865810322365568 -0.48409953664285638 0 -0.45685729718066292 -0.46317756925396197 0 -0.44865810322365568 -0.48409953664285638 0 -0.45685729718066292 -0.46317756925396197 0 -0.43679251415364467 -0.46810751068103917 0 -0.44227138583608377 -0.44763337228523992 0 -0.46139451200219128 -0.43849474965389679 0 -0.43321442839889329 -0.42847143344951949 0 -0.44227138583608377 -0.44763337228523992 0 -0.45685729718066292 -0.46317756925396197 0 -0.43679251415364467 -0.46810751068103917 0 -0.45685729718066292 -0.46317756925396197 0 -0.47348037271648358 -0.46746596895788939 0 -0.47368242068685817 -0.45422440368982331 0 -0.44227138583608377 -0.44763337228523992 0 -0.45685729718066292 -0.46317756925396197 0 -0.46139451200219128 -0.43849474965389679 0 -0.45685729718066292 -0.46317756925396197 0 -0.46139451200219128 -0.43849474965389679 0 -0.47368242068685817 -0.45422440368982331 0 -0.46139451200219128 -0.43849474965389679 0 -0.47368242068685817 -0.45422440368982331 0 -0.47606701927266332 -0.43679131520182141 0 -0.47368242068685817 -0.45422440368982331 0 -0.48467876016018729 -0.44770481390493477 0 -0.47606701927266332 -0.43679131520182141 0 -0.47368242068685817 -0.45422440368982331 0 -0.48385710844970842 -0.45611871344673671 0 -0.48467876016018729 -0.44770481390493477 0 -0.48467876016018729 -0.44770481390493477 0 -0.48838998845399501 -0.43322007379314309 0 -0.47606701927266332 -0.43679131520182141 0 -0.47368242068685817 -0.45422440368982331 0 -0.48385710844970842 -0.45611871344673671 0 -0.48287225872479073 -0.46338137010123648 0 -0.47348037271648358 -0.46746596895788939 0 -0.47368242068685817 -0.45422440368982331 0 -0.48287225872479073 -0.46338137010123648 0 -0.49999999999999972 -0.48510845838876121 0 -0.5 -0.45593863611047231 0 -0.4941949942269972 -0.45916426609095218 0 -0.49069418980235951 -0.47133381242174988 0 -0.48287225872479073 -0.46338137010123648 0 -0.4941949942269972 -0.45916426609095218 0 -0.48385710844970842 -0.45611871344673671 0 -0.4941949942269972 -0.45916426609095218 0 -0.48467876016018729 -0.44770481390493477 0 -0.48385710844970842 -0.45611871344673671 0 -0.48287225872479073 -0.46338137010123648 0 -0.4941949942269972 -0.45916426609095218 0 -0.4941949942269972 -0.45916426609095218 0 -0.48838998845399501 -0.43322007379314309 0 -0.5 -0.45593863611047231 0 -0.5 -0.42676881383218318 0 -0.48838998845399501 -0.43322007379314309 0 -0.4941949942269972 -0.45916426609095218 0 -0.48467876016018729 -0.44770481390493477 0 -0.48838998845399501 -0.43322007379314309 0 -0.5 -0.45593863611047231 0 -0.4941949942269972 -0.45916426609095218 0 -0.48838998845399501 -0.43322007379314309 0 -0.5 -0.42676881383218318 0 -0.48838998845399501 -0.43322007379314309 0 -0.48258498268099292 -0.40727588149533411 0 -0.48838998845399501 -0.43322007379314309 0 -0.48258498268099292 -0.40727588149533411 0 -0.5 -0.42676881383218318 0 -0.48258498268099292 -0.40727588149533411 0 -0.49999999999999889 -0.39759899155389428 0 -0.48053050573248501 -0.42147672776700368 0 -0.47795132075354452 -0.40761925728951731 0 -0.46868921987334328 -0.4251814927320644 0 -0.48838998845399501 -0.43322007379314309 0 -0.48053050573248501 -0.42147672776700368 0 -0.48258498268099292 -0.40727588149533411 0 -0.48053050573248501 -0.42147672776700368 0 -0.48258498268099292 -0.40727588149533411 0 -0.47795132075354452 -0.40761925728951731 0 -0.48053050573248501 -0.42147672776700368 0 -0.47606701927266332 -0.43679131520182141 0 -0.46868921987334328 -0.4251814927320644 0 -0.48838998845399501 -0.43322007379314309 0 -0.48053050573248501 -0.42147672776700368 0 -0.47606701927266332 -0.43679131520182141 0 -0.48601428613885628 -0.38090720245017817 0 -0.49999999999999889 -0.39759899155389428 0 -0.49999999999999861 -0.3727285205933355 0 -0.48601428613885628 -0.38090720245017817 0 -0.49999999999999861 -0.3727285205933355 0 -0.48951587853512041 -0.37205782224554212 0 -0.47795132075354452 -0.40761925728951731 0 -0.49999999999999889 -0.39759899155389428 0 -0.48258498268099292 -0.40727588149533411 0 -0.47795132075354452 -0.40761925728951731 0 -0.49999999999999889 -0.39759899155389428 0 -0.47795132075354452 -0.40761925728951731 0 -0.48601428613885628 -0.38090720245017817 0 -0.49999999999999889 -0.39759899155389428 0 -0.47795132075354452 -0.40761925728951731 0 -0.48601428613885628 -0.38090720245017817 0 -0.46701881497498549 -0.38556963815403872 0 -0.48601428613885628 -0.38090720245017817 0 -0.46701881497498549 -0.38556963815403872 0 -0.48360124133216081 -0.36452456285067619 0 -0.46701881497498549 -0.38556963815403872 0 -0.48360124133216081 -0.36452456285067619 0 -0.46701881497498549 -0.38556963815403872 0 -0.45043638861781121 -0.40661471345740208 0 -0.47795132075354452 -0.40761925728951731 0 -0.46701881497498549 -0.38556963815403872 0 -0.45043638861781121 -0.40661471345740208 0 -0.43757402427761649 -0.38321264390829712 0 -0.45043638861781121 -0.40661471345740208 0 -0.43445765052041008 -0.40013769257658671 0 -0.46701881497498549 -0.38556963815403872 0 -0.43757402427761649 -0.38321264390829712 0 -0.45043638861781121 -0.40661471345740208 0 -0.46701881497498549 -0.38556963815403872 0 -0.43757402427761649 -0.38321264390829712 0 -0.45412424375837229 -0.36522802627992829 0 -0.46139451200219128 -0.43849474965389679 0 -0.46868921987334328 -0.4251814927320644 0 -0.45590264150709009 -0.41763952302514062 0 -0.46139451200219128 -0.43849474965389679 0 -0.47606701927266332 -0.43679131520182141 0 -0.46868921987334328 -0.4251814927320644 0 -0.47795132075354452 -0.40761925728951731 0 -0.46868921987334328 -0.4251814927320644 0 -0.45590264150709009 -0.41763952302514062 0 -0.47795132075354452 -0.40761925728951731 0 -0.45590264150709009 -0.41763952302514062 0 -0.47795132075354452 -0.40761925728951731 0 -0.45590264150709009 -0.41763952302514062 0 -0.45043638861781121 -0.40661471345740208 0 -0.45590264150709009 -0.41763952302514062 0 -0.45043638861781121 -0.40661471345740208 0 -0.43321442839889329 -0.42847143344951949 0 -0.45043638861781121 -0.40661471345740208 0 -0.43321442839889329 -0.42847143344951949 0 -0.45590264150709009 -0.41763952302514062 0 -0.43321442839889329 -0.42847143344951949 0 -0.46139451200219128 -0.43849474965389679 0 -0.43321442839889329 -0.42847143344951949 0 -0.46139451200219128 -0.43849474965389679 0 -0.45590264150709009 -0.41763952302514062 0 -0.43321442839889329 -0.42847143344951949 0 -0.43321442839889329 -0.42847143344951949 0 -0.4150547181030021 -0.42201224329813569 0 -0.43321442839889329 -0.42847143344951949 0 -0.41130010695178332 -0.4379096373358819 0 -0.43321442839889329 -0.42847143344951949 0 -0.41997124084165238 -0.44527861675283092 0 -0.45043638861781121 -0.40661471345740208 0 -0.42737642030605999 -0.41510915361333012 0 -0.43445765052041008 -0.40013769257658671 0 -0.45043638861781121 -0.40661471345740208 0 -0.43321442839889329 -0.42847143344951949 0 -0.42737642030605999 -0.41510915361333012 0 -0.43321442839889329 -0.42847143344951949 0 -0.42737642030605999 -0.41510915361333012 0 -0.4150547181030021 -0.42201224329813569 0 -0.4150547181030021 -0.42201224329813569 0 -0.39753810119907962 -0.41578179371783658 0 -0.42737642030605999 -0.41510915361333012 0 -0.41032563161211538 -0.40660119821764668 0 -0.4150547181030021 -0.42201224329813569 0 -0.41032563161211538 -0.40660119821764668 0 -0.4150547181030021 -0.42201224329813569 0 -0.39753810119907962 -0.41578179371783658 0 -0.4150547181030021 -0.42201224329813569 0 -0.40213307724174607 -0.43893379688698969 0 -0.41130010695178332 -0.4379096373358819 0 -0.43321442839889329 -0.42847143344951949 0 -0.41130010695178332 -0.4379096373358819 0 -0.41997124084165238 -0.44527861675283092 0 -0.43321442839889329 -0.42847143344951949 0 -0.4150547181030021 -0.42201224329813569 0 -0.41130010695178332 -0.4379096373358819 0 -0.43757402427761649 -0.38321264390829712 0 -0.42244376888015273 -0.3956142593273177 0 -0.41815388626361671 -0.38328093199412921 0 -0.43757402427761649 -0.38321264390829712 0 -0.41815388626361671 -0.38328093199412921 0 -0.41789923135236701 -0.3671592219858863 0 -0.42737642030605999 -0.41510915361333012 0 -0.43445765052041008 -0.40013769257658671 0 -0.42244376888015273 -0.3956142593273177 0 -0.43757402427761649 -0.38321264390829712 0 -0.43445765052041008 -0.40013769257658671 0 -0.42244376888015273 -0.3956142593273177 0 -0.42737642030605999 -0.41510915361333012 0 -0.41032563161211538 -0.40660119821764668 0 -0.42244376888015273 -0.3956142593273177 0 -0.41032563161211538 -0.40660119821764668 0 -0.42244376888015273 -0.3956142593273177 0
[...]
<PointData Scalars="" Vectors="displacement," Tensors="">
<DataArray type="Float64" Name="displacement" NumberOfComponents="3" format="ascii">
-0.015000207326371817 -2.5766643489735257e-07 0 -0.013958279986692881 -9.270207277145189e-05 0 -0.013462175510797739 -7.0614899855537928e-05 0 -0.015000207326371817 -2.5766643489735257e-07 0 -0.014997763795604231 4.4136906895963231e-07 0 -0.014401176829348286 -7.0384516168677742e-05 0 -0.015000207326371817 -2.5766643489735257e-07 0 -0.014401176829348286 -7.0384516168677742e-05 0 -0.013958279986692881 -9.270207277145189e-05 0 -0.015000207326371817 -2.5766643489735257e-07 0 -0.013462175510797739 -7.0614899855537928e-05 0 -0.012919761823086769 1.0931354301891612e-07 0 -0.014999796134612378 2.8893261819079176e-08 0 -0.014474048703966208 -2.1032841369646556e-06 0 -0.014997763795604231 4.4136906895963231e-07 0 -0.014326446755482444 -4.3971459964752785e-05 0 -0.013912853370835403 5.6929593082405266e-05 0 -0.014997763795604231 4.4136906895963231e-07 0 -0.014401176829348286 -7.0384516168677742e-05 0 -0.014326446755482444 -4.3971459964752785e-05 0 -0.014401176829348286 -7.0384516168677742e-05 0 -0.014326446755482444 -4.3971459964752785e-05 0 -0.014026893264502452 -0.00010816882261316229 0 -0.014401176829348286 -7.0384516168677742e-05 0 -0.013958279986692881 -9.270207277145189e-05 0 -0.013972140875146402 -0.00012082799139708559 0 -0.014401176829348286 -7.0384516168677742e-05 0 -0.013972140875146402 -0.00012082799139708559 0 -0.014026893264502452 -0.00010816882261316229 0 -0.013958279986692881 -9.270207277145189e-05 0 -0.013723438889349598 -9.9266844291085823e-05 0 -0.013972140875146402 -0.00012082799139708559 0 -0.013958279986692881 -9.270207277145189e-05 0 -0.013462175510797739 -7.0614899855537928e-05 0 -0.013723438889349598 -9.9266844291085823e-05 0 -0.013462175510797739 -7.0614899855537928e-05 0 -0.013723438889349598 -9.9266844291085823e-05 0 -0.013364601157885563 -3.121893044497075e-05 0 -0.013707473206072154 -1.610694634430247e-05 0 -0.013896545640604047 2.6019816147094005e-05 0 -0.013776551365491253 2.1962231955682473e-05 0 -0.013707473206072154 -1.610694634430247e-05 0 -0.013723438889349598 -9.9266844291085823e-05 0 -0.013364601157885563 -3.121893044497075e-05 0 -0.013723438889349598 -9.9266844291085823e-05 0 -0.013972140875146402 -0.00012082799139708559 0 -0.013881045429715431 -0.00010855448869079976 0 -0.013707473206072154 -1.610694634430247e-05 0 -0.013723438889349598 -9.9266844291085823e-05 0 -0.013896545640604047 2.6019816147094005e-05 0 -0.013723438889349598 -9.9266844291085823e-05 0 -0.013896545640604047 2.6019816147094005e-05 0 -0.013881045429715431 -0.00010855448869079976 0 -0.013896545640604047 2.6019816147094005e-05 0 -0.013881045429715431 -0.00010855448869079976 0 -0.013998471541026503 -0.00010460775370836518 0 -0.013881045429715431 -0.00010855448869079976 0 -0.013940434272697448 -0.00012577137162922666 0 -0.013998471541026503 -0.00010460775370836518 0 -0.013881045429715431 -0.00010855448869079976 0 -0.013934837801170259 -8.9768274717685393e-05 0 -0.013940434272697448 -0.00012577137162922666 0 -0.013940434272697448 -0.00012577137162922666 0 -0.01404726183997497 -0.00029873200004996959 0 -0.013998471541026503 -0.00010460775370836518 0 -0.013881045429715431 -0.00010855448869079976 0 -0.013934837801170259 -8.9768274717685393e-05 0 -0.014026893264502452 -0.00010816882261316229 0 -0.013972140875146402 -0.00012082799139708559 0 -0.013881045429715431 -0.00010855448869079976 0 -0.014026893264502452 -0.00010816882261316229 0 -0.01499999007022456 1.3085586300332455e-08 0 -0.015000013815167107 -2.5867361303885324e-08 0 -0.014999242046025011 -7.0459847302209693e-07 0 -0.014326446755482444 -4.3971459964752785e-05 0 -0.014026893264502452 -0.00010816882261316229 0 -0.013912853370835403 5.6929593082405266e-05 0 -0.013934837801170259 -8.9768274717685393e-05 0 -0.013912853370835403 5.6929593082405266e-05 0 -0.013940434272697448 -0.00012577137162922666 0 -0.013934837801170259 -8.9768274717685393e-05 0 -0.014026893264502452 -0.00010816882261316229 0 -0.013912853370835403 5.6929593082405266e-05 0 -0.014474048703966208 -2.1032841369646556e-06 0 -0.014543222588225803 -0.0001427870715616614 0 -0.015000013815167107 -2.5867361303885324e-08 0 -0.01500001093556449 3.0148448599541352e-08 0 -0.015009362495113154 -3.7654768047482021e-05 0 -0.013912853370835403 5.6929593082405266e-05 0 -0.013940434272697448 -0.00012577137162922666 0 -0.01404726183997497 -0.00029873200004996959 0 -0.015000013815167107 -2.5867361303885324e-08 0 -0.014999242046025011 -7.0459847302209693e-07 0 -0.015009362495113154 -3.7654768047482021e-05 0 -0.01500001093556449 3.0148448599541352e-08 0 -0.015009362495113154 -3.7654768047482021e-05 0 -0.01482578005504499 -0.00011285613477721106 0 -0.014543222588225803 -0.0001427870715616614 0 -0.014800365079493904 -0.00012181757451771449 0 -0.01500001093556449 3.0148448599541352e-08 0 -0.01482578005504499 -0.00011285613477721106 0 -0.014999621744691039 -1.8281667326126707e-07 0 -0.014394227260225042 -0.00014126541366234072 0 -0.014779135024981963 -0.00011907769639984508 0 -0.014256556020480975 5.8076944635772617e-06 0 -0.01404726183997497 -0.00029873200004996959 0 -0.014394227260225042 -0.00014126541366234072 0 -0.01482578005504499 -0.00011285613477721106 0 -0.014394227260225042 -0.00014126541366234072 0 -0.01482578005504499 -0.00011285613477721106 0 -0.014779135024981963 -0.00011907769639984508 0 -0.014394227260225042 -0.00014126541366234072 0 -0.013998471541026503 -0.00010460775370836518 0 -0.014256556020480975 5.8076944635772617e-06 0 -0.01404726183997497 -0.00029873200004996959 0 -0.014394227260225042 -0.00014126541366234072 0 -0.013998471541026503 -0.00010460775370836518 0 -0.014991260324688005 3.792612661260798e-05 0 -0.014999635277002441 -3.9347093351625467e-08 0 -0.015000212682974374 5.6469267241517631e-08 0 -0.014991260324688005 3.792612661260798e-05 0 -0.015000212682974374 5.6469267241517631e-08 0 -0.015008369834468701 2.7720720755653286e-05 0 -0.014785405865567317 -1.1097952145729921e-05 0 -0.01499995246278313 -7.1402747904000601e-08 0 -0.01482578005504499 -0.00011285613477721106 0 -0.014779135024981963 -0.00011907769639984508 0 -0.014999621744691039 -1.8281667326126707e-07 0 -0.01483028158916521 7.3105201214476598e-05 0 -0.014991260324688005 3.792612661260798e-05 0 -0.014999635277002441 -3.9347093351625467e-08 0 -0.01483028158916521 7.3105201214476598e-05 0 -0.014991260324688005 3.792612661260798e-05 0 -0.014961098605413522 0.00015295098643485294 0 -0.014991260324688005 3.792612661260798e-05 0 -0.014961098605413522 0.00015295098643485294 0 -0.01502860488200981 4.2698165362587322e-05 0 -0.01225556523936901 -0.00015980522132134746 0 -0.012266164625154799 -0.00068408792135381388 0 -0.01225556523936901 -0.00015980522132134746 0 -0.011920775257544579 -4.7476078278636276e-05 0 -0.01483028158916521 7.3105201214476598e-05 0 -0.014961098605413522 0.00015295098643485294 0 -0.014776834076002736 0.0003294617627252989 0 -0.0094887478406286575 -0.00032990773849934815 0 -0.0093373068723669392 -0.00041867760420214204 0 -0.009367912756794862 -0.00029738009877092571 0 -0.0095069423314595013 -0.00056823807655781401 0 -0.0094887478406286575 -0.00032990773849934815 0 -0.0093373068723669392 -0.00041867760420214204 0 -0.0095069423314595013 -0.00056823807655781401 0 -0.0094887478406286575 -0.00032990773849934815 0 -0.0096516669066757568 -0.00047301533524303496 0 -0.013896545640604047 2.6019816147094005e-05 0 -0.014256556020480975 5.8076944635772617e-06 0 -0.01442865616255881 0.00024843659554455095 0 -0.013896545640604047 2.6019816147094005e-05 0 -0.013998471541026503 -0.00010460775370836518 0 -0.014256556020480975 5.8076944635772617e-06 0 -0.014779135024981963 -0.00011907769639984508 0 -0.014256556020480975 5.8076944635772617e-06 0 -0.01442865616255881 0.00024843659554455095 0 -0.014785405865567317 -1.1097952145729921e-05 0 -0.014751397152810349 0.00026450446621602161 0 -0.01483028158916521 7.3105201214476598e-05 0 -0.014649558079275066 0.00027207918534827036 0 -0.014776834076002736 0.0003294617627252989 0 -0.014649558079275066 0.00027207918534827036 0 -0.014776834076002736 0.0003294617627252989 0 -0.014461888894295111 0.00056858368406230832 0 -0.011920775257544579 -4.7476078278636276e-05 0 -0.012594601859566458 0.00032283650014998166 0 -0.014751397152810349 0.00026450446621602161 0 -0.012594601859566458 0.00032283650014998166 0 -0.0143055219215586 0.00014923443266257917 0 -0.012594601859566458 0.00032283650014998166 0 -0.013896545640604047 2.6019816147094005e-05 0 -0.01442865616255881 0.00024843659554455095 0 -0.014132663351772703 0.00082185104825618406 0 -0.012594601859566458 0.00032283650014998166 0 -0.010163119675426087 -0.00025856324979672271 0 -0.012594601859566458 0.00032283650014998166 0 -0.011554788938211033 -8.882145592848125e-06 0 -0.012594601859566458 0.00032283650014998166 0 -0.012907891297116629 6.20294405411476e-05 0 -0.0093373068723669392 -0.00041867760420214204 0 -0.0092727617565326291 -0.00024056468283675423 0 -0.009367912756794862 -0.00029738009877092571 0 -0.0093373068723669392 -0.00041867760420214204 0 -0.0091978289500812428 -0.0002789158913578478 0 -0.0092727617565326291 -0.00024056468283675423 0 -0.0091978289500812428 -0.0002789158913578478 0 -0.0092727617565326291 -0.00024056468283675423 0 -0.0092233264651857411 -0.00015182607279613463 0 -0.010163119675426087 -0.00025856324979672271 0 -0.010167458169001099 -0.00017233561392454431 0 -0.0092727617565326291 -0.00024056468283675423 0 -0.0093169290311777876 -0.0001150163158248895 0 -0.0092233264651857411 -0.00015182607279613463 0 -0.0093169290311777876 -0.0001150163158248895 0 -0.0092233264651857411 -0.00015182607279613463 0 -0.0092560826937449787 -1.964311221813023e-05 0 -0.011358398220330674 -5.0775149304371649e-05 0 -0.011822728197355695 -0.00039557192729401219 0 -0.011798789306702881 -0.00015439966223114706 0 -0.011604211786533102 0.00035846138842000289 0 -0.011798789306702881 -0.00015439966223114706 0 -0.011982502783635201 5.3240933306675601e-05 0 -0.011544010270838369 0.00044800332793514279 0 -0.011358398220330674 -5.0775149304371649e-05 0 -0.011798789306702881 -0.00015439966223114706 0 -0.0094887478406286575 -0.00032990773849934815 0 -0.009382900701234197 -0.00020417927186396122 0 -0.0094513919911025941 -0.0001771080358732266 0 -0.0094887478406286575 -0.00032990773849934815 0 -0.0094513919911025941 -0.0001771080358732266 0 -0.00957683471798868 -0.00018397858871396598 0 -0.0092727617565326291 -0.00024056468283675423 0 -0.009367912756794862 -0.00029738009877092571 0 -0.009382900701234197 -0.00020417927186396122 0 -0.0094887478406286575 -0.00032990773849934815 0 -0.009367912756794862 -0.00029738009877092571 0 -0.009382900701234197 -0.00020417927186396122 0 -0.0092727617565326291 -0.00024056468283675423 0 -0.0093169290311777876 -0.0001150163158248895 0 -0.009382900701234197 -0.00020417927186396122 0 -0.0093169290311777876 -0.0001150163158248895 0 -0.009382900701234197 -0.00020417927186396122 0 -0.0093817044212118565 -9.2082963237944489e-05 0 -0.0094513919911025941 -0.0001771080358732266 0 -0.0094343339276044512 -9.2669996088784728e-05 0 -0.00957683471798868 -0.00018397858871396598 0 -0.009382900701234197 -0.00020417927186396122 0 -0.0093817044212118565 -9.2082963237944489e-05 0 -0.0094513919911025941 -0.0001771080358732266 0 -0.0093817044212118565 -9.2082963237944489e-05 0 -0.0094513919911025941 -0.0001771080358732266 0 -0.0094343339276044512 -9.2669996088784728e-05 0 -0.0093888543270580875 -2.0922753390434511e-05 0 -0.0094343339276044512 -9.2669996088784728e-05 0 -0.0093301604232336587 -4.4370769808354205e-05 0 -0.0093888543270580875 -2.0922753390434511e-05 0 -0.0094343339276044512 -9.2669996088784728e-05 0 -0.009509417957118774 -5.8873259998227175e-05 0 -0.0093817044212118565 -9.2082963237944489e-05 0 -0.0094343339276044512 -9.2669996088784728e-05 0 -0.0093301604232336587 -4.4370769808354205e-05 0 -0.0093888543270580875 -2.0922753390434511e-05 0 -0.0093301604232336587 -4.4370769808354205e-05 0 -0.009214353006332986 -5.3432676369325022e-05 0 -0.0093169290311777876 -0.0001150163158248895 0 -0.0093817044212118565 -9.2082963237944489e-05 0 -0.0093815139073395813 1.9251262355242642e-05 0 -0.0093301604232336587 -4.4370769808354205e-05 0 -0.0093815139073395813 1.9251262355242642e-05 0 -0.009214353006332986 -5.3432676369325022e-05 0 -0.0093817044212118565 -9.2082963237944489e-05 0 -0.0093301604232336587 -4.4370769808354205e-05 0 -0.0093815139073395813 1.9251262355242642e-05 0 -0.0092318452607452819 -0.00012940326728669922 0 -0.0091880676304093769 -4.902139660721587e-05 0 -0.0093815139073395813 1.9251262355242642e-05 0 -0.009214353006332986 -5.3432676369325022e-05 0 -0.0096449025093098498 -0.00070635927194737905 0 -0.009214353006332986 -5.3432676369325022e-05 0 -0.0087947708534552201 0.00028407518987171124 0 -0.009102372058809911 0.00022506883217913076 0 -0.009214353006332986 -5.3432676369325022e-05 0 -0.0093570083125207506 0.00011683856692450756 0 -0.009102372058809911 0.00022506883217913076 0 -0.0093888543270580875 -2.0922753390434511e-05 0 -0.009214353006332986 -5.3432676369325022e-05 0 -0.0093570083125207506 0.00011683856692450756 0 -0.010613460379682927 4.6459833017026123e-05 0 -0.0099366758628774005 0.00019721168028654301 0 -0.010201089518937272 -0.00012713188802204777 0 -0.011358398220330674 -5.0775149304371649e-05 0 -0.011177697805839607 -0.00052680668056323803 0 -0.011822728197355695 -0.00039557192729401219 0 -0.010167458169001099 -0.00017233561392454431 0 -0.011342714984454459 -1.6241974538705694e-05 0 -0.010613460379682927 4.6459833017026123e-05 0 -0.0099366758628774005 0.00019721168028654301 0 -0.010805175177201446 0.00037063692050112994 0 -0.0093169290311777876 -0.0001150163158248895 0 -0.0093815139073395813 1.9251262355242642e-05 0 -0.0092560826937449787 -1.964311221813023e-05 0 -0.0092408581799654985 -7.4425060095988671e-06 0 -0.010167458169001099 -0.00017233561392454431 0 -0.0093815139073395813 1.9251262355242642e-05 0 -0.0099306288799961319 0.00015576215215045894 0 -0.0098382966964340405 -0.00010067056597856393 0 -0.010167458169001099 -0.00017233561392454431 0 -0.010029224089883724 -6.3801136630826547e-05 0 -0.0099366758628774005 0.00019721168028654301 0 -0.0098382966964340405 -0.00010067056597856393 0 -0.010201089518937272 -0.00012713188802204777 0 -0.0098382966964340405 -0.00010067056597856393 0 -0.010201089518937272 -0.00012713188802204777 0 -0.0096449025093098498 -0.00070635927194737905 0 -0.0093815139073395813 1.9251262355242642e-05 0 -0.0098382966964340405 -0.00010067056597856393 0 -0.0096449025093098498 -0.00070635927194737905 0 -0.010201089518937272 -0.00012713188802204777 0 -0.010570848312162932 -0.00034575361615405477 0 -0.0096449025093098498 -0.00070635927194737905 0 -0.010825632100154213 -0.00020619871856744824 0 -0.0091880676304093769 -4.902139660721587e-05 0 -0.010613460379682927 4.6459833017026123e-05 0 -0.010201089518937272 -0.00012713188802204777 0 -0.010570848312162932 -0.00034575361615405477 0 -0.010704795254919455 1.3583899466307693e-05 0 -0.011262305155044611 -9.8978610008290489e-05 0 -0.010581314410494563 -0.00020320934241918159 0 -0.010825632100154213 -0.00020619871856744824 0 -0.011436759108323197 0.00012722915784643601 0 -0.010613460379682927 4.6459833017026123e-05 0 -0.010570848312162932 -0.00034575361615405477 0 -0.011571314669148432 0.00013176859479152792 0 -0.010704795254919455 1.3583899466307693e-05 0 -0.011262305155044611 -9.8978610008290489e-05 0 -0.011571314669148432 0.00013176859479152792 0 -0.011342714984454459 -1.6241974538705694e-05 0 -0.012275138943564216 0.00013404404403581747 0 -0.010613460379682927 4.6459833017026123e-05 0 -0.010805175177201446 0.00037063692050112994 0 -0.011571314669148432 0.00013176859479152792 0 -0.010805175177201446 0.00037063692050112994 0 -0.011571314669148432 0.00013176859479152792 0 -0.011696835636290873 0.00046673229669402035 0 -0.011936599991962026 0.00023704350671558552 0 -0.011571314669148432 0.00013176859479152792 0 -0.011696835636290873 0.00046673229669402035 0 -0.01198610187774048 0.00031306181888377915 0 -0.012275138943564216 0.00013404404403581747 0 -0.011571314669148432 0.00013176859479152792 0 -0.011601910878891617 -3.7576862429540123e-05 0 -0.011796630786633058 5.6657241703843507e-05 0 -0.011936599991962026 0.00023704350671558552 0 -0.011571314669148432 0.00013176859479152792 0 -0.011796630786633058 5.6657241703843507e-05 0 -0.011262305155044611 -9.8978610008290489e-05 0 -0.011571314669148432 0.00013176859479152792 0 -0.011601910878891617 -3.7576862429540123e-05 0 -0.011262305155044611 -9.8978610008290489e-05 0 -0.011601910878891617 -3.7576862429540123e-05 0 -0.011496984566990663 -0.00013804044713568712 0 -0.011435790945892903 -2.9377740789261851e-07 0 -0.012260350878491694 0.0001322081280438166 0 -0.012919761823086769 1.0931354301891612e-07 0 -0.011601910878891617 -3.7576862429540123e-05 0 -0.011711271350206449 -3.9919768113947123e-05 0 -0.011496984566990663 -0.00013804044713568712 0 -0.011601910878891617 -3.7576862429540123e-05 0 -0.011711271350206449 -3.9919768113947123e-05 0 -0.011796630786633058 5.6657241703843507e-05 0 -0.011711271350206449 -3.9919768113947123e-05 0 -0.011435790945892903 -2.9377740789261851e-07 0 -0.012260350878491694 0.0001322081280438166 0 -0.011711271350206449 -3.9919768113947123e-05 0 -0.011796630786633058 5.6657241703843507e-05 0 -0.012260350878491694 0.0001322081280438166 0 -0.011936599991962026 0.00023704350671558552 0 -0.011796630786633058 5.6657241703843507e-05 0 -0.012260350878491694 0.0001322081280438166 0 -0.011936599991962026 0.00023704350671558552 0 -0.012260350878491694 0.0001322081280438166 0 -0.012444537364444855 0.00027223480250303375 0 -0.012260350878491694 0.0001322081280438166 0 -0.012444537364444855 0.00027223480250303375 0 -0.012847859124735531 6.2897710733595503e-05 0 -0.012444537364444855 0.00027223480250303375 0 -0.012847859124735531 6.2897710733595503e-05 0 -0.013143803520804851 0.00010358164506090253 0 -0.012260350878491694 0.0001322081280438166 0 -0.012919761823086769 1.0931354301891612e-07 0 -0.012847859124735531 6.2897710733595503e-05 0 -0.013462175510797739 -7.0614899855537928e-05 0 -0.012919761823086769 1.0931354301891612e-07 0 -0.012847859124735531 6.2897710733595503e-05 0 -0.012847859124735531 6.2897710733595503e-05 0 -0.013364601157885563 -3.121893044497075e-05 0 -0.013143803520804851 0.00010358164506090253 0 -0.013462175510797739 -7.0614899855537928e-05 0 -0.012847859124735531 6.2897710733595503e-05 0 -0.013364601157885563 -3.121893044497075e-05 0 -0.013707473206072154 -1.610694634430247e-05 0 -0.013364601157885563 -3.121893044497075e-05 0 -0.013481035582350073 1.9438333825464632e-05 0 -0.013481035582350073 1.9438333825464632e-05 0 -0.013660656645414755 0.00018078345518349179 0 -0.013143803520804851 0.00010358164506090253 0 -0.013364601157885563 -3.121893044497075e-05 0 -0.013481035582350073 1.9438333825464632e-05 0 -0.013143803520804851 0.00010358164506090253 0 -0.013707473206072154 -1.610694634430247e-05 0 -0.013481035582350073 1.9438333825464632e-05 0 -0.013697702597516431 4.4535802299704679e-05 0 -0.013707473206072154 -1.610694634430247e-05 0 -0.013776551365491253 2.1962231955682473e-05 0 -0.013697702597516431 4.4535802299704679e-05 0 -0.013776551365491253 2.1962231955682473e-05 0 -0.013697702597516431 4.4535802299704679e-05 0 -0.013660656645414755 0.00018078345518349179 0 -0.013481035582350073 1.9438333825464632e-05 0 -0.013697702597516431 4.4535802299704679e-05 0 -0.013660656645414755 0.00018078345518349179 0 -0.011798789306702881 -0.00015439966223114706 0 -0.011982502783635201 5.3240933306675601e-05 0 -0.012404593334594927 -0.00026961866942899461 0 -0.011822728197355695 -0.00039557192729401219 0 -0.011798789306702881 -0.00015439966223114706 0 -0.012404593334594927 -0.00026961866942899461 0 -0.012907891297116629 6.20294405411476e-05 0 -0.012275138943564216 0.00013404404403581747 0 -0.013660656645414755 0.00018078345518349179 0 -0.013148949867526398 0.00050640514386784215 0 