<?xml version="1.0"?>
<VTKFile type="UnstructuredGrid" version="0.1" byte_order="LittleEndian">
<UnstructuredGrid>
<Piece NumberOfPoints="30881" NumberOfCells="10862">
<Points>
<DataArray type="Float64" NumberOfComponents="3" format="ascii">
-0.49999999999999828 -0.48677703703187492 0 -0.5 -0.5 0 -0.48129281494584059 -0.49338851851593718 0 -0.5 -0.5 0 -0.48129281494584059 -0.49338851851593718 0 -0.46258562989168328 -0.5 0 -0.49999999999999828 -0.48677703703187492 0 -0.48129281494584059 -0.49338851851593718 0 -0.49999999999999828 -0.48677703703187492 0 -0.4824545428279598 -0.47451624516148783 0 -0.48129281494584059 -0.49338851851593718 0 -0.49999999999999828 -0.48677703703187492 0 -0.4824545428279598 -0.47451624516148783 0 -0.5 -0.46599539173150673 0 -0.4824545428279598 -0.47451624516148783 0 -0.46853075243710779 -0.48354990242643758 0 -0.46411508256092049 -0.46598235294430129 0 -0.4824545428279598 -0.47451624516148783 0 -0.48129281494584059 -0.49338851851593718 0 -0.46853075243710779 -0.48354990242643758 0 -0.48129281494584059 -0.49338851851593718 0 -0.46258562989168328 -0.5 0 -0.48129281494584059 -0.49338851851593718 0 -0.46258562989168328 -0.5 0 -0.46853075243710779 -0.48354990242643758 0 -0.46258562989168328 -0.5 0 -0.46853075243710779 -0.48354990242643758 0 -0.45147378687733691 -0.48362213557840178 0 -0.46853075243710779 -0.48354990242643758 0 -0.45147378687733691 -0.48362213557840178 0 -0.46411508256092049 -0.46598235294430129 0 -0.4457251648104853 -0.47020164095208389 0 -0.45147378687733691 -0.48362213557840178 0 -0.46411508256092049 -0.46598235294430129 0 -0.4457251648104853 -0.47020164095208389 0 -0.45147378687733691 -0.48362213557840178 0 -0.43513446131126993 -0.48199891714758791 0 -0.45147378687733691 -0.48362213557840178 0 -0.43275163025255442 -0.5 0 -0.43513446131126993 -0.48199891714758791 0 -0.46258562989168328 -0.5 0 -0.45147378687733691 -0.48362213557840178 0 -0.43275163025255442 -0.5 0 -0.4467190029717853 -0.45478934699519452 0 -0.4422915115958943 -0.43555510214664611 0 -0.43246707723660932 -0.44794326854796312 0 -0.4457251648104853 -0.47020164095208389 0 -0.4467190029717853 -0.45478934699519452 0 -0.46411508256092049 -0.46598235294430129 0 -0.4457251648104853 -0.47020164095208389 0 -0.4467190029717853 -0.45478934699519452 0 -0.43016578207734568 -0.46313500011938619 0 -0.4467190029717853 -0.45478934699519452 0 -0.46411508256092049 -0.46598235294430129 0 -0.47114575579794699 -0.4403844242888923 0 -0.4467190029717853 -0.45478934699519452 0 -0.47114575579794699 -0.4403844242888923 0 -0.4422915115958943 -0.43555510214664611 0 -0.47114575579794699 -0.4403844242888923 0 -0.4422915115958943 -0.43555510214664611 0 -0.46411508256092049 -0.46598235294430129 0 -0.47114575579794699 -0.4403844242888923 0 -0.48354307623736548 -0.45841843211146538 0 -0.4824545428279598 -0.47451624516148783 0 -0.46411508256092049 -0.46598235294430129 0 -0.48354307623736548 -0.45841843211146538 0 -0.4824545428279598 -0.47451624516148783 0 -0.48354307623736548 -0.45841843211146538 0 -0.5 -0.46599539173150673 0 -0.48354307623736548 -0.45841843211146538 0 -0.5 -0.46599539173150673 0 -0.49999999999999972 -0.44521374643113848 0 -0.47114575579794699 -0.4403844242888923 0 -0.49999999999999972 -0.44521374643113848 0 -0.47114575579794699 -0.4403844242888923 0 -0.49999999999999972 -0.44521374643113848 0 -0.48704432221743971 -0.42935617662229603 0 -0.47114575579794699 -0.4403844242888923 0 -0.48354307623736548 -0.45841843211146538 0 -0.49999999999999972 -0.44521374643113848 0 -0.49999999999999972 -0.44521374643113848 0 -0.48704432221743971 -0.42935617662229603 0 -0.5 -0.41591957503128979 0 -0.48704432221743971 -0.42935617662229603 0 -0.5 -0.41591957503128979 0 -0.47703153307181151 -0.41590696073786332 0 -0.5 -0.41591957503128979 0 -0.47703153307181151 -0.41590696073786332 0 -0.48817838912021821 -0.4022119694541284 0 -0.47114575579794699 -0.4403844242888923 0 -0.48704432221743971 -0.42935617662229603 0 -0.47703153307181151 -0.41590696073786332 0 -0.5 -0.38662540363144121 0 -0.47568202340906118 -0.39039593841591919 0 -0.4947615751445838 -0.37332156409002909 0 -0.47568202340906118 -0.39039593841591919 0 -0.4947615751445838 -0.37332156409002909 0 -0.5 -0.38662540363144121 0 -0.48817838912021821 -0.4022119694541284 0 -0.47568202340906118 -0.39039593841591919 0 -0.5 -0.41591957503128979 0 -0.5 -0.38662540363144121 0 -0.48817838912021821 -0.4022119694541284 0 -0.47703153307181151 -0.41590696073786332 0 -0.48817838912021821 -0.4022119694541284 0 -0.47568202340906118 -0.39039593841591919 0 -0.47703153307181151 -0.41590696073786332 0 -0.47568202340906118 -0.39039593841591919 0 -0.45660247167353862 -0.40747031274180939 0 -0.47568202340906118 -0.39039593841591919 0 -0.48030931097003587 -0.37191064435083931 0 -0.46669490250066459 -0.37481721741951951 0 -0.47568202340906118 -0.39039593841591919 0 -0.4947615751445838 -0.37332156409002909 0 -0.48030931097003587 -0.37191064435083931 0 -0.45332061783919553 -0.38729481725706361 0 -0.46669490250066459 -0.37481721741951951 0 -0.45095991715087752 -0.36968037302039969 0 -0.47568202340906118 -0.39039593841591919 0 -0.45332061783919553 -0.38729481725706361 0 -0.46669490250066459 -0.37481721741951951 0 -0.47568202340906118 -0.39039593841591919 0 -0.45660247167353862 -0.40747031274180939 0 -0.47568202340906118 -0.39039593841591919 0 -0.45332061783919553 -0.38729481725706361 0 -0.45660247167353862 -0.40747031274180939 0 -0.44332653075004852 -0.401690115615219 0 -0.44646247228389868 -0.41654464256061052 0 -0.42870657106664078 -0.39987574649354879 0 -0.45332061783919553 -0.38729481725706361 0 -0.44332653075004852 -0.401690115615219 0 -0.43479631603355468 -0.39077639303142497 0 -0.45332061783919553 -0.38729481725706361 0 -0.44332653075004852 -0.401690115615219 0 -0.45660247167353862 -0.40747031274180939 0 -0.45332061783919553 -0.38729481725706361 0 -0.43421362475025049 -0.37527491429266319 0 -0.43479631603355468 -0.39077639303142497 0 -0.45332061783919553 -0.38729481725706361 0 -0.43421362475025049 -0.37527491429266319 0 -0.45095991715087752 -0.36968037302039969 0 -0.47114575579794699 -0.4403844242888923 0 -0.45663439814062529 -0.42533932462455271 0 -0.4422915115958943 -0.43555510214664611 0 -0.47114575579794699 -0.4403844242888923 0 -0.47703153307181151 -0.41590696073786332 0 -0.45663439814062529 -0.42533932462455271 0 -0.45663439814062529 -0.42533932462455271 0 -0.45660247167353862 -0.40747031274180939 0 -0.44646247228389868 -0.41654464256061052 0 -0.47703153307181151 -0.41590696073786332 0 -0.45663439814062529 -0.42533932462455271 0 -0.45660247167353862 -0.40747031274180939 0 -0.44332653075004852 -0.401690115615219 0 -0.45660247167353862 -0.40747031274180939 0 -0.44646247228389868 -0.41654464256061052 0 -0.45660247167353862 -0.40747031274180939 0 -0.44646247228389868 -0.41654464256061052 0 -0.44646247228389868 -0.41654464256061052 0 -0.4375229199380159 -0.42454468706769971 0 -0.45663439814062529 -0.42533932462455271 0 -0.4375229199380159 -0.42454468706769971 0 -0.4422915115958943 -0.43555510214664611 0 -0.45663439814062529 -0.42533932462455271 0 -0.44646247228389868 -0.41654464256061052 0 -0.4375229199380159 -0.42454468706769971 0 -0.4375229199380159 -0.42454468706769971 0 -0.4422915115958943 -0.43555510214664611 0 -0.43077617074680319 -0.43406335077952207 0 -0.43077617074680319 -0.43406335077952207 0 -0.42550232634077589 -0.42345940056268039 0 -0.41950844772475421 -0.43888456563633732 0 -0.4375229199380159 -0.42454468706769971 0 -0.43077617074680319 -0.43406335077952207 0 -0.42550232634077589 -0.42345940056268039 0 -0.44646247228389868 -0.41654464256061052 0 -0.41657232816672918 -0.41306671883907142 0 -0.42870657106664078 -0.39987574649354879 0 -0.44646247228389868 -0.41654464256061052 0 -0.4375229199380159 -0.42454468706769971 0 -0.42550232634077589 -0.42345940056268039 0 -0.44646247228389868 -0.41654464256061052 0 -0.42550232634077589 -0.42345940056268039 0 -0.41657232816672918 -0.41306671883907142 0 -0.44646247228389868 -0.41654464256061052 0 -0.41657232816672918 -0.41306671883907142 0 -0.42550232634077589 -0.42345940056268039 0 -0.41657232816672918 -0.41306671883907142 0 -0.41333489101611293 -0.42699700567040988 0 -0.41657232816672918 -0.41306671883907142 0 -0.41333489101611293 -0.42699700567040988 0 -0.39893236021425188 -0.42931692235905211 0 -0.41333489101611293 -0.42699700567040988 0 -0.39893236021425188 -0.42931692235905211 0 -0.41950844772475421 -0.43888456563633732 0 -0.42550232634077589 -0.42345940056268039 0 -0.41333489101611293 -0.42699700567040988 0 -0.41950844772475421 -0.43888456563633732 0 -0.43421362475025049 -0.37527491429266319 0 -0.42478231784314502 -0.38643128255249681 0 -0.41656514696884139 -0.37636588688318029 0 -0.43421362475025049 -0.37527491429266319 0 -0.42478231784314502 -0.38643128255249681 0 -0.43479631603355468 -0.39077639303142497 0 -0.42478231784314502 -0.38643128255249681 0 -0.43479631603355468 -0.39077639303142497 0 -0.42870657106664078 -0.39987574649354879 0 -0.44332653075004852 -0.401690115615219 0 -0.43479631603355468 -0.39077639303142497 0 -0.42870657106664078 -0.39987574649354879 0 -0.41657232816672918 -0.41306671883907142 0 -0.40962993039643741 -0.3898634720616666 0 -0.3946356370269814 -0.39577424904278191 0 -0.42478231784314502 -0.38643128255249681 0 -0.42870657106664078 -0.39987574649354879 0 -0.40962993039643741 -0.3898634720616666 0 -0.41657232816672918 -0.41306671883907142 0 -0.42870657106664078 -0.39987574649354879 0 -0.40962993039643741 -0.3898634720616666 0 -0.42478231784314502 -0.38643128255249681 0 -0.40962993039643741 -0.3898634720616666 0 -0.41656514696884139 -0.37636588688318029 0 -0.40962993039643741 -0.3898634720616666 0 -0.41656514696884139 -0.37636588688318029 0 -0.40465459864295228 -0.37650109000307358 0 -0.39431275766669582 -0.38061373190328529 0 -0.40465459864295228 -0.37650109000307358 0 -0.3968495855878465 -0.36923685638487008 0 -0.40962993039643741 -0.3898634720616666 0 -0.39431275766669582 -0.38061373190328529 0 -0.40465459864295228 -0.376501090003
[...]
<PointData Scalars="" Vectors="displacement," Tensors="">
<DataArray type="Float64" Name="displacement" NumberOfComponents="3" format="ascii">
-0.043813988421107418 -0.044999254213779247 0 -0.044997631529123672 -0.044999819640760594 0 -0.045355387319988782 -0.043514185900403124 0 -0.044997631529123672 -0.044999819640760594 0 -0.045355387319988782 -0.043514185900403124 0 -0.045000674783096946 -0.041633813863934263 0 -0.043811778748726389 -0.044996903528722598 0 -0.044379828842752302 -0.043283659427650688 0 -0.043806313675477486 -0.044998091490924499 0 -0.042892652717871078 -0.043552937802191334 0 -0.043113994184618289 -0.042958505146403238 0 -0.043806313675477486 -0.044998091490924499 0 -0.042892652717871078 -0.043552937802191334 0 -0.041939990170756412 -0.044998466700019141 0 -0.042892652717871078 -0.043552937802191334 0 -0.043422233594030801 -0.042141578408772591 0 -0.042736162676641466 -0.042098263574642206 0 -0.042892652717871078 -0.043552937802191334 0 -0.043113994184618289 -0.042958505146403238 0 -0.043422233594030801 -0.042141578408772591 0 -0.044379828842752302 -0.043283659427650688 0 -0.044998013613825535 -0.041635694834427611 0 -0.043113994184618289 -0.042958505146403238 0 -0.044993876180706396 -0.041631605858015272 0 -0.043422233594030801 -0.042141578408772591 0 -0.044993876180706396 -0.041631605858015272 0 -0.043422233594030801 -0.042141578408772591 0 -0.043889010266871809 -0.041046166961634017 0 -0.043422233594030801 -0.042141578408772591 0 -0.043889010266871809 -0.041046166961634017 0 -0.042736162676641466 -0.042098263574642206 0 -0.043151848307257851 -0.040985007595703539 0 -0.043889010266871809 -0.041046166961634017 0 -0.042736162676641466 -0.042098263574642206 0 -0.043151848307257851 -0.040985007595703539 0 -0.043889010266871809 -0.041046166961634017 0 -0.043922582157857132 -0.039914994439896719 0 -0.043889010266871809 -0.041046166961634017 0 -0.044999134350561229 -0.038950032253908508 0 -0.043922582157857132 -0.039914994439896719 0 -0.044993876180706396 -0.041631605858015272 0 -0.043889010266871809 -0.041046166961634017 0 -0.044999134350561229 -0.038950032253908508 0 -0.042362688667317489 -0.041445513694303736 0 -0.040819034634295613 -0.042086364515617668 0 -0.041720044815095565 -0.041194432880812246 0 -0.043151848307257851 -0.040985007595703539 0 -0.042362688667317489 -0.041445513694303736 0 -0.042736162676641466 -0.042098263574642206 0 -0.043151848307257851 -0.040985007595703539 0 -0.042362688667317489 -0.041445513694303736 0 -0.042641462740672972 -0.040519731997828635 0 -0.042362688667317489 -0.041445513694303736 0 -0.042736162676641466 -0.042098263574642206 0 -0.042486064658256398 -0.042546259674552805 0 -0.042362688667317489 -0.041445513694303736 0 -0.042486064658256398 -0.042546259674552805 0 -0.040819034634295613 -0.042086364515617668 0 -0.040412135994171698 -0.043896347018599513 0 -0.040520018054688196 -0.043499865196334739 0 -0.042736162676641466 -0.042098263574642206 0 -0.042486064658256398 -0.042546259674552805 0 -0.041985189024728538 -0.04380438600506726 0 -0.042892652717871078 -0.043552937802191334 0 -0.042736162676641466 -0.042098263574642206 0 -0.041985189024728538 -0.04380438600506726 0 -0.042892652717871078 -0.043552937802191334 0 -0.041985189024728538 -0.04380438600506726 0 -0.041939990170756412 -0.044998466700019141 0 -0.041985189024728538 -0.04380438600506726 0 -0.041939990170756412 -0.044998466700019141 0 -0.040075029806344704 -0.044998510130821047 0 -0.040412135994171698 -0.043896347018599513 0 -0.040069840660469147 -0.044998287412795171 0 -0.038817288425729651 -0.045239731738766414 0 -0.040066610381270559 -0.044999694945435736 0 -0.038700056052770708 -0.045311572595351193 0 -0.042486064658256398 -0.042546259674552805 0 -0.041985189024728538 -0.04380438600506726 0 -0.040075029806344704 -0.044998510130821047 0 -0.040066610381270559 -0.044999694945435736 0 -0.038700056052770708 -0.045311572595351193 0 -0.0374345531264293 -0.044999115207972638 0 -0.038700056052770708 -0.045311572595351193 0 -0.0374345531264293 -0.044999115207972638 0 -0.038524486723800114 -0.045312015196837356 0 -0.0374345531264293 -0.044999115207972638 0 -0.038524486723800114 -0.045312015196837356 0 -0.036852963082027922 -0.045307832777747435 0 -0.038817288425729651 -0.045239731738766414 0 -0.038700056052770708 -0.045311572595351193 0 -0.038524486723800114 -0.045312015196837356 0 -0.034797908648361991 -0.04499931661280291 0 -0.03647315866099099 -0.04584879100590037 0 -0.033819729700389177 -0.045370412380370796 0 -0.036376980014232646 -0.045059283266538179 0 -0.035633010151899444 -0.044827881565851081 0 -0.034797908648361991 -0.04499931661280291 0 -0.036852963082027922 -0.045307832777747435 0 -0.03647315866099099 -0.04584879100590037 0 -0.0374345531264293 -0.044999115207972638 0 -0.034797908648361991 -0.04499931661280291 0 -0.036852963082027922 -0.045307832777747435 0 -0.038524486723800114 -0.045312015196837356 0 -0.036852963082027922 -0.045307832777747435 0 -0.03647315866099099 -0.04584879100590037 0 -0.038524486723800114 -0.045312015196837356 0 -0.03647315866099099 -0.04584879100590037 0 -0.039121448444891349 -0.044811672815831226 0 -0.035522129341383907 -0.046874206589503108 0 -0.034068671035945776 -0.046449729694746859 0 -0.034677529800917997 -0.04727769730155295 0 -0.035522129341383907 -0.046874206589503108 0 -0.033819729700389177 -0.045370412380370796 0 -0.034068671035945776 -0.046449729694746859 0 -0.035538057211308247 -0.047809335476871356 0 -0.034677529800917997 -0.04727769730155295 0 -0.03495394362753701 -0.04779813803956779 0 -0.035522129341383907 -0.046874206589503108 0 -0.035538057211308247 -0.047809335476871356 0 -0.034677529800917997 -0.04727769730155295 0 -0.036376980014232646 -0.045059283266538179 0 -0.037657773212591811 -0.044926255603033233 0 -0.035522129341383907 -0.046874206589503108 0 -0.035538057211308247 -0.047809335476871356 0 -0.035871821451044866 -0.047798529252587124 0 -0.035778658540941297 -0.04793487816717918 0 -0.035587655133858316 -0.048003950660014762 0 -0.035754049237483751 -0.047722140226565575 0 -0.035538057211308247 -0.047809335476871356 0 -0.035778658540941297 -0.04793487816717918 0 -0.035961873138309827 -0.047909512522718321 0 -0.035538057211308247 -0.047809335476871356 0 -0.035778658540941297 -0.04793487816717918 0 -0.035871821451044866 -0.047798529252587124 0 -0.035538057211308247 -0.047809335476871356 0 -0.03600988945675393 -0.048034902935534099 0 -0.035961873138309827 -0.047909512522718321 0 -0.035538057211308247 -0.047809335476871356 0 -0.03600988945675393 -0.048034902935534099 0 -0.03495394362753701 -0.04779813803956779 0 -0.038817288425729651 -0.045239731738766414 0 -0.039853329194189387 -0.044026789750136415 0 -0.040819034634295613 -0.042086364515617668 0 -0.038817288425729651 -0.045239731738766414 0 -0.038524486723800114 -0.045312015196837356 0 -0.039853329194189387 -0.044026789750136415 0 -0.039853329194189387 -0.044026789750136415 0 -0.039121448444891349 -0.044811672815831226 0 -0.040210278042772822 -0.043491963740241078 0 -0.038524486723800114 -0.045312015196837356 0 -0.039853329194189387 -0.044026789750136415 0 -0.039121448444891349 -0.044811672815831226 0 -0.035778658540941297 -0.04793487816717918 0 -0.035871821451044866 -0.047798529252587124 0 -0.035587655133858316 -0.048003950660014762 0 -0.037657773212591811 -0.044926255603033233 0 -0.038506051122423293 -0.044698168051710875 0 -0.038506051122423293 -0.044698168051710875 0 -0.038519315575523447 -0.044438923587531237 0 -0.039853329194189387 -0.044026789750136415 0 -0.04090392252692325 -0.042092843010962944 0 -0.040819034634295613 -0.042086364515617668 0 -0.039853329194189387 -0.044026789750136415 0 -0.040210278042772822 -0.043491963740241078 0 -0.04090392252692325 -0.042092843010962944 0 -0.04090392252692325 -0.042092843010962944 0 -0.040819034634295613 -0.042086364515617668 0 -0.041057976256176569 -0.041451668058904281 0 -0.041057976256176569 -0.041451668058904281 0 -0.041064255017584365 -0.041260536321570916 0 -0.041273800634923925 -0.040844624332240988 0 -0.04090392252692325 -0.042092843010962944 0 -0.041057976256176569 -0.041451668058904281 0 -0.041064255017584365 -0.041260536321570916 0 -0.035587655133858316 -0.048003950660014762 0 -0.035007510619932798 -0.047152052353976966 0 -0.035754049237483751 -0.047722140226565575 0 -0.041454142434224489 -0.042580758163734758 0 -0.04090392252692325 -0.042092843010962944 0 -0.041064255017584365 -0.041260536321570916 0 -0.041454142434224489 -0.042580758163734758 0 -0.041064255017584365 -0.041260536321570916 0 -0.04133104201300504 -0.040756543970267213 0 -0.038506051122423293 -0.044698168051710875 0 -0.038196751539697087 -0.043842905526192015 0 -0.041064255017584365 -0.041260536321570916 0 -0.04133104201300504 -0.040756543970267213 0 -0.041042255510331228 -0.040749143844233233 0 -0.04133104201300504 -0.040756543970267213 0 -0.041042255510331228 -0.040749143844233233 0 -0.040805808672410904 -0.040411137671278095 0 -0.041042255510331228 -0.040749143844233233 0 -0.040805808672410904 -0.040411137671278095 0 -0.041273800634923925 -0.040844624332240988 0 -0.041064255017584365 -0.041260536321570916 0 -0.041042255510331228 -0.040749143844233233 0 -0.041273800634923925 -0.040844624332240988 0 -0.03600988945675393 -0.048034902935534099 0 -0.03634792602929561 -0.047677893287147111 0 -0.037014790362257431 -0.047558832600252801 0 -0.03600988945675393 -0.048034902935534099 0 -0.03634792602929561 -0.047677893287147111 0 -0.035961873138309827 -0.047909512522718321 0 -0.03634792602929561 -0.047677893287147111 0 -0.035961873138309827 -0.047909512522718321 0 -0.035754049237483751 -0.047722140226565575 0 -0.035778658540941297 -0.04793487816717918 0 -0.035961873138309827 -0.047909512522718321 0 -0.035754049237483751 -0.047722140226565575 0 -0.035007510619932798 -0.047152052353976966 0 -0.036611867868309486 -0.046646510765519844 0 -0.036490444284022316 -0.044804738155008836 0 -0.03634792602929561 -0.047677893287147111 0 -0.035754049237483751 -0.047722140226565575 0 -0.036611867868309486 -0.046646510765519844 0 -0.035007510619932798 -0.047152052353976966 0 -0.035754049237483751 -0.047722140226565575 0 -0.036611867868309486 -0.046646510765519844 0 -0.03634792602929561 -0.047677893287147111 0 -0.036611867868309486 -0.046646510765519844 0 -0.037014790362257431 -0.047558832600252801 0 -0.036611867868309486 -0.046646510765519844 0 -0.037014790362257431 -0.047558832600252801 0 -0.037766001264875233 -0.046360740031557025 0 -0.037898581153789801 -0.044880746584028651 0 -0.037766001264875233 -0.046360740031557025 0 -0.039089233645627795 -0.045356155468434224 0 -0.036611867868309486 -0.046646510765519844 0 -0.037898581153789801 -0.044880746584028651 0 -0.037766001264875233 -0.046360740031557025 0 -0.036611867868309486 -0.046646510765519844 0 -0.037898581153789801 -0.044880746584028651 0 -0.036490444284022316 -0.044804738155008836 0 -0.036490444284022316 -0.044804738155008836 0 -0.035171320457930415 -0.043693013291302457 0 -0.037137925767731755 -0.041985568442932386 0 -0.036490444284022316 -0.044804738155008836 0 -0.038555922727419145 -0.041991942625597752 0 -0.037137925767731755 -0.041985568442932386 0 -0.037898581153789801 -0.044880746584028651 0 -0.036490444284022316 -0.044804738155008836 0 -0.038555922727419145 -0.041991942625597752 0 -0.037898581153789801 -0.044880746584028651 0 -0.038555922727419145 -0.041991942625597752 0 -0.039540145150074549 -0.043561979618854621 0 -0.04133104201300504 -0.040756543970267213 0 -0.040805808672410904 -0.040411137671278095 0 -0.040220245015055021 -0.040203313085555713 0 -0.035007510619932798 -0.047152052353976966 0 -0.036490444284022316 -0.044804738155008836 0 -0.035171320457930415 -0.043693013291302457 0 -0.038196751539697087 -0.043842905526192015 0 -0.037977547384400144 -0.042716155762652544 0 -0.040220245015055021 -0.040203313085555713 0 -0.04033295408985637 -0.040361774210201512 0 -0.039292340027375368 -0.040421321757199466 0 -0.04033295408985637 -0.040361774210201512 0 -0.041094380743666989 -0.040522559767064439 0 -0.040233407377371341 -0.04058810042649242 0 -0.040805808672410904 -0.040411137671278095 0 -0.04033295408985637 -0.040361774210201512 0 -0.041094380743666989 -0.040522559767064439 0 -0.040805808672410904 -0.040411137671278095 0 -0.040220245015055021 -0.040203313085555713 0 -0.04033295408985637 -0.040361774210201512 0 -0.041094380743666989 -0.040522559767064439 0 -0.041633088363258054 -0.040407819048671974 0 -0.042165333804580672 -0.040534569800475789 0 -0.040805808672410904 -0.040411137671278095 0 -0.041094380743666989 -0.040522559767064439 0 -0.041633088363258054 -0.040407819048671974 0 -0.041633088363258054 -0.040407819048671974 0 -0.042165333804580672 -0.040534569800475789 0 -0.042734933770286088 -0.040089967648571791 0 -0.041094380743666989 -0.040522559767064439 0 -0.042165333804580672 -0.040534569800475789 0 -0.041874030420566977 -0.040966634577064537 0 -0.042165333804580672 -0.040534569800475789 0 -0.0429479506637169 -0.040924408551288961 0 -0.041874030420566977 -0.040966634577064537 0 -0.0429479506637169 -0.040924408551288961 0 -0.044122762776653619 -0.040522732653193359 0 -0.043058744823450616 -0.040358700476444104 0 -0.042165333804580672 -0.040534569800475789 0 -0.0429479506637169 -0.040924408551288961 0 -0.043058744823450616 -0.040358700476444104 0 -0.044592605067221201 -0.036634614397387744 0 -0.044355780042452976 -0.034422427668065469 0 -0.04568956810202645 -0.035225199343991237 0 -0.04499860923442435 -0.036265184631874295 0 -0.045000809141076722 -0.033576034691296046 0 -0.04568956810202645 -0.035225199343991237 0 -0.045506299082746234 -0.033353221256440226 0 -0.045000809141076722 -0.033576034691296046 0 -0.0429479506637169 -0.040924408551288961 0 -0.044122762776653619 -0.040522732653193359 0 -0.043854886715267064 -0.0414186239389688 0 -0.044592605067221201 -0.036634614397387744 0 -0.044653193476653891 -0.03707206370241669 0 -0.044122762776653619 -0.040522732653193359 0 -0.043058744823450616 -0.040358700476444104 0 -0.043550751476707172 -0.039643887926068364 0 -0.04568956810202645 -0.035225199343991237 0 -0.04499860923442435 -0.036265184631874295 0 -0.044890397074888642 -0.03813572624874921 0 -0.044122762776653619 -0.040522732653193359 0 -0.043550751476707172 -0.039643887926068364 0 -0.044890397074888642 -0.03813572624874921 0 -0.042165333804580672 -0.040534569800475789 0 -0.043058744823450616 -0.040358700476444104 0 -0.042734933770286088 -0.040089967648571791 0 -0.043058744823450616 -0.040358700476444104 0 -0.043550751476707172 -0.039643887926068364 0 -0.042734933770286088 -0.040089967648571791 0 -0.042734933770286088 -0.040089967648571791 0 -0.043377914113080215 -0.039525631939726698 0 -0.042379015930223508 -0.040185327851090052 0 -0.043550751476707172 -0.039643887926068364 0 -0.043377914113080215 -0.039525631939726698 0 -0.044890397074888642 -0.03813572624874921 0 -0.043550751476707172 -0.039643887926068364 0 -0.042734933770286088 -0.040089967648571791 0 -0.043377914113080215 -0.039525631939726698 0 -0.043377914113080215 -0.039525631939726698 0 -0.044890397074888642 -0.03813572624874921 0 -0.044374132197364406 -0.039098893999156087 0 -0.04499860923442435 -0.036265184631874295 0 -0.044890397074888642 -0.03813572624874921 0 -0.044999134350561229 -0.038950032253908508 0 -0.044890397074888642 -0.03813572624874921 0 -0.044374132197364406 -0.039098893999156087 0 -0.044999134350561229 -0.038950032253908508 0 -0.044374132197364406 -0.039098893999156087 0 -0.044999134350561229 -0.038950032253908508 0 -0.043922582157857132 -0.039914994439896719 0 -0.043151848307257851 -0.040985007595703539 0 -0.043922582157857132 -0.039914994439896719 0 -0.042641462740672972 -0.040519731997828635 0 -0.043377914113080215 -0.039525631939726698 0 -0.043922582157857132 -0.039914994439896719 0 -0.042641462740672972 -0.040519731997828635 0 -0.043377914113080215 -0.039525631939726698 0 -0.044374132197364406 -0.039098893999156087 0 -0.043922582157857132 -0.039914994439896719 0 -0.042362688667317489 -0.041445513694303736 0 -0.042641462740672972 -0.040519731997828635 0 -0.041720044815095565 -0.041194432880812246 0 -0.042641462740672972 -0.040519731997828635 0 -0.04186689812942225 -0.040612262596178908 0 -0.042379015930223508 -0.040185327851090052 0 -0.042641462740672972 -0.040519731997828635 0 -0.041720044815095565 -0.041194432880812246 0 -0.04186689812942225 -0.040612262596178908 0 -0.040819034634295613 -0.042086364515617668 0 -0.041057976256176569 -0.041451668058904281 0 -0.041720044815095565 -0.041194432880812246 0 -0.041057976256176569 -0.041451668058904281 0 -0.041720044815095565 -0.041194432880812246 0 -0.041273800634923925 -0.040844624332240988 0 -0.041720044815095565 -0.041194432880812246 0 -0.04186689812942225 -0.040612262596178908 0 -0.041273800634923925 -0.040844624332240988 0 -0.040805808672410904 -0.040411137671278095 0 -0.041633088363258054 -0.040407819048671974 0 -0.041273800634923925 -0.040844624332240988 0 -0.041633088363258054 -0.040407819048671974 0 -0.04186689812942225 -0.040612262596178908 0 -0.041273800634923925 -0.040844624332240988 0 -0.041633088363258054 -0.040407819048671974 0 -0.04186689812942225 -0.040612262596178908 0 -0.042379015930223508 -0.040185327851090052 0 -0.041633088363258054 -0.040407819048671974 0 -0.042734933770286088 -0.040089967648571791 0 -0.042379015930223508 -0.040185327851090052 0 -0.043377914113080215 -0.039525631939726698 0 -0.042641462740672972 -0.040519731997828635 0 -0.042379015930223508 -0.040185327851090052 0 -0.022952639880428932 -0.049616242698643259 0 -0.02343908152147036 -0.051601126662725177 0 -0.022011895360521425 -0.051006935979429985 0 -0.022952639880428932 -0.049616242698643259 0 -0.024711585447943833 -0.05083111898133344 0 -0.02343908152147036 -0.051601126662725177 0 -0.022952639880428932 -0.049616242698643259 0 -0.022011895360521425 -0.051006935979429985 0 -0.021984631155319193 -0.049520810093000224 0 -0.022952639880428932 -0.049616242698643259 0 -0.024711585447943833 -0.05083111898133344 0 -0.024447477951282787 -0.048421638394065082 0 -0.024711585447943833 -0.05083111898133344 0 -0.024447477951282787 -0.048421638394065082 0 -0.026544436488388869 -0.049810936758594326 0 -0.024447477951282787 -0.048421638394065082 0 -0.022852619797364412 -0.046625717728526278 0 -0.022108378656808501 -0.048384783675535975 0 -0.022952639880428932 -0.049616242698643259 0 -0.024447477951282787 -0.048421638394065082 0 -0.022108378656808501 -0.048384783675535975 0 -0.022952639880428932 -0.049616242698643259 0 -0.022108378656808501 -0.048384783675535975 0 -0.021984631155319193 -0.049520810093000224 0 -0.022852619797364412 -0.046625717728526278 0 -0.02425052102610846 -0.045000016123163428 0 -0.021612935690528707 -0.044999431488056428 0 -0.022852619797364412 -0.046625717728526278 0 -0.02425052102610846 -0.045000016123163428 0 -0.025302257788813357 -0.046486772382389407 0 -0.024447477951282787 -0.048421638394065082 0 -0.022852619797364412 -0.046625717728526278 0 -0.025302257788813357 -0.046486772382389407 0 -0.024447477951282787 -0.048421638394065082 0 -0.025302257788813357 -0.046486772382389407 0 -0.02704373563053997 -0.047613133063961692 0 -0.025302257788813357 -0.046486772382389407 0 -0.02688702363548565 -0.044999749785258759 0 -0.02704373563053997 -0.047613133063961692 0 -0.02425052102610846 -0.045000016123163428 0 -0.025302257788813357 -0.046486772382389407 0 -0.02688702363548565 -0.044999749785258759 0 -0.02688702363548565 -0.044999749785258759 0 -0.02704373563053997 -0.047613133063961692 0 -0.029485396098348594 -0.046799823317981472 0 -0.02704373563053997 -0.047613133063961692 0 -0.026544436488388869 -0.049810936758594326 0 -0.029672528217105639 -0.049467234743717288 0 -0.024447477951282787 -0.048421638394065082 0 -0.02704373563053997 -0.047613133063961692 0 -0.026544436488388869 -0.049810936758594326 0 -0.024711585447943833 -0.05083111898133344 0 -0.026544436488388869 -0.049810936758594326 0 -0.026279924931402812 -0.051361260695930867 0 -0.026544436488388869 -0.049810936758594326 0 -0.029672528217105639 -0.049467234743717288