<?xml version="1.0"?>
<VTKFile type="UnstructuredGrid" version="0.1" byte_order="LittleEndian">
<UnstructuredGrid>
<Piece NumberOfPoints="31749" NumberOfCells="11152">
<Points>
<DataArray type="Float64" NumberOfComponents="3" format="ascii">
-0.5 -0.5 0 -0.48279780518809889 -0.48011821651292358 0 -0.50000000000000044 -0.46023643302584921 0 -0.5 -0.5 0 -0.48279780518809889 -0.48011821651292358 0 -0.4655956103761979 -0.49999999999999861 0 -0.48279780518809889 -0.48011821651292358 0 -0.50000000000000044 -0.46023643302584921 0 -0.48279780518809889 -0.48011821651292358 0 -0.46368622761186701 -0.47430816625228078 0 -0.48091706444045912 -0.45568272202122501 0 -0.48279780518809889 -0.48011821651292358 0 -0.4655956103761979 -0.49999999999999861 0 -0.48279780518809889 -0.48011821651292358 0 -0.4655956103761979 -0.49999999999999861 0 -0.46368622761186701 -0.47430816625228078 0 -0.4655956103761979 -0.49999999999999861 0 -0.46368622761186701 -0.47430816625228078 0 -0.44441367659449899 -0.47955962878822961 0 -0.46368622761186701 -0.47430816625228078 0 -0.44441367659449899 -0.47955962878822961 0 -0.43998230045213937 -0.45592429999305017 0 -0.4655956103761979 -0.49999999999999861 0 -0.44441367659449899 -0.47955962878822961 0 -0.43923801330806239 -0.5 0 -0.4493285757713561 -0.44362717418921249 0 -0.43998230045213937 -0.45592429999305017 0 -0.43293015858594341 -0.43293445099680078 0 -0.4493285757713561 -0.44362717418921249 0 -0.43998230045213937 -0.45592429999305017 0 -0.46306061059717002 -0.45203557962314328 0 -0.46368622761186701 -0.47430816625228078 0 -0.43998230045213937 -0.45592429999305017 0 -0.46306061059717002 -0.45203557962314328 0 -0.46306061059717002 -0.45203557962314328 0 -0.47595774324561829 -0.43627071340312951 0 -0.46040242164128031 -0.43720776474685208 0 -0.4493285757713561 -0.44362717418921249 0 -0.46306061059717002 -0.45203557962314328 0 -0.46040242164128031 -0.43720776474685208 0 -0.46306061059717002 -0.45203557962314328 0 -0.48091706444045912 -0.45568272202122501 0 -0.47595774324561829 -0.43627071340312951 0 -0.46368622761186701 -0.47430816625228078 0 -0.46306061059717002 -0.45203557962314328 0 -0.48091706444045912 -0.45568272202122501 0 -0.48279780518809889 -0.48011821651292358 0 -0.48091706444045912 -0.45568272202122501 0 -0.50000000000000044 -0.46023643302584921 0 -0.48091706444045912 -0.45568272202122501 0 -0.50000000000000044 -0.46023643302584921 0 -0.5 -0.43112722331002401 0 -0.48091706444045912 -0.45568272202122501 0 -0.5 -0.43112722331002401 0 -0.47595774324561829 -0.43627071340312951 0 -0.5 -0.43112722331002401 0 -0.47900023378647788 -0.41458079621342309 0 -0.47595774324561829 -0.43627071340312951 0 -0.5 -0.43112722331002401 0 -0.47900023378647788 -0.41458079621342309 0 -0.5 -0.40201801359419859 0 -0.47900023378647788 -0.41458079621342309 0 -0.4624830909734024 -0.42244829799471301 0 -0.46499972591792682 -0.41169374776213757 0 -0.47900023378647788 -0.41458079621342309 0 -0.46499727959817999 -0.40094399649341123 0 -0.46499972591792682 -0.41169374776213757 0 -0.47900023378647788 -0.41458079621342309 0 -0.47595774324561829 -0.43627071340312951 0 -0.4624830909734024 -0.42244829799471301 0 -0.5 -0.40201801359419859 0 -0.48210253303070011 -0.39605463485328662 0 -0.5 -0.37290880387837322 0 -0.48210253303070011 -0.39605463485328662 0 -0.47294250645073521 -0.38080375077094553 0 -0.5 -0.37290880387837322 0 -0.47900023378647788 -0.41458079621342309 0 -0.5 -0.40201801359419859 0 -0.48210253303070011 -0.39605463485328662 0 -0.47900023378647788 -0.41458079621342309 0 -0.48210253303070011 -0.39605463485328662 0 -0.46499727959817999 -0.40094399649341123 0 -0.48210253303070011 -0.39605463485328662 0 -0.4619993162764589 -0.38812401574468408 0 -0.46499727959817999 -0.40094399649341123 0 -0.48210253303070011 -0.39605463485328662 0 -0.47294250645073521 -0.38080375077094553 0 -0.4619993162764589 -0.38812401574468408 0 -0.4619993162764589 -0.38812401574468408 0 -0.44765551617818278 -0.38206628439405188 0 -0.46040300872778828 -0.37389795388853669 0 -0.47294250645073521 -0.38080375077094553 0 -0.4619993162764589 -0.38812401574468408 0 -0.46040300872778828 -0.37389795388853669 0 -0.4619993162764589 -0.38812401574468408 0 -0.45115681633697557 -0.39622344317939412 0 -0.44765551617818278 -0.38206628439405188 0 -0.4619993162764589 -0.38812401574468408 0 -0.46499727959817999 -0.40094399649341123 0 -0.45115681633697557 -0.39622344317939412 0 -0.46499727959817999 -0.40094399649341123 0 -0.45115681633697557 -0.39622344317939412 0 -0.45699737978349431 -0.40750757001766358 0 -0.45115681633697557 -0.39622344317939412 0 -0.44765551617818278 -0.38206628439405188 0 -0.42717489332827507 -0.39518724196822752 0 -0.45115681633697557 -0.39622344317939412 0 -0.44482899215083882 -0.40881776998147018 0 -0.42717489332827507 -0.39518724196822752 0 -0.45115681633697557 -0.39622344317939412 0 -0.45699737978349431 -0.40750757001766358 0 -0.44482899215083882 -0.40881776998147018 0 -0.4624830909734024 -0.42244829799471301 0 -0.44957518408146352 -0.41432991987124002 0 -0.45130057207981439 -0.43057199154709908 0 -0.4493285757713561 -0.44362717418921249 0 -0.46040242164128031 -0.43720776474685208 0 -0.45130057207981439 -0.43057199154709908 0 -0.46040242164128031 -0.43720776474685208 0 -0.4624830909734024 -0.42244829799471301 0 -0.45130057207981439 -0.43057199154709908 0 -0.47595774324561829 -0.43627071340312951 0 -0.46040242164128031 -0.43720776474685208 0 -0.4624830909734024 -0.42244829799471301 0 -0.4624830909734024 -0.42244829799471301 0 -0.44482899215083882 -0.40881776998147018 0 -0.4624830909734024 -0.42244829799471301 0 -0.45699737978349431 -0.40750757001766358 0 -0.44482899215083882 -0.40881776998147018 0 -0.4624830909734024 -0.42244829799471301 0 -0.46499972591792682 -0.41169374776213757 0 -0.45699737978349431 -0.40750757001766358 0 -0.46499727959817999 -0.40094399649341123 0 -0.46499972591792682 -0.41169374776213757 0 -0.45699737978349431 -0.40750757001766358 0 -0.4624830909734024 -0.42244829799471301 0 -0.44957518408146352 -0.41432991987124002 0 -0.44482899215083882 -0.40881776998147018 0 -0.44957518408146352 -0.41432991987124002 0 -0.44482899215083882 -0.40881776998147018 0 -0.42735718160917679 -0.41319909844323521 0 -0.44957518408146352 -0.41432991987124002 0 -0.45130057207981439 -0.43057199154709908 0 -0.43293015858594341 -0.43293445099680078 0 -0.44957518408146352 -0.41432991987124002 0 -0.43293015858594341 -0.43293445099680078 0 -0.4493285757713561 -0.44362717418921249 0 -0.45130057207981439 -0.43057199154709908 0 -0.43293015858594341 -0.43293445099680078 0 -0.43293015858594341 -0.43293445099680078 0 -0.41765576467637539 -0.4273359205835584 0 -0.41628513309042342 -0.45153898212236171 0 -0.43293015858594341 -0.43293445099680078 0 -0.42735718160917679 -0.41319909844323521 0 -0.41765576467637539 -0.4273359205835584 0 -0.44957518408146352 -0.41432991987124002 0 -0.43293015858594341 -0.43293445099680078 0 -0.42735718160917679 -0.41319909844323521 0 -0.42735718160917679 -0.41319909844323521 0 -0.40941751958923422 -0.41438563714589199 0 -0.40870568414111302 -0.39722904409185938 0 -0.42735718160917679 -0.41319909844323521 0 -0.40941751958923422 -0.41438563714589199 0 -0.41765576467637539 -0.4273359205835584 0 -0.40941751958923422 -0.41438563714589199 0 -0.41765576467637539 -0.4273359205835584 0 -0.39998173390082159 -0.42883808981656801 0 -0.41765576467637539 -0.4273359205835584 0 -0.39998173390082159 -0.42883808981656801 0 -0.41628513309042342 -0.45153898212236171 0 -0.44765551617818278 -0.38206628439405188 0 -0.42717489332827507 -0.39518724196822752 0 -0.43117050362205128 -0.36555705330784782 0 -0.42717489332827507 -0.39518724196822752 0 -0.4095207945057131 -0.38155671395498281 0 -0.43117050362205128 -0.36555705330784782 0 -0.44482899215083882 -0.40881776998147018 0 -0.42735718160917679 -0.41319909844323521 0 -0.42717489332827507 -0.39518724196822752 0 -0.44482899215083882 -0.40881776998147018 0 -0.42717489332827507 -0.39518724196822752 0 -0.42717489332827507 -0.39518724196822752 0 -0.40870568414111302 -0.39722904409185938 0 -0.4095207945057131 -0.38155671395498281 0 -0.42735718160917679 -0.41319909844323521 0 -0.42717489332827507 -0.39518724196822752 0 -0.40870568414111302 -0.39722904409185938 0 -0.42717489332827507 -0.39518724196822752 0 -0.4095207945057131 -0.38155671395498281 0 -0.4095207945057131 -0.38155671395498281 0 -0.39226156524413358 -0.37942826101498961 0 -0.39356040484513971 -0.36923387943608871 0 -0.4095207945057131 -0.38155671395498281 0 -0.39356040484513971 -0.36923387943608871 0 -0.4095207945057131 -0.38155671395498281 0 -0.39348446215052207 -0.39340795289444969 0 -0.4095207945057131 -0.38155671395498281 0 -0.39226156524413358 -0.37942826101498961 0 -0.39348446215052207 -0.39340795289444969 0 -0.40870568414111302 -0.39722904409185938 0 -0.39348446215052207 -0.39340795289444969 0 -0.39572190911374672 -0.40988928808275832 0 -0.40870568414111302 -0.39722904409185938 0 -0.4095207945057131 -0.38155671395498281 0 -0.39348446215052207 -0.39340795289444969 0 -0.39348446215052207 -0.39340795289444969 0 -0.37744812979533138 -0.40525919183391712 0 -0.39572190911374672 -0.40988928808275832 0 -0.39348446215052207 -0.39340795289444969 0 -0.37744812979533138 -0.40525919183391712 0 -0.37119046557346019 -0.39333006194192388 0 -0.39348446215052207 -0.39340795289444969 0 -0.37744812979533138 -0.40525919183391712 0 -0.38310658109592011 -0.37490578314369322 0 -0.37488743488317372 -0.37097055882210828 0 -0.37119046557346019 -0.39333006194192388 0 -0.39226156524413358 -0.37942826101498961 0 -0.38310658109592011 -0.37490578314369322 0 -0.37119046557346019 -0.39333006194192388 0 -0.39226156524413358 -0.37942826101498961 0 -0.39348446215052207 -0.39340795289444969 0 -0.37119046557346019 -0.39333006194192388 0 -0.39226156524413358 -0.37942826101498961 0 -0.37119046557346019 -0.39333006194192388 0 -0.39998173390082159 -0.42883808981656801 0 -0.3839319521581338 -0.43524059291138512 0 -0.39475983832319472 -0.44606203883813039 0 -0.40941751958923422 -0.414385637
[...]
<PointData Scalars="" Vectors="displacement," Tensors="">
<DataArray type="Float64" Name="displacement" NumberOfComponents="3" format="ascii">
-0.034997917981006037 -6.5249326581064433e-07 0 -0.034668886533319551 5.8569783304744585e-07 0 -0.035000464166013649 3.2505447487003195e-07 0 -0.034997917981006037 -6.5249326581064433e-07 0 -0.034668886533319551 5.8569783304744585e-07 0 -0.032595377517802247 9.7972913773984076e-07 0 -0.033868710836601076 -0.00010687668115792742 0 -0.034999453871260883 4.9375301373853361e-08 0 -0.033070064812909687 -0.00023400185659274214 0 -0.032715747000848658 -9.2662283360444065e-05 0 -0.034134986182247501 -8.9381067987643134e-05 0 -0.033868710836601076 -0.00010687668115792742 0 -0.032592266509828612 -1.2506222546198199e-07 0 -0.033070064812909687 -0.00023400185659274214 0 -0.03258881087537608 -9.8553594702055642e-07 0 -0.032715747000848658 -9.2662283360444065e-05 0 -0.03258881087537608 -9.8553594702055642e-07 0 -0.032715747000848658 -9.2662283360444065e-05 0 -0.031664044892186154 4.4043728482106498e-05 0 -0.032715747000848658 -9.2662283360444065e-05 0 -0.031664044892186154 4.4043728482106498e-05 0 -0.033071275888661114 9.3905426050936396e-05 0 -0.03258881087537608 -9.8553594702055642e-07 0 -0.031664044892186154 4.4043728482106498e-05 0 -0.030747913911031922 6.6031198679893812e-07 0 -0.033478426570033221 -6.274156862294673e-05 0 -0.033071275888661114 9.3905426050936396e-05 0 -0.033547573929019671 -0.00025132557096622016 0 -0.033478426570033221 -6.274156862294673e-05 0 -0.033071275888661114 9.3905426050936396e-05 0 -0.033627511681099641 -4.2387459106230395e-05 0 -0.032715747000848658 -9.2662283360444065e-05 0 -0.033071275888661114 9.3905426050936396e-05 0 -0.033627511681099641 -4.2387459106230395e-05 0 -0.033627511681099641 -4.2387459106230395e-05 0 -0.034104232473113852 3.6683420458461336e-05 0 -0.033674576950900856 4.8246035867466575e-05 0 -0.033478426570033221 -6.274156862294673e-05 0 -0.033627511681099641 -4.2387459106230395e-05 0 -0.033674576950900856 4.8246035867466575e-05 0 -0.033627511681099641 -4.2387459106230395e-05 0 -0.034134986182247501 -8.9381067987643134e-05 0 -0.034104232473113852 3.6683420458461336e-05 0 -0.032715747000848658 -9.2662283360444065e-05 0 -0.033627511681099641 -4.2387459106230395e-05 0 -0.034134986182247501 -8.9381067987643134e-05 0 -0.033070064812909687 -0.00023400185659274214 0 -0.034134986182247501 -8.9381067987643134e-05 0 -0.034996506283948355 -1.1923388465486521e-06 0 -0.034134986182247501 -8.9381067987643134e-05 0 -0.034996506283948355 -1.1923388465486521e-06 0 -0.034999502657902214 1.9527082254657802e-07 0 -0.034134986182247501 -8.9381067987643134e-05 0 -0.034999502657902214 1.9527082254657802e-07 0 -0.034104232473113852 3.6683420458461336e-05 0 -0.034999502657902214 1.9527082254657802e-07 0 -0.034414966100048475 -1.0248549668593098e-05 0 -0.034104232473113852 3.6683420458461336e-05 0 -0.034999502657902214 1.9527082254657802e-07 0 -0.034414966100048475 -1.0248549668593098e-05 0 -0.0349993319062816 -1.4674463053956495e-07 0 -0.034414966100048475 -1.0248549668593098e-05 0 -0.03349975307238881 0.0002809663897665939 0 -0.034193955494161481 0.00022583439395185281 0 -0.034414966100048475 -1.0248549668593098e-05 0 -0.034526802472454043 0.00024287097137626237 0 -0.034193955494161481 0.00022583439395185281 0 -0.034414966100048475 -1.0248549668593098e-05 0 -0.034104232473113852 3.6683420458461336e-05 0 -0.03349975307238881 0.0002809663897665939 0 -0.0349993319062816 -1.4674463053956495e-07 0 -0.034785739066829371 2.9452891687134268e-05 0 -0.034999996067108921 9.2333095941436954e-09 0 -0.034785739066829371 2.9452891687134268e-05 0 -0.034857309746824591 0.00013829147001293506 0 -0.034999996067108921 9.2333095941436954e-09 0 -0.034414966100048475 -1.0248549668593098e-05 0 -0.0349993319062816 -1.4674463053956495e-07 0 -0.034785739066829371 2.9452891687134268e-05 0 -0.034414966100048475 -1.0248549668593098e-05 0 -0.034785739066829371 2.9452891687134268e-05 0 -0.034526802472454043 0.00024287097137626237 0 -0.034785739066829371 2.9452891687134268e-05 0 -0.034720754957961834 0.00029721247082280949 0 -0.034526802472454043 0.00024287097137626237 0 -0.034785739066829371 2.9452891687134268e-05 0 -0.034857309746824591 0.00013829147001293506 0 -0.034720754957961834 0.00029721247082280949 0 -0.034720754957961834 0.00029721247082280949 0 -0.034735363703315467 0.00050941725078725117 0 -0.034867310216755751 0.00032421269387474265 0 -0.034857309746824591 0.00013829147001293506 0 -0.034720754957961834 0.00029721247082280949 0 -0.034867310216755751 0.00032421269387474265 0 -0.034720754957961834 0.00029721247082280949 0 -0.034565614016175625 0.00050763511720060923 0 -0.034735363703315467 0.00050941725078725117 0 -0.034720754957961834 0.00029721247082280949 0 -0.034526802472454043 0.00024287097137626237 0 -0.034565614016175625 0.00050763511720060923 0 -0.034526802472454043 0.00024287097137626237 0 -0.034565614016175625 0.00050763511720060923 0 -0.034331835928390994 0.00041235982904080687 0 -0.034565614016175625 0.00050763511720060923 0 -0.034735363703315467 0.00050941725078725117 0 -0.034559180727506057 0.0007323102539644891 0 -0.034565614016175625 0.00050763511720060923 0 -0.034346901746821819 0.00067352435553185287 0 -0.034559180727506057 0.0007323102539644891 0 -0.034565614016175625 0.00050763511720060923 0 -0.034331835928390994 0.00041235982904080687 0 -0.034346901746821819 0.00067352435553185287 0 -0.03349975307238881 0.0002809663897665939 0 -0.031375609050737253 -0.00071934047004321481 0 -0.033358090216857338 -0.00011285073728278771 0 -0.033478426570033221 -6.274156862294673e-05 0 -0.033674576950900856 4.8246035867466575e-05 0 -0.033358090216857338 -0.00011285073728278771 0 -0.033674576950900856 4.8246035867466575e-05 0 -0.03349975307238881 0.0002809663897665939 0 -0.033358090216857338 -0.00011285073728278771 0 -0.034104232473113852 3.6683420458461336e-05 0 -0.033674576950900856 4.8246035867466575e-05 0 -0.03349975307238881 0.0002809663897665939 0 -0.033246424094857618 0.00022701060169045504 0 -0.032295625799769009 -0.00031323919151905733 0 -0.03349975307238881 0.0002809663897665939 0 -0.034331835928390994 0.00041235982904080687 0 -0.034346901746821819 0.00067352435553185287 0 -0.03349975307238881 0.0002809663897665939 0 -0.034193955494161481 0.00022583439395185281 0 -0.034331835928390994 0.00041235982904080687 0 -0.034526802472454043 0.00024287097137626237 0 -0.034193955494161481 0.00022583439395185281 0 -0.034331835928390994 0.00041235982904080687 0 -0.03349975307238881 0.0002809663897665939 0 -0.031375609050737253 -0.00071934047004321481 0 -0.030272684253208663 -0.0010003858892389428 0 -0.031375609050737253 -0.00071934047004321481 0 -0.030272684253208663 -0.0010003858892389428 0 -0.029717356111456122 -0.0015500338372624457 0 -0.031375609050737253 -0.00071934047004321481 0 -0.033358090216857338 -0.00011285073728278771 0 -0.033547573929019671 -0.00025132557096622016 0 -0.03120145411054014 -0.00061773240405316578 0 -0.03123508699017389 -0.0008588330209493689 0 -0.033478426570033221 -6.274156862294673e-05 0 -0.033358090216857338 -0.00011285073728278771 0 -0.033547573929019671 -0.00025132557096622016 0 -0.02918910093508393 -0.0017184295146087025 0 -0.0289415726050723 -0.0014875969205972873 0 -0.027803217617469844 -0.0015659836319236124 0 -0.02918910093508393 -0.0017184295146087025 0 -0.029717356111456122 -0.0015500338372624457 0 -0.0289415726050723 -0.0014875969205972873 0 -0.031375609050737253 -0.00071934047004321481 0 -0.02918910093508393 -0.0017184295146087025 0 -0.029717356111456122 -0.0015500338372624457 0 -0.029717356111456122 -0.0015500338372624457 0 -0.029154116266885983 -0.0013638809772281079 0 -0.029436222655573847 -0.00140571604496381 0 -0.029717356111456122 -0.0015500338372624457 0 -0.029154116266885983 -0.0013638809772281079 0 -0.0289415726050723 -0.0014875969205972873 0 -0.029154116266885983 -0.0013638809772281079 0 -0.0289415726050723 -0.0014875969205972873 0 -0.028392639101629993 -0.0011525651144296514 0 -0.0289415726050723 -0.0014875969205972873 0 -0.028392639101629993 -0.0011525651144296514 0 -0.027803217617469844 -0.0015659836319236124 0 -0.034735363703315467 0.00050941725078725117 0 -0.034559180727506057 0.0007323102539644891 0 -0.034809516604045826 0.00066090276183962513 0 -0.034559180727506057 0.0007323102539644891 0 -0.034640979814777095 0.00082497028108903482 0 -0.034809516604045826 0.00066090276183962513 0 -0.030272684253208663 -0.0010003858892389428 0 -0.029717356111456122 -0.0015500338372624457 0 -0.029529600356386212 -0.0014927470128140122 0 -0.032295625799769009 -0.00031323919151905733 0 -0.032334014956140196 -2.8579594163611309e-05 0 -0.029529600356386212 -0.0014927470128140122 0 -0.029436222655573847 -0.00140571604496381 0 -0.029657917451773722 -0.0014065223129903542 0 -0.029717356111456122 -0.0015500338372624457 0 -0.029529600356386212 -0.0014927470128140122 0 -0.029436222655573847 -0.00140571604496381 0 -0.032334014956140196 -2.8579594163611309e-05 0 -0.030737800963266091 -0.0019434455714746701 0 -0.028532584757916646 -0.0038118354593100401 0 -0.02852425411482739 -0.0038570640661284936 0 -0.028413885992559569 -0.0038359295862698145 0 -0.030737800963266091 -0.0019434455714746701 0 -0.027802803437204256 -0.0045544287119928363 0 -0.030737800963266091 -0.0019434455714746701 0 -0.029031129878493545 -0.0025330992512909217 0 -0.028532584757916646 -0.0038118354593100401 0 -0.02852425411482739 -0.0038570640661284936 0 -0.028445714974188675 -0.0038474315732033386 0 -0.029436222655573847 -0.00140571604496381 0 -0.029502716087804134 -0.0010688811627458271 0 -0.028976234958227279 -0.0011386902657585167 0 -0.029436222655573847 -0.00140571604496381 0 -0.029657917451773722 -0.0014065223129903542 0 -0.029502716087804134 -0.0010688811627458271 0 -0.029502716087804134 -0.0010688811627458271 0 -0.029072556799995673 -0.00045828284900376054 0 -0.028976234958227279 -0.0011386902657585167 0 -0.028445714974188675 -0.0038474315732033386 0 -0.028301937097249506 -0.0037101638496502601 0 -0.028406570637269014 -0.0036671444236093514 0 -0.029031129878493545 -0.0025330992512909217 0 -0.026650000930550782 -0.0022673047033101193 0 -0.028462794606992262 -0.0040530071677235789 0 -0.028382343963912468 -0.0042449568275887088 0 -0.028818348129602767 -0.0043172941022058507 0 -0.02852425411482739 -0.0038570640661284936 0 -0.028462794606992262 -0.0040530071677235789 0 -0.028818348129602767 -0.0043172941022058507 0 -0.02852425411482739 -0.0038570640661284936 0 -0.028445714974188675 -0.0038474315732033386 0 -0.028406570637269014 -0.0036671444236093514 0 -0.029610431328682317 -0.0041082140273225286 0 -0.02456055539412999 -0.0043655901866508232 0 -0.028392639101629993 -0.0011525651144296514 0 -0.027745948548060038 -0.00087149545174478602 0 -0.027633022393798397 -0.0010635560094983368 0 -0.029154116266885983 -0.0013638809772281079 0 -0.028392639101629993 -0.0011525651144296514 0 -0.028976234958227279 -0.0011386902657585167 0 -0.028392639101629993 -0.0011525651144296514 0 -0.028976234958227279 -0.0011386902657585167 0 -0.028257829234655484 -0.00083470288239783003 0 -0.029154116266885983 -0.0013638809772281079 0 -0.029436222655573847 -0.00140571604496381 0 -0.028976234958227279 -0.0011386902657585167 0 -0.029072556799995673 -0.00045828284900376054 0 -0.028976234958227279 -0.0011386902657585167 0 -0.028257829234655484 -0.00083470288239783003 0 -0.028245689137977262 -0.00080734345243265988 0 -0.028257829234655484 -0.00083470288239783003 0 -0.027766789687997576 -0.00074337593579876249 0 -0.026650000930550782 -0.0022673047033101193 0 -0.029034995404659283 -0.00043982683887121141 0 -0.028392639101629993 -0.0011525651144296514 0 -0.028257829234655484 -0.00083470288239783003 0 -0.027745948548060038 -0.00087149545174478602 0 -0.028257829234655484 -0.00083470288239783003 0 -0.027745948548060038 -0.00087149545174478602 0 -0.027766789687997576 -0.00074337593579876249 0 -0.027745948548060038 -0.00087149545174478602 0 -0.027298844350987887 -0.00072498838900320278 0 -0.027766789687997576 -0.00074337593579876249 0 -0.027126145997501266 -0.00079484357009175597 0 -0.027633022393798397 -0.0010635560094983368 0 -0.027227984525952303 -0.0010259886382908917 0 -0.027745948548060038 -0.00087149545174478602 0 -0.027126145997501266 -0.00079484357009175597 0 -0.027633022393798397 -0.0010635560094983368 0 -0.027745948548060038 -0.00087149545174478602 0 -0.027126145997501266 -0.00079484357009175597 0 -0.027298844350987887 -0.00072498838900320278 0 -0.028392639101629993 -0.0011525651144296514 0 -0.027633022393798397 -0.0010635560094983368 0 -0.027803217617469844 -0.0015659836319236124 0 -0.027633022393798397 -0.0010635560094983368 0 -0.027227984525952303 -0.0010259886382908917 0 -0.027803217617469844 -0.0015659836319236124 0 -0.027227984525952303 -0.0010259886382908917 0 -0.026980371011756175 -0.0011899919053321348 0 -0.027803217617469844 -0.0015659836319236124 0 -0.027227984525952303 -0.0010259886382908917 0 -0.026917226653015307 -0.00080184590161994313 0 -0.026980371011756175 -0.0011899919053321348 0 -0.026456549443773521 -0.00074527743316502709 0 -0.029441486733220827 7.3293173684485811e-05 0 -0.027126145997501266 -0.00079484357009175597 0 -0.027227984525952303 -0.0010259886382908917 0 -0.026917226653015307 -0.00080184590161994313 0 -0.026306839934000119 -0.00019045375668078301 0 -0.026981143891934775 -9.5586474410452047e-05 0 -0.027505621391591611 2.8260366623706658e-05 0 -0.026306839934000119 -0.00019045375668078301 0 -0.026981143891934775 -9.5586474410452047e-05 0 -0.025907090242394896 -0.00021960996035304189 0 -0.026981143891934775 -9.5586474410452047e-05 0 -0.027056684921841663 -1.4035809928940041e-07 0 -0.025907090242394896 -0.00021960996035304189 0 -0.026981143891934775 -9.5586474410452047e-05 0 -0.027056684921841663 -1.4035809928940041e-07 0 -0.027673682635140386 -1.1146758921340159e-05 0 -0.027673682635140386 -1.1146758921340159e-05 0 -0.028383449706436963 6.9328208786302291e-05 0 -0.028901199998616962 3.9813917374515517e-08 0 -0.027056684921841663 -1.4035809928940041e-07 0 -0.027673682635140386 -1.1146758921340159e-05 0 -0.028901199998616962 3.9813917374515517e-08 0 -0.026981143891934775 -9.5586474410452047e-05 0 -0.027764156633632485 1.074700134245405e-05 0 -0.027505621391591611 2.8260366623706658e-05 0 -0.026981143891934775 -9.5586474410452047e-05 0 -0.027673682635140386 -1.1146758921340159e-05 0 -0.027764156633632485 1.074700134245405e-05 0 -0.027764156633632485 1.074700134245405e-05 0 -0.027505621391591611 2.8260366623706658e-05 0 -0.028383449706436963 6.9328208786302291e-05 0 -0.027673682635140386 -1.1146758921340159e-05 0 -0.027764156633632485 1.074700134245405e-05 0 -0.028383449706436963 6.9328208786302291e-05 0 -0.029441486733220827 7.3293173684485811e-05 0 -0.030825724599134602 0.00048210465508391953 0 -0.027505621391591611 2.8260366623706658e-05 0 -0.028383449706436963 6.9328208786302291e-05 0 -0.029397746640867035 0.00017578074181760715 0 -0.028383449706436963 6.9328208786302291e-05 0 -0.028901199998616962 3.9813917374515517e-08 0 -0.029397746640867035 0.00017578074181760715 0 -0.031664044892186154 4.4043728482106498e-05 0 -0.030747913911031922 6.6031198679893812e-07 0 -0.029397746640867035 0.00017578074181760715 0 -0.030747913911031922 6.6031198679893812e-07 0 -0.028901199998616962 3.9813917374515517e-08 0 -0.029397746640867035 0.00017578074181760715 0 -0.031407142038944603 -9.6190712995058731e-05 0 -0.030825724599134602 0.00048210465508391953 0 -0.031664044892186154 4.4043728482106498e-05 0 -0.033071275888661114 9.3905426050936396e-05 0 -0.032144879076798902 0.00076366549113877837 0 -0.033071275888661114 9.3905426050936396e-05 0 -0.032144879076798902 0.00076366549113877837 0 -0.033075834379248749 0.00081241930357575664 0 -0.033071275888661114 9.3905426050936396e-05 0 -0.033547573929019671 -0.00025132557096622016 0 -0.033075834379248749 0.00081241930357575664 0 -0.03123508699017389 -0.0008588330209493689 0 -0.03046018545550239 -0.00036078111711013362 0 -0.029441486733220827 7.3293173684485811e-05 0 -0.03046018545550239 -0.00036078111711013362 0 -0.032315873402086283 0.0015279700803438555 0 -0.032144879076798902 0.00076366549113877837 0 -0.033075834379248749 0.00081241930357575664 0 -0.033879538481546886 -0.00029530698658915646 0 -0.033805889656969769 -0.0005890192620486589 0 -0.03431570344107706 -0.00035949685556158089 0 -0.033805889656969769 -0.0005890192620486589 0 -0.03431570344107706 -0.00035949685556158089 0 -0.034198548975370502 -0.00060187003038234042 0 -0.03431570344107706 -0.00035949685556158089 0 -0.034528809499774403 -0.00018216998257399692 0 -0.034505401824400865 -0.00052334473884922 0 -0.03431570344107706 -0.00035949685556158089 0 -0.034505401824400865 -0.00052334473884922 0 -0.034198548975370502 -0.00060187003038234042 0 -0.034520531991323787 -3.5631576053907359e-05 0 -0.034528809499774403 -0.00018216998257399692 0 -0.034769864810221845 -3.8194730619199181e-05 0 -0.03431570344107706 -0.00035949685556158089 0 -0.034520531991323787 -3.5631576053907359e-05 0 -0.034528809499774403 -0.00018216998257399692 0 -0.034488455893035154 -3.4742222919993473e-05 0 -0.03404291564650945 -5.7104177710024614e-05 0 -0.033879538481546886 -0.00029530698658915646 0 -0.034520531991323787 -3.5631576053907359e-05 0 -0.03333804848374497 0.00013685860048775683 0 -0.033879538481546886 -0.00029530698658915646 0 -0.03431570344107706 -0.00035949685556158089 0 -0.034520531991323787 -3.5631576053907359e-05 0 -0.034520531991323787 -3.5631576053907359e-05 0 -0.034797366585321163 -5.4721289991429375e-05 0 -0.034775844269623192 -0.00021758448113339519 0 -0.034520531991323787 -3.5631576053907359e-05 0 -0.034797366585321163 -5.4721289991429375e-05 0 -0.034769864810221845 -3.8194730619199181e-05 0 -0.034797366585321163 -5.4721289991429375e-05 0 -0.034999556639770703 -1.3934558819337031e-08 0 -0.034769864810221845 -3.8194730619199181e-05 0 -0.034797366585321163 -5.4721289991429375e-05 0 -0.034999556639770703 -1.3934558819337031e-08 0 -0.034875087007070635 7.0890703226354638e-05 0 -0.034769864810221845 -3.8194730619199181e-05 0 -0.034932134588698031 -3.0048674447188346e-05 0 -0.034999908839205771 5.8548744267877513e-08 0 -0.034999556639770703 -1.3934558819337031e-08 0 -0.034769864810221845 -3.8194730619199181e-05 0 -0.034999908839205771 5.8548744267877513e-08 0 -0.03462384930485865 -3.0747029022994087e-05 0 -0.035104714460468943 -9.1612074916972179e-05 0 -0.034528809499774403 -0.00018216998257399692 0 -0.034769864810221845 -3.8194730619199181e-05 0 -0.034581661333734352 -0.00016245346531720749 0 -0.034769864810221845 -3.8194730619199181e-05 0 -0.034978373088328421 -8.2054059269382775e-05 0 -0.034932134588698031 -3.0048674447188346e-05 0 -0.034978373088328421 -8.2054059269382775e-05 0 -0.034932134588698031 -3.0048674447188346e-05 0 -0.034981428657514968 -2.6692379940953402e-05 0 -0.034932134588698031 -3.0048674447188346e-05 0 -0.034999908839205771 5.8548744267877513e-08 0 -0.034981428657514968 -2.6692379940953402e-05 0 -0.034999908839205771 5.8548744267877513e-08 0 -0.034981428657514968 -2.6692379940953402e-05 0 -0.035000019919698491 -8.9862001153438554e-08 0 -0.034981428657514968 -2.6692379940953402e-05 0 -0.034986089255669789 -5.3956560868712195e-05 0 -0.035000019919698491 -8.9862001153438554e-08 0 -0.034978373088328421 -8.2054059269382775e-05 0 -0.034981428657514968 -2.6692379940953402e-05 0 -0.034986089255669789 -5.3956560868712195e-05 0 -0.034978373088328421 -8.2054059269382775e-05 0 -0.034986089255669789 -5.3956560868712195e-05 0 -0.034976361402180828 -4.5813021149024274e-05 0 -0.035104714460468943 -9.1612074916972179e-05 0 -0.033323674377268402 -0.00068584764240648495 0 -0.034581661333734352 -0.00016245346531720749 0 -0.034597018292303452 -0.00034986786242291863 0 -0.034796137966883564 -0.0002909888280253674 0 -0.034528809499774403 -0.00018216998257399692 0 -0.034581661333734352 -0.00016245346531720749 0 -0.034597018292303452 -0.00034986786242291863 0 -0.034528809499774403 -0.00018216998257399692 0 -0.034597018292303452 -