<?xml version="1.0"?>
<VTKFile type="UnstructuredGrid" version="0.1" byte_order="LittleEndian">
<UnstructuredGrid>
<Piece NumberOfPoints="31749" NumberOfCells="11152">
<Points>
<DataArray type="Float64" NumberOfComponents="3" format="ascii">
-0.5 -0.5 0 -0.48279780518809889 -0.48011821651292358 0 -0.50000000000000044 -0.46023643302584921 0 -0.5 -0.5 0 -0.48279780518809889 -0.48011821651292358 0 -0.4655956103761979 -0.49999999999999861 0 -0.48279780518809889 -0.48011821651292358 0 -0.50000000000000044 -0.46023643302584921 0 -0.48279780518809889 -0.48011821651292358 0 -0.46368622761186701 -0.47430816625228078 0 -0.48091706444045912 -0.45568272202122501 0 -0.48279780518809889 -0.48011821651292358 0 -0.4655956103761979 -0.49999999999999861 0 -0.48279780518809889 -0.48011821651292358 0 -0.4655956103761979 -0.49999999999999861 0 -0.46368622761186701 -0.47430816625228078 0 -0.4655956103761979 -0.49999999999999861 0 -0.46368622761186701 -0.47430816625228078 0 -0.44441367659449899 -0.47955962878822961 0 -0.46368622761186701 -0.47430816625228078 0 -0.44441367659449899 -0.47955962878822961 0 -0.43998230045213937 -0.45592429999305017 0 -0.4655956103761979 -0.49999999999999861 0 -0.44441367659449899 -0.47955962878822961 0 -0.43923801330806239 -0.5 0 -0.4493285757713561 -0.44362717418921249 0 -0.43998230045213937 -0.45592429999305017 0 -0.43293015858594341 -0.43293445099680078 0 -0.4493285757713561 -0.44362717418921249 0 -0.43998230045213937 -0.45592429999305017 0 -0.46306061059717002 -0.45203557962314328 0 -0.46368622761186701 -0.47430816625228078 0 -0.43998230045213937 -0.45592429999305017 0 -0.46306061059717002 -0.45203557962314328 0 -0.46306061059717002 -0.45203557962314328 0 -0.47595774324561829 -0.43627071340312951 0 -0.46040242164128031 -0.43720776474685208 0 -0.4493285757713561 -0.44362717418921249 0 -0.46306061059717002 -0.45203557962314328 0 -0.46040242164128031 -0.43720776474685208 0 -0.46306061059717002 -0.45203557962314328 0 -0.48091706444045912 -0.45568272202122501 0 -0.47595774324561829 -0.43627071340312951 0 -0.46368622761186701 -0.47430816625228078 0 -0.46306061059717002 -0.45203557962314328 0 -0.48091706444045912 -0.45568272202122501 0 -0.48279780518809889 -0.48011821651292358 0 -0.48091706444045912 -0.45568272202122501 0 -0.50000000000000044 -0.46023643302584921 0 -0.48091706444045912 -0.45568272202122501 0 -0.50000000000000044 -0.46023643302584921 0 -0.5 -0.43112722331002401 0 -0.48091706444045912 -0.45568272202122501 0 -0.5 -0.43112722331002401 0 -0.47595774324561829 -0.43627071340312951 0 -0.5 -0.43112722331002401 0 -0.47900023378647788 -0.41458079621342309 0 -0.47595774324561829 -0.43627071340312951 0 -0.5 -0.43112722331002401 0 -0.47900023378647788 -0.41458079621342309 0 -0.5 -0.40201801359419859 0 -0.47900023378647788 -0.41458079621342309 0 -0.4624830909734024 -0.42244829799471301 0 -0.46499972591792682 -0.41169374776213757 0 -0.47900023378647788 -0.41458079621342309 0 -0.46499727959817999 -0.40094399649341123 0 -0.46499972591792682 -0.41169374776213757 0 -0.47900023378647788 -0.41458079621342309 0 -0.47595774324561829 -0.43627071340312951 0 -0.4624830909734024 -0.42244829799471301 0 -0.5 -0.40201801359419859 0 -0.48210253303070011 -0.39605463485328662 0 -0.5 -0.37290880387837322 0 -0.48210253303070011 -0.39605463485328662 0 -0.47294250645073521 -0.38080375077094553 0 -0.5 -0.37290880387837322 0 -0.47900023378647788 -0.41458079621342309 0 -0.5 -0.40201801359419859 0 -0.48210253303070011 -0.39605463485328662 0 -0.47900023378647788 -0.41458079621342309 0 -0.48210253303070011 -0.39605463485328662 0 -0.46499727959817999 -0.40094399649341123 0 -0.48210253303070011 -0.39605463485328662 0 -0.4619993162764589 -0.38812401574468408 0 -0.46499727959817999 -0.40094399649341123 0 -0.48210253303070011 -0.39605463485328662 0 -0.47294250645073521 -0.38080375077094553 0 -0.4619993162764589 -0.38812401574468408 0 -0.4619993162764589 -0.38812401574468408 0 -0.44765551617818278 -0.38206628439405188 0 -0.46040300872778828 -0.37389795388853669 0 -0.47294250645073521 -0.38080375077094553 0 -0.4619993162764589 -0.38812401574468408 0 -0.46040300872778828 -0.37389795388853669 0 -0.4619993162764589 -0.38812401574468408 0 -0.45115681633697557 -0.39622344317939412 0 -0.44765551617818278 -0.38206628439405188 0 -0.4619993162764589 -0.38812401574468408 0 -0.46499727959817999 -0.40094399649341123 0 -0.45115681633697557 -0.39622344317939412 0 -0.46499727959817999 -0.40094399649341123 0 -0.45115681633697557 -0.39622344317939412 0 -0.45699737978349431 -0.40750757001766358 0 -0.45115681633697557 -0.39622344317939412 0 -0.44765551617818278 -0.38206628439405188 0 -0.42717489332827507 -0.39518724196822752 0 -0.45115681633697557 -0.39622344317939412 0 -0.44482899215083882 -0.40881776998147018 0 -0.42717489332827507 -0.39518724196822752 0 -0.45115681633697557 -0.39622344317939412 0 -0.45699737978349431 -0.40750757001766358 0 -0.44482899215083882 -0.40881776998147018 0 -0.4624830909734024 -0.42244829799471301 0 -0.44957518408146352 -0.41432991987124002 0 -0.45130057207981439 -0.43057199154709908 0 -0.4493285757713561 -0.44362717418921249 0 -0.46040242164128031 -0.43720776474685208 0 -0.45130057207981439 -0.43057199154709908 0 -0.46040242164128031 -0.43720776474685208 0 -0.4624830909734024 -0.42244829799471301 0 -0.45130057207981439 -0.43057199154709908 0 -0.47595774324561829 -0.43627071340312951 0 -0.46040242164128031 -0.43720776474685208 0 -0.4624830909734024 -0.42244829799471301 0 -0.4624830909734024 -0.42244829799471301 0 -0.44482899215083882 -0.40881776998147018 0 -0.4624830909734024 -0.42244829799471301 0 -0.45699737978349431 -0.40750757001766358 0 -0.44482899215083882 -0.40881776998147018 0 -0.4624830909734024 -0.42244829799471301 0 -0.46499972591792682 -0.41169374776213757 0 -0.45699737978349431 -0.40750757001766358 0 -0.46499727959817999 -0.40094399649341123 0 -0.46499972591792682 -0.41169374776213757 0 -0.45699737978349431 -0.40750757001766358 0 -0.4624830909734024 -0.42244829799471301 0 -0.44957518408146352 -0.41432991987124002 0 -0.44482899215083882 -0.40881776998147018 0 -0.44957518408146352 -0.41432991987124002 0 -0.44482899215083882 -0.40881776998147018 0 -0.42735718160917679 -0.41319909844323521 0 -0.44957518408146352 -0.41432991987124002 0 -0.45130057207981439 -0.43057199154709908 0 -0.43293015858594341 -0.43293445099680078 0 -0.44957518408146352 -0.41432991987124002 0 -0.43293015858594341 -0.43293445099680078 0 -0.4493285757713561 -0.44362717418921249 0 -0.45130057207981439 -0.43057199154709908 0 -0.43293015858594341 -0.43293445099680078 0 -0.43293015858594341 -0.43293445099680078 0 -0.41765576467637539 -0.4273359205835584 0 -0.41628513309042342 -0.45153898212236171 0 -0.43293015858594341 -0.43293445099680078 0 -0.42735718160917679 -0.41319909844323521 0 -0.41765576467637539 -0.4273359205835584 0 -0.44957518408146352 -0.41432991987124002 0 -0.43293015858594341 -0.43293445099680078 0 -0.42735718160917679 -0.41319909844323521 0 -0.42735718160917679 -0.41319909844323521 0 -0.40941751958923422 -0.41438563714589199 0 -0.40870568414111302 -0.39722904409185938 0 -0.42735718160917679 -0.41319909844323521 0 -0.40941751958923422 -0.41438563714589199 0 -0.41765576467637539 -0.4273359205835584 0 -0.40941751958923422 -0.41438563714589199 0 -0.41765576467637539 -0.4273359205835584 0 -0.39998173390082159 -0.42883808981656801 0 -0.41765576467637539 -0.4273359205835584 0 -0.39998173390082159 -0.42883808981656801 0 -0.41628513309042342 -0.45153898212236171 0 -0.44765551617818278 -0.38206628439405188 0 -0.42717489332827507 -0.39518724196822752 0 -0.43117050362205128 -0.36555705330784782 0 -0.42717489332827507 -0.39518724196822752 0 -0.4095207945057131 -0.38155671395498281 0 -0.43117050362205128 -0.36555705330784782 0 -0.44482899215083882 -0.40881776998147018 0 -0.42735718160917679 -0.41319909844323521 0 -0.42717489332827507 -0.39518724196822752 0 -0.44482899215083882 -0.40881776998147018 0 -0.42717489332827507 -0.39518724196822752 0 -0.42717489332827507 -0.39518724196822752 0 -0.40870568414111302 -0.39722904409185938 0 -0.4095207945057131 -0.38155671395498281 0 -0.42735718160917679 -0.41319909844323521 0 -0.42717489332827507 -0.39518724196822752 0 -0.40870568414111302 -0.39722904409185938 0 -0.42717489332827507 -0.39518724196822752 0 -0.4095207945057131 -0.38155671395498281 0 -0.4095207945057131 -0.38155671395498281 0 -0.39226156524413358 -0.37942826101498961 0 -0.39356040484513971 -0.36923387943608871 0 -0.4095207945057131 -0.38155671395498281 0 -0.39356040484513971 -0.36923387943608871 0 -0.4095207945057131 -0.38155671395498281 0 -0.39348446215052207 -0.39340795289444969 0 -0.4095207945057131 -0.38155671395498281 0 -0.39226156524413358 -0.37942826101498961 0 -0.39348446215052207 -0.39340795289444969 0 -0.40870568414111302 -0.39722904409185938 0 -0.39348446215052207 -0.39340795289444969 0 -0.39572190911374672 -0.40988928808275832 0 -0.40870568414111302 -0.39722904409185938 0 -0.4095207945057131 -0.38155671395498281 0 -0.39348446215052207 -0.39340795289444969 0 -0.39348446215052207 -0.39340795289444969 0 -0.37744812979533138 -0.40525919183391712 0 -0.39572190911374672 -0.40988928808275832 0 -0.39348446215052207 -0.39340795289444969 0 -0.37744812979533138 -0.40525919183391712 0 -0.37119046557346019 -0.39333006194192388 0 -0.39348446215052207 -0.39340795289444969 0 -0.37744812979533138 -0.40525919183391712 0 -0.38310658109592011 -0.37490578314369322 0 -0.37488743488317372 -0.37097055882210828 0 -0.37119046557346019 -0.39333006194192388 0 -0.39226156524413358 -0.37942826101498961 0 -0.38310658109592011 -0.37490578314369322 0 -0.37119046557346019 -0.39333006194192388 0 -0.39226156524413358 -0.37942826101498961 0 -0.39348446215052207 -0.39340795289444969 0 -0.37119046557346019 -0.39333006194192388 0 -0.39226156524413358 -0.37942826101498961 0 -0.37119046557346019 -0.39333006194192388 0 -0.39998173390082159 -0.42883808981656801 0 -0.3839319521581338 -0.43524059291138512 0 -0.39475983832319472 -0.44606203883813039 0 -0.40941751958923422 -0.414385637
[...]
<PointData Scalars="" Vectors="displacement," Tensors="">
<DataArray type="Float64" Name="displacement" NumberOfComponents="3" format="ascii">
-6.2118079081990933e-07 -0.034998197697452521 0 7.3143883070508889e-07 -0.034439470492188679 0 9.3380624377486971e-07 -0.032219969353850006 0 -6.2118079081990933e-07 -0.034998197697452521 0 7.3143883070508889e-07 -0.034439470492188679 0 3.0962524941186058e-07 -0.035000170468617461 0 -5.4583262382221739e-05 -0.033600138386566301 0 -1.4913715646138343e-07 -0.03221717770259596 0 -0.00012482747879884355 -0.032750416984211633 0 -4.0888107158052944e-05 -0.033387910309007202 0 -4.1915179273115864e-05 -0.031936285487519159 0 -5.4583262382221739e-05 -0.033600138386566301 0 1.0314110728028152e-07 -0.034999347405850013 0 -0.00012482747879884355 -0.032750416984211633 0 -9.829999286381848e-07 -0.034995933590559213 0 -4.0888107158052944e-05 -0.033387910309007202 0 -9.829999286381848e-07 -0.034995933590559213 0 -4.0888107158052944e-05 -0.033387910309007202 0 4.0698629456400965e-05 -0.033996282376918874 0 -4.0888107158052944e-05 -0.033387910309007202 0 4.0698629456400965e-05 -0.033996282376918874 0 -0.0002132069312665644 -0.033029271235866187 0 -9.829999286381848e-07 -0.034995933590559213 0 4.0698629456400965e-05 -0.033996282376918874 0 -1.0093251194361485e-07 -0.034999468058495187 0 -7.312781178422077e-05 -0.032347572138293736 0 -0.0002132069312665644 -0.033029271235866187 0 0.00013020882949781168 -0.032851285875668684 0 -7.312781178422077e-05 -0.032347572138293736 0 -0.0002132069312665644 -0.033029271235866187 0 -9.2376750496332748e-05 -0.032271978570171403 0 -4.0888107158052944e-05 -0.033387910309007202 0 -0.0002132069312665644 -0.033029271235866187 0 -9.2376750496332748e-05 -0.032271978570171403 0 -9.2376750496332748e-05 -0.032271978570171403 0 5.2314467126271266e-05 -0.030963825998213648 0 3.335539918012161e-05 -0.031595104083829768 0 -7.312781178422077e-05 -0.032347572138293736 0 -9.2376750496332748e-05 -0.032271978570171403 0 3.335539918012161e-05 -0.031595104083829768 0 -9.2376750496332748e-05 -0.032271978570171403 0 -4.1915179273115864e-05 -0.031936285487519159 0 5.2314467126271266e-05 -0.030963825998213648 0 -4.0888107158052944e-05 -0.033387910309007202 0 -9.2376750496332748e-05 -0.032271978570171403 0 -4.1915179273115864e-05 -0.031936285487519159 0 -0.00012482747879884355 -0.032750416984211633 0 -4.1915179273115864e-05 -0.031936285487519159 0 -2.2199140835638405e-07 -0.032214029958904884 0 -4.1915179273115864e-05 -0.031936285487519159 0 -2.2199140835638405e-07 -0.032214029958904884 0 -3.0235216857833929e-08 -0.03017983748098145 0 -4.1915179273115864e-05 -0.031936285487519159 0 -3.0235216857833929e-08 -0.03017983748098145 0 5.2314467126271266e-05 -0.030963825998213648 0 -3.0235216857833929e-08 -0.03017983748098145 0 7.3628738024420555e-05 -0.02961040042572528 0 5.2314467126271266e-05 -0.030963825998213648 0 -3.0235216857833929e-08 -0.03017983748098145 0 7.3628738024420555e-05 -0.02961040042572528 0 -7.1710272688418754e-10 -0.028141554948054634 0 7.3628738024420555e-05 -0.02961040042572528 0 0.00037259750386015771 -0.030584860427665443 0 0.00012163348834016454 -0.029823917690664944 0 7.3628738024420555e-05 -0.02961040042572528 0 1.3181359136163146e-06 -0.029223954074217465 0 0.00012163348834016454 -0.029823917690664944 0 7.3628738024420555e-05 -0.02961040042572528 0 5.2314467126271266e-05 -0.030963825998213648 0 0.00037259750386015771 -0.030584860427665443 0 -7.1710272688418754e-10 -0.028141554948054634 0 1.4424329602493232e-05 -0.02831576047563359 0 1.9903741726929895e-07 -0.026104353703736521 0 1.4424329602493232e-05 -0.02831576047563359 0 0.00020013054158528803 -0.027731876517468383 0 1.9903741726929895e-07 -0.026104353703736521 0 7.3628738024420555e-05 -0.02961040042572528 0 -7.1710272688418754e-10 -0.028141554948054634 0 1.4424329602493232e-05 -0.02831576047563359 0 7.3628738024420555e-05 -0.02961040042572528 0 1.4424329602493232e-05 -0.02831576047563359 0 1.3181359136163146e-06 -0.029223954074217465 0 1.4424329602493232e-05 -0.02831576047563359 0 5.3223944677674352e-05 -0.028757992141590086 0 1.3181359136163146e-06 -0.029223954074217465 0 1.4424329602493232e-05 -0.02831576047563359 0 0.00020013054158528803 -0.027731876517468383 0 5.3223944677674352e-05 -0.028757992141590086 0 5.3223944677674352e-05 -0.028757992141590086 0 0.00023474915532143169 -0.029223609124759874 0 0.00063202942358165065 -0.028633491303091375 0 0.00020013054158528803 -0.027731876517468383 0 5.3223944677674352e-05 -0.028757992141590086 0 0.00063202942358165065 -0.028633491303091375 0 5.3223944677674352e-05 -0.028757992141590086 0 -9.8142039889443423e-06 -0.029215657351584285 0 0.00023474915532143169 -0.029223609124759874 0 5.3223944677674352e-05 -0.028757992141590086 0 1.3181359136163146e-06 -0.029223954074217465 0 -9.8142039889443423e-06 -0.029215657351584285 0 1.3181359136163146e-06 -0.029223954074217465 0 -9.8142039889443423e-06 -0.029215657351584285 0 2.1192724945389187e-05 -0.029573871315960072 0 -9.8142039889443423e-06 -0.029215657351584285 0 0.00023474915532143169 -0.029223609124759874 0 8.7124477183399228e-05 -0.029378218518295144 0 -9.8142039889443423e-06 -0.029215657351584285 0 4.9146769020571242e-05 -0.029199281819365836 0 8.7124477183399228e-05 -0.029378218518295144 0 -9.8142039889443423e-06 -0.029215657351584285 0 2.1192724945389187e-05 -0.029573871315960072 0 4.9146769020571242e-05 -0.029199281819365836 0 0.00037259750386015771 -0.030584860427665443 0 0.00095655995652032947 -0.0316444561335852 0 0.0001858177140110731 -0.031835709400718705 0 -7.312781178422077e-05 -0.032347572138293736 0 3.335539918012161e-05 -0.031595104083829768 0 0.0001858177140110731 -0.031835709400718705 0 3.335539918012161e-05 -0.031595104083829768 0 0.00037259750386015771 -0.030584860427665443 0 0.0001858177140110731 -0.031835709400718705 0 5.2314467126271266e-05 -0.030963825998213648 0 3.335539918012161e-05 -0.031595104083829768 0 0.00037259750386015771 -0.030584860427665443 0 0.00042635335433388366 -0.030550335180018179 0 0.00057419326190942348 -0.030512006685530006 0 0.00037259750386015771 -0.030584860427665443 0 2.1192724945389187e-05 -0.029573871315960072 0 4.9146769020571242e-05 -0.029199281819365836 0 0.00037259750386015771 -0.030584860427665443 0 0.00012163348834016454 -0.029823917690664944 0 2.1192724945389187e-05 -0.029573871315960072 0 1.3181359136163146e-06 -0.029223954074217465 0 0.00012163348834016454 -0.029823917690664944 0 2.1192724945389187e-05 -0.029573871315960072 0 0.00037259750386015771 -0.030584860427665443 0 0.00095655995652032947 -0.0316444561335852 0 0.0013105335584452551 -0.031958979729466222 0 0.00095655995652032947 -0.0316444561335852 0 0.0013105335584452551 -0.031958979729466222 0 0.0011022424636891737 -0.032483980210674161 0 0.00095655995652032947 -0.0316444561335852 0 0.0001858177140110731 -0.031835709400718705 0 0.00013020882949781168 -0.032851285875668684 0 0.00093260078121271161 -0.03173886929275084 0 0.00030787401911120527 -0.032548110517199476 0 -7.312781178422077e-05 -0.032347572138293736 0 0.0001858177140110731 -0.031835709400718705 0 0.00013020882949781168 -0.032851285875668684 0 0.00048989226632013556 -0.032291950021859195 0 0.00068342908606252521 -0.032730633405499733 0 3.5201933718149074e-05 -0.032771415141736246 0 0.00048989226632013556 -0.032291950021859195 0 0.0011022424636891737 -0.032483980210674161 0 0.00068342908606252521 -0.032730633405499733 0 0.00095655995652032947 -0.0316444561335852 0 0.00048989226632013556 -0.032291950021859195 0 0.0011022424636891737 -0.032483980210674161 0 0.0011022424636891737 -0.032483980210674161 0 0.0010494531424665807 -0.032939786979390033 0 0.0014996179087513729 -0.032938137050748842 0 0.0011022424636891737 -0.032483980210674161 0 0.0010494531424665807 -0.032939786979390033 0 0.00068342908606252521 -0.032730633405499733 0 0.0010494531424665807 -0.032939786979390033 0 0.00068342908606252521 -0.032730633405499733 0 0.00065424119611484958 -0.033198586320569282 0 0.00068342908606252521 -0.032730633405499733 0 0.00065424119611484958 -0.033198586320569282 0 3.5201933718149074e-05 -0.032771415141736246 0 0.00023474915532143169 -0.029223609124759874 0 8.7124477183399228e-05 -0.029378218518295144 0 0.00035170559578568674 -0.029335857630765357 0 8.7124477183399228e-05 -0.029378218518295144 0 0.00020761550291908563 -0.029529346209231016 0 0.00035170559578568674 -0.029335857630765357 0 0.0013105335584452551 -0.031958979729466222 0 0.0011022424636891737 -0.032483980210674161 0 0.0015707506387217579 -0.032469826386465395 0 0.00057419326190942348 -0.030512006685530006 0 0.0011066637227053083 -0.031317491041821577 0 0.0015707506387217579 -0.032469826386465395 0 0.0014996179087513729 -0.032938137050748842 0 0.0018855158710361106 -0.032896248842692932 0 0.0011022424636891737 -0.032483980210674161 0 0.0015707506387217579 -0.032469826386465395 0 0.0014996179087513729 -0.032938137050748842 0 0.0011066637227053083 -0.031317491041821577 0 -2.185775262526302e-05 -0.029096364194758018 0 -0.0010194162868301404 -0.026504557250167236 0 -0.0010153636193854162 -0.026532751993831379 0 -0.0010079312116966128 -0.026495467905499778 0 -2.185775262526302e-05 -0.029096364194758018 0 -0.0015541584591391691 -0.025661520444690909 0 -2.185775262526302e-05 -0.029096364194758018 0 0.00023831210664501987 -0.029915904834254541 0 -0.0010194162868301404 -0.026504557250167236 0 -0.0010153636193854162 -0.026532751993831379 0 -0.0011010513741641595 -0.026560014724358594 0 0.0014996179087513729 -0.032938137050748842 0 0.0015922841845809727 -0.033323561745366534 0 0.0011644238181530691 -0.033289668223124777 0 0.0014996179087513729 -0.032938137050748842 0 0.0018855158710361106 -0.032896248842692932 0 0.0015922841845809727 -0.033323561745366534 0 0.0015922841845809727 -0.033323561745366534 0 0.0012815427589908139 -0.033753420672695239 0 0.0011644238181530691 -0.033289668223124777 0 -0.0011010513741641595 -0.026560014724358594 0 -0.0012152684853546586 -0.026761192065306375 0 -0.0010922579539159438 -0.026810200099172621 0 0.00023831210664501987 -0.029915904834254541 0 0.00086371012298576682 -0.031279295832127116 0 -0.0010243453226688195 -0.026517962736724503 0 -0.0010283779360695973 -0.026518667197811957 0 -0.0010384465757484924 -0.026532877296438342 0 -0.0010153636193854162 -0.026532751993831379 0 -0.0010243453226688195 -0.026517962736724503 0 -0.0010384465757484924 -0.026532877296438342 0 -0.0010153636193854162 -0.026532751993831379 0 -0.0011010513741641595 -0.026560014724358594 0 -0.0010922579539159438 -0.026810200099172621 0 -0.00093782721352586443 -0.025976957282656889 0 -0.00078920737496248391 -0.028355171931712022 0 0.00065424119611484958 -0.033198586320569282 0 0.00048325946773236872 -0.033636180657281092 0 0.0001943074635603024 -0.033348964186884655 0 0.0010494531424665807 -0.032939786979390033 0 0.00065424119611484958 -0.033198586320569282 0 0.0011644238181530691 -0.033289668223124777 0 0.00065424119611484958 -0.033198586320569282 0 0.0011644238181530691 -0.033289668223124777 0 0.00088672265196195821 -0.033579329617023208 0 0.0010494531424665807 -0.032939786979390033 0 0.0014996179087513729 -0.032938137050748842 0 0.0011644238181530691 -0.033289668223124777 0 0.0012815427589908139 -0.033753420672695239 0 0.0011644238181530691 -0.033289668223124777 0 0.00088672265196195821 -0.033579329617023208 0 0.0013052104242478526 -0.033788744063879599 0 0.00088672265196195821 -0.033579329617023208 0 0.00072758048303750704 -0.033964116957906132 0 0.00086371012298576682 -0.031279295832127116 0 0.0013936543214585046 -0.03379943512989108 0 0.00065424119611484958 -0.033198586320569282 0 0.00088672265196195821 -0.033579329617023208 0 0.00048325946773236872 -0.033636180657281092 0 0.00088672265196195821 -0.033579329617023208 0 0.00048325946773236872 -0.033636180657281092 0 0.00072758048303750704 -0.033964116957906132 0 0.00048325946773236872 -0.033636180657281092 0 0.00042567695199782378 -0.034019208180997851 0 0.00072758048303750704 -0.033964116957906132 0 8.1364388717905482e-05 -0.033805264177692307 0 0.0001943074635603024 -0.033348964186884655 0 -0.00014290477324602573 -0.0334084466851522 0 0.00048325946773236872 -0.033636180657281092 0 8.1364388717905482e-05 -0.033805264177692307 0 0.0001943074635603024 -0.033348964186884655 0 0.00048325946773236872 -0.033636180657281092 0 8.1364388717905482e-05 -0.033805264177692307 0 0.00042567695199782378 -0.034019208180997851 0 0.00065424119611484958 -0.033198586320569282 0 0.0001943074635603024 -0.033348964186884655 0 3.5201933718149074e-05 -0.032771415141736246 0 0.0001943074635603024 -0.033348964186884655 0 -0.00014290477324602573 -0.0334084466851522 0 3.5201933718149074e-05 -0.032771415141736246 0 -0.00014290477324602573 -0.0334084466851522 0 -0.00044466281110481495 -0.033225534961155163 0 3.5201933718149074e-05 -0.032771415141736246 0 -0.00014290477324602573 -0.0334084466851522 0 -0.00032553067602237126 -0.033761452903861039 0 -0.00044466281110481495 -0.033225534961155163 0 -0.0001531366499000456 -0.034417961501980239 0 -7.3128518654265351e-05 -0.033826438140602211 0 8.1364388717905482e-05 -0.033805264177692307 0 -0.00014290477324602573 -0.0334084466851522 0 -0.00032553067602237126 -0.033761452903861039 0 1.2626552087677875e-05 -0.034987131395909581 0 2.260376205917536e-05 -0.034990583545541326 0 5.7030362249268493e-05 -0.034978578078577238 0 1.2626552087677875e-05 -0.034987131395909581 0 2.260376205917536e-05 -0.034990583545541326 0 1.1615186264535779e-05 -0.03498580867120283 0 2.260376205917536e-05 -0.034990583545541326 0 9.03151553807164e-09 -0.034999980848346102 0 1.1615186264535779e-05 -0.03498580867120283 0 2.260376205917536e-05 -0.034990583545541326 0 9.03151553807164e-09 -0.034999980848346102 0 1.5633380614814989e-05 -0.034986752231159032 0 1.5633380614814989e-05 -0.034986752231159032 0 3.8676155190481228e-05 -0.03494883183500986 0 2.1108526666028377e-08 -0.035000005362587384 0 9.03151553807164e-09 -0.034999980848346102 0 1.5633380614814989e-05 -0.034986752231159032 0 2.1108526666028377e-08 -0.035000005362587384 0 2.260376205917536e-05 -0.034990583545541326 0 3.6166226338776855e-05 -0.034975628322444517 0 5.7030362249268493e-05 -0.034978578078577238 0 2.260376205917536e-05 -0.034990583545541326 0 1.5633380614814989e-05 -0.034986752231159032 0 3.6166226338776855e-05 -0.034975628322444517 0 3.6166226338776855e-05 -0.034975628322444517 0 5.7030362249268493e-05 -0.034978578078577238 0 3.8676155190481228e-05 -0.03494883183500986 0 1.5633380614814989e-05 -0.034986752231159032 0 3.6166226338776855e-05 -0.034975628322444517 0 3.8676155190481228e-05 -0.03494883183500986 0 -7.3128518654265351e-05 -0.033826438140602211 0 1.4259348733954978e-05 -0.034049832066954201 0 5.7030362249268493e-05 -0.034978578078577238 0 3.8676155190481228e-05 -0.03494883183500986 0 8.4654504803825727e-05 -0.034838163985719539 0 3.8676155190481228e-05 -0.03494883183500986 0 2.1108526666028377e-08 -0.035000005362587384 0 8.4654504803825727e-05 -0.034838163985719539 0 4.0698629456400965e-05 -0.033996282376918874 0 -1.0093251194361485e-07 -0.034999468058495187 0 8.4654504803825727e-05 -0.034838163985719539 0 -1.0093251194361485e-07 -0.034999468058495187 0 2.1108526666028377e-08 -0.035000005362587384 0 8.4654504803825727e-05 -0.034838163985719539 0 2.5005409201194341e-05 -0.033966387738188046 0 1.4259348733954978e-05 -0.034049832066954201 0 4.0698629456400965e-05 -0.033996282376918874 0 -0.0002132069312665644 -0.033029271235866187 0 -8.0274073817326611e-05 -0.033171377393667975 0 -0.0002132069312665644 -0.033029271235866187 0 -8.0274073817326611e-05 -0.033171377393667975 0 -0.00012308943650155371 -0.033146241718079221 0 -0.0002132069312665644 -0.033029271235866187 0 0.00013020882949781168 -0.032851285875668684 0 -0.00012308943650155371 -0.033146241718079221 0 0.00030787401911120527 -0.032548110517199476 0 -4.0954526014392967e-05 -0.032868483281013862 0 -7.3128518654265351e-05 -0.033826438140602211 0 -4.0954526014392967e-05 -0.032868483281013862 0 -9.0326508565855039e-05 -0.033136231201652128 0 -8.0274073817326611e-05 -0.033171377393667975 0 -0.00012308943650155371 -0.033146241718079221 0 0.00022634077785919641 -0.01773452169432756 0 0.00031695531761255437 -0.017594196861543857 0 0.00036444478516157411 -0.017703943054603388 0 0.00031695531761255437 -0.017594196861543857 0 0.00036444478516157411 -0.017703943054603388 0 0.00041674628420887628 -0.017583997086764374 0 0.00036444478516157411 -0.017703943054603388 0 0.00049647522194534439 -0.017867998977992086 0 0.00057701172351376983 -0.017592622021210657 0 0.00036444478516157411 -0.017703943054603388 0 0.00057701172351376983 -0.017592622021210657 0 0.00041674628420887628 -0.017583997086764374 0 0.00012637599052753922 -0.017980259716609381 0 0.00049647522194534439 -0.017867998977992086 0 3.0428677293074707e-05 -0.018604201307289178 0 0.00036444478516157411 -0.017703943054603388 0 0.00012637599052753922 -0.017980259716609381 0 0.00049647522194534439 -0.017867998977992086 0 0.00012799157532920907 -0.017933590178789559 0 9.839311875833302e-05 -0.017727803183221494 0 0.00022634077785919641 -0.01773452169432756 0 0.00012637599052753922 -0.017980259716609381 0 0.00024749065512518278 -0.017657846633848291 0 0.00022634077785919641 -0.01773452169432756 0 0.00036444478516157411 -0.017703943054603388 0 0.00012637599052753922 -0.017980259716609381 0 0.00012637599052753922 -0.017980259716609381 0 -7.4182389411535409e-05 -0.017972887254616127 0 -5.5354557006504416e-05 -0.017771780097679619 0 0.00012637599052753922 -0.017980259716609381 0 -7.4182389411535409e-05 -0.017972887254616127 0 3.0428677293074707e-05 -0.018604201307289178 0 -7.4182389411535409e-05 -0.017972887254616127 0 -1.6251971222375377e-07 -0.017974165067051635 0 3.0428677293074707e-05 -0.018604201307289178 0 -7.4182389411535409e-05 -0.017972887254616127 0 -1.6251971222375377e-07 -0.017974165067051635 0 -3.030944286181521e-05 -0.017295467291640568 0 3.0428677293074707e-05 -0.018604201307289178 0 -5.0690627279887373e-05 -0.019643520479473119 0 -7.331931859701121e-07 -0.020001376276776998 0 -1.6251971222375377e-07 -0.017974165067051635 0 3.0428677293074707e-05 -0.018604201307289178 0 -7.331931859701121e-07 -0.020001376276776998 0 -4.4942841757748151e-05 -0.018786933823805533 0 0.00037743009055004744 -0.018799672190718538 0 0.00049647522194534439 -0.017867998977992086 0 3.0428677293074707e-05 -0.018604201307289178 0 0.00077389311543523721 -0.018150239374439187 0 3.0428677293074707e-05 -0.018604201307289178 0 -0.00015638545910098554 -0.019946130612483914 0 -5.0690627279887373e-05 -0.019643520479473119 0 -0.00015638545910098554 -0.019946130612483914 0 -5.0690627279887373e-05 -0.019643520479473119 0 -0.00012590168895376403 -0.020297313357021257 0 -5.0690627279887373e-05 -0.019643520479473119 0 -7.331931859701121e-07 -0.020001376276776998 0 -0.00012590168895376403 -0.020297313357021257 0 -7.331931859701121e-07 -0.020001376276776998 0 -0.00012590168895376403 -0.020297313357021257 0 1.6438726642300336e-06 -0.022024827306281729 0 -0.00012590168895376403 -0.020297313357021257 0 0.00027247875450764911 -0.02006307796618112 0 1.6438726642300336e-06 -0.022024827306281729 0 -0.00015638545910098554 -0.019946130612483914 0 -0.00012590168895376403 -0.020297313357021257 0 0.00027247875450764911 -0.02006307796618112 0 -0.00015638545910098554 -0.019946130612483914 0 0.00027247875450764911 -0.02006307796618112 0 0.00059728610546227784 -0.019497591852545682 0 0.00037743009055004744 -0.018799672190718538 0 0.00065800034813603113 -0.019923254520688254 0 0.00077389311543523721 -0.018150239374439187 0 0.00076118299874311144 -0.017792907766707788 0 0.001192804058106 -0.017937094531307592 0 0.00049647522194534439 -0.017867998977992086 0 0.00077389311543523721 -0.018150239374439187 0 0.00076118299874311144 -0.017792907766707788 0 0.00049647522194534439 -0.017867998977992086 0 0.00076118299874311144 -0.017792907766707788 0 0.00057701172351376983 -0.017592622021210657 0 0.00076118299874311144 -0.017792907766707788 0 0.000865387483