<?xml version="1.0"?>
<VTKFile type="UnstructuredGrid" version="0.1" byte_order="LittleEndian">
<UnstructuredGrid>
<Piece NumberOfPoints="31749" NumberOfCells="11152">
<Points>
<DataArray type="Float64" NumberOfComponents="3" format="ascii">
-0.5 -0.5 0 -0.48279780518809889 -0.48011821651292358 0 -0.50000000000000044 -0.46023643302584921 0 -0.5 -0.5 0 -0.48279780518809889 -0.48011821651292358 0 -0.4655956103761979 -0.49999999999999861 0 -0.48279780518809889 -0.48011821651292358 0 -0.50000000000000044 -0.46023643302584921 0 -0.48279780518809889 -0.48011821651292358 0 -0.46368622761186701 -0.47430816625228078 0 -0.48091706444045912 -0.45568272202122501 0 -0.48279780518809889 -0.48011821651292358 0 -0.4655956103761979 -0.49999999999999861 0 -0.48279780518809889 -0.48011821651292358 0 -0.4655956103761979 -0.49999999999999861 0 -0.46368622761186701 -0.47430816625228078 0 -0.4655956103761979 -0.49999999999999861 0 -0.46368622761186701 -0.47430816625228078 0 -0.44441367659449899 -0.47955962878822961 0 -0.46368622761186701 -0.47430816625228078 0 -0.44441367659449899 -0.47955962878822961 0 -0.43998230045213937 -0.45592429999305017 0 -0.4655956103761979 -0.49999999999999861 0 -0.44441367659449899 -0.47955962878822961 0 -0.43923801330806239 -0.5 0 -0.4493285757713561 -0.44362717418921249 0 -0.43998230045213937 -0.45592429999305017 0 -0.43293015858594341 -0.43293445099680078 0 -0.4493285757713561 -0.44362717418921249 0 -0.43998230045213937 -0.45592429999305017 0 -0.46306061059717002 -0.45203557962314328 0 -0.46368622761186701 -0.47430816625228078 0 -0.43998230045213937 -0.45592429999305017 0 -0.46306061059717002 -0.45203557962314328 0 -0.46306061059717002 -0.45203557962314328 0 -0.47595774324561829 -0.43627071340312951 0 -0.46040242164128031 -0.43720776474685208 0 -0.4493285757713561 -0.44362717418921249 0 -0.46306061059717002 -0.45203557962314328 0 -0.46040242164128031 -0.43720776474685208 0 -0.46306061059717002 -0.45203557962314328 0 -0.48091706444045912 -0.45568272202122501 0 -0.47595774324561829 -0.43627071340312951 0 -0.46368622761186701 -0.47430816625228078 0 -0.46306061059717002 -0.45203557962314328 0 -0.48091706444045912 -0.45568272202122501 0 -0.48279780518809889 -0.48011821651292358 0 -0.48091706444045912 -0.45568272202122501 0 -0.50000000000000044 -0.46023643302584921 0 -0.48091706444045912 -0.45568272202122501 0 -0.50000000000000044 -0.46023643302584921 0 -0.5 -0.43112722331002401 0 -0.48091706444045912 -0.45568272202122501 0 -0.5 -0.43112722331002401 0 -0.47595774324561829 -0.43627071340312951 0 -0.5 -0.43112722331002401 0 -0.47900023378647788 -0.41458079621342309 0 -0.47595774324561829 -0.43627071340312951 0 -0.5 -0.43112722331002401 0 -0.47900023378647788 -0.41458079621342309 0 -0.5 -0.40201801359419859 0 -0.47900023378647788 -0.41458079621342309 0 -0.4624830909734024 -0.42244829799471301 0 -0.46499972591792682 -0.41169374776213757 0 -0.47900023378647788 -0.41458079621342309 0 -0.46499727959817999 -0.40094399649341123 0 -0.46499972591792682 -0.41169374776213757 0 -0.47900023378647788 -0.41458079621342309 0 -0.47595774324561829 -0.43627071340312951 0 -0.4624830909734024 -0.42244829799471301 0 -0.5 -0.40201801359419859 0 -0.48210253303070011 -0.39605463485328662 0 -0.5 -0.37290880387837322 0 -0.48210253303070011 -0.39605463485328662 0 -0.47294250645073521 -0.38080375077094553 0 -0.5 -0.37290880387837322 0 -0.47900023378647788 -0.41458079621342309 0 -0.5 -0.40201801359419859 0 -0.48210253303070011 -0.39605463485328662 0 -0.47900023378647788 -0.41458079621342309 0 -0.48210253303070011 -0.39605463485328662 0 -0.46499727959817999 -0.40094399649341123 0 -0.48210253303070011 -0.39605463485328662 0 -0.4619993162764589 -0.38812401574468408 0 -0.46499727959817999 -0.40094399649341123 0 -0.48210253303070011 -0.39605463485328662 0 -0.47294250645073521 -0.38080375077094553 0 -0.4619993162764589 -0.38812401574468408 0 -0.4619993162764589 -0.38812401574468408 0 -0.44765551617818278 -0.38206628439405188 0 -0.46040300872778828 -0.37389795388853669 0 -0.47294250645073521 -0.38080375077094553 0 -0.4619993162764589 -0.38812401574468408 0 -0.46040300872778828 -0.37389795388853669 0 -0.4619993162764589 -0.38812401574468408 0 -0.45115681633697557 -0.39622344317939412 0 -0.44765551617818278 -0.38206628439405188 0 -0.4619993162764589 -0.38812401574468408 0 -0.46499727959817999 -0.40094399649341123 0 -0.45115681633697557 -0.39622344317939412 0 -0.46499727959817999 -0.40094399649341123 0 -0.45115681633697557 -0.39622344317939412 0 -0.45699737978349431 -0.40750757001766358 0 -0.45115681633697557 -0.39622344317939412 0 -0.44765551617818278 -0.38206628439405188 0 -0.42717489332827507 -0.39518724196822752 0 -0.45115681633697557 -0.39622344317939412 0 -0.44482899215083882 -0.40881776998147018 0 -0.42717489332827507 -0.39518724196822752 0 -0.45115681633697557 -0.39622344317939412 0 -0.45699737978349431 -0.40750757001766358 0 -0.44482899215083882 -0.40881776998147018 0 -0.4624830909734024 -0.42244829799471301 0 -0.44957518408146352 -0.41432991987124002 0 -0.45130057207981439 -0.43057199154709908 0 -0.4493285757713561 -0.44362717418921249 0 -0.46040242164128031 -0.43720776474685208 0 -0.45130057207981439 -0.43057199154709908 0 -0.46040242164128031 -0.43720776474685208 0 -0.4624830909734024 -0.42244829799471301 0 -0.45130057207981439 -0.43057199154709908 0 -0.47595774324561829 -0.43627071340312951 0 -0.46040242164128031 -0.43720776474685208 0 -0.4624830909734024 -0.42244829799471301 0 -0.4624830909734024 -0.42244829799471301 0 -0.44482899215083882 -0.40881776998147018 0 -0.4624830909734024 -0.42244829799471301 0 -0.45699737978349431 -0.40750757001766358 0 -0.44482899215083882 -0.40881776998147018 0 -0.4624830909734024 -0.42244829799471301 0 -0.46499972591792682 -0.41169374776213757 0 -0.45699737978349431 -0.40750757001766358 0 -0.46499727959817999 -0.40094399649341123 0 -0.46499972591792682 -0.41169374776213757 0 -0.45699737978349431 -0.40750757001766358 0 -0.4624830909734024 -0.42244829799471301 0 -0.44957518408146352 -0.41432991987124002 0 -0.44482899215083882 -0.40881776998147018 0 -0.44957518408146352 -0.41432991987124002 0 -0.44482899215083882 -0.40881776998147018 0 -0.42735718160917679 -0.41319909844323521 0 -0.44957518408146352 -0.41432991987124002 0 -0.45130057207981439 -0.43057199154709908 0 -0.43293015858594341 -0.43293445099680078 0 -0.44957518408146352 -0.41432991987124002 0 -0.43293015858594341 -0.43293445099680078 0 -0.4493285757713561 -0.44362717418921249 0 -0.45130057207981439 -0.43057199154709908 0 -0.43293015858594341 -0.43293445099680078 0 -0.43293015858594341 -0.43293445099680078 0 -0.41765576467637539 -0.4273359205835584 0 -0.41628513309042342 -0.45153898212236171 0 -0.43293015858594341 -0.43293445099680078 0 -0.42735718160917679 -0.41319909844323521 0 -0.41765576467637539 -0.4273359205835584 0 -0.44957518408146352 -0.41432991987124002 0 -0.43293015858594341 -0.43293445099680078 0 -0.42735718160917679 -0.41319909844323521 0 -0.42735718160917679 -0.41319909844323521 0 -0.40941751958923422 -0.41438563714589199 0 -0.40870568414111302 -0.39722904409185938 0 -0.42735718160917679 -0.41319909844323521 0 -0.40941751958923422 -0.41438563714589199 0 -0.41765576467637539 -0.4273359205835584 0 -0.40941751958923422 -0.41438563714589199 0 -0.41765576467637539 -0.4273359205835584 0 -0.39998173390082159 -0.42883808981656801 0 -0.41765576467637539 -0.4273359205835584 0 -0.39998173390082159 -0.42883808981656801 0 -0.41628513309042342 -0.45153898212236171 0 -0.44765551617818278 -0.38206628439405188 0 -0.42717489332827507 -0.39518724196822752 0 -0.43117050362205128 -0.36555705330784782 0 -0.42717489332827507 -0.39518724196822752 0 -0.4095207945057131 -0.38155671395498281 0 -0.43117050362205128 -0.36555705330784782 0 -0.44482899215083882 -0.40881776998147018 0 -0.42735718160917679 -0.41319909844323521 0 -0.42717489332827507 -0.39518724196822752 0 -0.44482899215083882 -0.40881776998147018 0 -0.42717489332827507 -0.39518724196822752 0 -0.42717489332827507 -0.39518724196822752 0 -0.40870568414111302 -0.39722904409185938 0 -0.4095207945057131 -0.38155671395498281 0 -0.42735718160917679 -0.41319909844323521 0 -0.42717489332827507 -0.39518724196822752 0 -0.40870568414111302 -0.39722904409185938 0 -0.42717489332827507 -0.39518724196822752 0 -0.4095207945057131 -0.38155671395498281 0 -0.4095207945057131 -0.38155671395498281 0 -0.39226156524413358 -0.37942826101498961 0 -0.39356040484513971 -0.36923387943608871 0 -0.4095207945057131 -0.38155671395498281 0 -0.39356040484513971 -0.36923387943608871 0 -0.4095207945057131 -0.38155671395498281 0 -0.39348446215052207 -0.39340795289444969 0 -0.4095207945057131 -0.38155671395498281 0 -0.39226156524413358 -0.37942826101498961 0 -0.39348446215052207 -0.39340795289444969 0 -0.40870568414111302 -0.39722904409185938 0 -0.39348446215052207 -0.39340795289444969 0 -0.39572190911374672 -0.40988928808275832 0 -0.40870568414111302 -0.39722904409185938 0 -0.4095207945057131 -0.38155671395498281 0 -0.39348446215052207 -0.39340795289444969 0 -0.39348446215052207 -0.39340795289444969 0 -0.37744812979533138 -0.40525919183391712 0 -0.39572190911374672 -0.40988928808275832 0 -0.39348446215052207 -0.39340795289444969 0 -0.37744812979533138 -0.40525919183391712 0 -0.37119046557346019 -0.39333006194192388 0 -0.39348446215052207 -0.39340795289444969 0 -0.37744812979533138 -0.40525919183391712 0 -0.38310658109592011 -0.37490578314369322 0 -0.37488743488317372 -0.37097055882210828 0 -0.37119046557346019 -0.39333006194192388 0 -0.39226156524413358 -0.37942826101498961 0 -0.38310658109592011 -0.37490578314369322 0 -0.37119046557346019 -0.39333006194192388 0 -0.39226156524413358 -0.37942826101498961 0 -0.39348446215052207 -0.39340795289444969 0 -0.37119046557346019 -0.39333006194192388 0 -0.39226156524413358 -0.37942826101498961 0 -0.37119046557346019 -0.39333006194192388 0 -0.39998173390082159 -0.42883808981656801 0 -0.3839319521581338 -0.43524059291138512 0 -0.39475983832319472 -0.44606203883813039 0 -0.40941751958923422 -0.414385637
[...]
<PointData Scalars="" Vectors="displacement," Tensors="">
<DataArray type="Float64" Name="displacement" NumberOfComponents="3" format="ascii">
-0.03499891677121076 -0.034998482786703478 0 -0.034363910017183912 -0.034756855162698275 0 -0.032219481816839007 -0.034999501976326543 0 -0.03499891677121076 -0.034998482786703478 0 -0.034363910017183912 -0.034756855162698275 0 -0.034999225142687752 -0.03259521246922794 0 -0.033931949882827231 -0.034115420087842713 0 -0.032217202590279916 -0.034999667587316735 0 -0.033528642205625986 -0.033516176119302972 0 -0.033908556107241916 -0.033221484184797201 0 -0.032447190469743474 -0.034401702298185934 0 -0.033931949882827231 -0.034115420087842713 0 -0.0349995199762166 -0.032592218578128364 0 -0.033528642205625986 -0.033516176119302972 0 -0.034998385735878997 -0.032591240683911712 0 -0.033908556107241916 -0.033221484184797201 0 -0.034998385735878997 -0.032591240683911712 0 -0.033908556107241916 -0.033221484184797201 0 -0.034958808126025046 -0.032506698787192402 0 -0.033908556107241916 -0.033221484184797201 0 -0.034958808126025046 -0.032506698787192402 0 -0.032898882455962911 -0.033797582943725875 0 -0.034998385735878997 -0.032591240683911712 0 -0.034958808126025046 -0.032506698787192402 0 -0.034998618628732978 -0.030749482619757587 0 -0.032280275377373976 -0.034170448160475618 0 -0.032898882455962911 -0.033797582943725875 0 -0.032009648493728365 -0.033960727663164492 0 -0.032280275377373976 -0.034170448160475618 0 -0.032898882455962911 -0.033797582943725875 0 -0.032519495366508201 -0.034147615617403405 0 -0.033908556107241916 -0.033221484184797201 0 -0.032898882455962911 -0.033797582943725875 0 -0.032519495366508201 -0.034147615617403405 0 -0.032519495366508201 -0.034147615617403405 0 -0.031458417080347016 -0.034907423396906383 0 -0.031889929362484491 -0.034696078262915563 0 -0.032280275377373976 -0.034170448160475618 0 -0.032519495366508201 -0.034147615617403405 0 -0.031889929362484491 -0.034696078262915563 0 -0.032519495366508201 -0.034147615617403405 0 -0.032447190469743474 -0.034401702298185934 0 -0.031458417080347016 -0.034907423396906383 0 -0.033908556107241916 -0.033221484184797201 0 -0.032519495366508201 -0.034147615617403405 0 -0.032447190469743474 -0.034401702298185934 0 -0.033528642205625986 -0.033516176119302972 0 -0.032447190469743474 -0.034401702298185934 0 -0.032216210396175893 -0.034996670056657388 0 -0.032447190469743474 -0.034401702298185934 0 -0.032216210396175893 -0.034996670056657388 0 -0.030180752055320271 -0.034999551507747848 0 -0.032447190469743474 -0.034401702298185934 0 -0.030180752055320271 -0.034999551507747848 0 -0.031458417080347016 -0.034907423396906383 0 -0.030180752055320271 -0.034999551507747848 0 -0.029865629064823755 -0.035270076391631745 0 -0.031458417080347016 -0.034907423396906383 0 -0.030180752055320271 -0.034999551507747848 0 -0.029865629064823755 -0.035270076391631745 0 -0.028142192305216564 -0.034999166205192125 0 -0.029865629064823755 -0.035270076391631745 0 -0.03149872236676346 -0.03556538048697605 0 -0.029895667848649766 -0.035789670284311223 0 -0.029865629064823755 -0.035270076391631745 0 -0.028854699611753978 -0.036077203119882377 0 -0.029895667848649766 -0.035789670284311223 0 -0.029865629064823755 -0.035270076391631745 0 -0.031458417080347016 -0.034907423396906383 0 -0.03149872236676346 -0.03556538048697605 0 -0.028142192305216564 -0.034999166205192125 0 -0.028237728665448068 -0.035570659754115844 0 -0.026104362332294007 -0.03499964417067758 0 -0.028237728665448068 -0.035570659754115844 0 -0.02741384619754831 -0.036229878968099864 0 -0.026104362332294007 -0.03499964417067758 0 -0.029865629064823755 -0.035270076391631745 0 -0.028142192305216564 -0.034999166205192125 0 -0.028237728665448068 -0.035570659754115844 0 -0.029865629064823755 -0.035270076391631745 0 -0.028237728665448068 -0.035570659754115844 0 -0.028854699611753978 -0.036077203119882377 0 -0.028237728665448068 -0.035570659754115844 0 -0.028041525674512017 -0.036409825739564597 0 -0.028854699611753978 -0.036077203119882377 0 -0.028237728665448068 -0.035570659754115844 0 -0.02741384619754831 -0.036229878968099864 0 -0.028041525674512017 -0.036409825739564597 0 -0.028041525674512017 -0.036409825739564597 0 -0.028112694192798923 -0.036861657736188942 0 -0.027581453135943717 -0.036416527847900844 0 -0.02741384619754831 -0.036229878968099864 0 -0.028041525674512017 -0.036409825739564597 0 -0.027581453135943717 -0.036416527847900844 0 -0.028041525674512017 -0.036409825739564597 0 -0.028542403363486027 -0.036812641041667857 0 -0.028112694192798923 -0.036861657736188942 0 -0.028041525674512017 -0.036409825739564597 0 -0.028854699611753978 -0.036077203119882377 0 -0.028542403363486027 -0.036812641041667857 0 -0.028854699611753978 -0.036077203119882377 0 -0.028542403363486027 -0.036812641041667857 0 -0.029341247396100244 -0.03636855182022021 0 -0.028542403363486027 -0.036812641041667857 0 -0.028112694192798923 -0.036861657736188942 0 -0.028442610174302194 -0.036896317785800929 0 -0.028542403363486027 -0.036812641041667857 0 -0.029166241338701982 -0.037168682981464869 0 -0.028442610174302194 -0.036896317785800929 0 -0.028542403363486027 -0.036812641041667857 0 -0.029341247396100244 -0.03636855182022021 0 -0.029166241338701982 -0.037168682981464869 0 -0.03149872236676346 -0.03556538048697605 0 -0.033897990362976499 -0.033901257636927605 0 -0.032019502778041206 -0.034457390226012512 0 -0.032280275377373976 -0.034170448160475618 0 -0.031889929362484491 -0.034696078262915563 0 -0.032019502778041206 -0.034457390226012512 0 -0.031889929362484491 -0.034696078262915563 0 -0.03149872236676346 -0.03556538048697605 0 -0.032019502778041206 -0.034457390226012512 0 -0.031458417080347016 -0.034907423396906383 0 -0.031889929362484491 -0.034696078262915563 0 -0.03149872236676346 -0.03556538048697605 0 -0.031687008582106775 -0.035487451731324421 0 -0.032194384234022058 -0.035049352277947865 0 -0.03149872236676346 -0.03556538048697605 0 -0.029341247396100244 -0.03636855182022021 0 -0.029166241338701982 -0.037168682981464869 0 -0.03149872236676346 -0.03556538048697605 0 -0.029895667848649766 -0.035789670284311223 0 -0.029341247396100244 -0.03636855182022021 0 -0.028854699611753978 -0.036077203119882377 0 -0.029895667848649766 -0.035789670284311223 0 -0.029341247396100244 -0.03636855182022021 0 -0.03149872236676346 -0.03556538048697605 0 -0.033897990362976499 -0.033901257636927605 0 -0.035223857622899424 -0.033327847713904096 0 -0.033897990362976499 -0.033901257636927605 0 -0.035223857622899424 -0.033327847713904096 0 -0.035352212340594769 -0.031423943450221578 0 -0.033897990362976499 -0.033901257636927605 0 -0.032019502778041206 -0.034457390226012512 0 -0.032009648493728365 -0.033960727663164492 0 -0.034000628739133447 -0.033927428344661434 0 -0.033229833782855038 -0.032916923483334151 0 -0.032280275377373976 -0.034170448160475618 0 -0.032019502778041206 -0.034457390226012512 0 -0.032009648493728365 -0.033960727663164492 0 -0.034226003837290589 -0.031719023229034006 0 -0.03489910342956954 -0.030630338781557388 0 -0.033819985209944822 -0.030437083873765959 0 -0.034226003837290589 -0.031719023229034006 0 -0.035352212340594769 -0.031423943450221578 0 -0.03489910342956954 -0.030630338781557388 0 -0.033897990362976499 -0.033901257636927605 0 -0.034226003837290589 -0.031719023229034006 0 -0.035352212340594769 -0.031423943450221578 0 -0.035352212340594769 -0.031423943450221578 0 -0.03576087913844371 -0.030052062169405515 0 -0.036815433047263181 -0.0300184141630561 0 -0.035352212340594769 -0.031423943450221578 0 -0.03576087913844371 -0.030052062169405515 0 -0.03489910342956954 -0.030630338781557388 0 -0.03576087913844371 -0.030052062169405515 0 -0.03489910342956954 -0.030630338781557388 0 -0.03528403975951766 -0.029360587402488914 0 -0.03489910342956954 -0.030630338781557388 0 -0.03528403975951766 -0.029360587402488914 0 -0.033819985209944822 -0.030437083873765959 0 -0.028112694192798923 -0.036861657736188942 0 -0.028442610174302194 -0.036896317785800929 0 -0.028417388031825943 -0.036769690456441455 0 -0.028442610174302194 -0.036896317785800929 0 -0.028561523930195731 -0.036454709131091549 0 -0.028417388031825943 -0.036769690456441455 0 -0.035223857622899424 -0.033327847713904096 0 -0.035352212340594769 -0.031423943450221578 0 -0.036855775321527 -0.031500027028638654 0 -0.032194384234022058 -0.035049352277947865 0 -0.032926643763588621 -0.034702912119291308 0 -0.036855775321527 -0.031500027028638654 0 -0.036815433047263181 -0.0300184141630561 0 -0.03774537611117746 -0.03016992610088786 0 -0.035352212340594769 -0.031423943450221578 0 -0.036855775321527 -0.031500027028638654 0 -0.036815433047263181 -0.0300184141630561 0 -0.032926643763588621 -0.034702912119291308 0 -0.02866003243525227 -0.028346776719336577 0 -0.025415333684545321 -0.023021664761627873 0 -0.025242846978163921 -0.023969951821464115 0 -0.024934777579578175 -0.023967838539668235 0 -0.02866003243525227 -0.028346776719336577 0 -0.024870929499042814 -0.0231165943479941 0 -0.02866003243525227 -0.028346776719336577 0 -0.031712536595857377 -0.026407020530438908 0 -0.025415333684545321 -0.023021664761627873 0 -0.025242846978163921 -0.023969951821464115 0 -0.026366137077458791 -0.023892288867617073 0 -0.036815433047263181 -0.0300184141630561 0 -0.037080743353326104 -0.029002711314260719 0 -0.036301131554217547 -0.029055759220781605 0 -0.036815433047263181 -0.0300184141630561 0 -0.03774537611117746 -0.03016992610088786 0 -0.037080743353326104 -0.029002711314260719 0 -0.037080743353326104 -0.029002711314260719 0 -0.036566928016303679 -0.028170335808688014 0 -0.036301131554217547 -0.029055759220781605 0 -0.026366137077458791 -0.023892288867617073 0 -0.027504814027611974 -0.025164278997215218 0 -0.026476949401947728 -0.025670268684815884 0 -0.031712536595857377 -0.026407020530438908 0 -0.034679026339323266 -0.02554559923692672 0 -0.025081982721516467 -0.023969622607994408 0 -0.025036578425441287 -0.023910116573936591 0 -0.025030509228676393 -0.023910277467746405 0 -0.025242846978163921 -0.023969951821464115 0 -0.025081982721516467 -0.023969622607994408 0 -0.025030509228676393 -0.023910277467746405 0 -0.025242846978163921 -0.023969951821464115 0 -0.026366137077458791 -0.023892288867617073 0 -0.026476949401947728 -0.025670268684815884 0 -0.024708050225053235 -0.024637381920856388 0 -0.028608631149551957 -0.022258005072886857 0 -0.03528403975951766 -0.029360587402488914 0 -0.035322391281667823 -0.0280806967545447 0 -0.034444685372743325 -0.028912107999945445 0 -0.03576087913844371 -0.030052062169405515 0 -0.03528403975951766 -0.029360587402488914 0 -0.036301131554217547 -0.029055759220781605 0 -0.03528403975951766 -0.029360587402488914 0 -0.036301131554217547 -0.029055759220781605 0 -0.036193475864968745 -0.028345239004912415 0 -0.03576087913844371 -0.030052062169405515 0 -0.036815433047263181 -0.0300184141630561 0 -0.036301131554217547 -0.029055759220781605 0 -0.036566928016303679 -0.028170335808688014 0 -0.036301131554217547 -0.029055759220781605 0 -0.036193475864968745 -0.028345239004912415 0 -0.037734817365162564 -0.027524930164991062 0 -0.036193475864968745 -0.028345239004912415 0 -0.03618659725676359 -0.027007821069942664 0 -0.034679026339323266 -0.02554559923692672 0 -0.036600487791416413 -0.028072376150363048 0 -0.03528403975951766 -0.029360587402488914 0 -0.036193475864968745 -0.028345239004912415 0 -0.035322391281667823 -0.0280806967545447 0 -0.036193475864968745 -0.028345239004912415 0 -0.035322391281667823 -0.0280806967545447 0 -0.03618659725676359 -0.027007821069942664 0 -0.035322391281667823 -0.0280806967545447 0 -0.035542484230986132 -0.026799853968254645 0 -0.03618659725676359 -0.027007821069942664 0 -0.034490002427075644 -0.027516344266673733 0 -0.034444685372743325 -0.028912107999945445 0 -0.033637233319064271 -0.028734131390030296 0 -0.035322391281667823 -0.0280806967545447 0 -0.034490002427075644 -0.027516344266673733 0 -0.034444685372743325 -0.028912107999945445 0 -0.035322391281667823 -0.0280806967545447 0 -0.034490002427075644 -0.027516344266673733 0 -0.035542484230986132 -0.026799853968254645 0 -0.03528403975951766 -0.029360587402488914 0 -0.034444685372743325 -0.028912107999945445 0 -0.033819985209944822 -0.030437083873765959 0 -0.034444685372743325 -0.028912107999945445 0 -0.033637233319064271 -0.028734131390030296 0 -0.033819985209944822 -0.030437083873765959 0 -0.033637233319064271 -0.028734131390030296 0 -0.032817531696066604 -0.0292380790087132 0 -0.033819985209944822 -0.030437083873765959 0 -0.033637233319064271 -0.028734131390030296 0 -0.033234495637977764 -0.027672586865566385 0 -0.032817531696066604 -0.0292380790087132 0 -0.035150463221941243 -0.026699374389627075 0 -0.034399843861840661 -0.030593826786426647 0 -0.034490002427075644 -0.027516344266673733 0 -0.033637233319064271 -0.028734131390030296 0 -0.033234495637977764 -0.027672586865566385 0 -0.036896609858162746 -0.026419928319823521 0 -0.036164353183754883 -0.027028329915850878 0 -0.036829417355804674 -0.028006728002023747 0 -0.036896609858162746 -0.026419928319823521 0 -0.036164353183754883 -0.027028329915850878 0 -0.035940300306819793 -0.025658682243680463 0 -0.036164353183754883 -0.027028329915850878 0 -0.034999643423422322 -0.02705664136717072 0 -0.035940300306819793 -0.025658682243680463 0 -0.036164353183754883 -0.027028329915850878 0 -0.034999643423422322 -0.02705664136717072 0 -0.035665688133177158 -0.027775155279095642 0 -0.035665688133177158 -0.027775155279095642 0 -0.035955384266267758 -0.028675802545517382 0 -0.034999958944684759 -0.028901329311652575 0 -0.034999643423422322 -0.02705664136717072 0 -0.035665688133177158 -0.027775155279095642 0 -0.034999958944684759 -0.028901329311652575 0 -0.036164353183754883 -0.027028329915850878 0 -0.036149335359119461 -0.028010152007646925 0 -0.036829417355804674 -0.028006728002023747 0 -0.036164353183754883 -0.027028329915850878 0 -0.035665688133177158 -0.027775155279095642 0 -0.036149335359119461 -0.028010152007646925 0 -0.036149335359119461 -0.028010152007646925 0 -0.036829417355804674 -0.028006728002023747 0 -0.035955384266267758 -0.028675802545517382 0 -0.035665688133177158 -0.027775155279095642 0 -0.036149335359119461 -0.028010152007646925 0 -0.035955384266267758 -0.028675802545517382 0 -0.034399843861840661 -0.030593826786426647 0 -0.035270330210641972 -0.032535498153052192 0 -0.036829417355804674 -0.028006728002023747 0 -0.035955384266267758 -0.028675802545517382 0 -0.036168344807358949 -0.02994700221005139 0 -0.035955384266267758 -0.028675802545517382 0 -0.034999958944684759 -0.028901329311652575 0 -0.036168344807358949 -0.02994700221005139 0 -0.034958808126025046 -0.032506698787192402 0 -0.034998618628732978 -0.030749482619757587 0 -0.036168344807358949 -0.02994700221005139 0 -0.034998618628732978 -0.030749482619757587 0 -0.034999958944684759 -0.028901329311652575 0 -0.036168344807358949 -0.02994700221005139 0 -0.035027561283360736 -0.032350467250760705 0 -0.035270330210641972 -0.032535498153052192 0 -0.034958808126025046 -0.032506698787192402 0 -0.032898882455962911 -0.033797582943725875 0 -0.03428725055829146 -0.034675623995004984 0 -0.032898882455962911 -0.033797582943725875 0 -0.03428725055829146 -0.034675623995004984 0 -0.032818267330720866 -0.034942347013713286 0 -0.032898882455962911 -0.033797582943725875 0 -0.032009648493728365 -0.033960727663164492 0 -0.032818267330720866 -0.034942347013713286 0 -0.033229833782855038 -0.032916923483334151 0 -0.03325542889956546 -0.032950791978096944 0 -0.034399843861840661 -0.030593826786426647 0 -0.03325542889956546 -0.032950791978096944 0 -0.033973381785317502 -0.035916191256019768 0 -0.03428725055829146 -0.034675623995004984 0 -0.032818267330720866 -0.034942347013713286 0 -0.01707799970214928 -0.032616935497555781 0 -0.016712604426002649 -0.031622428704386078 0 -0.016192219645927125 -0.032244730074734225 0 -0.016712604426002649 -0.031622428704386078 0 -0.016192219645927125 -0.032244730074734225 0 -0.01599555305565635 -0.031479687430617631 0 -0.016192219645927125 -0.032244730074734225 0 -0.01574874789190232 -0.032954544866293435 0 -0.015243273880804929 -0.031552783144036131 0 -0.016192219645927125 -0.032244730074734225 0 -0.015243273880804929 -0.031552783144036131 0 -0.01599555305565635 -0.031479687430617631 0 -0.017017532768513442 -0.033810222269464979 0 -0.01574874789190232 -0.032954544866293435 0 -0.017702055965697051 -0.035468582863278773 0 -0.016192219645927125 -0.032244730074734225 0 -0.017017532768513442 -0.033810222269464979 0 -0.01574874789190232 -0.032954544866293435 0 -0.016947502663106049 -0.033798311319642713 0 -0.017547501672021459 -0.033767465486988633 0 -0.01707799970214928 -0.032616935497555781 0 -0.017017532768513442 -0.033810222269464979 0 -0.017451265073756786 -0.032944908953630538 0 -0.01707799970214928 -0.032616935497555781 0 -0.016192219645927125 -0.032244730074734225 0 -0.017017532768513442 -0.033810222269464979 0 -0.017017532768513442 -0.033810222269464979 0 -0.017529426749134911 -0.035171591497171778 0 -0.017688846760471007 -0.034619755604159426 0 -0.017017532768513442 -0.033810222269464979 0 -0.017529426749134911 -0.035171591497171778 0 -0.017702055965697051 -0.035468582863278773 0 -0.017529426749134911 -0.035171591497171778 0 -0.017973113275999729 -0.034999904981631871 0 -0.017702055965697051 -0.035468582863278773 0 -0.017529426749134911 -0.035171591497171778 0 -0.017973113275999729 -0.034999904981631871 0 -0.017186515255473916 -0.035391853810268416 0 -0.017702055965697051 -0.035468582863278773 0 -0.019641881112297074 -0.03574862518560696 0 -0.020000227267159835 -0.034999229775674941 0 -0.017973113275999729 -0.034999904981631871 0 -0.017702055965697051 -0.035468582863278773 0 -0.020000227267159835 -0.034999229775674941 0 -0.017756310505726767 -0.035399854303407127 0 -0.017429947004765911 -0.03588088825842372 0 -0.01574874789190232 -0.032954544866293435 0 -0.017702055965697051 -0.035468582863278773 0 -0.014735598100096555 -0.033923844355882041 0 -0.017702055965697051 -0.035468582863278773 0 -0.020430203985147256 -0.037145378229701639 0 -0.019641881112297074 -0.03574862518560696 0 -0.020430203985147256 -0.037145378229701639 0 -0.019641881112297074 -0.03574862518560696 0 -0.020734104159776882 -0.035834656091128007 0 -0.019641881112297074 -0.03574862518560696 0 -0.020000227267159835 -0.034999229775674941 0 -0.020734104159776882 -0.035834656091128007 0 -0.020000227267159835 -0.034999229775674941 0 -0.020734104159776882 -0.035834656091128007 0 -0.022028258788489827 -0.035000042495984374 0 -0.020734104159776882 -0.035834656091128007 0 -0.021733414042822398 -0.03673734216444343 0 -0.022028258788489827 -0.035000042495984374 0 -0.020430203985147256 -0.037145378229701639 0 -0.020734104159776882 -0.035834656091128007 0 -0.021733414042822398 -0.03673734216444343 0 -0.020430203985147256 -0.037145378229701639 0 -0.021733414042822398 -0.03673734216444343 0 -0.022248919437150398 -0.037825021066795195 0 -0.017429947004765911 -0.03588088825842372 0 -0.018746438889724926 -0.032713356092622194 0 -0.014735598100096555 -0.033923844355882041 0 -0.014749612390677654 -0.032218389446918599 0 -0.012790959665652763 -0.032796328838549479 0 -0.01574874789190232 -0.032954544866293435 0 -0.014735598100096555 -0.033923844355882041 0 -0.014749612390677654 -0.032218389446918599 0 -0.01574874789190232 -0.032954544866293435 0 -0.014749612390677654 -0.032218389446918599 0 -0.015243273880804929 -0.031552783144036131 0 -0.014749612390677654 -0.032218389446918599 0 -0.01473060224208282 -0.031859032941503801 0 -0.015243273880804929 -0.031552783144036131 0 -0.014749612390677654 -0.032218389446918599 0 -0.014948034273981638 -0.031869902266490509 0 -0.01473060224208282 -0.031859032941503801 0 -0.01278770670797261 -0.032374763534974961 0 -0.018746438889724926 -0.032713356092622194 0 -0.021842961459848181 -0.030734244200899166 0 -0.020205299382146935 -0.029992883333382545 0 -0.015069144965434397 -0.031878757537424529 0 -0.014948034273981638 -0.031869902266490509 0 -0.01473060224208282 -0.031