<?xml version="1.0"?>
<VTKFile type="UnstructuredGrid" version="0.1" byte_order="LittleEndian">
<UnstructuredGrid>
<Piece NumberOfPoints="31898" NumberOfCells="11152">
<Points>
<DataArray type="Float64" NumberOfComponents="3" format="ascii">
-0.5 -0.5 0 -0.47620991077874902 -0.44978878706170539 0 -0.49999999999999473 -0.42132396840504388 0 -0.5 -0.5 0 -0.47160970827802529 -0.4793630013852106 0 -0.47620991077874902 -0.44978878706170539 0 -0.5 -0.5 0 -0.47160970827802529 -0.4793630013852106 0 -0.44860394795025399 -0.5 0 -0.47160970827802529 -0.4793630013852106 0 -0.44860394795025399 -0.5 0 -0.4490820238307246 -0.45820516232899983 0 -0.44860394795025399 -0.5 0 -0.4490820238307246 -0.45820516232899983 0 -0.42881687682924802 -0.47781464288736519 0 -0.4490820238307246 -0.45820516232899983 0 -0.45555437223955858 -0.42914059360647611 0 -0.4490820238307246 -0.45820516232899983 0 -0.45555437223955858 -0.42914059360647611 0 -0.43867285131603428 -0.4271457417558665 0 -0.4490820238307246 -0.45820516232899983 0 -0.43867285131603428 -0.4271457417558665 0 -0.4263356171060747 -0.44269880333887462 0 -0.47160970827802529 -0.4793630013852106 0 -0.4490820238307246 -0.45820516232899983 0 -0.47620991077874902 -0.44978878706170539 0 -0.4490820238307246 -0.45820516232899983 0 -0.47620991077874902 -0.44978878706170539 0 -0.45555437223955858 -0.42914059360647611 0 -0.47620991077874902 -0.44978878706170539 0 -0.48101336032419229 -0.41069999664450008 0 -0.45555437223955858 -0.42914059360647611 0 -0.47620991077874902 -0.44978878706170539 0 -0.49999999999999473 -0.42132396840504388 0 -0.48101336032419229 -0.41069999664450008 0 -0.49999999999999473 -0.42132396840504388 0 -0.48101336032419229 -0.41069999664450008 0 -0.5 -0.393886241813306 0 -0.49999999999999473 -0.42132396840504388 0 -0.48101336032419229 -0.41069999664450008 0 -0.5 -0.393886241813306 0 -0.47854472220918332 -0.38978458738689759 0 -0.48422759779560409 -0.37130120630367158 0 -0.5 -0.393886241813306 0 -0.5 -0.36644851522156802 0 -0.48422759779560409 -0.37130120630367158 0 -0.48101336032419229 -0.41069999664450008 0 -0.5 -0.393886241813306 0 -0.47854472220918332 -0.38978458738689759 0 -0.48101336032419229 -0.41069999664450008 0 -0.47854472220918332 -0.38978458738689759 0 -0.46202672064839212 -0.40007602488395211 0 -0.48101336032419229 -0.41069999664450008 0 -0.46202672064839212 -0.40007602488395211 0 -0.47854472220918332 -0.38978458738689759 0 -0.46725442735267431 -0.37660061361585562 0 -0.46202672064839212 -0.40007602488395211 0 -0.47854472220918332 -0.38978458738689759 0 -0.46725442735267431 -0.37660061361585562 0 -0.48422759779560409 -0.37130120630367158 0 -0.46725442735267431 -0.37660061361585562 0 -0.46202672064839212 -0.40007602488395211 0 -0.46725442735267431 -0.37660061361585562 0 -0.45645674801697989 -0.38644133236760531 0 -0.46202672064839212 -0.40007602488395211 0 -0.46725442735267431 -0.37660061361585562 0 -0.45645674801697989 -0.38644133236760531 0 -0.4540003998136638 -0.37455519391687309 0 -0.45645674801697989 -0.38644133236760531 0 -0.46202672064839212 -0.40007602488395211 0 -0.44257020456291563 -0.38918913383950271 0 -0.46202672064839212 -0.40007602488395211 0 -0.44257020456291563 -0.38918913383950271 0 -0.44727608925983742 -0.41095911152778891 0 -0.46202672064839212 -0.40007602488395211 0 -0.44257020456291563 -0.38918913383950271 0 -0.44257020456291563 -0.38918913383950271 0 -0.44727608925983742 -0.41095911152778891 0 -0.43479358559901082 -0.4041454901736512 0 -0.44257020456291563 -0.38918913383950271 0 -0.4540003998136638 -0.37455519391687309 0 -0.44172858264042247 -0.37082207246888088 0 -0.45645674801697989 -0.38644133236760531 0 -0.44257020456291563 -0.38918913383950271 0 -0.4540003998136638 -0.37455519391687309 0 -0.46202672064839212 -0.40007602488395211 0 -0.45555437223955858 -0.42914059360647611 0 -0.44727608925983742 -0.41095911152778891 0 -0.46202672064839212 -0.40007602488395211 0 -0.45555437223955858 -0.42914059360647611 0 -0.48101336032419229 -0.41069999664450008 0 -0.46202672064839212 -0.40007602488395211 0 -0.45555437223955858 -0.42914059360647611 0 -0.44727608925983742 -0.41095911152778891 0 -0.43867285131603428 -0.4271457417558665 0 -0.43676601469929588 -0.41441201227470881 0 -0.44727608925983742 -0.41095911152778891 0 -0.43676601469929588 -0.41441201227470881 0 -0.43479358559901082 -0.4041454901736512 0 -0.45555437223955858 -0.42914059360647611 0 -0.44727608925983742 -0.41095911152778891 0 -0.43867285131603428 -0.4271457417558665 0 -0.43867285131603428 -0.4271457417558665 0 -0.42681803064840879 -0.42717069814352421 0 -0.4263356171060747 -0.44269880333887462 0 -0.42681803064840879 -0.42717069814352421 0 -0.41531815884496182 -0.42985383783075998 0 -0.4263356171060747 -0.44269880333887462 0 -0.42681803064840879 -0.42717069814352421 0 -0.42624289495594048 -0.42089725947505818 0 -0.42083332353326591 -0.42146747131641099 0 -0.42681803064840879 -0.42717069814352421 0 -0.43096994786351572 -0.41951492446283251 0 -0.42624289495594048 -0.42089725947505818 0 -0.43867285131603428 -0.4271457417558665 0 -0.42681803064840879 -0.42717069814352421 0 -0.43096994786351572 -0.41951492446283251 0 -0.43867285131603428 -0.4271457417558665 0 -0.43676601469929588 -0.41441201227470881 0 -0.43096994786351572 -0.41951492446283251 0 -0.43676601469929588 -0.41441201227470881 0 -0.43096994786351572 -0.41951492446283251 0 -0.42907264086257813 -0.41311715872526122 0 -0.43676601469929588 -0.41441201227470881 0 -0.42907264086257813 -0.41311715872526122 0 -0.43479358559901082 -0.4041454901736512 0 -0.42907264086257813 -0.41311715872526122 0 -0.43479358559901082 -0.4041454901736512 0 -0.42460885511582858 -0.40417321677700252 0 -0.42907264086257813 -0.41311715872526122 0 -0.41997834854398469 -0.41180534796019508 0 -0.42907264086257813 -0.41311715872526122 0 -0.42635027777857132 -0.41543594397746519 0 -0.41997834854398469 -0.41180534796019508 0 -0.42907264086257813 -0.41311715872526122 0 -0.41997834854398469 -0.41180534796019508 0 -0.42460885511582858 -0.40417321677700252 0 -0.42635027777857132 -0.41543594397746519 0 -0.41997834854398469 -0.41180534796019508 0 -0.42635027777857132 -0.41543594397746519 0 -0.42083332353326591 -0.42146747131641099 0 -0.41997834854398469 -0.41180534796019508 0 -0.43096994786351572 -0.41951492446283251 0 -0.42624289495594048 -0.42089725947505818 0 -0.42635027777857132 -0.41543594397746519 0 -0.43096994786351572 -0.41951492446283251 0 -0.42907264086257813 -0.41311715872526122 0 -0.42635027777857132 -0.41543594397746519 0 -0.42624289495594048 -0.42089725947505818 0 -0.42635027777857132 -0.41543594397746519 0 -0.42083332353326591 -0.42146747131641099 0 -0.42083332353326591 -0.42146747131641099 0 -0.41997834854398469 -0.41180534796019508 0 -0.40992282953163789 -0.42011435591993562 0 -0.41997834854398469 -0.41180534796019508 0 -0.39756877647335259 -0.40857286797681719 0 -0.41997834854398469 -0.41180534796019508 0 -0.40992282953163789 -0.42011435591993562 0 -0.39756877647335259 -0.40857286797681719 0 -0.40992282953163789 -0.42011435591993562 0 -0.41531815884496182 -0.42985383783075998 0 -0.39591554026262499 -0.42887225451549271 0 -0.41531815884496182 -0.42985383783075998 0 -0.39591554026262499 -0.42887225451549271 0 -0.41160927495564159 -0.44339431233754628 0 -0.42083332353326591 -0.42146747131641099 0 -0.40992282953163789 -0.42011435591993562 0 -0.41531815884496182 -0.42985383783075998 0 -0.42681803064840879 -0.42717069814352421 0 -0.42083332353326591 -0.42146747131641099 0 -0.41531815884496182 -0.42985383783075998 0 -0.44257020456291563 -0.38918913383950271 0 -0.42311368847744002 -0.37830224279505142 0 -0.42594061475171041 -0.39368797999533162 0 -0.44257020456291563 -0.38918913383950271 0 -0.42311368847744002 -0.37830224279505142 0 -0.44172858264042247 -0.37082207246888088 0 -0.44257020456291563 -0.38918913383950271 0 -0.42311368847744002 -0.37830224279505142 0 -0.42311368847744002 -0.37830224279505142 0 -0.42594061475171041 -0.39368797999533162 0 -0.416587075656149 -0.38785930376960043 0 -0.44257020456291563 -0.38918913383950271 0 -0.42594061475171041 -0.39368797999533162 0 -0.43479358559901082 -0.4041454901736512 0 -0.42594061475171041 -0.39368797999533162 0 -0.43479358559901082 -0.4041454901736512 0 -0.42460885511582858 -0.40417321677700252 0 -0.41997834854398469 -0.41180534796019508 0 -0.41325908582185972 -0.39811010703057192 0 -0.39770572831670092 -0.39911486077581648 0 -0.41997834854398469 -0.41180534796019508 0 -0.39770572831670092 -0.39911486077581648 0 -0.42594061475171041 -0.39368797999533162 0 -0.42460885511582858 -0.40417321677700252 0 -0.41325908582185972 -0.39811010703057192 0 -0.41997834854398469 -0.41180534796019508 0 -0.42460885511582858 -0.40417321677700252 0 -0.41325908582185972 -0.39811010703057192 0 -0.42594061475171041 -0.39368797999533162 0 -0.41325908582185972 -0.39811010703057192 0 -0.416587075656149 -0.38785930376960043 0 -0.41325908582185972 -0.39811010703057192 0 -0.416587075656149 -0.38785930376960043 0 -0.40403491357358612 -0.38133688525744702 0 -0.42311368847744002 -0.37830224279505142 0 -0.40403491357358612 -0.38133688525744702 0 -0.40365717239196519 -0.36741535175059892 0 -0.42311368847744002 -0.37830224279505142 0 -0.416587075656149 -0.38785930376960043 0 -0.40403491357358612 -0.38133688525744702 0 -0.40403491357358612 -0.38133688525744702 0 -0.39190790742475001 -0.38540387676521748 0 -0.39770572831670092 -0.39911486077581648 0 -0.40403491357358612 -0.38133688525744702 0 -0.39190790742475001 -0.38540387676521748 0 -0.3904578797192948 -0.37473938743617019 0 -0.41325908582185972 -0.39811010703057192 0 -0.40403491357358612 -0.38133688525744702 0 -0.39770572831670092 -0.39911486077581648 0 -0.39770572831670092 -0.39911486077581648 0 -0.37543310808941849 -0.38642437359143528 0 -0.39770572831670092 -0.39911486077581648 0 -0.37515920440272033 -0.40534038799344108 0 -0.37543310808941849 -0.38642437359143528 0 -0.39770572831670092 -0.39911486077581648 0 -0.37515920440272033 -0.40534038799344108 0 -0.39756877647335259 -0.40857286797681719
[...]
<PointData Scalars="" Vectors="displacement," Tensors="">
<DataArray type="Float64" Name="displacement" NumberOfComponents="3" format="ascii">
0.094993144675717386 0.094994650140732551 0 0.08856599717456623 0.093305488575795015 0 0.080080319106015402 0.0949873400353652 0 0.094993144675717386 0.094994650140732551 0 0.093483855615815084 0.091534998641486162 0 0.08856599717456623 0.093305488575795015 0 0.094993144675717386 0.094994650140732551 0 0.093483855615815084 0.091534998641486162 0 0.094994677040076747 0.085242951653592108 0 0.093483855615815084 0.091534998641486162 0 0.094994677040076747 0.085242951653592108 0 0.094058550755941259 0.090210399659058207 0 0.094994677040076747 0.085242951653592108 0 0.094058550755941259 0.090210399659058207 0 0.095301320921118773 0.083490485977220391 0 0.092152886555354294 0.092744654098414384 0 0.091784736784113391 0.093488103732480787 0 0.094058550755941259 0.090210399659058207 0 0.10219305646603201 0.091031026163638895 0 0.1028293493011998 0.086974309295474256 0 0.094058550755941259 0.090210399659058207 0 0.1028293493011998 0.086974309295474256 0 0.099420104759932515 0.083853853777720727 0 0.093483855615815084 0.091534998641486162 0 0.094058550755941259 0.090210399659058207 0 0.08856599717456623 0.093305488575795015 0 0.094058550755941259 0.090210399659058207 0 0.08856599717456623 0.093305488575795015 0 0.086435786789358496 0.094941847127016005 0 0.08856599717456623 0.093305488575795015 0 0.082425722135822554 0.093984292674387945 0 0.086435786789358496 0.094941847127016005 0 0.08856599717456623 0.093305488575795015 0 0.080080319106015402 0.0949873400353652 0 0.082425722135822554 0.093984292674387945 0 0.080051528584826448 0.094999988828334242 0 0.078030397223321543 0.098583330756454798 0 0.074838399057730501 0.094999984645114818 0 0.080054299100495135 0.095001187425254194 0 0.081324614072423418 0.095451889644007665 0 0.074838399057730501 0.094999984645114818 0 0.07406630011771756 0.099048457812154211 0 0.070553336672144626 0.097977120845587795 0 0.074838399057730501 0.094999984645114818 0 0.069625225184950845 0.094999982087499893 0 0.070553336672144626 0.097977120845587795 0 0.078030397223321543 0.098583330756454798 0 0.074838399057730501 0.094999984645114818 0 0.07406630011771756 0.099048457812154211 0 0.078030397223321543 0.098583330756454798 0 0.07406630011771756 0.099048457812154211 0 0.076025205815142063 0.10215738715396394 0 0.081324614072423418 0.095451889644007665 0 0.084085946433776662 0.093777595858162657 0 0.07406630011771756 0.099048457812154211 0 0.07156609506609557 0.10118203245958925 0 0.076025205815142063 0.10215738715396394 0 0.07406630011771756 0.099048457812154211 0 0.07156609506609557 0.10118203245958925 0 0.070553336672144626 0.097977120845587795 0 0.072065876333300749 0.096195277693936806 0 0.084085946433776662 0.093777595858162657 0 0.065980160896853851 0.10038000319616039 0 0.065765301912733748 0.10028409948605896 0 0.065594560096465637 0.10036228896176765 0 0.065980160896853851 0.10038000319616039 0 0.065765301912733748 0.10028409948605896 0 0.06583373105065711 0.10031025975842485 0 0.065765301912733748 0.10028409948605896 0 0.065594560096465637 0.10036228896176765 0 0.065662212860896962 0.10008261359980934 0 0.10789728634430391 0.091492186778074538 0 0.10952020432192736 0.087692944575580897 0 0.10591305906888429 0.088779246342536533 0 0.084085946433776662 0.093777595858162657 0 0.08482687643168102 0.092147298206273015 0 0.10952020432192736 0.087692944575580897 0 0.10591305906888429 0.088779246342536533 0 0.10707453254066245 0.086343720226275747 0 0.065662212860896962 0.10008261359980934 0 0.06583373105065711 0.10031025975842485 0 0.065851118938715314 0.1000718921407593 0 0.065765301912733748 0.10028409948605896 0 0.065662212860896962 0.10008261359980934 0 0.06583373105065711 0.10031025975842485 0 0.10789728634430391 0.091492186778074538 0 0.10219305646603201 0.091031026163638895 0 0.10591305906888429 0.088779246342536533 0 0.084085946433776662 0.093777595858162657 0 0.091784736784113391 0.093488103732480787 0 0.082425722135822554 0.093984292674387945 0 0.08201247420635864 0.095403526184257015 0 0.086435786789358496 0.094941847127016005 0 0.10591305906888429 0.088779246342536533 0 0.1028293493011998 0.086974309295474256 0 0.10531811072551842 0.08665568096168097 0 0.10591305906888429 0.088779246342536533 0 0.10531811072551842 0.08665568096168097 0 0.10707453254066245 0.086343720226275747 0 0.10219305646603201 0.091031026163638895 0 0.10591305906888429 0.088779246342536533 0 0.1028293493011998 0.086974309295474256 0 0.1028293493011998 0.086974309295474256 0 0.1027409926255633 0.084307744175190269 0 0.099420104759932515 0.083853853777720727 0 0.1027409926255633 0.084307744175190269 0 0.10215954613760113 0.081806924535010178 0 0.099420104759932515 0.083853853777720727 0 0.1027409926255633 0.084307744175190269 0 0.10404180670922912 0.084298858528990911 0 0.10390894910550981 0.083071650408136105 0 0.1027409926255633 0.084307744175190269 0 0.10434123917331173 0.085397481785785767 0 0.10404180670922912 0.084298858528990911 0 0.1028293493011998 0.086974309295474256 0 0.1027409926255633 0.084307744175190269 0 0.10434123917331173 0.085397481785785767 0 0.1028293493011998 0.086974309295474256 0 0.10531811072551842 0.08665568096168097 0 0.10434123917331173 0.085397481785785767 0 0.10531811072551842 0.08665568096168097 0 0.10434123917331173 0.085397481785785767 0 0.10568694013795744 0.085180716409150661 0 0.10531811072551842 0.08665568096168097 0 0.10568694013795744 0.085180716409150661 0 0.10707453254066245 0.086343720226275747 0 0.10568694013795744 0.085180716409150661 0 0.10707453254066245 0.086343720226275747 0 0.10704741726538915 0.084714642341050195 0 0.10209005679744561 0.07950950722167717 0 0.10203213402642841 0.078854980222677062 0 0.10568694013795744 0.085180716409150661 0 0.10517841718095315 0.084421817100788818 0 0.10615241261212895 0.08274656008268369 0 0.10568694013795744 0.085180716409150661 0 0.10600654125626363 0.084050368946293641 0 0.10704741726538915 0.084714642341050195 0 0.10202327431871119 0.079105445305825417 0 0.10203213402642841 0.078854980222677062 0 0.10517841718095315 0.084421817100788818 0 0.10390894910550981 0.083071650408136105 0 0.10598933650114556 0.082889507667468887 0 0.10434123917331173 0.085397481785785767 0 0.10404180670922912 0.084298858528990911 0 0.10517841718095315 0.084421817100788818 0 0.10434123917331173 0.085397481785785767 0 0.10568694013795744 0.085180716409150661 0 0.10517841718095315 0.084421817100788818 0 0.10404180670922912 0.084298858528990911 0 0.10517841718095315 0.084421817100788818 0 0.10390894910550981 0.083071650408136105 0 0.10390894910550981 0.083071650408136105 0 0.10598933650114556 0.082889507667468887 0 0.10419777632722635 0.080722980022217547 0 0.10203213402642841 0.078854980222677062 0 0.10267843883323113 0.075425023164959581 0 0.10598933650114556 0.082889507667468887 0 0.10419777632722635 0.080722980022217547 0 0.10657931337214373 0.078145713446060763 0 0.10419777632722635 0.080722980022217547 0 0.10215954613760113 0.081806924535010178 0 0.10240186146004646 0.077817391012008699 0 0.10215954613760113 0.081806924535010178 0 0.10240186146004646 0.077817391012008699 0 0.099463930545955467 0.080996823055397571 0 0.10390894910550981 0.083071650408136105 0 0.10419777632722635 0.080722980022217547 0 0.10215954613760113 0.081806924535010178 0 0.1027409926255633 0.084307744175190269 0 0.10390894910550981 0.083071650408136105 0 0.10215954613760113 0.081806924535010178 0 0.10952020432192736 0.087692944575580897 0 0.11059860386428359 0.084559693506739461 0 0.10857826373193691 0.084977262430748449 0 0.065662212860896962 0.10008261359980934 0 0.065723443681199312 0.099658614207468368 0 0.065851118938715314 0.1000718921407593 0 0.08482687643168102 0.092147298206273015 0 0.084722820116321873 0.089198271690570888 0 0.11059860386428359 0.084559693506739461 0 0.10857826373193691 0.084977262430748449 0 0.10926590350868504 0.083669727575000546 0 0.10952020432192736 0.087692944575580897 0 0.10857826373193691 0.084977262430748449 0 0.10707453254066245 0.086343720226275747 0 0.10857826373193691 0.084977262430748449 0 0.10707453254066245 0.086343720226275747 0 0.10704741726538915 0.084714642341050195 0 0.10600654125626363 0.084050368946293641 0 0.10790843614062882 0.083201228562839333 0 0.10783925646893999 0.0812446737467825 0 0.10203213402642841 0.078854980222677062 0 0.10138954646787436 0.075508417526433558 0 0.10857826373193691 0.084977262430748449 0 0.10704741726538915 0.084714642341050195 0 0.10790843614062882 0.083201228562839333 0 0.10600654125626363 0.084050368946293641 0 0.10704741726538915 0.084714642341050195 0 0.10790843614062882 0.083201228562839333 0 0.10857826373193691 0.084977262430748449 0 0.10790843614062882 0.083201228562839333 0 0.10926590350868504 0.083669727575000546 0 0.10790843614062882 0.083201228562839333 0 0.10926590350868504 0.083669727575000546 0 0.10996523749984674 0.08198282347022709 0 0.11059860386428359 0.084559693506739461 0 0.10996523749984674 0.08198282347022709 0 0.11180164033539633 0.081939623831092892 0 0.11059860386428359 0.084559693506739461 0 0.10926590350868504 0.083669727575000546 0 0.10996523749984674 0.08198282347022709 0 0.10996523749984674 0.08198282347022709 0 0.10941055951607345 0.0806548967978995 0 0.10783925646893999 0.0812446737467825 0 0.10996523749984674 0.08198282347022709 0 0.10941055951607345 0.0806548967978995 0 0.11050495123423026 0.080520079039957504 0 0.10790843614062882 0.083201228562839333 0 0.10996523749984674 0.08198282347022709 0 0.10783925646893999 0.0812446737467825 0 0.10138954646787436 0.075508417526433558 0 0.099033889806997996 0.07025027237339157 0 0.10214066737083669 0.074231834425800072 0 0.10133621066801168 0.07131840400735269 0 0.10376506248373962 0.071351422132352141 0 0.10214066737083669 0.074231834425800072 0 0.10133621066801168 0.07131840400735269 0 0.1009215208420768 0.074215950234276629 0 0.10301317704529873 0.070530531076069741 0 0.099033889806997996 0.07025027237339157 0 0.10929895680052489 0.0789333538485439 0 0.11050495123423026 0.080520079039957504 0 0.11101507206808682 0.079031040448999126 0 0.10941055951607345 0.0806548967978995 0 0.10929895680052489 0.0789333538485439 0 0.11050495123423026 0.080520079039957504 0 0.099033889806997996 0.07025027237339157 0 0.093733493914788468 0.071944423174470182 0 0.10941055951607345 0.0806548967978995 0 0.10783925646893999 0.0812446737467825 0 0.10929895680052489 0.0789333538485439 0 0.10051125466961408 0.077125390148244752 0 0.10214066737083669 0.074231834425800072 0 0.1009215208420768 0.074215950234276629 0 0.10419777632722635 0.080722980022217547 0 0.10240186146004646 0.077817391012008699 0 0.10657931337214373 0.078145713446060763 0 0.10722053126363525 0.073560595299748968 0 0.10240186146004646 0.077817391012008699 0 0.10657931337214373 0.078145713446060763 0 0.10301317704529873 0.070530531076069741 0 0.10267843883323113 0.075425023164959581 0 0.10722053126363525 0.073560595299748968 0 0.10240186146004646 0.077817391012008699 0 0.1010696288462898 0.073500309959738205 0 0.10240186146004646 0.077817391012008699 0 0.098825083104979144 0.077219074713068228 0 0.1010696288462898 0.073500309959738205 0 0.098825083104979144 0.077219074713068228 0 0.094984867678243975 0.073422230421657353 0 0.1010696288462898 0.073500309959738205 0 0.10240186146004646 0.077817391012008699 0 0.098825083104979144 0.077219074713068228 0 0.099463930545955467 0.080996823055397571 0 0.098825083104979144 0.077219074713068228 0 0.096606202092239052 0.079434332093789251 0 0.099463930545955467 0.080996823055397571 0 0.097807042669952785 0.079607028159485685 0 0.096624994495988464 0.076473679986235096 0 0.096565772414562046 0.080421527455522238 0 0.10287571416321706 0.07657435348957084 0 0.10214274947110519 0.073857119991699513 0 0.098979978297853974 0.074480732871698638 0 0.099564568096415632 0.075559483965108268 0 0.09740715938551707 0.074274100995068509 0 0.099564568096415632 0.075559483965108268 0 0.099566875869314272 0.075598051965012361 0 0.099564568096415632 0.075559483965108268 0 0.099572431858332991 0.074004222326888899 0 0.098825083104979144 0.077219074713068228 0 0.096606202092239052 0.079434332093789251 0 0.095796265630469279 0.076427065794988466 0 0.098825083104979144 0.077219074713068228 0 0.095796265630469279 0.076427065794988466 0 0.094984867678243975 0.073422230421657353 0 0.099572431858332991 0.074004222326888899 0 0.099533369919423978 0.071620549726447921 0 0.10214274947110519 0.073857119991699513 0 0.10030103760303638 0.072872226862356282 0 0.10140901396928864 0.071119472102451384 0 0.10030103760303638 0.072872226862356282 0 0.098979978297853974 0.074480732871698638 0 0.099248029757583289 0.071075934789130324 0 0.098979978297853974 0.074480732871698638 0 0.096926303317332707 0.070753947865319328 0 0.099248029757583289 0.071075934789130324 0 0.10030103760303638 0.072872226862356282 0 0.099248029757583289 0.071075934789130324 0 0.10140901396928864 0.071119472102451384 0 0.10214274947110519 0.073857119991699513 0 0.10030103760303638 0.072872226862356282 0 0.098979978297853974 0.074480732871698638 0 0.095001794276238047 0.072382300490482554 0 0.09740715938551707 0.074274100995068509 0 0.095000008851163109 0.072379844996914466 0 0.098979978297853974 0.074480732871698638 0 0.096926303317332707 0.070753947865319328 0 0.094999683784830605 0.072383207170284306 0 0.096624994495988464 0.076473679986235096 0 0.094997643331930268 0.077897510417519453 0 0.096624994495988464 0.076473679986235096 0 0.096565772414562046 0.080421527455522238 0 0.094997643331930268 0.077897510417519453 0 0.096565772414562046 0.080421527455522238 0 0.094997643331930268 0.077897510417519453 0 0.095301320921118773 0.083490485977220391 0 0.094994677040076747 0.085242951653592108 0 0.094997643331930268 0.077897510417519453 0 0.095301320921118773 0.083490485977220391 0 0.096565772414562046 0.080421527455522238 0 0.095301320921118773 0.083490485977220391 0 0.096387803607692196 0.083710097875322145 0 0.094058550755941259 0.090210399659058207 0 0.095301320921118773 0.083490485977220391 0 0.096387803607692196 0.083710097875322145 0 0.094058550755941259 0.090210399659058207 0 0.096387803607692196 0.083710097875322145 0 0.099420104759932515 0.083853853777720727 0 0.096387803607692196 0.083710097875322145 0 0.099420104759932515 0.083853853777720727 0 0.09781969144823284 0.081724765532674673 0 0.099420104759932515 0.083853853777720727 0 0.099463930545955467 0.080996823055397571 0 0.09781969144823284 0.081724765532674673 0 0.10215954613760113 0.081806924535010178 0 0.099420104759932515 0.083853853777720727 0 0.099463930545955467 0.080996823055397571 0 0.097705423580954867 0.079626282084408126 0 0.099463930545955467 0.080996823055397571 0 0.09778461157525048 0.080000332929051482 0 0.099463930545955467 0.080996823055397571 0 0.09778461157525048 0.080000332929051482 0 0.09781969144823284 0.081724765532674673 0 0.099564568096415632 0.075559483965108268 0 0.099759178056755507 0.076188002284069203 0 0.096565772414562046 0.080421527455522238 0 0.09778461157525048 0.080000332929051482 0 0.09781969144823284 0.081724765532674673 0 0.097807042669952785 0.079607028159485685 0 0.096565772414562046 0.080421527455522238 0 0.09778461157525048 0.080000332929051482 0 0.096565772414562046 0.080421527455522238 0 0.096387803607692196 0.083710097875322145 0 0.09781969144823284 0.081724765532674673 0 0.040334570367792727 0.099519746715895058 0 0.035883332939638059 0.094078301088342836 0 0.04777606964400239 0.10254548907645833 0 0.047519130553250709 0.10835279144707329 0 0.044436406221195664 0.10391301663802782 0 0.052197716594696332 0.10388576548867456 0 0.04860919587931023 0.10269813640866983 0 0.048303076396356677 0.1067399194186181 0 0.052197716594696332 0.10388576548867456 0 0.052000669663125838 0.10740127737729854 0 0.048303076396356677 0.1067399194186181 0 0.052197716594696332 0.10388576548867456 0 0.055465830523822042 0.10540293406240717 0 0.052000669663125838 0.10740127737729854 0 0.052197716594696332 0.10388576548867456 0 0.050833072839899816 0.10076964138934506 0 0.053676598334422211 0.10041685064263649 0 0.052197716594696332 0.10388576548867456 0 0.050833072839899816 0.10076964138934506 0 0.04860919587931023 0.10269813640866983 0 0.040334570367792727 0.099519746715895058 0 0.041784680576959242 0.09934209528512461 0 0.050833072839899816 0.10076964138934506 0 0.04860919587931023 0.10269813640866983 0 0.048691554050512072 0.098460881709309472 0 0.04777606964400239 0.10254548907645833 0 0.048691554050512072 0.098460881709309472 0 0.04380515172357153 0.099453041911416878 0 0.048691554050512072 0.098460881709309472 0 0.048772079113572918 0.094999139580600994 0 0.051974051763795028 0.097765367776016326 0 0.048691554050512072 0.098460881709309472 0 0.048772079113572918 0.094999139580600994 0 0.045570425450074191 0.09682521211007955 0 0.048772079113572918 0.094999139580600994 0 0.051974051763795028 0.097765367776016326 0 0.053985565839239802 0.094999878859631626 0 0.050833072839899816 0.10076964138934506 0 0.048691554050512072 0.098460881709309472 0 0.051974051763795028 0.097765367776016326 0 0.050833072839899816 0.10076964138934506 0 0.051974051763795028 0.097765367776016326 0 0.053676598334422211 0.10041685064263649 0 0.053676598334422211 0.10041685064263649 0 0.055386846594273294 0.097482281546763236 0 0.056590510580497584 0.099974415219043974 0 0.051974051763795028 0.097765367776016326 0 0.053676598334422211 0.10041685064263649 0 0.055386846594273294 0.097482281546763236 0 0.053985565839239802 0.094999878859631626 0 0.055386846594273294 0.097482281546763236 0 0.059198665433472429 0.094999839771844216 0 0.051974051763795028 0.097765367776016326 0 0.053985565839239802 0.094999878859631626 0 0.055386846594273294 0.097482281546763236 0 0.055386846594273294 0.097482281546763236 0 0.059198665433472429 0.094999839771844216 0 0.058059361845001635 0.098047608534853614 0 0.058059361845001635 0.098047608534853614 0 0.056590510580497584 0.099974415219043974 0 0.059593082845576968 0.099858779916390181 0 0.055386846594273294 0.097482281546763236 0 0.058059361845001635 0.098047608534853614 0 0.056590510580497584 0.099974415219043974 0 0.056590510580497584 0.099974415219043974 0 0.058066252138866715 0.10181127715148115 0 0.059593082845576968 0.099858779916390181 0 0.058066252138866715 0.10181127715148115 0 0.057473803089908675 0.10426491244878885 0 0.059388757190370602 0.10331544006829846 0 0.058066252138866715 0.10181127715148115 0 0.055521324214683948 0.1026083297038481 0 0.057473803089908675 0.10426491244878885 0 0.056590510580497584 0.099974415219043974 0 0.058066252138866715 0.10181127715148115 0 0.055521324214683948 0.1026083297038481 0 0.052197716594696332 0.10388576548867456 0 0.053676598334422211 0.10041685064263649 0 0.055521324214683948 0.1026083297038481 0 0.053676598334422211 0.10041685064263649 0 0.056590510580497584 0.099974415219043974 0 0.055521324214683948 0.1026083297038481 0 0.052197716594696332 0.10388576548867456 0 0.055521324214683948 0.1026083297038481 0 0.055465830523822042 0.10540293406240717 0 0.055521324214683948 0.1026083297038481 0 0.055465830523822042 0.10540293406240717 0 0.057473803089908675 0.10426491244878885 0 0.055465830523822042 0.10540293406240717 0 0.057473803089908675 0.10426491244878885 0 0.057585224516667075 0.10646190426465413 0 0.057473803089908675 0.10426491244878885 0 0.060188249537737201 0.10553969721769341 0 0.057585224516667075 0.10646190426465413 0 0.057473803089908675 0.10426491244878885 0 0.059388757190370602 0.10331544006829846 0 0.060188249537737201 0.10553969721769341 0 0.054261068471365165 0.098327826525222567 0 0.054880850974674648 0.09935000962329614 0 0.06029181219294228 0.1051486256849425 0 0.063064092346077752 0.10534125965790327 0 0.061546283737838971 0.10242810275148848 0 0.059388757190370602 0.10331544006829846 0 0.060188249537737201 0.10553969721769341 0 0.061546283737838971 0.10242810275148848 0 0.062943212938179463 0.10343344511