<?xml version="1.0"?>
<VTKFile type="UnstructuredGrid" version="0.1" byte_order="LittleEndian">
<UnstructuredGrid>
<Piece NumberOfPoints="31898" NumberOfCells="11152">
<Points>
<DataArray type="Float64" NumberOfComponents="3" format="ascii">
-0.5 -0.5 0 -0.47620991077874902 -0.44978878706170539 0 -0.49999999999999473 -0.42132396840504388 0 -0.5 -0.5 0 -0.47160970827802529 -0.4793630013852106 0 -0.47620991077874902 -0.44978878706170539 0 -0.5 -0.5 0 -0.47160970827802529 -0.4793630013852106 0 -0.44860394795025399 -0.5 0 -0.47160970827802529 -0.4793630013852106 0 -0.44860394795025399 -0.5 0 -0.4490820238307246 -0.45820516232899983 0 -0.44860394795025399 -0.5 0 -0.4490820238307246 -0.45820516232899983 0 -0.42881687682924802 -0.47781464288736519 0 -0.4490820238307246 -0.45820516232899983 0 -0.45555437223955858 -0.42914059360647611 0 -0.4490820238307246 -0.45820516232899983 0 -0.45555437223955858 -0.42914059360647611 0 -0.43867285131603428 -0.4271457417558665 0 -0.4490820238307246 -0.45820516232899983 0 -0.43867285131603428 -0.4271457417558665 0 -0.4263356171060747 -0.44269880333887462 0 -0.47160970827802529 -0.4793630013852106 0 -0.4490820238307246 -0.45820516232899983 0 -0.47620991077874902 -0.44978878706170539 0 -0.4490820238307246 -0.45820516232899983 0 -0.47620991077874902 -0.44978878706170539 0 -0.45555437223955858 -0.42914059360647611 0 -0.47620991077874902 -0.44978878706170539 0 -0.48101336032419229 -0.41069999664450008 0 -0.45555437223955858 -0.42914059360647611 0 -0.47620991077874902 -0.44978878706170539 0 -0.49999999999999473 -0.42132396840504388 0 -0.48101336032419229 -0.41069999664450008 0 -0.49999999999999473 -0.42132396840504388 0 -0.48101336032419229 -0.41069999664450008 0 -0.5 -0.393886241813306 0 -0.49999999999999473 -0.42132396840504388 0 -0.48101336032419229 -0.41069999664450008 0 -0.5 -0.393886241813306 0 -0.47854472220918332 -0.38978458738689759 0 -0.48422759779560409 -0.37130120630367158 0 -0.5 -0.393886241813306 0 -0.5 -0.36644851522156802 0 -0.48422759779560409 -0.37130120630367158 0 -0.48101336032419229 -0.41069999664450008 0 -0.5 -0.393886241813306 0 -0.47854472220918332 -0.38978458738689759 0 -0.48101336032419229 -0.41069999664450008 0 -0.47854472220918332 -0.38978458738689759 0 -0.46202672064839212 -0.40007602488395211 0 -0.48101336032419229 -0.41069999664450008 0 -0.46202672064839212 -0.40007602488395211 0 -0.47854472220918332 -0.38978458738689759 0 -0.46725442735267431 -0.37660061361585562 0 -0.46202672064839212 -0.40007602488395211 0 -0.47854472220918332 -0.38978458738689759 0 -0.46725442735267431 -0.37660061361585562 0 -0.48422759779560409 -0.37130120630367158 0 -0.46725442735267431 -0.37660061361585562 0 -0.46202672064839212 -0.40007602488395211 0 -0.46725442735267431 -0.37660061361585562 0 -0.45645674801697989 -0.38644133236760531 0 -0.46202672064839212 -0.40007602488395211 0 -0.46725442735267431 -0.37660061361585562 0 -0.45645674801697989 -0.38644133236760531 0 -0.4540003998136638 -0.37455519391687309 0 -0.45645674801697989 -0.38644133236760531 0 -0.46202672064839212 -0.40007602488395211 0 -0.44257020456291563 -0.38918913383950271 0 -0.46202672064839212 -0.40007602488395211 0 -0.44257020456291563 -0.38918913383950271 0 -0.44727608925983742 -0.41095911152778891 0 -0.46202672064839212 -0.40007602488395211 0 -0.44257020456291563 -0.38918913383950271 0 -0.44257020456291563 -0.38918913383950271 0 -0.44727608925983742 -0.41095911152778891 0 -0.43479358559901082 -0.4041454901736512 0 -0.44257020456291563 -0.38918913383950271 0 -0.4540003998136638 -0.37455519391687309 0 -0.44172858264042247 -0.37082207246888088 0 -0.45645674801697989 -0.38644133236760531 0 -0.44257020456291563 -0.38918913383950271 0 -0.4540003998136638 -0.37455519391687309 0 -0.46202672064839212 -0.40007602488395211 0 -0.45555437223955858 -0.42914059360647611 0 -0.44727608925983742 -0.41095911152778891 0 -0.46202672064839212 -0.40007602488395211 0 -0.45555437223955858 -0.42914059360647611 0 -0.48101336032419229 -0.41069999664450008 0 -0.46202672064839212 -0.40007602488395211 0 -0.45555437223955858 -0.42914059360647611 0 -0.44727608925983742 -0.41095911152778891 0 -0.43867285131603428 -0.4271457417558665 0 -0.43676601469929588 -0.41441201227470881 0 -0.44727608925983742 -0.41095911152778891 0 -0.43676601469929588 -0.41441201227470881 0 -0.43479358559901082 -0.4041454901736512 0 -0.45555437223955858 -0.42914059360647611 0 -0.44727608925983742 -0.41095911152778891 0 -0.43867285131603428 -0.4271457417558665 0 -0.43867285131603428 -0.4271457417558665 0 -0.42681803064840879 -0.42717069814352421 0 -0.4263356171060747 -0.44269880333887462 0 -0.42681803064840879 -0.42717069814352421 0 -0.41531815884496182 -0.42985383783075998 0 -0.4263356171060747 -0.44269880333887462 0 -0.42681803064840879 -0.42717069814352421 0 -0.42624289495594048 -0.42089725947505818 0 -0.42083332353326591 -0.42146747131641099 0 -0.42681803064840879 -0.42717069814352421 0 -0.43096994786351572 -0.41951492446283251 0 -0.42624289495594048 -0.42089725947505818 0 -0.43867285131603428 -0.4271457417558665 0 -0.42681803064840879 -0.42717069814352421 0 -0.43096994786351572 -0.41951492446283251 0 -0.43867285131603428 -0.4271457417558665 0 -0.43676601469929588 -0.41441201227470881 0 -0.43096994786351572 -0.41951492446283251 0 -0.43676601469929588 -0.41441201227470881 0 -0.43096994786351572 -0.41951492446283251 0 -0.42907264086257813 -0.41311715872526122 0 -0.43676601469929588 -0.41441201227470881 0 -0.42907264086257813 -0.41311715872526122 0 -0.43479358559901082 -0.4041454901736512 0 -0.42907264086257813 -0.41311715872526122 0 -0.43479358559901082 -0.4041454901736512 0 -0.42460885511582858 -0.40417321677700252 0 -0.42907264086257813 -0.41311715872526122 0 -0.41997834854398469 -0.41180534796019508 0 -0.42907264086257813 -0.41311715872526122 0 -0.42635027777857132 -0.41543594397746519 0 -0.41997834854398469 -0.41180534796019508 0 -0.42907264086257813 -0.41311715872526122 0 -0.41997834854398469 -0.41180534796019508 0 -0.42460885511582858 -0.40417321677700252 0 -0.42635027777857132 -0.41543594397746519 0 -0.41997834854398469 -0.41180534796019508 0 -0.42635027777857132 -0.41543594397746519 0 -0.42083332353326591 -0.42146747131641099 0 -0.41997834854398469 -0.41180534796019508 0 -0.43096994786351572 -0.41951492446283251 0 -0.42624289495594048 -0.42089725947505818 0 -0.42635027777857132 -0.41543594397746519 0 -0.43096994786351572 -0.41951492446283251 0 -0.42907264086257813 -0.41311715872526122 0 -0.42635027777857132 -0.41543594397746519 0 -0.42624289495594048 -0.42089725947505818 0 -0.42635027777857132 -0.41543594397746519 0 -0.42083332353326591 -0.42146747131641099 0 -0.42083332353326591 -0.42146747131641099 0 -0.41997834854398469 -0.41180534796019508 0 -0.40992282953163789 -0.42011435591993562 0 -0.41997834854398469 -0.41180534796019508 0 -0.39756877647335259 -0.40857286797681719 0 -0.41997834854398469 -0.41180534796019508 0 -0.40992282953163789 -0.42011435591993562 0 -0.39756877647335259 -0.40857286797681719 0 -0.40992282953163789 -0.42011435591993562 0 -0.41531815884496182 -0.42985383783075998 0 -0.39591554026262499 -0.42887225451549271 0 -0.41531815884496182 -0.42985383783075998 0 -0.39591554026262499 -0.42887225451549271 0 -0.41160927495564159 -0.44339431233754628 0 -0.42083332353326591 -0.42146747131641099 0 -0.40992282953163789 -0.42011435591993562 0 -0.41531815884496182 -0.42985383783075998 0 -0.42681803064840879 -0.42717069814352421 0 -0.42083332353326591 -0.42146747131641099 0 -0.41531815884496182 -0.42985383783075998 0 -0.44257020456291563 -0.38918913383950271 0 -0.42311368847744002 -0.37830224279505142 0 -0.42594061475171041 -0.39368797999533162 0 -0.44257020456291563 -0.38918913383950271 0 -0.42311368847744002 -0.37830224279505142 0 -0.44172858264042247 -0.37082207246888088 0 -0.44257020456291563 -0.38918913383950271 0 -0.42311368847744002 -0.37830224279505142 0 -0.42311368847744002 -0.37830224279505142 0 -0.42594061475171041 -0.39368797999533162 0 -0.416587075656149 -0.38785930376960043 0 -0.44257020456291563 -0.38918913383950271 0 -0.42594061475171041 -0.39368797999533162 0 -0.43479358559901082 -0.4041454901736512 0 -0.42594061475171041 -0.39368797999533162 0 -0.43479358559901082 -0.4041454901736512 0 -0.42460885511582858 -0.40417321677700252 0 -0.41997834854398469 -0.41180534796019508 0 -0.41325908582185972 -0.39811010703057192 0 -0.39770572831670092 -0.39911486077581648 0 -0.41997834854398469 -0.41180534796019508 0 -0.39770572831670092 -0.39911486077581648 0 -0.42594061475171041 -0.39368797999533162 0 -0.42460885511582858 -0.40417321677700252 0 -0.41325908582185972 -0.39811010703057192 0 -0.41997834854398469 -0.41180534796019508 0 -0.42460885511582858 -0.40417321677700252 0 -0.41325908582185972 -0.39811010703057192 0 -0.42594061475171041 -0.39368797999533162 0 -0.41325908582185972 -0.39811010703057192 0 -0.416587075656149 -0.38785930376960043 0 -0.41325908582185972 -0.39811010703057192 0 -0.416587075656149 -0.38785930376960043 0 -0.40403491357358612 -0.38133688525744702 0 -0.42311368847744002 -0.37830224279505142 0 -0.40403491357358612 -0.38133688525744702 0 -0.40365717239196519 -0.36741535175059892 0 -0.42311368847744002 -0.37830224279505142 0 -0.416587075656149 -0.38785930376960043 0 -0.40403491357358612 -0.38133688525744702 0 -0.40403491357358612 -0.38133688525744702 0 -0.39190790742475001 -0.38540387676521748 0 -0.39770572831670092 -0.39911486077581648 0 -0.40403491357358612 -0.38133688525744702 0 -0.39190790742475001 -0.38540387676521748 0 -0.3904578797192948 -0.37473938743617019 0 -0.41325908582185972 -0.39811010703057192 0 -0.40403491357358612 -0.38133688525744702 0 -0.39770572831670092 -0.39911486077581648 0 -0.39770572831670092 -0.39911486077581648 0 -0.37543310808941849 -0.38642437359143528 0 -0.39770572831670092 -0.39911486077581648 0 -0.37515920440272033 -0.40534038799344108 0 -0.37543310808941849 -0.38642437359143528 0 -0.39770572831670092 -0.39911486077581648 0 -0.37515920440272033 -0.40534038799344108 0 -0.39756877647335259 -0.40857286797681719
[...]
<PointData Scalars="" Vectors="displacement," Tensors="">
<DataArray type="Float64" Name="displacement" NumberOfComponents="3" format="ascii">
4.6160323326244254e-06 0.09499131404438925 0 0.00046324528812390742 0.08881848917743311 0 -9.7678549253100039e-06 0.080073701685031889 0 4.6160323326244254e-06 0.09499131404438925 0 0.00042712036512848757 0.09283209458034232 0 0.00046324528812390742 0.08881848917743311 0 4.6160323326244254e-06 0.09499131404438925 0 0.00042712036512848757 0.09283209458034232 0 -1.5212542878181255e-08 0.094997684716517775 0 0.00042712036512848757 0.09283209458034232 0 -1.5212542878181255e-08 0.094997684716517775 0 0.00023795325284103376 0.092837036032805256 0 -1.5212542878181255e-08 0.094997684716517775 0 0.00023795325284103376 0.092837036032805256 0 0.00018667395832428052 0.094363692034132002 0 0.00081914759466981133 0.087028825973726451 0 -1.4888341660371776e-05 0.084561577954226266 0 0.00023795325284103376 0.092837036032805256 0 -0.0010510006863484887 0.092764598045570648 0 -0.0011342509353711161 0.093285461487109742 0 0.00023795325284103376 0.092837036032805256 0 -0.0011342509353711161 0.093285461487109742 0 -0.00055424290958956148 0.093877245013797628 0 0.00042712036512848757 0.09283209458034232 0 0.00023795325284103376 0.092837036032805256 0 0.00046324528812390742 0.08881848917743311 0 0.00023795325284103376 0.092837036032805256 0 0.00046324528812390742 0.08881848917743311 0 -0.0016919614712555169 0.090602066210647231 0 0.00046324528812390742 0.08881848917743311 0 -0.0035959790986212414 0.085839804364608072 0 -0.0016919614712555169 0.090602066210647231 0 0.00046324528812390742 0.08881848917743311 0 -9.7678549253100039e-06 0.080073701685031889 0 -0.0035959790986212414 0.085839804364608072 0 -5.3750323453799452e-06 0.080043345399895743 0 -0.00081768625916221695 0.07381276507283499 0 2.2683411254460035e-06 0.074838414096583983 0 -3.2791569233920526e-06 0.080048477583152547 0 -0.0013793712643065223 0.078637016838152773 0 2.2683411254460035e-06 0.074838414096583983 0 0.00021565815094557248 0.071898433649566218 0 0.00045502239949937029 0.069978310388917067 0 2.2683411254460035e-06 0.074838414096583983 0 6.9212422626726717e-07 0.069624613876682909 0 0.00045502239949937029 0.069978310388917067 0 -0.00081768625916221695 0.07381276507283499 0 2.2683411254460035e-06 0.074838414096583983 0 0.00021565815094557248 0.071898433649566218 0 -0.00081768625916221695 0.07381276507283499 0 0.00021565815094557248 0.071898433649566218 0 -0.0003584497734811538 0.071197608660805073 0 -0.0013793712643065223 0.078637016838152773 0 -0.0020024115126800772 0.075787166094670733 0 0.00021565815094557248 0.071898433649566218 0 0.00056007428754691611 0.070580656470485573 0 -0.0003584497734811538 0.071197608660805073 0 0.00021565815094557248 0.071898433649566218 0 0.00056007428754691611 0.070580656470485573 0 0.00045502239949937029 0.069978310388917067 0 -0.0014000937325284529 0.068824806965813293 0 -0.0020024115126800772 0.075787166094670733 0 -0.001953388158744847 0.05536975835176345 0 -0.0011901626117053336 0.056146666972347409 0 -0.00019465322145397818 0.05576499734852023 0 -0.001953388158744847 0.05536975835176345 0 -0.0011901626117053336 0.056146666972347409 0 -0.0020103641417778145 0.056279893005163971 0 -0.0011901626117053336 0.056146666972347409 0 -0.00019465322145397818 0.05576499734852023 0 -0.00096351659946130772 0.057153773377107919 0 -0.0014939219061679639 0.092965181436462901 0 -0.0013155964986681869 0.093195298212887454 0 -0.0014185503092500132 0.093089918291542312 0 -0.0020024115126800772 0.075787166094670733 0 -0.0016399328504816081 0.075030820573386739 0 -0.0013155964986681869 0.093195298212887454 0 -0.0014185503092500132 0.093089918291542312 0 -0.0014470214437530252 0.093181779801132097 0 -0.00096351659946130772 0.057153773377107919 0 -0.0020103641417778145 0.056279893005163971 0 -0.0022582872213729177 0.057189876729538403 0 -0.0011901626117053336 0.056146666972347409 0 -0.00096351659946130772 0.057153773377107919 0 -0.0020103641417778145 0.056279893005163971 0 -0.0014939219061679639 0.092965181436462901 0 -0.0010510006863484887 0.092764598045570648 0 -0.0014185503092500132 0.093089918291542312 0 -0.0020024115126800772 0.075787166094670733 0 -1.4888341660371776e-05 0.084561577954226266 0 -0.0035959790986212414 0.085839804364608072 0 -0.0055500912066136854 0.089023919037747146 0 -0.0016919614712555169 0.090602066210647231 0 -0.0014185503092500132 0.093089918291542312 0 -0.0011342509353711161 0.093285461487109742 0 -0.0014310449212336348 0.093246119858446677 0 -0.0014185503092500132 0.093089918291542312 0 -0.0014310449212336348 0.093246119858446677 0 -0.0014470214437530252 0.093181779801132097 0 -0.0010510006863484887 0.092764598045570648 0 -0.0014185503092500132 0.093089918291542312 0 -0.0011342509353711161 0.093285461487109742 0 -0.0011342509353711161 0.093285461487109742 0 -0.0010844957423645383 0.093689204890754232 0 -0.00055424290958956148 0.093877245013797628 0 -0.0010844957423645383 0.093689204890754232 0 -0.00097735954110406533 0.094146195896196522 0 -0.00055424290958956148 0.093877245013797628 0 -0.0010844957423645383 0.093689204890754232 0 -0.0012882338708073281 0.093632842701336955 0 -0.0012611905193166983 0.093879176442248372 0 -0.0010844957423645383 0.093689204890754232 0 -0.0013366244692647857 0.093420732832510581 0 -0.0012882338708073281 0.093632842701336955 0 -0.0011342509353711161 0.093285461487109742 0 -0.0010844957423645383 0.093689204890754232 0 -0.0013366244692647857 0.093420732832510581 0 -0.0011342509353711161 0.093285461487109742 0 -0.0014310449212336348 0.093246119858446677 0 -0.0013366244692647857 0.093420732832510581 0 -0.0014310449212336348 0.093246119858446677 0 -0.0013366244692647857 0.093420732832510581 0 -0.0015847033664790509 0.093305196581372415 0 -0.0014310449212336348 0.093246119858446677 0 -0.0015847033664790509 0.093305196581372415 0 -0.0014470214437530252 0.093181779801132097 0 -0.0015847033664790509 0.093305196581372415 0 -0.0014470214437530252 0.093181779801132097 0 -0.0014696618394204814 0.092995428953754469 0 -0.0032096609267300053 0.091392400659331172 0 -0.0032387156564357002 0.091155518457152376 0 -0.0015847033664790509 0.093305196581372415 0 -0.0014754785804388959 0.09354883629297954 0 -0.0017751165648047763 0.094032116552730166 0 -0.0015847033664790509 0.093305196581372415 0 -0.0017322959545308806 0.092850207861659761 0 -0.0014696618394204814 0.092995428953754469 0 -0.0032418795211277452 0.091277536383081115 0 -0.0032387156564357002 0.091155518457152376 0 -0.0014754785804388959 0.09354883629297954 0 -0.0012611905193166983 0.093879176442248372 0 -0.0016422068070572741 0.093904578766816904 0 -0.0013366244692647857 0.093420732832510581 0 -0.0012882338708073281 0.093632842701336955 0 -0.0014754785804388959 0.09354883629297954 0 -0.0013366244692647857 0.093420732832510581 0 -0.0015847033664790509 0.093305196581372415 0 -0.0014754785804388959 0.09354883629297954 0 -0.0012882338708073281 0.093632842701336955 0 -0.0014754785804388959 0.09354883629297954 0 -0.0012611905193166983 0.093879176442248372 0 -0.0012611905193166983 0.093879176442248372 0 -0.0016422068070572741 0.093904578766816904 0 -0.0013134544604409928 0.094302309236349052 0 -0.0032387156564357002 0.091155518457152376 0 -0.0026635039031824826 0.090635368604013583 0 -0.0016422068070572741 0.093904578766816904 0 -0.0013134544604409928 0.094302309236349052 0 -0.0017035578197634996 0.094727886407691919 0 -0.0013134544604409928 0.094302309236349052 0 -0.00097735954110406533 0.094146195896196522 0 -0.0010159882672986773 0.09478975292211296 0 -0.00097735954110406533 0.094146195896196522 0 -0.0010159882672986773 0.09478975292211296 0 -0.00053984059951806267 0.09434330332805943 0 -0.0012611905193166983 0.093879176442248372 0 -0.0013134544604409928 0.094302309236349052 0 -0.00097735954110406533 0.094146195896196522 0 -0.0010844957423645383 0.093689204890754232 0 -0.0012611905193166983 0.093879176442248372 0 -0.00097735954110406533 0.094146195896196522 0 -0.0013155964986681869 0.093195298212887454 0 -0.0007331104480772316 0.09283611192280769 0 -0.0012404869637968137 0.092952690436799046 0 -0.00096351659946130772 0.057153773377107919 0 -0.0017042306972016327 0.058592502015057731 0 -0.0022582872213729177 0.057189876729538403 0 -0.0016399328504816081 0.075030820573386739 0 -0.001734736375238292 0.074641369465267976 0 -0.0007331104480772316 0.09283611192280769 0 -0.0012404869637968137 0.092952690436799046 0 -0.0010219989419553344 0.09261382243465531 0 -0.0013155964986681869 0.093195298212887454 0 -0.0012404869637968137 0.092952690436799046 0 -0.0014470214437530252 0.093181779801132097 0 -0.0012404869637968137 0.092952690436799046 0 -0.0014470214437530252 0.093181779801132097 0 -0.0014696618394204814 0.092995428953754469 0 -0.0017322959545308806 0.092850207861659761 0 -0.0013574496885414384 0.092528657718276369 0 -0.0014747406774119783 0.09185486271904722 0 -0.0032387156564357002 0.091155518457152376 0 -0.0033509883290939969 0.088364969482082459 0 -0.0012404869637968137 0.092952690436799046 0 -0.0014696618394204814 0.092995428953754469 0 -0.0013574496885414384 0.092528657718276369 0 -0.0017322959545308806 0.092850207861659761 0 -0.0014696618394204814 0.092995428953754469 0 -0.0013574496885414384 0.092528657718276369 0 -0.0012404869637968137 0.092952690436799046 0 -0.0013574496885414384 0.092528657718276369 0 -0.0010219989419553344 0.09261382243465531 0 -0.0013574496885414384 0.092528657718276369 0 -0.0010219989419553344 0.09261382243465531 0 -0.0007437624496231418 0.092111128237778617 0 -0.0007331104480772316 0.09283611192280769 0 -0.0007437624496231418 0.092111128237778617 0 -0.00022676008291157019 0.092068571675643834 0 -0.0007331104480772316 0.09283611192280769 0 -0.0010219989419553344 0.09261382243465531 0 -0.0007437624496231418 0.092111128237778617 0 -0.0007437624496231418 0.092111128237778617 0 -0.00089491395295488276 0.091530478966083698 0 -0.0014747406774119783 0.09185486271904722 0 -0.0007437624496231418 0.092111128237778617 0 -0.00089491395295488276 0.091530478966083698 0 -0.00038450482332590266 0.091430374335030692 0 -0.0013574496885414384 0.092528657718276369 0 -0.0007437624496231418 0.092111128237778617 0 -0.0014747406774119783 0.09185486271904722 0 -0.0033509883290939969 0.088364969482082459 0 -0.0029429291485405782 0.082662541917397331 0 -0.0031842011022326722 0.088178984547771774 0 -0.0038068917305900452 0.085915298964606576 0 -0.0019137837391440503 0.085936874829678114 0 -0.0031842011022326722 0.088178984547771774 0 -0.0038068917305900452 0.085915298964606576 0 -0.0041326378745727881 0.088167230028521934 0 -0.0017622000178434652 0.088285090521047299 0 -0.0029429291485405782 0.082662541917397331 0 -0.00096156110081407605 0.090700043427015653 0 -0.00038450482332590266 0.091430374335030692 0 -0.00010579505291105143 0.090668158700882129 0 -0.00089491395295488276 0.091530478966083698 0 -0.00096156110081407605 0.090700043427015653 0 -0.00038450482332590266 0.091430374335030692 0 -0.0029429291485405782 0.082662541917397331 0 -0.001915351280600004 0.077607202584994608 0 -0.00089491395295488276 0.091530478966083698 0 -0.0014747406774119783 0.09185486271904722 0 -0.00096156110081407605 0.090700043427015653 0 -0.0044561577628304807 0.090423283277182853 0 -0.0031842011022326722 0.088178984547771774 0 -0.0041326378745727881 0.088167230028521934 0 -0.0013134544604409928 0.094302309236349052 0 -0.0010159882672986773 0.09478975292211296 0 -0.0017035578197634996 0.094727886407691919 0 -0.001796552701631864 0.095447916586757775 0 -0.0010159882672986773 0.09478975292211296 0 -0.0017035578197634996 0.094727886407691919 0 -0.0017622000178434652 0.088285090521047299 0 -0.0026635039031824826 0.090635368604013583 0 -0.001796552701631864 0.095447916586757775 0 -0.0010159882672986773 0.09478975292211296 0 -0.00080825976727641881 0.095459129399335124 0 -0.0010159882672986773 0.09478975292211296 0 -0.00046051017339262894 0.094888785652057661 0 -0.00080825976727641881 0.095459129399335124 0 -0.00046051017339262894 0.094888785652057661 0 0.0001218609798426975 0.095462734741480315 0 -0.00080825976727641881 0.095459129399335124 0 -0.0010159882672986773 0.09478975292211296 0 -0.00046051017339262894 0.094888785652057661 0 -0.00053984059951806267 0.09434330332805943 0 -0.00046051017339262894 0.094888785652057661 0 -0.00012967752369765534 0.094564414193887461 0 -0.00053984059951806267 0.09434330332805943 0 -0.00012370792790933354 0.094643091816598426 0 6.0123505193925511e-05 0.094868096247327366 0 6.3441312158257472e-05 0.094560655380627995 0 -1.2751720952581874e-05 0.094985716353528968 0 -1.0233782918841794e-05 0.094993489084429839 0 -2.0566229562336381e-06 0.094993596052298915 0 -0.00017344917542387651 0.094716325442302102 0 -1.3817339931869723e-05 0.094900307448120128 0 -0.00017344917542387651 0.094716325442302102 0 -0.00017361964936119182 0.094715047733582372 0 -0.00017344917542387651 0.094716325442302102 0 -0.00018405128788142623 0.094608386735041072 0 -0.00046051017339262894 0.094888785652057661 0 -0.00012967752369765534 0.094564414193887461 0 -3.5600933091443859e-06 0.095008563401942206 0 -0.00046051017339262894 0.094888785652057661 0 -3.5600933091443859e-06 0.095008563401942206 0 0.0001218609798426975 0.095462734741480315 0 -0.00018405128788142623 0.094608386735041072 0 -0.00030431531349026569 0.094147076122237147 0 -1.0233782918841794e-05 0.094993489084429839 0 -5.0138155063152914e-06 0.094995881132611162 0 -7.985990977457951e-06 0.094999312424891971 0 -5.0138155063152914e-06 0.094995881132611162 0 -2.0566229562336381e-06 0.094993596052298915 0 -1.5119515727319425e-06 0.094999100248614882 0 -2.0566229562336381e-06 0.094993596052298915 0 -7.2703317829565045e-07 0.094999376270284361 0 -1.5119515727319425e-06 0.094999100248614882 0 -5.0138155063152914e-06 0.094995881132611162 0 -1.5119515727319425e-06 0.094999100248614882 0 -7.985990977457951e-06 0.094999312424891971 0 -1.0233782918841794e-05 0.094993489084429839 0 -5.0138155063152914e-06 0.094995881132611162 0 -2.0566229562336381e-06 0.094993596052298915 0 7.0497810929369247e-08 0.09499984898864898 0 -1.3817339931869723e-05 0.094900307448120128 0 4.1465479350183451e-09 0.094999994538776347 0 -2.0566229562336381e-06 0.094993596052298915 0 -7.2703317829565045e-07 0.094999376270284361 0 -1.5348013764502466e-07 0.094999953691170633 0 6.0123505193925511e-05 0.094868096247327366 0 3.8268341734183221e-07 0.094999676024195581 0 6.0123505193925511e-05 0.094868096247327366 0 6.3441312158257472e-05 0.094560655380627995 0 3.8268341734183221e-07 0.094999676024195581 0 6.3441312158257472e-05 0.094560655380627995 0 3.8268341734183221e-07 0.094999676024195581 0 0.00018667395832428052 0.094363692034132002 0 -1.5212542878181255e-08 0.094997684716517775 0 3.8268341734183221e-07 0.094999676024195581 0 0.00018667395832428052 0.094363692034132002 0 6.3441312158257472e-05 0.094560655380627995 0 0.00018667395832428052 0.094363692034132002 0 -2.6702863457702213e-07 0.09406248551281543 0 0.00023795325284103376 0.092837036032805256 0 0.00018667395832428052 0.094363692034132002 0 -2.6702863457702213e-07 0.09406248551281543 0 0.00023795325284103376 0.092837036032805256 0 -2.6702863457702213e-07 0.09406248551281543 0 -0.00055424290958956148 0.093877245013797628 0 -2.6702863457702213e-07 0.09406248551281543 0 -0.00055424290958956148 0.093877245013797628 0 -0.00021008397112182598 0.094293908150798772 0 -0.00055424290958956148 0.093877245013797628 0 -0.00053984059951806267 0.09434330332805943 0 -0.00021008397112182598 0.094293908150798772 0 -0.00097735954110406533 0.094146195896196522 0 -0.00055424290958956148 0.093877245013797628 0 -0.00053984059951806267 0.09434330332805943 0 -0.00012544818457246943 0.094678749628259493 0 -0.00053984059951806267 0.09434330332805943 0 -0.00014398391845566537 0.094589091347464599 0 -0.00053984059951806267 0.09434330332805943 0 -0.00014398391845566537 0.094589091347464599 0 -0.00021008397112182598 0.094293908150798772 0 -0.00017344917542387651 0.094716325442302102 0 -0.00025149154019391419 0.094658971906368336 0 6.3441312158257472e-05 0.094560655380627995 0 -0.00014398391845566537 0.094589091347464599 0 -0.00021008397112182598 0.094293908150798772 0 -0.00012370792790933354 0.094643091816598426 0 6.3441312158257472e-05 0.094560655380627995 0 -0.00014398391845566537 0.094589091347464599 0 6.3441312158257472e-05 0.094560655380627995 0 -2.6702863457702213e-07 0.09406248551281543 0 -0.00021008397112182598 0.094293908150798772 0 -0.0033056929786011353 0.048956627846535233 0 -0.004700048871252238 0.046596502892725378 0 -0.0014112744878692365 0.047738338840589582 0 -0.0016536126654812093 0.046463272864536637 0 -0.0010652842251036602 0.047288193908885653 0 0.00031561146073533837 0.053209549403828653 0 -0.00042983643906294188 0.053086326490917476 0 -0.00024573782047845313 0.053455036561805114 0 0.00031561146073533837 0.053209549403828653 0 0.00017835181970797848 0.053313148914245066 0 -0.00024573782047845313 0.053455036561805114 0 0.00031561146073533837 0.053209549403828653 0 0.00019215259360575929 0.053045012334921822 0 0.00017835181970797848 0.053313148914245066 0 0.00031561146073533837 0.053209549403828653 0 0.00028643797843194756 0.052445181263798234 0 0.00048603042309462659 0.053375314266658591 0 0.00031561146073533837 0.053209549403828653 0 0.00028643797843194756 0.052445181263798234 0 -0.00042983643906294188 0.053086326490917476 0 -0.0033056929786011353 0.048956627846535233 0 -0.0028439776802710866 0.049364017381922608 0 0.00028643797843194756 0.052445181263798234 0 -0.00042983643906294188 0.053086326490917476 0 -0.00041402387948248198 0.050224597000312565 0 -0.0014112744878692365 0.047738338840589582 0 -0.00041402387948248198 0.050224597000312565 0 -0.00028620279299639527 0.048357550019105605 0 -0.00041402387948248198 0.050224597000312565 0 1.0913910876249212e-06 0.04877187916489497 0 0.00032409938652482674 0.052292196769750526 0 -0.00041402387948248198 0.050224597000312565 0 1.0913910876249212e-06 0.04877187916489497 0 7.6342994097114304e-06 0.047665287935087779 0 1.0913910876249212e-06 0.04877187916489497 0 0.00032409938652482674 0.052292196769750526 0 9.7722879517361538e-07 0.053985706479236215 0 0.00028643797843194756 0.052445181263798234 0 -0.00041402387948248198 0.050224597000312565 0 0.00032409938652482674 0.052292196769750526 0 0.00028643797843194756 0.052445181263798234 0 0.00032409938652482674 0.052292196769750526 0 0.00048603042309462659 0.053375314266658591 0 0.00048603042309462659 0.053375314266658591 0 0.00020710016491670095 0.055019835338853067 0 6.6516415203892438e-05 0.054700683299725501 0 0.00032409938652482674 0.052292196769750526 0 0.00048603042309462659 0.053375314266658591 0 0.00020710016491670095 0.055019835338853067 0 9.7722879517361538e-07 0.053985706479236215 0 0.00020710016491670095 0.055019835338853067 0 -1.2353286537051479e-06 0.059198520193005727 0 0.00032409938652482674 0.052292196769750526 0 9.7722879517361538e-07 0.053985706479236215 0 0.00020710016491670095 0.055019835338853067 0 0.00020710016491670095 0.055019835338853067 0 -1.2353286537051479e-06 0.059198520193005727 0 -0.00039618595109154462 0.057126896633566702 0 -0.00039618595109154462 0.057126896633566702 0 6.6516415203892438e-05 0.054700683299725501 0 -0.0014696820858950744 0.055345120303494394 0 0.00020710016491670095 0.055019835338853067 0 -0.00039618595109154462 0.057126896633566702 0 6.6516415203892438e-05 0.054700683299725501 0 6.6516415203892438e-05 0.054700683299725501 0 -0.0006845761400333109 0.054088982552091963 0 -0.0014696820858950744 0.055345120303494394 0 -0.0006845761400333109 0.054088982552091963 0 -0.00048466481043076633 0.053222957780034191 0 -0.0013080947226482187 0.053563430861034066 0 -0.0006845761400333109 0.054088982552091963 0 0.000216030961735886 0.053537334454213374 0 -0.00048466481043076633 0.053222957780034191 0 6.6516415203892438e-05 0.054700683299725501 0 -0.0006845761400333109 0.054088982552091963 0 0.000216030961735886 0.053537334454213374 0 0.0003156114607353383