<?xml version="1.0"?>
<VTKFile type="UnstructuredGrid" version="0.1" byte_order="LittleEndian">
<UnstructuredGrid>
<Piece NumberOfPoints="31898" NumberOfCells="11152">
<Points>
<DataArray type="Float64" NumberOfComponents="3" format="ascii">
-0.5 -0.5 0 -0.47620991077874902 -0.44978878706170539 0 -0.49999999999999473 -0.42132396840504388 0 -0.5 -0.5 0 -0.47160970827802529 -0.4793630013852106 0 -0.47620991077874902 -0.44978878706170539 0 -0.5 -0.5 0 -0.47160970827802529 -0.4793630013852106 0 -0.44860394795025399 -0.5 0 -0.47160970827802529 -0.4793630013852106 0 -0.44860394795025399 -0.5 0 -0.4490820238307246 -0.45820516232899983 0 -0.44860394795025399 -0.5 0 -0.4490820238307246 -0.45820516232899983 0 -0.42881687682924802 -0.47781464288736519 0 -0.4490820238307246 -0.45820516232899983 0 -0.45555437223955858 -0.42914059360647611 0 -0.4490820238307246 -0.45820516232899983 0 -0.45555437223955858 -0.42914059360647611 0 -0.43867285131603428 -0.4271457417558665 0 -0.4490820238307246 -0.45820516232899983 0 -0.43867285131603428 -0.4271457417558665 0 -0.4263356171060747 -0.44269880333887462 0 -0.47160970827802529 -0.4793630013852106 0 -0.4490820238307246 -0.45820516232899983 0 -0.47620991077874902 -0.44978878706170539 0 -0.4490820238307246 -0.45820516232899983 0 -0.47620991077874902 -0.44978878706170539 0 -0.45555437223955858 -0.42914059360647611 0 -0.47620991077874902 -0.44978878706170539 0 -0.48101336032419229 -0.41069999664450008 0 -0.45555437223955858 -0.42914059360647611 0 -0.47620991077874902 -0.44978878706170539 0 -0.49999999999999473 -0.42132396840504388 0 -0.48101336032419229 -0.41069999664450008 0 -0.49999999999999473 -0.42132396840504388 0 -0.48101336032419229 -0.41069999664450008 0 -0.5 -0.393886241813306 0 -0.49999999999999473 -0.42132396840504388 0 -0.48101336032419229 -0.41069999664450008 0 -0.5 -0.393886241813306 0 -0.47854472220918332 -0.38978458738689759 0 -0.48422759779560409 -0.37130120630367158 0 -0.5 -0.393886241813306 0 -0.5 -0.36644851522156802 0 -0.48422759779560409 -0.37130120630367158 0 -0.48101336032419229 -0.41069999664450008 0 -0.5 -0.393886241813306 0 -0.47854472220918332 -0.38978458738689759 0 -0.48101336032419229 -0.41069999664450008 0 -0.47854472220918332 -0.38978458738689759 0 -0.46202672064839212 -0.40007602488395211 0 -0.48101336032419229 -0.41069999664450008 0 -0.46202672064839212 -0.40007602488395211 0 -0.47854472220918332 -0.38978458738689759 0 -0.46725442735267431 -0.37660061361585562 0 -0.46202672064839212 -0.40007602488395211 0 -0.47854472220918332 -0.38978458738689759 0 -0.46725442735267431 -0.37660061361585562 0 -0.48422759779560409 -0.37130120630367158 0 -0.46725442735267431 -0.37660061361585562 0 -0.46202672064839212 -0.40007602488395211 0 -0.46725442735267431 -0.37660061361585562 0 -0.45645674801697989 -0.38644133236760531 0 -0.46202672064839212 -0.40007602488395211 0 -0.46725442735267431 -0.37660061361585562 0 -0.45645674801697989 -0.38644133236760531 0 -0.4540003998136638 -0.37455519391687309 0 -0.45645674801697989 -0.38644133236760531 0 -0.46202672064839212 -0.40007602488395211 0 -0.44257020456291563 -0.38918913383950271 0 -0.46202672064839212 -0.40007602488395211 0 -0.44257020456291563 -0.38918913383950271 0 -0.44727608925983742 -0.41095911152778891 0 -0.46202672064839212 -0.40007602488395211 0 -0.44257020456291563 -0.38918913383950271 0 -0.44257020456291563 -0.38918913383950271 0 -0.44727608925983742 -0.41095911152778891 0 -0.43479358559901082 -0.4041454901736512 0 -0.44257020456291563 -0.38918913383950271 0 -0.4540003998136638 -0.37455519391687309 0 -0.44172858264042247 -0.37082207246888088 0 -0.45645674801697989 -0.38644133236760531 0 -0.44257020456291563 -0.38918913383950271 0 -0.4540003998136638 -0.37455519391687309 0 -0.46202672064839212 -0.40007602488395211 0 -0.45555437223955858 -0.42914059360647611 0 -0.44727608925983742 -0.41095911152778891 0 -0.46202672064839212 -0.40007602488395211 0 -0.45555437223955858 -0.42914059360647611 0 -0.48101336032419229 -0.41069999664450008 0 -0.46202672064839212 -0.40007602488395211 0 -0.45555437223955858 -0.42914059360647611 0 -0.44727608925983742 -0.41095911152778891 0 -0.43867285131603428 -0.4271457417558665 0 -0.43676601469929588 -0.41441201227470881 0 -0.44727608925983742 -0.41095911152778891 0 -0.43676601469929588 -0.41441201227470881 0 -0.43479358559901082 -0.4041454901736512 0 -0.45555437223955858 -0.42914059360647611 0 -0.44727608925983742 -0.41095911152778891 0 -0.43867285131603428 -0.4271457417558665 0 -0.43867285131603428 -0.4271457417558665 0 -0.42681803064840879 -0.42717069814352421 0 -0.4263356171060747 -0.44269880333887462 0 -0.42681803064840879 -0.42717069814352421 0 -0.41531815884496182 -0.42985383783075998 0 -0.4263356171060747 -0.44269880333887462 0 -0.42681803064840879 -0.42717069814352421 0 -0.42624289495594048 -0.42089725947505818 0 -0.42083332353326591 -0.42146747131641099 0 -0.42681803064840879 -0.42717069814352421 0 -0.43096994786351572 -0.41951492446283251 0 -0.42624289495594048 -0.42089725947505818 0 -0.43867285131603428 -0.4271457417558665 0 -0.42681803064840879 -0.42717069814352421 0 -0.43096994786351572 -0.41951492446283251 0 -0.43867285131603428 -0.4271457417558665 0 -0.43676601469929588 -0.41441201227470881 0 -0.43096994786351572 -0.41951492446283251 0 -0.43676601469929588 -0.41441201227470881 0 -0.43096994786351572 -0.41951492446283251 0 -0.42907264086257813 -0.41311715872526122 0 -0.43676601469929588 -0.41441201227470881 0 -0.42907264086257813 -0.41311715872526122 0 -0.43479358559901082 -0.4041454901736512 0 -0.42907264086257813 -0.41311715872526122 0 -0.43479358559901082 -0.4041454901736512 0 -0.42460885511582858 -0.40417321677700252 0 -0.42907264086257813 -0.41311715872526122 0 -0.41997834854398469 -0.41180534796019508 0 -0.42907264086257813 -0.41311715872526122 0 -0.42635027777857132 -0.41543594397746519 0 -0.41997834854398469 -0.41180534796019508 0 -0.42907264086257813 -0.41311715872526122 0 -0.41997834854398469 -0.41180534796019508 0 -0.42460885511582858 -0.40417321677700252 0 -0.42635027777857132 -0.41543594397746519 0 -0.41997834854398469 -0.41180534796019508 0 -0.42635027777857132 -0.41543594397746519 0 -0.42083332353326591 -0.42146747131641099 0 -0.41997834854398469 -0.41180534796019508 0 -0.43096994786351572 -0.41951492446283251 0 -0.42624289495594048 -0.42089725947505818 0 -0.42635027777857132 -0.41543594397746519 0 -0.43096994786351572 -0.41951492446283251 0 -0.42907264086257813 -0.41311715872526122 0 -0.42635027777857132 -0.41543594397746519 0 -0.42624289495594048 -0.42089725947505818 0 -0.42635027777857132 -0.41543594397746519 0 -0.42083332353326591 -0.42146747131641099 0 -0.42083332353326591 -0.42146747131641099 0 -0.41997834854398469 -0.41180534796019508 0 -0.40992282953163789 -0.42011435591993562 0 -0.41997834854398469 -0.41180534796019508 0 -0.39756877647335259 -0.40857286797681719 0 -0.41997834854398469 -0.41180534796019508 0 -0.40992282953163789 -0.42011435591993562 0 -0.39756877647335259 -0.40857286797681719 0 -0.40992282953163789 -0.42011435591993562 0 -0.41531815884496182 -0.42985383783075998 0 -0.39591554026262499 -0.42887225451549271 0 -0.41531815884496182 -0.42985383783075998 0 -0.39591554026262499 -0.42887225451549271 0 -0.41160927495564159 -0.44339431233754628 0 -0.42083332353326591 -0.42146747131641099 0 -0.40992282953163789 -0.42011435591993562 0 -0.41531815884496182 -0.42985383783075998 0 -0.42681803064840879 -0.42717069814352421 0 -0.42083332353326591 -0.42146747131641099 0 -0.41531815884496182 -0.42985383783075998 0 -0.44257020456291563 -0.38918913383950271 0 -0.42311368847744002 -0.37830224279505142 0 -0.42594061475171041 -0.39368797999533162 0 -0.44257020456291563 -0.38918913383950271 0 -0.42311368847744002 -0.37830224279505142 0 -0.44172858264042247 -0.37082207246888088 0 -0.44257020456291563 -0.38918913383950271 0 -0.42311368847744002 -0.37830224279505142 0 -0.42311368847744002 -0.37830224279505142 0 -0.42594061475171041 -0.39368797999533162 0 -0.416587075656149 -0.38785930376960043 0 -0.44257020456291563 -0.38918913383950271 0 -0.42594061475171041 -0.39368797999533162 0 -0.43479358559901082 -0.4041454901736512 0 -0.42594061475171041 -0.39368797999533162 0 -0.43479358559901082 -0.4041454901736512 0 -0.42460885511582858 -0.40417321677700252 0 -0.41997834854398469 -0.41180534796019508 0 -0.41325908582185972 -0.39811010703057192 0 -0.39770572831670092 -0.39911486077581648 0 -0.41997834854398469 -0.41180534796019508 0 -0.39770572831670092 -0.39911486077581648 0 -0.42594061475171041 -0.39368797999533162 0 -0.42460885511582858 -0.40417321677700252 0 -0.41325908582185972 -0.39811010703057192 0 -0.41997834854398469 -0.41180534796019508 0 -0.42460885511582858 -0.40417321677700252 0 -0.41325908582185972 -0.39811010703057192 0 -0.42594061475171041 -0.39368797999533162 0 -0.41325908582185972 -0.39811010703057192 0 -0.416587075656149 -0.38785930376960043 0 -0.41325908582185972 -0.39811010703057192 0 -0.416587075656149 -0.38785930376960043 0 -0.40403491357358612 -0.38133688525744702 0 -0.42311368847744002 -0.37830224279505142 0 -0.40403491357358612 -0.38133688525744702 0 -0.40365717239196519 -0.36741535175059892 0 -0.42311368847744002 -0.37830224279505142 0 -0.416587075656149 -0.38785930376960043 0 -0.40403491357358612 -0.38133688525744702 0 -0.40403491357358612 -0.38133688525744702 0 -0.39190790742475001 -0.38540387676521748 0 -0.39770572831670092 -0.39911486077581648 0 -0.40403491357358612 -0.38133688525744702 0 -0.39190790742475001 -0.38540387676521748 0 -0.3904578797192948 -0.37473938743617019 0 -0.41325908582185972 -0.39811010703057192 0 -0.40403491357358612 -0.38133688525744702 0 -0.39770572831670092 -0.39911486077581648 0 -0.39770572831670092 -0.39911486077581648 0 -0.37543310808941849 -0.38642437359143528 0 -0.39770572831670092 -0.39911486077581648 0 -0.37515920440272033 -0.40534038799344108 0 -0.37543310808941849 -0.38642437359143528 0 -0.39770572831670092 -0.39911486077581648 0 -0.37515920440272033 -0.40534038799344108 0 -0.39756877647335259 -0.40857286797681719
[...]
<PointData Scalars="" Vectors="displacement," Tensors="">
<DataArray type="Float64" Name="displacement" NumberOfComponents="3" format="ascii">
0.094992178589879545 7.2535679595729181e-07 0 0.092595205709089426 0.00048014738566672419 0 0.094993641873945267 2.0085552665776861e-06 0 0.094992178589879545 7.2535679595729181e-07 0 0.090840300047995676 0.00031746817105542119 0 0.092595205709089426 0.00048014738566672419 0 0.094992178589879545 7.2535679595729181e-07 0 0.090840300047995676 0.00031746817105542119 0 0.085239999041070241 6.9622341696636774e-07 0 0.090840300047995676 0.00031746817105542119 0 0.085239999041070241 6.9622341696636774e-07 0 0.089143938609790377 -0.00023226838635593614 0 0.085239999041070241 6.9622341696636774e-07 0 0.089143938609790377 -0.00023226838635593614 0 0.08470711706891132 0.00018229450985434771 0 0.090028247370525089 -0.00061719577349574376 0 0.090482549073795007 -0.00062607994407408581 0 0.089143938609790377 -0.00023226838635593614 0 0.087469137329380345 -0.00097756636188709388 0 0.087317611151953342 -0.00031629289963484516 0 0.089143938609790377 -0.00023226838635593614 0 0.087317611151953342 -0.00031629289963484516 0 0.087481745763733021 -2.9270650726144751e-05 0 0.090840300047995676 0.00031746817105542119 0 0.089143938609790377 -0.00023226838635593614 0 0.092595205709089426 0.00048014738566672419 0 0.089143938609790377 -0.00023226838635593614 0 0.092595205709089426 0.00048014738566672419 0 0.093489969372847384 -0.00074150249617671463 0 0.092595205709089426 0.00048014738566672419 0 0.094689052088312492 7.5198909227932982e-05 0 0.093489969372847384 -0.00074150249617671463 0 0.092595205709089426 0.00048014738566672419 0 0.094993641873945267 2.0085552665776861e-06 0 0.094689052088312492 7.5198909227932982e-05 0 0.094999996697049824 -2.7913960497991551e-10 0 0.094995873202835521 1.2061127983756947e-06 0 0.094999994987208611 1.5439876850523708e-09 0 0.09499697872322875 -1.2055495092768524e-06 0 0.093508153745440623 -0.00039247392830673048 0 0.094999994987208611 1.5439876850523708e-09 0 0.094995098230013827 2.2218170832640306e-06 0 0.094997948920858291 3.7136122739382053e-06 0 0.094999994987208611 1.5439876850523708e-09 0 0.09499999167443611 5.5704124307371088e-09 0 0.094997948920858291 3.7136122739382053e-06 0 0.094995873202835521 1.2061127983756947e-06 0 0.094999994987208611 1.5439876850523708e-09 0 0.094995098230013827 2.2218170832640306e-06 0 0.094995873202835521 1.2061127983756947e-06 0 0.094995098230013827 2.2218170832640306e-06 0 0.09498976958498058 1.6646901544639494e-06 0 0.093508153745440623 -0.00039247392830673048 0 0.091214223058187965 -0.00049387132224194819 0 0.094995098230013827 2.2218170832640306e-06 0 0.094993907068751035 2.402838477514444e-06 0 0.09498976958498058 1.6646901544639494e-06 0 0.094995098230013827 2.2218170832640306e-06 0 0.094993907068751035 2.402838477514444e-06 0 0.094997948920858291 3.7136122739382053e-06 0 0.092629887743166564 -0.00021677393998659997 0 0.091214223058187965 -0.00049387132224194819 0 0.090578093616477298 -0.00042510362865809902 0 0.090046644372642384 -0.0010532354101526907 0 0.089290118095636917 -0.00074594950244153638 0 0.090578093616477298 -0.00042510362865809902 0 0.090046644372642384 -0.0010532354101526907 0 0.090724131921423548 -0.0012051203401456892 0 0.090046644372642384 -0.0010532354101526907 0 0.089290118095636917 -0.00074594950244153638 0 0.089907073162035195 -0.0018276208660018211 0 0.086574863646517064 -0.0011554403654452604 0 0.086230070266757192 -0.00059097282171700102 0 0.0869069813897375 -0.00069398572124959221 0 0.091214223058187965 -0.00049387132224194819 0 0.0887315026769879 -0.0011260227435925133 0 0.086230070266757192 -0.00059097282171700102 0 0.0869069813897375 -0.00069398572124959221 0 0.086713468958055512 -0.00034756771051822532 0 0.089907073162035195 -0.0018276208660018211 0 0.090724131921423548 -0.0012051203401456892 0 0.090929536388613702 -0.0018772010550374067 0 0.090046644372642384 -0.0010532354101526907 0 0.089907073162035195 -0.0018276208660018211 0 0.090724131921423548 -0.0012051203401456892 0 0.086574863646517064 -0.0011554403654452604 0 0.087469137329380345 -0.00097756636188709388 0 0.0869069813897375 -0.00069398572124959221 0 0.091214223058187965 -0.00049387132224194819 0 0.090482549073795007 -0.00062607994407408581 0 0.094689052088312492 7.5198909227932982e-05 0 0.095022899939028543 -0.00066069901065652118 0 0.093489969372847384 -0.00074150249617671463 0 0.0869069813897375 -0.00069398572124959221 0 0.087317611151953342 -0.00031629289963484516 0 0.087043767038513159 -0.00037837654328006865 0 0.0869069813897375 -0.00069398572124959221 0 0.087043767038513159 -0.00037837654328006865 0 0.086713468958055512 -0.00034756771051822532 0 0.087469137329380345 -0.00097756636188709388 0 0.0869069813897375 -0.00069398572124959221 0 0.087317611151953342 -0.00031629289963484516 0 0.087317611151953342 -0.00031629289963484516 0 0.087315344977645204 -0.00018372118140512096 0 0.087481745763733021 -2.9270650726144751e-05 0 0.087315344977645204 -0.00018372118140512096 0 0.08733434746867455 -0.00029410903468492483 0 0.087481745763733021 -2.9270650726144751e-05 0 0.087315344977645204 -0.00018372118140512096 0 0.087238464271826494 -0.00019605304147215014 0 0.087265682254390797 -0.0002241831085735477 0 0.087315344977645204 -0.00018372118140512096 0 0.087199148530757511 -0.00023952327435594384 0 0.087238464271826494 -0.00019605304147215014 0 0.087317611151953342 -0.00031629289963484516 0 0.087315344977645204 -0.00018372118140512096 0 0.087199148530757511 -0.00023952327435594384 0 0.087317611151953342 -0.00031629289963484516 0 0.087043767038513159 -0.00037837654328006865 0 0.087199148530757511 -0.00023952327435594384 0 0.087043767038513159 -0.00037837654328006865 0 0.087199148530757511 -0.00023952327435594384 0 0.087058442760583957 -0.00020223842266684538 0 0.087043767038513159 -0.00037837654328006865 0 0.087058442760583957 -0.00020223842266684538 0 0.086713468958055512 -0.00034756771051822532 0 0.087058442760583957 -0.00020223842266684538 0 0.086713468958055512 -0.00034756771051822532 0 0.086710332093892589 -2.1947429255094596e-05 0 0.078151365127452799 -0.0023152265495975208 0 0.077860410229806207 -0.0024801687382322644 0 0.087058442760583957 -0.00020223842266684538 0 0.087167979313389363 -0.00016211378530979134 0 0.087076536739294635 -4.8122246461200907e-06 0 0.087058442760583957 -0.00020223842266684538 0 0.086982653862114956 0.0001381061842813271 0 0.086710332093892589 -2.1947429255094596e-05 0 0.078136944413627771 -0.0025694698695648637 0 0.077860410229806207 -0.0024801687382322644 0 0.087167979313389363 -0.00016211378530979134 0 0.087265682254390797 -0.0002241831085735477 0 0.087279009562121201 -0.00023634162660569774 0 0.087199148530757511 -0.00023952327435594384 0 0.087238464271826494 -0.00019605304147215014 0 0.087167979313389363 -0.00016211378530979134 0 0.087199148530757511 -0.00023952327435594384 0 0.087058442760583957 -0.00020223842266684538 0 0.087167979313389363 -0.00016211378530979134 0 0.087238464271826494 -0.00019605304147215014 0 0.087167979313389363 -0.00016211378530979134 0 0.087265682254390797 -0.0002241831085735477 0 0.087265682254390797 -0.0002241831085735477 0 0.087279009562121201 -0.00023634162660569774 0 0.087285471999237252 -0.00030395332462703818 0 0.077860410229806207 -0.0024801687382322644 0 0.07578582864363384 -0.0019863071056847904 0 0.087279009562121201 -0.00023634162660569774 0 0.087285471999237252 -0.00030395332462703818 0 0.0873098973482129 -0.00037935222925806095 0 0.087285471999237252 -0.00030395332462703818 0 0.08733434746867455 -0.00029410903468492483 0 0.087258370952479819 -0.00040251814566493659 0 0.08733434746867455 -0.00029410903468492483 0 0.087258370952479819 -0.00040251814566493659 0 0.087289077721204214 -0.00047819575701980031 0 0.087265682254390797 -0.0002241831085735477 0 0.087285471999237252 -0.00030395332462703818 0 0.08733434746867455 -0.00029410903468492483 0 0.087315344977645204 -0.00018372118140512096 0 0.087265682254390797 -0.0002241831085735477 0 0.08733434746867455 -0.00029410903468492483 0 0.086230070266757192 -0.00059097282171700102 0 0.08580065524042671 2.7208587309295029e-05 0 0.086346269437138981 -6.3351429719856036e-05 0 0.089907073162035195 -0.0018276208660018211 0 0.090517567953636607 -0.0028683650017606228 0 0.090929536388613702 -0.0018772010550374067 0 0.0887315026769879 -0.0011260227435925133 0 0.08677615573100847 -0.0021582081479814977 0 0.08580065524042671 2.7208587309295029e-05 0 0.086346269437138981 -6.3351429719856036e-05 0 0.086122633457792433 0.00025008624129352352 0 0.086230070266757192 -0.00059097282171700102 0 0.086346269437138981 -6.3351429719856036e-05 0 0.086713468958055512 -0.00034756771051822532 0 0.086346269437138981 -6.3351429719856036e-05 0 0.086713468958055512 -0.00034756771051822532 0 0.086710332093892589 -2.1947429255094596e-05 0 0.086982653862114956 0.0001381061842813271 0 0.086485508772927738 0.00036786972078138168 0 0.086510810858770618 0.00091871211648453114 0 0.077860410229806207 -0.0024801687382322644 0 0.075994080318150442 -0.0028193388754297797 0 0.086346269437138981 -6.3351429719856036e-05 0 0.086710332093892589 -2.1947429255094596e-05 0 0.086485508772927738 0.00036786972078138168 0 0.086982653862114956 0.0001381061842813271 0 0.086710332093892589 -2.1947429255094596e-05 0 0.086485508772927738 0.00036786972078138168 0 0.086346269437138981 -6.3351429719856036e-05 0 0.086485508772927738 0.00036786972078138168 0 0.086122633457792433 0.00025008624129352352 0 0.086485508772927738 0.00036786972078138168 0 0.086122633457792433 0.00025008624129352352 0 0.085859886469031407 0.00067285519346092315 0 0.08580065524042671 2.7208587309295029e-05 0 0.085859886469031407 0.00067285519346092315 0 0.085397990263951895 0.0006791150620595979 0 0.08580065524042671 2.7208587309295029e-05 0 0.086122633457792433 0.00025008624129352352 0 0.085859886469031407 0.00067285519346092315 0 0.085859886469031407 0.00067285519346092315 0 0.085985807289847727 0.001146381794666324 0 0.086510810858770618 0.00091871211648453114 0 0.085859886469031407 0.00067285519346092315 0 0.085985807289847727 0.001146381794666324 0 0.08555728832289497 0.0012048444720703139 0 0.086485508772927738 0.00036786972078138168 0 0.085859886469031407 0.00067285519346092315 0 0.086510810858770618 0.00091871211648453114 0 0.075994080318150442 -0.0028193388754297797 0 0.071084382958711556 -0.0033749170034389113 0 0.074182623137066347 -0.0025529325026970471 0 0.074410929231737449 -0.0016981176634682353 0 0.073692339358072803 -0.0017097632346170409 0 0.074182623137066347 -0.0025529325026970471 0 0.074410929231737449 -0.0016981176634682353 0 0.074542409252711231 -0.0025472177770753585 0 0.071396531985674916 -0.0013510425902413213 0 0.071084382958711556 -0.0033749170034389113 0 0.086008065824512911 0.0017971859680018703 0 0.08555728832289497 0.0012048444720703139 0 0.085312873913296061 0.0018001217338344717 0 0.085985807289847727 0.001146381794666324 0 0.086008065824512911 0.0017971859680018703 0 0.08555728832289497 0.0012048444720703139 0 0.071084382958711556 -0.0033749170034389113 0 0.075127560345028113 -0.0031414784139185072 0 0.085985807289847727 0.001146381794666324 0 0.086510810858770618 0.00091871211648453114 0 0.086008065824512911 0.0017971859680018703 0 0.074677830897085351 -0.0033947987007696351 0 0.074182623137066347 -0.0025529325026970471 0 0.074542409252711231 -0.0025472177770753585 0 0.087285471999237252 -0.00030395332462703818 0 0.087258370952479819 -0.00040251814566493659 0 0.0873098973482129 -0.00037935222925806095 0 0.087280734965897472 -0.00044778271249489509 0 0.087258370952479819 -0.00040251814566493659 0 0.0873098973482129 -0.00037935222925806095 0 0.071396531985674916 -0.0013510425902413213 0 0.07578582864363384 -0.0019863071056847904 0 0.087280734965897472 -0.00044778271249489509 0 0.087258370952479819 -0.00040251814566493659 0 0.08722983369612311 -0.00045299755200935192 0 0.087258370952479819 -0.00040251814566493659 0 0.087240454863504069 -0.00043346672279067603 0 0.08722983369612311 -0.00045299755200935192 0 0.087240454863504069 -0.00043346672279067603 0 0.087175966453575865 -0.00046850387015540807 0 0.08722983369612311 -0.00045299755200935192 0 0.087258370952479819 -0.00040251814566493659 0 0.087240454863504069 -0.00043346672279067603 0 0.087289077721204214 -0.00047819575701980031 0 0.087240454863504069 -0.00043346672279067603 0 0.08723790381281428 -0.00044395681608795764 0 0.087289077721204214 -0.00047819575701980031 0 0.085990990469984485 -0.0016759291504909093 0 0.080619140050749022 -0.0019902902890015454 0 0.084318716707761157 -0.00057525838221373726 0 0.064511321389328039 -0.0044985375125149787 0 0.06508574381384627 -0.0023148336020609125 0 0.067651494360118414 -0.0028476287695598725 0 0.076818240499147913 0.0015284506523213749 0 0.074374191827112884 0.00011952450321724202 0 0.076818240499147913 0.0015284506523213749 0 0.076843581972153727 0.0015191947853242342 0 0.076818240499147913 0.0015284506523213749 0 0.074740157960926701 -0.00047955055409996277 0 0.087240454863504069 -0.00043346672279067603 0 0.08723790381281428 -0.00044395681608795764 0 0.087203536164202206 -0.00044340732043816373 0 0.087240454863504069 -0.00043346672279067603 0 0.087203536164202206 -0.00044340732043816373 0 0.087175966453575865 -0.00046850387015540807 0 0.074740157960926701 -0.00047955055409996277 0 0.072475434490964968 -0.0019890765013742323 0 0.06508574381384627 -0.0023148336020609125 0 0.066571410687256749 -0.0015116389386689354 0 0.065666910501283413 -7.5072806135309997e-05 0 0.066571410687256749 -0.0015116389386689354 0 0.067651494360118414 -0.0028476287695598725 0 0.06742238765127205 -2.0863199287935543e-05 0 0.067651494360118414 -0.0028476287695598725 0 0.069298468142629382 0.00034400789969644242 0 0.06742238765127205 -2.0863199287935543e-05 0 0.066571410687256749 -0.0015116389386689354 0 0.06742238765127205 -2.0863199287935543e-05 0 0.065666910501283413 -7.5072806135309997e-05 0 0.06508574381384627 -0.0023148336020609125 0 0.066571410687256749 -0.0015116389386689354 0 0.067651494360118414 -0.0028476287695598725 0 0.072383378465232379 -5.1591336283598762e-07 0 0.074374191827112884 0.00011952450321724202 0 0.072371941246392429 -4.8654211980973242e-06 0 0.067651494360118414 -0.0028476287695598725 0 0.069298468142629382 0.00034400789969644242 0 0.0723892847019771 -7.6746703200834195e-06 0 0.080619140050749022 -0.0019902902890015454 0 0.07789657392246073 1.3782667083352213e-06 0 0.080619140050749022 -0.0019902902890015454 0 0.084318716707761157 -0.00057525838221373726 0 0.07789657392246073 1.3782667083352213e-06 0 0.084318716707761157 -0.00057525838221373726 0 0.07789657392246073 1.3782667083352213e-06 0 0.08470711706891132 0.00018229450985434771 0 0.085239999041070241 6.9622341696636774e-07 0 0.07789657392246073 1.3782667083352213e-06 0 0.08470711706891132 0.00018229450985434771 0 0.084318716707761157 -0.00057525838221373726 0 0.08470711706891132 0.00018229450985434771 0 0.086673058913244103 -6.8337650839456608e-05 0 0.089143938609790377 -0.00023226838635593614 0 0.08470711706891132 0.00018229450985434771 0 0.086673058913244103 -6.8337650839456608e-05 0 0.089143938609790377 -0.00023226838635593614 0 0.086673058913244103 -6.8337650839456608e-05 0 0.087481745763733021 -2.9270650726144751e-05 0 0.086673058913244103 -6.8337650839456608e-05 0 0.087481745763733021 -2.9270650726144751e-05 0 0.086686466793921446 -0.00037991638231407525 0 0.087481745763733021 -2.9270650726144751e-05 0 0.087289077721204214 -0.00047819575701980031 0 0.086686466793921446 -0.00037991638231407525 0 0.08733434746867455 -0.00029410903468492483 0 0.087481745763733021 -2.9270650726144751e-05 0 0.087289077721204214 -0.00047819575701980031 0 0.086101573249720065 -0.0015939613984837127 0 0.087289077721204214 -0.00047819575701980031 0 0.086154167066551143 -0.0013171520404021576 0 0.087289077721204214 -0.00047819575701980031 0 0.086154167066551143 -0.0013171520404021576 0 0.086686466793921446 -0.00037991638231407525 0 0.076818240499147913 0.0015284506523213749 0 0.079351030677958734 0.0021527000002586182 0 0.084318716707761157 -0.00057525838221373726 0 0.086154167066551143 -0.0013171520404021576 0 0.086686466793921446 -0.00037991638231407525 0 0.085990990469984485 -0.0016759291504909093 0 0.084318716707761157 -0.00057525838221373726 0 0.086154167066551143 -0.0013171520404021576 0 0.084318716707761157 -0.00057525838221373726 0 0.086673058913244103 -6.8337650839456608e-05 0 0.086686466793921446 -0.00037991638231407525 0 0.087043530841888456 -0.00082924560215678791 0 0.082603926958052964 -0.0031865745706293452 0 0.094404891314639888 0.0011911739634884865 0 0.094559330088931942 0.0047665001095562936 0 0.092658159162445408 0.0018950890043683672 0 0.094817882637200229 -0.00029986220065534908 0 0.094889084850009561 -0.00022736056151618711 0 0.094902763069897922 -0.00039561878796572379 0 0.094817882637200229 -0.00029986220065534908 0 0.094800470920076416 -0.00044136042443569781 0 0.094902763069897922 -0.00039561878796572379 0 0.094817882637200229 -0.00029986220065534908 0 0.094723136023516438 -0.0004287423498309116 0 0.094800470920076416 -0.00044136042443569781 0 0.094817882637200229 -0.00029986220065534908 0 0.094833391220026861 -0.00015691636169122835 0 0.094842462369564492 -0.00014755798624126464 0 0.094817882637200229 -0.00029986220065534908 0 0.094833391220026861 -0.00015691636169122835 0 0.094889084850009561 -0.00022736056151618711 0 0.087043530841888456 -0.00082924560215678791 0 0.088375823435538958 -0.00063014941047241776 0 0.094833391220026861 -0.00015691636169122835 0 0.094889084850009561 -0.00022736056151618711 0 0.09470796205110743 -0.00014043104243146893 0 0.094404891314639888 0.0011911739634884865 0 0.09470796205110743 -0.00014043104243146893 0 0.092836565184688941 -6.7786442499000201e-05 0 0.09470796205110743 -0.00014043104243146893 0 0.094999779483363758 -3.1556515007734967e-07 0 0.094887016062614807 -9.1353318969023236e-05 0 0.09470796205110743 -0.00014043104243146893 0 0.094999779483363758 -3.1556515007734967e-07 0 0.094175047708272133 -0.00019025409335557368 0 0.094999779483363758 -3.1556515007734967e-07 0 0.094887016062614807 -9.1353318969023236e-05 0 0.09499979284951264 2.0346632600825889e-08 0 0.094833391220026861 -0.00015691636169122835 0 0.09470796205110743 -0.00014043104243146893 0 0.094887016062614807 -9.1353318969023236e-05 0 0.094833391220026861 -0.00015691636169122835 0 0.094887016062614807 -9.1353318969023236e-05 0 0.094842462369564492 -0.00014755798624126464 0 0.094842462369564492 -0.00014755798624126464 0 0.094896642877871265 -2.389725708820861e-05 0 0.094799377255437606 -0.00011128978487261145 0 0.094887016062614807 -9.1353318969023236e-05 0 0.094842462369564492 -0.00014755798624126464 0 0.094896642877871265 -2.389725708820861e-05 0 0.09499979284951264 2.0346632600825889e-08 0 0.094896642877871265 -2.389725708820861e-05 0 0.094999792030163399 -2.5742674147191496e-08 0 0.094887016062614807 -9.1353318969023236e-05 0 0.09499979284951264 2.0346632600825889e-08 0 0.094896642877871265 -2.389725708820861e-05 0 0.094896642877871265 -2.389725708820861e-05 0 0.094999792030163399 -2.5742674147191496e-08 0 0.094846948574665649 3.1895616693741977e-05 0 0.094846948574665649 3.1895616693741977e-05 0 0.094799377255437606 -0.00011128978487261145 0 0.094549986877557141 -9.3626438881854878e-05 0 0.094896642877871265 -2.389725708820861e-05 0 0.094846948574665649 3.1895616693741977e-05 0 0.094799377255437606 -0.00011128978487261145 0 0.094799377255437606 -0.00011128978487261145 0 0.094623328667427953 -0.00026595186313381323 0 0.094549986877557141 -9.3626438881854878e-05 0 0.094623328667427953 -0.00026595186313381323 0 0.094609164571243465 -0.00041232429510387075 0 0.0944680902393253 -0.00040087209902609487 0 0.094623328667427953 -0.00026595186313381323 0 0.094757305647136303 -0.0002756700962049657 0 0.094609164571243465 -0.00041232429510387075 0 0.094799377255437606 -0.00011128978487261145 0 0.094623328667427953 -0.000265951863133