<?xml version="1.0"?>
<VTKFile type="UnstructuredGrid" version="0.1" byte_order="LittleEndian">
<UnstructuredGrid>
<Piece NumberOfPoints="30618" NumberOfCells="10744">
<Points>
<DataArray type="Float64" NumberOfComponents="3" format="ascii">
-0.49427958746526202 -0.49999999999999512 0 -0.4943900888896422 -0.47349089190363358 0 -0.49427958746526202 -0.49999999999999512 0 -0.5 -0.5 0 -0.4943900888896422 -0.47349089190363358 0 -0.5 -0.5 0 -0.4943900888896422 -0.47349089190363358 0 -0.5 -0.44150235328842258 0 -0.49427958746526202 -0.49999999999999512 0 -0.4943900888896422 -0.47349089190363358 0 -0.48436842240857858 -0.48714093788813112 0 -0.49427958746526202 -0.49999999999999512 0 -0.47650045540741742 -0.5 0 -0.48436842240857858 -0.48714093788813112 0 -0.4943900888896422 -0.47349089190363358 0 -0.47066899942757451 -0.47576530412887819 0 -0.48436842240857858 -0.48714093788813112 0 -0.47066899942757451 -0.47576530412887819 0 -0.47650045540741742 -0.5 0 -0.48436842240857858 -0.48714093788813112 0 -0.47066899942757451 -0.47576530412887819 0 -0.45872132334957288 -0.49999999999999928 0 -0.45242967983978871 -0.4846708604340636 0 -0.47066899942757451 -0.47576530412887819 0 -0.47650045540741742 -0.5 0 -0.45872132334957288 -0.49999999999999928 0 -0.47066899942757451 -0.47576530412887819 0 -0.45872132334957288 -0.49999999999999928 0 -0.47066899942757451 -0.47576530412887819 0 -0.45242967983978871 -0.4846708604340636 0 -0.45249717469141032 -0.46588444847215849 0 -0.43763952177061649 -0.47770500498713542 0 -0.45242967983978871 -0.4846708604340636 0 -0.45249717469141032 -0.46588444847215849 0 -0.43763952177061649 -0.47770500498713542 0 -0.44291044788006362 -0.49999999999999939 0 -0.45242967983978871 -0.4846708604340636 0 -0.43763952177061649 -0.47770500498713542 0 -0.44291044788006362 -0.49999999999999939 0 -0.45872132334957288 -0.49999999999999928 0 -0.44291044788006362 -0.49999999999999939 0 -0.45242967983978871 -0.4846708604340636 0 -0.44838221886832419 -0.4464230337388379 0 -0.4323685956611692 -0.45541000997427139 0 -0.435988539966085 -0.44148905847597392 0 -0.44838221886832419 -0.4464230337388379 0 -0.44213238819953832 -0.43491600865963681 0 -0.435988539966085 -0.44148905847597392 0 -0.44838221886832419 -0.4464230337388379 0 -0.45249717469141032 -0.46588444847215849 0 -0.45755175660874181 -0.45423607616472811 0 -0.44838221886832419 -0.4464230337388379 0 -0.45249717469141032 -0.46588444847215849 0 -0.4323685956611692 -0.45541000997427139 0 -0.43763952177061649 -0.47770500498713542 0 -0.45249717469141032 -0.46588444847215849 0 -0.4323685956611692 -0.45541000997427139 0 -0.47066899942757451 -0.47576530412887819 0 -0.45249717469141032 -0.46588444847215849 0 -0.4675747862741928 -0.45726336772241771 0 -0.45249717469141032 -0.46588444847215849 0 -0.45755175660874181 -0.45423607616472811 0 -0.4675747862741928 -0.45726336772241771 0 -0.44838221886832419 -0.4464230337388379 0 -0.46897642374787268 -0.44262015471777721 0 -0.45660235518767722 -0.42786105997071933 0 -0.44838221886832419 -0.4464230337388379 0 -0.45755175660874181 -0.45423607616472811 0 -0.46897642374787268 -0.44262015471777721 0 -0.45755175660874181 -0.45423607616472811 0 -0.4675747862741928 -0.45726336772241771 0 -0.46897642374787268 -0.44262015471777721 0 -0.4943900888896422 -0.47349089190363358 0 -0.5 -0.44150235328842258 0 -0.49450059031402238 -0.44698178380727199 0 -0.46897642374787268 -0.44262015471777721 0 -0.48473746643246862 -0.43972512984246093 0 -0.48043585850414389 -0.43127077967876992 0 -0.46897642374787268 -0.44262015471777721 0 -0.4826166755055763 -0.45153060825775743 0 -0.48473746643246862 -0.43972512984246093 0 -0.4675747862741928 -0.45726336772241771 0 -0.46897642374787268 -0.44262015471777721 0 -0.4826166755055763 -0.45153060825775743 0 -0.47066899942757451 -0.47576530412887819 0 -0.4826166755055763 -0.45153060825775743 0 -0.4943900888896422 -0.47349089190363358 0 -0.47066899942757451 -0.47576530412887819 0 -0.4826166755055763 -0.45153060825775743 0 -0.47066899942757451 -0.47576530412887819 0 -0.4675747862741928 -0.45726336772241771 0 -0.4826166755055763 -0.45153060825775743 0 -0.4943900888896422 -0.47349089190363358 0 -0.49450059031402238 -0.44698178380727199 0 -0.4943900888896422 -0.47349089190363358 0 -0.4826166755055763 -0.45153060825775743 0 -0.49450059031402238 -0.44698178380727199 0 -0.4826166755055763 -0.45153060825775743 0 -0.48473746643246862 -0.43972512984246093 0 -0.49450059031402238 -0.44698178380727199 0 -0.5 -0.44150235328842258 0 -0.49461109173840262 -0.42047267571091063 0 -0.5 -0.39656953661894012 0 -0.49450059031402238 -0.44698178380727199 0 -0.49461109173840262 -0.42047267571091063 0 -0.48473746643246862 -0.43972512984246093 0 -0.49461109173840262 -0.42047267571091063 0 -0.48043585850414389 -0.43127077967876992 0 -0.5 -0.44150235328842258 0 -0.49450059031402238 -0.44698178380727199 0 -0.49461109173840262 -0.42047267571091063 0 -0.48473746643246862 -0.43972512984246093 0 -0.49450059031402238 -0.44698178380727199 0 -0.49461109173840262 -0.42047267571091063 0 -0.49461109173840262 -0.42047267571091063 0 -0.4947215931627828 -0.39396356761454909 0 -0.49461109173840262 -0.42047267571091063 0 -0.48393842445605872 -0.40713040098299402 0 -0.4947215931627828 -0.39396356761454909 0 -0.49461109173840262 -0.42047267571091063 0 -0.48393842445605872 -0.40713040098299402 0 -0.47214510592166908 -0.41939033492402211 0 -0.48393842445605872 -0.40713040098299402 0 -0.47214510592166908 -0.41939033492402211 0 -0.47427590700138023 -0.39469502568249409 0 -0.46897642374787268 -0.44262015471777721 0 -0.47214510592166908 -0.41939033492402211 0 -0.48043585850414389 -0.43127077967876992 0 -0.49461109173840262 -0.42047267571091063 0 -0.47214510592166908 -0.41939033492402211 0 -0.48043585850414389 -0.43127077967876992 0 -0.5 -0.39656953661894012 0 -0.4947215931627828 -0.39396356761454909 0 -0.48030453056746109 -0.36861144308094029 0 -0.49461109173840262 -0.42047267571091063 0 -0.5 -0.39656953661894012 0 -0.4947215931627828 -0.39396356761454909 0 -0.48393842445605872 -0.40713040098299402 0 -0.4947215931627828 -0.39396356761454909 0 -0.47427590700138023 -0.39469502568249409 0 -0.47427590700138023 -0.39469502568249409 0 -0.48030453056746109 -0.36861144308094029 0 -0.4947215931627828 -0.39396356761454909 0 -0.47427590700138023 -0.39469502568249409 0 -0.48030453056746109 -0.36861144308094029 0 -0.47427590700138023 -0.39469502568249409 0 -0.46334377193483078 -0.37842983215876019 0 -0.48030453056746109 -0.36861144308094029 0 -0.46334377193483078 -0.37842983215876019 0 -0.45726543839001688 -0.40541672899881109 0 -0.44416021803808919 -0.38243724496113263 0 -0.47427590700138023 -0.39469502568249409 0 -0.46334377193483078 -0.37842983215876019 0 -0.45726543839001688 -0.40541672899881109 0 -0.45726543839001688 -0.40541672899881109 0 -0.43814282409564848 -0.40387353522152758 0 -0.44416021803808919 -0.38243724496113263 0 -0.43814282409564848 -0.40387353522152758 0 -0.44416021803808919 -0.38243724496113263 0 -0.4329908326547659 -0.40007252460533121 0 -0.43814282409564848 -0.40387353522152758 0 -0.44416021803808919 -0.38243724496113263 0 -0.46897642374787268 -0.44262015471777721 0 -0.47214510592166908 -0.41939033492402211 0 -0.45660235518767722 -0.42786105997071933 0 -0.47214510592166908 -0.41939033492402211 0 -0.47427590700138023 -0.39469502568249409 0 -0.45726543839001688 -0.40541672899881109 0 -0.47214510592166908 -0.41939033492402211 0 -0.45726543839001688 -0.40541672899881109 0 -0.45660235518767722 -0.42786105997071933 0 -0.45726543839001688 -0.40541672899881109 0 -0.45660235518767722 -0.42786105997071933 0 -0.44309263043645408 -0.41812298423377797 0 -0.45726543839001688 -0.40541672899881109 0 -0.43814282409564848 -0.40387353522152758 0 -0.44309263043645408 -0.41812298423377797 0 -0.43814282409564848 -0.40387353522152758 0 -0.44309263043645408 -0.41812298423377797 0 -0.43209373842114163 -0.42530092927673752 0 -0.44838221886832419 -0.4464230337388379 0 -0.45660235518767722 -0.42786105997071933 0 -0.44213238819953832 -0.43491600865963681 0 -0.45660235518767722 -0.42786105997071933 0 -0.44213238819953832 -0.43491600865963681 0 -0.43132710435572019 -0.42815377149591122 0 -0.45660235518767722 -0.42786105997071933 0 -0.44309263043645408 -0.41812298423377797 0 -0.43132710435572019 -0.42815377149591122 0 -0.45660235518767722 -0.42786105997071933 0 -0.43132710435572019 -0.42815377149591122 0 -0.44213238819953832 -0.43491600865963681 0 -0.42986244815509678 -0.43337144475258638 0 -0.435988539966085 -0.44148905847597392 0 -0.44213238819953832 -0.43491600865963681 0 -0.42986244815509678 -0.43337144475258638 0 -0.43132710435572019 -0.42815377149591122 0 -0.42986244815509678 -0.43337144475258638 0 -0.43132710435572019 -0.42815377149591122 0 -0.42986244815509678 -0.43337144475258638 0 -0.42494843276815808 -0.42822764260015772 0 -0.42026026496879931 -0.43681168621285732 0 -0.42986244815509678 -0.43337144475258638 0 -0.42494843276815808 -0.42822764260015772 0 -0.43132710435572019 -0.42815377149591122 0 -0.42494843276815808 -0.42822764260015772 0 -0.43209373842114163 -0.42530092927673752 0 -0.42214799869492048 -0.41876725226122891 0 -0.42494843276815808 -0.42822764260015772 0 -0.43209373842114163 -0.42530092927673752 0 -0.42494843276815808 -0.42822764260015772 0 -0.43209373842114163 -0.42530092927673752 0 -0.43132710435572019 -0.42815377149591122 0 -0.42494843276815808 -0.42822764260015772 0 -0.43132710435572019 -0.42815377149591122 0 -0.44309263043645408 -0.41812298423377797 0 -0.43209373842114163 -0.42530092927673752 0 -0.43132710435572019 -0.42815377149591122 0 -0.43209373842114163 -0.42530092927673752 0 -0.43132710435572019 -0.42815377149591122 0 -0.43814282409564848 -0.40387353522152758 0 -0.43209373842114163 -0.42530092927673752 0 -0.43814282409564848 -0.40387353522152758 0 -0.43209373842114163 -0.42530092927673752 0 -0.42736227186559528 -0.41250939947999687 0 -0.43814282409564848 -0.40387353522152758 0 -0.42736227186559528 -0.41250939947999687 0 -0.42798743510346321 -0.40461924019690898 0
[...]
<PointData Scalars="" Vectors="displacement," Tensors="">
<DataArray type="Float64" Name="displacement" NumberOfComponents="3" format="ascii">
-0.024713759957991122 1.1035063776369858e-07 0 -0.024047137611207876 0.00020415192032629986 0 -0.024716943133494967 3.2071159282600871e-07 0 -0.024998056050526889 -2.3378817406575178e-07 0 -0.02499442324109406 8.0668487175028083e-07 0 -0.024998056050526889 -2.3378817406575178e-07 0 -0.02499442324109406 8.0668487175028083e-07 0 -0.0250008211479084 2.1524702376192136e-07 0 -0.024712627727940358 1.2113923633825132e-06 0 -0.023123496445532479 0.00048061395619177584 0 -0.023819664764244186 -4.3609103189485665e-05 0 -0.024712627727940358 1.2113923633825132e-06 0 -0.023824459589450949 -7.1315572058537664e-07 0 -0.023819664764244186 -4.3609103189485665e-05 0 -0.023123496445532479 0.00048061395619177584 0 -0.023401856007907004 -0.00037469690182238624 0 -0.023819664764244186 -4.3609103189485665e-05 0 -0.023401856007907004 -0.00037469690182238624 0 -0.023824459589450949 -7.1315572058537664e-07 0 -0.023819664764244186 -4.3609103189485665e-05 0 -0.021860516854574148 0.00044910532008578193 0 -0.022932990005544621 1.2003790613776117e-06 0 -0.022210576653211824 1.291903383598443e-05 0 -0.023401856007907004 -0.00037469690182238624 0 -0.023824459589450949 -7.1315572058537664e-07 0 -0.022938131872365798 1.2427372599275684e-07 0 -0.022611277263477805 2.6690888916734271e-05 0 -0.02293601038763662 -2.7636918511053174e-09 0 -0.021860516854574148 0.00044910532008578193 0 -0.022210576653211824 1.291903383598443e-05 0 -0.021743738981802898 0.00025843833640923553 0 -0.022049204969981549 -9.1421225498582661e-05 0 -0.022210576653211824 1.291903383598443e-05 0 -0.021743738981802898 0.00025843833640923553 0 -0.022049204969981549 -9.1421225498582661e-05 0 -0.022148217874019965 -9.3805135504255145e-07 0 -0.022210576653211824 1.291903383598443e-05 0 -0.021442940111691625 -3.8548861104537946e-05 0 -0.022145264070395122 -6.7357689203286872e-09 0 -0.022932990005544621 1.2003790613776117e-06 0 -0.022148217874019965 -9.3805135504255145e-07 0 -0.022210576653211824 1.291903383598443e-05 0 -0.021548691998880157 0.00035790340327308048 0 -0.021135068991738882 8.3480254441461614e-06 0 -0.021305646878056608 0.00021267239486704115 0 -0.021548691998880157 0.00035790340327308048 0 -0.021540678217117117 0.00037786813256872722 0 -0.021305646878056608 0.00021267239486704115 0 -0.021548691998880157 0.00035790340327308048 0 -0.021743738981802898 0.00025843833640923553 0 -0.021725390666159274 0.00033346834106139398 0 -0.021548691998880157 0.00035790340327308048 0 -0.021743738981802898 0.00025843833640923553 0 -0.021135068991738882 8.3480254441461614e-06 0 -0.022049204969981549 -9.1421225498582661e-05 0 -0.021743738981802898 0.00025843833640923553 0 -0.021135068991738882 8.3480254441461614e-06 0 -0.021860516854574148 0.00044910532008578193 0 -0.021743738981802898 0.00025843833640923553 0 -0.021849220207123907 0.00033054629492919671 0 -0.021743738981802898 0.00025843833640923553 0 -0.021725390666159274 0.00033346834106139398 0 -0.021849220207123907 0.00033054629492919671 0 -0.021548691998880157 0.00035790340327308048 0 -0.021948253553143355 0.00034443467958419774 0 -0.022157976861968159 0.00072928710716237046 0 -0.021548691998880157 0.00035790340327308048 0 -0.021725390666159274 0.00033346834106139398 0 -0.021948253553143355 0.00034443467958419774 0 -0.021725390666159274 0.00033346834106139398 0 -0.021849220207123907 0.00033054629492919671 0 -0.021948253553143355 0.00034443467958419774 0 -0.02499442324109406 8.0668487175028083e-07 0 -0.0250008211479084 2.1524702376192136e-07 0 -0.024997162201844288 1.2567442765494752e-06 0 -0.021948253553143355 0.00034443467958419774 0 -0.022174871281289994 5.8653494545283003e-05 0 -0.022434778357602686 0.00010310860860278822 0 -0.021948253553143355 0.00034443467958419774 0 -0.022056005511447742 4.3054370650300638e-05 0 -0.022174871281289994 5.8653494545283003e-05 0 -0.021849220207123907 0.00033054629492919671 0 -0.021948253553143355 0.00034443467958419774 0 -0.022056005511447742 4.3054370650300638e-05 0 -0.022611277263477805 2.6690888916734271e-05 0 -0.022107917501680969 6.9762719901384423e-05 0 -0.023123496445532479 0.00048061395619177584 0 -0.023401856007907004 -0.00037469690182238624 0 -0.022056005511447742 4.3054370650300638e-05 0 -0.021860516854574148 0.00044910532008578193 0 -0.021849220207123907 0.00033054629492919671 0 -0.022056005511447742 4.3054370650300638e-05 0 -0.024047137611207876 0.00020415192032629986 0 -0.023559963301460325 4.0770451183537198e-05 0 -0.023123496445532479 0.00048061395619177584 0 -0.022056005511447742 4.3054370650300638e-05 0 -0.022012875157950106 9.9626031914412422e-05 0 -0.022056005511447742 4.3054370650300638e-05 0 -0.022174871281289994 5.8653494545283003e-05 0 -0.022012875157950106 9.9626031914412422e-05 0 -0.0250008211479084 2.1524702376192136e-07 0 -0.025004246043906619 -1.6980694527122885e-06 0 -0.024998575612584777 -6.3511247475687381e-07 0 -0.023559963301460325 4.0770451183537198e-05 0 -0.02397853780986469 -0.00018861184011535468 0 -0.022174871281289994 5.8653494545283003e-05 0 -0.022906805868183992 -0.0004709567491909414 0 -0.022434778357602686 0.00010310860860278822 0 -0.0250008211479084 2.1524702376192136e-07 0 -0.024997162201844288 1.2567442765494752e-06 0 -0.025004246043906619 -1.6980694527122885e-06 0 -0.022174871281289994 5.8653494545283003e-05 0 -0.022012875157950106 9.9626031914412422e-05 0 -0.022906805868183992 -0.0004709567491909414 0 -0.02397853780986469 -0.00018861184011535468 0 -0.024813716554476419 -9.7268757499624798e-05 0 -0.022906805868183992 -0.0004709567491909414 0 -0.023808228512185468 8.1504552093027854e-05 0 -0.02490366108323485 -5.3497780877870015e-05 0 -0.022906805868183992 -0.0004709567491909414 0 -0.023808228512185468 8.1504552093027854e-05 0 -0.022891052725584029 0.00038302297399804428 0 -0.023808228512185468 8.1504552093027854e-05 0 -0.022891052725584029 0.00038302297399804428 0 -0.024423884416371076 0.00035996261333223479 0 -0.021948253553143355 0.00034443467958419774 0 -0.022891052725584029 0.00038302297399804428 0 -0.022434778357602686 0.00010310860860278822 0 -0.022906805868183992 -0.0004709567491909414 0 -0.022891052725584029 0.00038302297399804428 0 -0.022434778357602686 0.00010310860860278822 0 -0.024998575612584777 -6.3511247475687381e-07 0 -0.02490366108323485 -5.3497780877870015e-05 0 -0.024969176245082096 3.1534114363835276e-05 0 -0.025004246043906619 -1.6980694527122885e-06 0 -0.024998575612584777 -6.3511247475687381e-07 0 -0.02490366108323485 -5.3497780877870015e-05 0 -0.023808228512185468 8.1504552093027854e-05 0 -0.02490366108323485 -5.3497780877870015e-05 0 -0.024423884416371076 0.00035996261333223479 0 -0.024414075047530546 0.0003441770198480899 0 -0.025261369698639614 8.7819019202171165e-05 0 -0.02490366108323485 -5.3497780877870015e-05 0 -0.024423884416371076 0.00035996261333223479 0 -0.024969176245082096 3.1534114363835276e-05 0 -0.024423884416371076 0.00035996261333223479 0 -0.025029002557861391 0.00080011225706724982 0 -0.025405459791132689 0.00015679350134091964 0 -0.025029002557861391 0.00080011225706724982 0 -0.023700451928270961 0.0010240131642016532 0 -0.024822967725448817 0.0016715648278163345 0 -0.024423884416371076 0.00035996261333223479 0 -0.025029002557861391 0.00080011225706724982 0 -0.023700451928270961 0.0010240131642016532 0 -0.023700451928270961 0.0010240131642016532 0 -0.023738689482877787 0.0020295704056361554 0 -0.024822967725448817 0.0016715648278163345 0 -0.019227105414088785 0.0006103811785328143 0 -0.020259303397988215 0.00022679873595062068 0 -0.019354478885396566 0.00078099971117197981 0 -0.021489099141698526 0.0013476410671937238 0 -0.0225857876960039 0.00095986099229793695 0 -0.021948253553143355 0.00034443467958419774 0 -0.022891052725584029 0.00038302297399804428 0 -0.022157976861968159 0.00072928710716237046 0 -0.022891052725584029 0.00038302297399804428 0 -0.024423884416371076 0.00035996261333223479 0 -0.023700451928270961 0.0010240131642016532 0 -0.022891052725584029 0.00038302297399804428 0 -0.023700451928270961 0.0010240131642016532 0 -0.022157976861968159 0.00072928710716237046 0 -0.023700451928270961 0.0010240131642016532 0 -0.022157976861968159 0.00072928710716237046 0 -0.022853880649903256 0.001741592304315682 0 -0.023700451928270961 0.0010240131642016532 0 -0.023738689482877787 0.0020295704056361554 0 -0.022853880649903256 0.001741592304315682 0 -0.023738689482877787 0.0020295704056361554 0 -0.022853880649903256 0.001741592304315682 0 -0.022358212218993267 0.0024938469838909844 0 -0.021548691998880157 0.00035790340327308048 0 -0.022157976861968159 0.00072928710716237046 0 -0.021540678217117117 0.00037786813256872722 0 -0.022157976861968159 0.00072928710716237046 0 -0.021540678217117117 0.00037786813256872722 0 -0.021128401076879032 0.00017316334811363915 0 -0.022157976861968159 0.00072928710716237046 0 -0.022853880649903256 0.001741592304315682 0 -0.022158083214780758 0.0025510123795610957 0 -0.022174538029971082 0.00082052914964173473 0 -0.021115764657461913 0.0010447983291494631 0 -0.021540678217117117 0.00037786813256872722 0 -0.021144938326924458 0.00013385556284819866 0 -0.021305646878056608 0.00021267239486704115 0 -0.021540678217117117 0.00037786813256872722 0 -0.021144938326924458 0.00013385556284819866 0 -0.021128401076879032 0.00017316334811363915 0 -0.021221939233461398 0.00079504082515650671 0 -0.021115764657461913 0.0010447983291494631 0 -0.021144938326924458 0.00013385556284819866 0 -0.021032569592103981 6.7618680898887744e-05 0 -0.020919574258130853 4.0844285336150328e-05 0 -0.021144938326924458 0.00013385556284819866 0 -0.021032569592103981 6.7618680898887744e-05 0 -0.021042922209321011 0.00017100707995229531 0 -0.0189769511806154 0.00084027448211045205 0 -0.018999762802663644 0.00076549995210670847 0 -0.019072583619433939 0.00086837530468351107 0 -0.020000659848879027 0.0005507587056115252 0 -0.020599024896569264 0.0012624925781823042 0 -0.020452564023003144 0.00083295716454994328 0 -0.020458629252757266 0.00082316448377512731 0 -0.020454137830038851 0.00082404923406199254 0 -0.020000659848879027 0.0005507587056115252 0 -0.021115764657461913 0.0010447983291494631 0 -0.022853880649903256 0.001741592304315682 0 -0.022358212218993267 0.0024938469838909844 0 -0.022158083214780758 0.0025510123795610957 0 -0.020599024896569264 0.0012624925781823042 0 -0.021115764657461913 0.0010447983291494631 0 -0.021489099141698526 0.0013476410671937238 0 -0.020599024896569264 0.0012624925781823042 0 -0.019227105414088785 0.0006103811785328143 0 -0.018999762802663644 0.00076549995210670847 0 -0.019139227054180901 0.00081184244360315053 0 -0.019227105414088785 0.0006103811785328143 0 -0.019139227054180901 0.00081184244360315053 0 -0.019253622700944835 0.00082204496511566834 0 -0.019139227054180901 0.00081184244360315053 0 -0.019072583619433939 0.00086837530468351107 0 -0.019167777179513172 0.00093079870081625067 0 -0.019139227054180901 0.00081184244360315053 0 -0.019167777179513172 0.00093079870081625067 0 -0.019253622700944835 0.00082204496511566834 0 -0.018999762802663644 0.00076549995210670847 0 -0.019139227054180901 0.00081184244360315053 0 -0.019072583619433939 0.00086837530468351107 0 -0.019167777179513172 0.00093079870081625067 0 -0.019064402528444768 0.00095877041475415502 0 -0.019116333475539964 0.0010735291075785931 0 -0.019167777179513172 0.00093079870081625067 0 -0.019229840792897163 0.001038229160815674 0 -0.019116333475539964 0.0010735291075785931 0 -0.019072583619433939 0.00086837530468351107 0 -0.019167777179513172 0.00093079870081625067 0 -0.019064402528444768 0.00095877041475415502 0 -0.021032569592103981 6.7618680898887744e-05 0 -0.020919574258130853 4.0844285336150328e-05 0 -0.020604727159250321 1.4803441808269083e-05 0 -0.020000659848879027 0.0005507587056115252 0 -0.019709274027854523 3.9426695896960491e-05 0 -0.018776654140017654 0.00037657040142925015 0 -0.018806572382599588 0.00024422631134831806 0 -0.018753463287870961 0.00023374884195296556 0 -0.020000659848879027 0.0005507587056115252 0 -0.018765588842717736 0.00066524768569677811 0 -0.0189769511806154 0.00084027448211045205 0 -0.019064402528444768 0.00095877041475415502 0 -0.018986129319124474 0.0010645198392724392 0 -0.0189769511806154 0.00084027448211045205 0 -0.019072583619433939 0.00086837530468351107 0 -0.019064402528444768 0.00095877041475415502 0 -0.019397430000476445 0.00073540589395202846 0 -0.019884979058231309 0.0014980222428652803 0 -0.019354478885396566 0.00078099971117197981 0 -0.019358681784397005 0.00091225936044786687 0 -0.019431357028679666 0.00091857145623310964 0 -0.020282218500539132 0.0008172724175991127 0 -0.019354478885396566 0.00078099971117197981 0 -0.020549812848278681 0.001534013066235819 0 -0.020259303397988215 0.00022679873595062068 0 -0.020282218500539132 0.0008172724175991127 0 -0.019354478885396566 0.00078099971117197981 0 -0.020282218500539132 0.0008172724175991127 0 -0.020549812848278681 0.001534013066235819 0 -0.020981282504797902 0.00072624043197002709 0 -0.020259303397988215 0.00022679873595062068 0 -0.020282218500539132 0.0008172724175991127 0 -0.020981282504797902 0.00072624043197002709 0 -0.019354478885396566 0.00078099971117197981 0 -0.019280264373081699 0.00088298149387262771 0 -0.019358681784397005 0.00091225936044786687 0 -0.019227105414088785 0.0006103811785328143 0 -0.019354478885396566 0.00078099971117197981 0 -0.019253622700944835 0.00082204496511566834 0 -0.019354478885396566 0.00078099971117197981 0 -0.019253622700944835 0.00082204496511566834 0 -0.019280264373081699 0.00088298149387262771 0 -0.019167777179513172 0.00093079870081625067 0 -0.019253622700944835 0.00082204496511566834 0 -0.019280264373081699 0.00088298149387262771 0 -0.019300425728041255 0.0010192839789671725 0 -0.019358681784397005 0.00091225936044786687 0 -0.019378979467045275 0.0010641207763662371 0 -0.019167777179513172 0.00093079870081625067 0 -0.019280264373081699 0.00088298149387262771 0 -0.019269759157772886 0.00095614149742106666 0 -0.019167777179513172 0.00093079870081625067 0 -0.019269759157772886 0.00095614149742106666 0 -0.019229840792897163 0.001038229160815674 0 -0.019269759157772886 0.00095614149742106666 0 -0.019300425728041255 0.0010192839789671725 0 -0.019229840792897163 0.001038229160815674 0 -0.019269759157772886 0.00095614149742106666 0 -0.019300425728041255 0.0010192839789671725 0 -0.019358681784397005 0.00091225936044786687 0 -0.019280264373081699 0.00088298149387262771 0 -0.019269759157772886 0.00095614149742106666 0 -0.019358681784397005 0.00091225936044786687 0 -0.019377301225541238 0.00099252467894307282 0 -0.018534975872202843 0.0010891803375816572 0 -0.019358681784397005 0.00091225936044786687 0 -0.019405862960617044 0.00096274983393405088 0 -0.019375330535469817 0.0010152251126629634 0 -0.019358681784397005 0.00091225936044786687 0 -0.019407313466696365 0.00093048963320791704 0 -0.019431357028679666 0.00091857145623310964 0 -0.019358681784397005 0.00091225936044786687 0 -0.019406498482263758 0.00094861151857580169 0 -0.019407313466696365 0.00093048963320791704 0 -0.019358681784397005 0.00091225936044786687 0 -0.019406498482263758 0.00094861151857580169 0 -0.019405862960617044 0.00096274983393405088 0 -0.018798301847243952 0.0015079974193693438 0 -0.018471313167196825 0.0012666623573650703 0 -0.019406498482263758 0.00094861151857580169 0 -0.01941734801558035 0.00094115478911288998 0 -0.019405322987216755 0.00096331742712609111 0 -0.017572867009372876 0.0014985705466209474 0 -0.017595268862617034 0.0014515516438378131 0 -0.017411593992577325 0.0013525646183371101 0 -0.018528311930167712 0.0011980423641619132 0 -0.018471313167196825 0.0012666623573650703 0 -0.018798301847243952 0.0015079974193693438 0 -0.019884979058231309 0.0014980222428652803 0 -0.019416683281275857 0.00094083676486074453 0 -0.019407313466696365 0.00093048963320791704 0 -0.019431357028679666 0.00091857145623310964 0 -0.019406498482263758 0.00094861151857580169 0 -0.01941734801558035 0.00094115478911288998 0 -0.019407313466696365 0.00093048963320791704 0 -0.018798301847243952 0.0015079974193693438 0 -0.018850199383080565 0.0014720528717950107 0 -0.01771211849686909 0.001203918435902329 0 -0.01770063945032585 0.00099856339240352249 0 -0.017755636818245393 0.0011081185460446758 0 -0.017665056881727148 0.0010741401259724778 0 -0.017670674191013317 0.0010794574088870623 0 -0.01767258489884824 0.0010687705546172824 0 -0.017595268862617034 0.0014515516438378131 0 -0.017588482168894998 0.001227813973879642 0 -0.017411593992577325 0.0013525646183371101 0 -0.018471313167196825 0.0012666623573650703 0 -0.016581291357984494 0.0010373529430698556 0 -0.018471313167196825 0.0012666623573650703 0 -0.018534975872202843 0.0010891803375816572 0 -0.016581291357984494 0.0010373529430698556 0 -0.018534975872202843 0.0010891803375816572 0 -0.019378979467045275 0.0010641207763662371 0 -0.019269462047653604 0.0011248603811262851 0 -0.019263044503593049 0.0012610324245986852 0 -0.018534975872202843 0.0010891803375816572 0 -0.017572548279674569 0.00097117938983616191 0 -0.019300425728041255 0.0010192839789671725 0 -0.019269462047653604 0.0011248603811262851 0 -0.019229840792897163 0.001038229160815674 0 -0.019300425728041255 0.0010192839789671725 0 -0.019378979467045275 0.0010641207763662371 0 -0.019269462047653604 0.0011248603811262851 0 -0.019269462047653604 0.0011248603811262851 0 -0.019229840792897163 0.001038229160815674 0 -0.01919931998110087 0.0011088896353728364 0 -0.019229840792897163 0.001038229160815674 0 -0.01919931998110087 0.0011088896353728364 0 -0.019116333475539964 0.0010735291075785931 0 -0.01919931998110087 0.0011088896353728364 0 -0.019218247084776537 0.0011988335129792481 0 -0.01913860668493169 0.0011688453741638914 0 -0.019269462047653604 0.0011248603811262851 0 -0.01919931998110087 0.0011088896353728364 0 -0.019218247084776537 0.0011988335129792481 0 -0.019109419693281136 0.0011937000191814104 0 -0.019110264072034085 0.0011927228661272292 0 -0.01913860668493169 0.0011688453741638914 0 -0.019110264072034085 0.0011927228661272292 0 -0.019098746677845457 0.0012002262135064779 0 -0.01913860668493169 0.0011688453741638914 0 -0.019218247084776537 0.0011988335129792481 0 -0.019242010109372251 0.0012769112179282676 0 -0.01913860668493169 0.0011688453741638914 0 -0.017501302253367369 0.0010386964878262548 0 -0.019232184780534189 0.0015396246645428407 0 -0.017501302253367369 0.0010386964878262548 0 -0.01574381246217214 0.00047996021092068655 0 -0.019100897254237966 0.0011987182389241737 0 -0.019101237238603491 0.0011956640445422318 0 -0.019097918856731691 0.0012021995297180367 0 -0.019109419693281136 0.0011937000191814104 0 -0.019110264072034085 0.0011927228661272292 0 -0.019104227274411304 0.0011965911400251684 0 -0.019109419693281136 0.0011937000191814104 0 -0.019099220722076132 0.0011997421281580338 0 -0.019104227274411304 0.0011965911400251684 0 -0.019099220722076132 0.0011997421281580338 0 -0.019104227274411304 0.0011965911400251684 0 -0.019100897254237966 0.0011987182389241737 0 -0.019104227274411304 0.0011965911400251684 0 -0.019100897254237966 0.0011987182389241737 0 -0.019101627140020953 0.0011968805971316198 0 -0.019100897254237966 0.0011987182389241737 0 -0.019101627140020953 0.0011968805971316198 0 -0.019101237238603491 0.0011956640445422318 0 -0.017721567913103833 0.00095268846788609937 0 -0.017501302253367369 0.0010386964878262548 0 -0.019110264072034085 0.0011927228661272292 0 -0.019101627140020953 0.0011968805971316198 0 -0.019098746677845457 0.0012002262135064779 0 -0.019110264072034085 0.0011927228661272292 0 -0.019104227274411304 0.0011965911400251684 0 -0.019101627140020953 0.0011968805971316198 0 -0.016270307848254128 0.00030748067187419886 0 -0.016425031679627524 0.00046747266380856961 0 -0.016153797795945928 0.00062936205494496542 0 -0.015961282013257735 0.00073571282196888133 0 -0.015926136358172156 0.00064823990891384371 0 -0.01572237389120602 0.0007675849136842773 0 -0.01