<?xml version="1.0"?>
<VTKFile type="UnstructuredGrid" version="0.1" byte_order="LittleEndian">
<UnstructuredGrid>
<Piece NumberOfPoints="30618" NumberOfCells="10744">
<Points>
<DataArray type="Float64" NumberOfComponents="3" format="ascii">
-0.49427958746526202 -0.49999999999999512 0 -0.4943900888896422 -0.47349089190363358 0 -0.49427958746526202 -0.49999999999999512 0 -0.5 -0.5 0 -0.4943900888896422 -0.47349089190363358 0 -0.5 -0.5 0 -0.4943900888896422 -0.47349089190363358 0 -0.5 -0.44150235328842258 0 -0.49427958746526202 -0.49999999999999512 0 -0.4943900888896422 -0.47349089190363358 0 -0.48436842240857858 -0.48714093788813112 0 -0.49427958746526202 -0.49999999999999512 0 -0.47650045540741742 -0.5 0 -0.48436842240857858 -0.48714093788813112 0 -0.4943900888896422 -0.47349089190363358 0 -0.47066899942757451 -0.47576530412887819 0 -0.48436842240857858 -0.48714093788813112 0 -0.47066899942757451 -0.47576530412887819 0 -0.47650045540741742 -0.5 0 -0.48436842240857858 -0.48714093788813112 0 -0.47066899942757451 -0.47576530412887819 0 -0.45872132334957288 -0.49999999999999928 0 -0.45242967983978871 -0.4846708604340636 0 -0.47066899942757451 -0.47576530412887819 0 -0.47650045540741742 -0.5 0 -0.45872132334957288 -0.49999999999999928 0 -0.47066899942757451 -0.47576530412887819 0 -0.45872132334957288 -0.49999999999999928 0 -0.47066899942757451 -0.47576530412887819 0 -0.45242967983978871 -0.4846708604340636 0 -0.45249717469141032 -0.46588444847215849 0 -0.43763952177061649 -0.47770500498713542 0 -0.45242967983978871 -0.4846708604340636 0 -0.45249717469141032 -0.46588444847215849 0 -0.43763952177061649 -0.47770500498713542 0 -0.44291044788006362 -0.49999999999999939 0 -0.45242967983978871 -0.4846708604340636 0 -0.43763952177061649 -0.47770500498713542 0 -0.44291044788006362 -0.49999999999999939 0 -0.45872132334957288 -0.49999999999999928 0 -0.44291044788006362 -0.49999999999999939 0 -0.45242967983978871 -0.4846708604340636 0 -0.44838221886832419 -0.4464230337388379 0 -0.4323685956611692 -0.45541000997427139 0 -0.435988539966085 -0.44148905847597392 0 -0.44838221886832419 -0.4464230337388379 0 -0.44213238819953832 -0.43491600865963681 0 -0.435988539966085 -0.44148905847597392 0 -0.44838221886832419 -0.4464230337388379 0 -0.45249717469141032 -0.46588444847215849 0 -0.45755175660874181 -0.45423607616472811 0 -0.44838221886832419 -0.4464230337388379 0 -0.45249717469141032 -0.46588444847215849 0 -0.4323685956611692 -0.45541000997427139 0 -0.43763952177061649 -0.47770500498713542 0 -0.45249717469141032 -0.46588444847215849 0 -0.4323685956611692 -0.45541000997427139 0 -0.47066899942757451 -0.47576530412887819 0 -0.45249717469141032 -0.46588444847215849 0 -0.4675747862741928 -0.45726336772241771 0 -0.45249717469141032 -0.46588444847215849 0 -0.45755175660874181 -0.45423607616472811 0 -0.4675747862741928 -0.45726336772241771 0 -0.44838221886832419 -0.4464230337388379 0 -0.46897642374787268 -0.44262015471777721 0 -0.45660235518767722 -0.42786105997071933 0 -0.44838221886832419 -0.4464230337388379 0 -0.45755175660874181 -0.45423607616472811 0 -0.46897642374787268 -0.44262015471777721 0 -0.45755175660874181 -0.45423607616472811 0 -0.4675747862741928 -0.45726336772241771 0 -0.46897642374787268 -0.44262015471777721 0 -0.4943900888896422 -0.47349089190363358 0 -0.5 -0.44150235328842258 0 -0.49450059031402238 -0.44698178380727199 0 -0.46897642374787268 -0.44262015471777721 0 -0.48473746643246862 -0.43972512984246093 0 -0.48043585850414389 -0.43127077967876992 0 -0.46897642374787268 -0.44262015471777721 0 -0.4826166755055763 -0.45153060825775743 0 -0.48473746643246862 -0.43972512984246093 0 -0.4675747862741928 -0.45726336772241771 0 -0.46897642374787268 -0.44262015471777721 0 -0.4826166755055763 -0.45153060825775743 0 -0.47066899942757451 -0.47576530412887819 0 -0.4826166755055763 -0.45153060825775743 0 -0.4943900888896422 -0.47349089190363358 0 -0.47066899942757451 -0.47576530412887819 0 -0.4826166755055763 -0.45153060825775743 0 -0.47066899942757451 -0.47576530412887819 0 -0.4675747862741928 -0.45726336772241771 0 -0.4826166755055763 -0.45153060825775743 0 -0.4943900888896422 -0.47349089190363358 0 -0.49450059031402238 -0.44698178380727199 0 -0.4943900888896422 -0.47349089190363358 0 -0.4826166755055763 -0.45153060825775743 0 -0.49450059031402238 -0.44698178380727199 0 -0.4826166755055763 -0.45153060825775743 0 -0.48473746643246862 -0.43972512984246093 0 -0.49450059031402238 -0.44698178380727199 0 -0.5 -0.44150235328842258 0 -0.49461109173840262 -0.42047267571091063 0 -0.5 -0.39656953661894012 0 -0.49450059031402238 -0.44698178380727199 0 -0.49461109173840262 -0.42047267571091063 0 -0.48473746643246862 -0.43972512984246093 0 -0.49461109173840262 -0.42047267571091063 0 -0.48043585850414389 -0.43127077967876992 0 -0.5 -0.44150235328842258 0 -0.49450059031402238 -0.44698178380727199 0 -0.49461109173840262 -0.42047267571091063 0 -0.48473746643246862 -0.43972512984246093 0 -0.49450059031402238 -0.44698178380727199 0 -0.49461109173840262 -0.42047267571091063 0 -0.49461109173840262 -0.42047267571091063 0 -0.4947215931627828 -0.39396356761454909 0 -0.49461109173840262 -0.42047267571091063 0 -0.48393842445605872 -0.40713040098299402 0 -0.4947215931627828 -0.39396356761454909 0 -0.49461109173840262 -0.42047267571091063 0 -0.48393842445605872 -0.40713040098299402 0 -0.47214510592166908 -0.41939033492402211 0 -0.48393842445605872 -0.40713040098299402 0 -0.47214510592166908 -0.41939033492402211 0 -0.47427590700138023 -0.39469502568249409 0 -0.46897642374787268 -0.44262015471777721 0 -0.47214510592166908 -0.41939033492402211 0 -0.48043585850414389 -0.43127077967876992 0 -0.49461109173840262 -0.42047267571091063 0 -0.47214510592166908 -0.41939033492402211 0 -0.48043585850414389 -0.43127077967876992 0 -0.5 -0.39656953661894012 0 -0.4947215931627828 -0.39396356761454909 0 -0.48030453056746109 -0.36861144308094029 0 -0.49461109173840262 -0.42047267571091063 0 -0.5 -0.39656953661894012 0 -0.4947215931627828 -0.39396356761454909 0 -0.48393842445605872 -0.40713040098299402 0 -0.4947215931627828 -0.39396356761454909 0 -0.47427590700138023 -0.39469502568249409 0 -0.47427590700138023 -0.39469502568249409 0 -0.48030453056746109 -0.36861144308094029 0 -0.4947215931627828 -0.39396356761454909 0 -0.47427590700138023 -0.39469502568249409 0 -0.48030453056746109 -0.36861144308094029 0 -0.47427590700138023 -0.39469502568249409 0 -0.46334377193483078 -0.37842983215876019 0 -0.48030453056746109 -0.36861144308094029 0 -0.46334377193483078 -0.37842983215876019 0 -0.45726543839001688 -0.40541672899881109 0 -0.44416021803808919 -0.38243724496113263 0 -0.47427590700138023 -0.39469502568249409 0 -0.46334377193483078 -0.37842983215876019 0 -0.45726543839001688 -0.40541672899881109 0 -0.45726543839001688 -0.40541672899881109 0 -0.43814282409564848 -0.40387353522152758 0 -0.44416021803808919 -0.38243724496113263 0 -0.43814282409564848 -0.40387353522152758 0 -0.44416021803808919 -0.38243724496113263 0 -0.4329908326547659 -0.40007252460533121 0 -0.43814282409564848 -0.40387353522152758 0 -0.44416021803808919 -0.38243724496113263 0 -0.46897642374787268 -0.44262015471777721 0 -0.47214510592166908 -0.41939033492402211 0 -0.45660235518767722 -0.42786105997071933 0 -0.47214510592166908 -0.41939033492402211 0 -0.47427590700138023 -0.39469502568249409 0 -0.45726543839001688 -0.40541672899881109 0 -0.47214510592166908 -0.41939033492402211 0 -0.45726543839001688 -0.40541672899881109 0 -0.45660235518767722 -0.42786105997071933 0 -0.45726543839001688 -0.40541672899881109 0 -0.45660235518767722 -0.42786105997071933 0 -0.44309263043645408 -0.41812298423377797 0 -0.45726543839001688 -0.40541672899881109 0 -0.43814282409564848 -0.40387353522152758 0 -0.44309263043645408 -0.41812298423377797 0 -0.43814282409564848 -0.40387353522152758 0 -0.44309263043645408 -0.41812298423377797 0 -0.43209373842114163 -0.42530092927673752 0 -0.44838221886832419 -0.4464230337388379 0 -0.45660235518767722 -0.42786105997071933 0 -0.44213238819953832 -0.43491600865963681 0 -0.45660235518767722 -0.42786105997071933 0 -0.44213238819953832 -0.43491600865963681 0 -0.43132710435572019 -0.42815377149591122 0 -0.45660235518767722 -0.42786105997071933 0 -0.44309263043645408 -0.41812298423377797 0 -0.43132710435572019 -0.42815377149591122 0 -0.45660235518767722 -0.42786105997071933 0 -0.43132710435572019 -0.42815377149591122 0 -0.44213238819953832 -0.43491600865963681 0 -0.42986244815509678 -0.43337144475258638 0 -0.435988539966085 -0.44148905847597392 0 -0.44213238819953832 -0.43491600865963681 0 -0.42986244815509678 -0.43337144475258638 0 -0.43132710435572019 -0.42815377149591122 0 -0.42986244815509678 -0.43337144475258638 0 -0.43132710435572019 -0.42815377149591122 0 -0.42986244815509678 -0.43337144475258638 0 -0.42494843276815808 -0.42822764260015772 0 -0.42026026496879931 -0.43681168621285732 0 -0.42986244815509678 -0.43337144475258638 0 -0.42494843276815808 -0.42822764260015772 0 -0.43132710435572019 -0.42815377149591122 0 -0.42494843276815808 -0.42822764260015772 0 -0.43209373842114163 -0.42530092927673752 0 -0.42214799869492048 -0.41876725226122891 0 -0.42494843276815808 -0.42822764260015772 0 -0.43209373842114163 -0.42530092927673752 0 -0.42494843276815808 -0.42822764260015772 0 -0.43209373842114163 -0.42530092927673752 0 -0.43132710435572019 -0.42815377149591122 0 -0.42494843276815808 -0.42822764260015772 0 -0.43132710435572019 -0.42815377149591122 0 -0.44309263043645408 -0.41812298423377797 0 -0.43209373842114163 -0.42530092927673752 0 -0.43132710435572019 -0.42815377149591122 0 -0.43209373842114163 -0.42530092927673752 0 -0.43132710435572019 -0.42815377149591122 0 -0.43814282409564848 -0.40387353522152758 0 -0.43209373842114163 -0.42530092927673752 0 -0.43814282409564848 -0.40387353522152758 0 -0.43209373842114163 -0.42530092927673752 0 -0.42736227186559528 -0.41250939947999687 0 -0.43814282409564848 -0.40387353522152758 0 -0.42736227186559528 -0.41250939947999687 0 -0.42798743510346321 -0.40461924019690898 0
[...]
<PointData Scalars="" Vectors="displacement," Tensors="">
<DataArray type="Float64" Name="displacement" NumberOfComponents="3" format="ascii">
-9.8666645107683737e-08 -0.0249996074157031 0 -7.012522368879463e-05 -0.023938845129336958 0 1.6276348585305493e-10 -0.024999612947237529 0 -6.5957816111273575e-10 -0.024999938079919643 0 -1.6363279907275434e-07 -0.023677094486063009 0 -6.5957816111273575e-10 -0.024999938079919643 0 -1.6363279907275434e-07 -0.023677094486063009 0 -4.2782300291099011e-09 -0.0220749152045507 0 -6.7655017005234665e-08 -0.024999650879935352 0 -8.3506685317233555e-05 -0.024216695457760003 0 -5.2360755035949378e-05 -0.024667015291756529 0 -6.7655017005234665e-08 -0.024999650879935352 0 -7.9519674819127535e-08 -0.024999438470350216 0 -5.2360755035949378e-05 -0.024667015291756529 0 -8.3506685317233555e-05 -0.024216695457760003 0 -6.4868181935731932e-05 -0.024505001213331514 0 -5.2360755035949378e-05 -0.024667015291756529 0 -6.4868181935731932e-05 -0.024505001213331514 0 -7.9519674819127535e-08 -0.024999438470350216 0 -5.2360755035949378e-05 -0.024667015291756529 0 -0.00033132052282290158 -0.024004110393280712 0 -4.6403781907578276e-07 -0.024999385704537854 0 -0.00022091642099613003 -0.024536062418594174 0 -6.4868181935731932e-05 -0.024505001213331514 0 -7.9519674819127535e-08 -0.024999438470350216 0 2.7265248817607621e-08 -0.025000051996717853 0 -0.00019004331292453346 -0.02422867265886099 0 5.6344415637229201e-09 -0.024999696768378595 0 -0.00033132052282290158 -0.024004110393280712 0 -0.00022091642099613003 -0.024536062418594174 0 -0.00032304146031990495 -0.024062578243817179 0 -0.00032593728858002348 -0.024349929995916283 0 -0.00022091642099613003 -0.024536062418594174 0 -0.00032304146031990495 -0.024062578243817179 0 -0.00032593728858002348 -0.024349929995916283 0 -9.0720809237002774e-09 -0.02499912242126907 0 -0.00022091642099613003 -0.024536062418594174 0 -0.00022015876558266698 -0.02460382405727516 0 -1.3382806995533486e-07 -0.024999807475427759 0 -4.6403781907578276e-07 -0.024999385704537854 0 -9.0720809237002774e-09 -0.02499912242126907 0 -0.00022091642099613003 -0.024536062418594174 0 -0.00018796996794789533 -0.023773548834354351 0 -0.00021642278452168353 -0.024387777961760438 0 -5.6696269595110221e-05 -0.024124480419403543 0 -0.00018796996794789533 -0.023773548834354351 0 1.4323601643615494e-05 -0.023801754665158249 0 -5.6696269595110221e-05 -0.024124480419403543 0 -0.00018796996794789533 -0.023773548834354351 0 -0.00032304146031990495 -0.024062578243817179 0 -0.00025961627198628181 -0.023717153944739965 0 -0.00018796996794789533 -0.023773548834354351 0 -0.00032304146031990495 -0.024062578243817179 0 -0.00021642278452168353 -0.024387777961760438 0 -0.00032593728858002348 -0.024349929995916283 0 -0.00032304146031990495 -0.024062578243817179 0 -0.00021642278452168353 -0.024387777961760438 0 -0.00033132052282290158 -0.024004110393280712 0 -0.00032304146031990495 -0.024062578243817179 0 -0.00026091658249080557 -0.023615297595555824 0 -0.00032304146031990495 -0.024062578243817179 0 -0.00025961627198628181 -0.023717153944739965 0 -0.00026091658249080557 -0.023615297595555824 0 -0.00018796996794789533 -0.023773548834354351 0 -0.00023283976135289572 -0.023148955438095229 0 -6.8527814192392153e-05 -0.022965681682388637 0 -0.00018796996794789533 -0.023773548834354351 0 -0.00025961627198628181 -0.023717153944739965 0 -0.00023283976135289572 -0.023148955438095229 0 -0.00025961627198628181 -0.023717153944739965 0 -0.00026091658249080557 -0.023615297595555824 0 -0.00023283976135289572 -0.023148955438095229 0 -1.6363279907275434e-07 -0.023677094486063009 0 -4.2782300291099011e-09 -0.0220749152045507 0 6.7912650732091792e-07 -0.022351015870283673 0 -0.00023283976135289572 -0.023148955438095229 0 -0.00027225346811958679 -0.022920794808778688 0 -0.00027333383736285398 -0.02261381226048239 0 -0.00023283976135289572 -0.023148955438095229 0 -0.00021761556843631543 -0.023386558709052353 0 -0.00027225346811958679 -0.022920794808778688 0 -0.00026091658249080557 -0.023615297595555824 0 -0.00023283976135289572 -0.023148955438095229 0 -0.00021761556843631543 -0.023386558709052353 0 -0.00019004331292453346 -0.02422867265886099 0 -0.00021293352202046727 -0.023539187910794495 0 -8.3506685317233555e-05 -0.024216695457760003 0 -6.4868181935731932e-05 -0.024505001213331514 0 -0.00021761556843631543 -0.023386558709052353 0 -0.00033132052282290158 -0.024004110393280712 0 -0.00026091658249080557 -0.023615297595555824 0 -0.00021761556843631543 -0.023386558709052353 0 -7.012522368879463e-05 -0.023938845129336958 0 -0.00013526419863032203 -0.022782902194173893 0 -8.3506685317233555e-05 -0.024216695457760003 0 -0.00021761556843631543 -0.023386558709052353 0 -0.00024991903205201662 -0.023230555440991889 0 -0.00021761556843631543 -0.023386558709052353 0 -0.00027225346811958679 -0.022920794808778688 0 -0.00024991903205201662 -0.023230555440991889 0 -4.2782300291099011e-09 -0.0220749152045507 0 -1.4336448189802494e-05 -0.021025911925609278 0 -1.9587443137973104e-07 -0.019829432878661599 0 -0.00013526419863032203 -0.022782902194173893 0 -0.00013232328586560468 -0.021421359388810547 0 -0.00027225346811958679 -0.022920794808778688 0 -0.0003080835947977434 -0.02191258728220993 0 -0.00027333383736285398 -0.02261381226048239 0 -4.2782300291099011e-09 -0.0220749152045507 0 6.7912650732091792e-07 -0.022351015870283673 0 -1.4336448189802494e-05 -0.021025911925609278 0 -0.00027225346811958679 -0.022920794808778688 0 -0.00024991903205201662 -0.023230555440991889 0 -0.0003080835947977434 -0.02191258728220993 0 -0.00013232328586560468 -0.021421359388810547 0 5.3063788295071333e-05 -0.020239419111661348 0 -0.0003080835947977434 -0.02191258728220993 0 -0.00016334149458663622 -0.021364768757045644 0 1.3984952407992182e-05 -0.019963578459007106 0 -0.0003080835947977434 -0.02191258728220993 0 -0.00016334149458663622 -0.021364768757045644 0 -0.00022302230820457953 -0.022295339227817845 0 -0.00016334149458663622 -0.021364768757045644 0 -0.00022302230820457953 -0.022295339227817845 0 0.00014004893328873729 -0.021267013067110815 0 -0.00023283976135289572 -0.023148955438095229 0 -0.00022302230820457953 -0.022295339227817845 0 -0.00027333383736285398 -0.02261381226048239 0 -0.0003080835947977434 -0.02191258728220993 0 -0.00022302230820457953 -0.022295339227817845 0 -0.00027333383736285398 -0.02261381226048239 0 -1.9587443137973104e-07 -0.019829432878661599 0 1.3984952407992182e-05 -0.019963578459007106 0 0.00016242526872427781 -0.01924315649217519 0 -1.4336448189802494e-05 -0.021025911925609278 0 -1.9587443137973104e-07 -0.019829432878661599 0 1.3984952407992182e-05 -0.019963578459007106 0 -0.00016334149458663622 -0.021364768757045644 0 1.3984952407992182e-05 -0.019963578459007106 0 0.00014004893328873729 -0.021267013067110815 0 5.8898783349850187e-05 -0.021048327668317626 0 0.00071179093272313518 -0.020389974964902302 0 1.3984952407992182e-05 -0.019963578459007106 0 0.00014004893328873729 -0.021267013067110815 0 0.00016242526872427781 -0.01924315649217519 0 0.00014004893328873729 -0.021267013067110815 0 0.00094238332085878852 -0.021844677331241628 0 0.0014077288108244883 -0.020977975908590279 0 0.00094238332085878852 -0.021844677331241628 0 -6.1578962334418505e-05 -0.02237952620196082 0 0.00075557894735824862 -0.022688288310238537 0 0.00014004893328873729 -0.021267013067110815 0 0.00094238332085878852 -0.021844677331241628 0 -6.1578962334418505e-05 -0.02237952620196082 0 -6.1578962334418505e-05 -0.02237952620196082 0 2.7558315349658292e-05 -0.022863851185499304 0 0.00075557894735824862 -0.022688288310238537 0 -0.00059680546771436415 -0.019832136828743362 0 -7.9510494234000462e-05 -0.019657124404802946 0 -0.00049829026374917785 -0.01996094764144047 0 -0.00034039705610982868 -0.021247426525295071 0 0.00038200419490106493 -0.021445167198729454 0 -0.00023283976135289572 -0.023148955438095229 0 -0.00022302230820457953 -0.022295339227817845 0 -6.8527814192392153e-05 -0.022965681682388637 0 -0.00022302230820457953 -0.022295339227817845 0 0.00014004893328873729 -0.021267013067110815 0 -6.1578962334418505e-05 -0.02237952620196082 0 -0.00022302230820457953 -0.022295339227817845 0 -6.1578962334418505e-05 -0.02237952620196082 0 -6.8527814192392153e-05 -0.022965681682388637 0 -6.1578962334418505e-05 -0.02237952620196082 0 -6.8527814192392153e-05 -0.022965681682388637 0 -0.00012268343245454345 -0.022790044092176276 0 -6.1578962334418505e-05 -0.02237952620196082 0 2.7558315349658292e-05 -0.022863851185499304 0 -0.00012268343245454345 -0.022790044092176276 0 2.7558315349658292e-05 -0.022863851185499304 0 -0.00012268343245454345 -0.022790044092176276 0 -0.00012239454288066594 -0.022769837124774754 0 -0.00018796996794789533 -0.023773548834354351 0 -6.8527814192392153e-05 -0.022965681682388637 0 1.4323601643615494e-05 -0.023801754665158249 0 -6.8527814192392153e-05 -0.022965681682388637 0 1.4323601643615494e-05 -0.023801754665158249 0 0.00043398022665839598 -0.024308332591866297 0 -6.8527814192392153e-05 -0.022965681682388637 0 -0.00012268343245454345 -0.022790044092176276 0 -0.00011128147804649541 -0.022759454475741327 0 1.8124025825314121e-05 -0.023194706228627841 0 -4.0706649167726654e-05 -0.023154416287666992 0 1.4323601643615494e-05 -0.023801754665158249 0 0.000182746552619779 -0.024353520637784398 0 -5.6696269595110221e-05 -0.024124480419403543 0 1.4323601643615494e-05 -0.023801754665158249 0 0.000182746552619779 -0.024353520637784398 0 0.00043398022665839598 -0.024308332591866297 0 1.3151877445866892e-05 -0.023450190314091911 0 -4.0706649167726654e-05 -0.023154416287666992 0 0.000182746552619779 -0.024353520637784398 0 0.00027821953714786006 -0.024463207670698432 0 0.00011414472898581329 -0.024555412785406589 0 0.000182746552619779 -0.024353520637784398 0 0.00027821953714786006 -0.024463207670698432 0 0.0002865444727012492 -0.024323012092172455 0 -0.0012826147396251127 -0.020218246536508486 0 -0.0011993672475858769 -0.02001720690600995 0 -0.0010203706958759476 -0.020288005459092154 0 -0.00015164599013746947 -0.022780338249362417 0 -0.00011174536196716983 -0.022404024114719492 0 -0.00026105352960444713 -0.022792607787877877 0 -0.00022844469225189506 -0.022714886712753256 0 -0.00025959822199467854 -0.022723521581441624 0 -0.00015164599013746947 -0.022780338249362417 0 -4.0706649167726654e-05 -0.023154416287666992 0 -0.00012268343245454345 -0.022790044092176276 0 -0.00012239454288066594 -0.022769837124774754 0 -0.00011128147804649541 -0.022759454475741327 0 -0.00011174536196716983 -0.022404024114719492 0 -4.0706649167726654e-05 -0.023154416287666992 0 -0.00034039705610982868 -0.021247426525295071 0 -0.00011174536196716983 -0.022404024114719492 0 -0.00059680546771436415 -0.019832136828743362 0 -0.0011993672475858769 -0.02001720690600995 0 -0.00084334051392549801 -0.020135507445137542 0 -0.00059680546771436415 -0.019832136828743362 0 -0.00084334051392549801 -0.020135507445137542 0 -0.00062477275113997748 -0.020107563089095327 0 -0.00084334051392549801 -0.020135507445137542 0 -0.0010203706958759476 -0.020288005459092154 0 -0.00077722780024537205 -0.020439514302061767 0 -0.00084334051392549801 -0.020135507445137542 0 -0.00077722780024537205 -0.020439514302061767 0 -0.00062477275113997748 -0.020107563089095327 0 -0.0011993672475858769 -0.02001720690600995 0 -0.00084334051392549801 -0.020135507445137542 0 -0.0010203706958759476 -0.020288005459092154 0 -0.00077722780024537205 -0.020439514302061767 0 -0.0010490727881014991 -0.020540518177402843 0 -0.00085763074369621319 -0.020894161463945918 0 -0.00077722780024537205 -0.020439514302061767 0 -0.00055240587051992682 -0.020779089473068484 0 -0.00085763074369621319 -0.020894161463945918 0 -0.0010203706958759476 -0.020288005459092154 0 -0.00077722780024537205 -0.020439514302061767 0 -0.0010490727881014991 -0.020540518177402843 0 0.00027821953714786006 -0.024463207670698432 0 0.00011414472898581329 -0.024555412785406589 0 8.6811419341118273e-05 -0.024818590430154452 0 -0.00015164599013746947 -0.022780338249362417 0 6.8331081847171598e-05 -0.024676001868808781 0 0.00027467109128514507 -0.023540699006377511 0 5.7148851146526268e-05 -0.024125323161332927 0 0.00026534599661979044 -0.024172080274118025 0 -0.00015164599013746947 -0.022780338249362417 0 -0.00055164253100653906 -0.022317742862085276 0 -0.0012826147396251127 -0.020218246536508486 0 -0.0010490727881014991 -0.020540518177402843 0 -0.0013023764601815644 -0.02087005515301292 0 -0.0012826147396251127 -0.020218246536508486 0 -0.0010203706958759476 -0.020288005459092154 0 -0.0010490727881014991 -0.020540518177402843 0 -1.6122482214802921e-05 -0.020664791462520517 0 -0.00067266541964623294 -0.018122302915282516 0 -0.00049829026374917785 -0.01996094764144047 0 -0.00025837631014242931 -0.020371731415075117 0 0.00010220832939445236 -0.020331700323551836 0 -7.2981204770771247e-05 -0.019930441467007228 0 -0.00049829026374917785 -0.01996094764144047 0 4.5941901640892847e-05 -0.020228067353249921 0 -7.9510494234000462e-05 -0.019657124404802946 0 -7.2981204770771247e-05 -0.019930441467007228 0 -0.00049829026374917785 -0.01996094764144047 0 -7.2981204770771247e-05 -0.019930441467007228 0 4.5941901640892847e-05 -0.020228067353249921 0 0.0002391841843383022 -0.019870780871157723 0 -7.9510494234000462e-05 -0.019657124404802946 0 -7.2981204770771247e-05 -0.019930441467007228 0 0.0002391841843383022 -0.019870780871157723 0 -0.00049829026374917785 -0.01996094764144047 0 -0.00053312203878760499 -0.020280264949855461 0 -0.00025837631014242931 -0.020371731415075117 0 -0.00059680546771436415 -0.019832136828743362 0 -0.00049829026374917785 -0.01996094764144047 0 -0.00062477275113997748 -0.020107563089095327 0 -0.00049829026374917785 -0.01996094764144047 0 -0.00062477275113997748 -0.020107563089095327 0 -0.00053312203878760499 -0.020280264949855461 0 -0.00077722780024537205 -0.020439514302061767 0 -0.00062477275113997748 -0.020107563089095327 0 -0.00053312203878760499 -0.020280264949855461 0 -0.00036333576886150279 -0.020719017164413409 0 -0.00025837631014242931 -0.020371731415075117 0 -9.4225645299755037e-05 -0.020864780796017588 0 -0.00077722780024537205 -0.020439514302061767 0 -0.00053312203878760499 -0.020280264949855461 0 -0.00049704099913615079 -0.02051721836941045 0 -0.00077722780024537205 -0.020439514302061767 0 -0.00049704099913615079 -0.02051721836941045 0 -0.00055240587051992682 -0.020779089473068484 0 -0.00049704099913615079 -0.02051721836941045 0 -0.00036333576886150279 -0.020719017164413409 0 -0.00055240587051992682 -0.020779089473068484 0 -0.00049704099913615079 -0.02051721836941045 0 -0.00036333576886150279 -0.020719017164413409 0 -0.00025837631014242931 -0.020371731415075117 0 -0.00053312203878760499 -0.020280264949855461 0 -0.00049704099913615079 -0.02051721836941045 0 -0.00025837631014242931 -0.020371731415075117 0 -0.00017497133752231148 -0.020624375663873099 0 -0.00058426358464361652 -0.020277402332540828 0 -0.00025837631014242931 -0.020371731415075117 0 -2.3072206739690073e-05 -0.020545553605495422 0 -0.00012863922500727971 -0.020745978584076188 0 -0.00025837631014242931 -0.020371731415075117 0 -1.7628566902265224e-05 -0.02040936708911574 0 0.00010220832939445236 -0.020331700323551836 0 -0.00025837631014242931 -0.020371731415075117 0 -2.0643040137470809e-05 -0.020486257636757581 0 -1.7628566902265224e-05 -0.02040936708911574 0 -0.00025837631014242931 -0.020371731415075117 0 -2.0643040137470809e-05 -0.020486257636757581 0 -2.3072206739690073e-05 -0.020545553605495422 0 -0.00076695836818327639 -0.018979167754073892 0 -0.00079314281602490936 -0.019581333414077844 0 -2.0643040137470809e-05 -0.020486257636757581 0 2.4130658084588011e-05 -0.020453681571511211 0 -2.3456368532022563e-05 -0.020539559605660593 0 -0.0013716783738500153 -0.018830634980031988 0 -0.0013203441920143695 -0.018728977628765246 0 -0.0017134401686044918 -0.01850546671656254 0 -0.00074726952227413144 -0.019780397728897739 0 -0.00079314281602490936 -0.019581333414077844 0 -0.00076695836818327639 -0.018979167754073892 0 -0.00067266541964623294 -0.018122302915282516 0 3.2462360711249378e-05 -0.020454905828373823 0 -1.7628566902265224e-05 -0.02040936708911574 0 0.00010220832939445236 -0.020331700323551836 0 -2.0643040137470809e-05 -0.020486257636757581 0 2.4130658084588011e-05 -0.020453681571511211 0 -1.7628566902265224e-05 -0.02040936708911574 0 -0.00076695836818327639 -0.018979167754073892 0 -0.00050472062489968414 -0.01928035941203101 0 -0.0011041710398957702 -0.019849142028546211 0 -0.0011084263912154761 -0.019109228415531417 0 -0.00093220058412156416 -0.019505049498015577 0 -0.00088923096184312833 -0.019850569122767885 0 -0.00094903746527771524 -0.019710315234769845 0 -0.0010970411078283647 -0.019995020368135934 0 -0.0013203441920143695 -0.018728977628765246 0 -0.0013213429426709193 -0.018243520389828332 0 -0.0017134401686044918 -0.01850546671656254 0 -0.00079314281602490936 -0.019581333414077844 0 -0.0015625535080834316 -0.018745921203935305 0 -0.00079314281602490936 -0.019581333414077844 0 -0.00058426358464361652 -0.020277402332540828 0 -0.0015625535080834316 -0.018745921203935305 0 -0.00058426358464361652 -0.020277402332540828 0 -9.4225645299755037e-05 -0.020864780796017588 0 -0.0003971976231353007 -0.021050355263521635 0 -0.00038963639342909806 -0.02143156357175097 0 -0.00058426358464361652 -0.020277402332540828 0 -0.0010565852804256595 -0.020362756890738357 0 -0.00036333576886150279 -0.020719017164413409 0 -0.0003971976231353007 -0.021050355263521635 0 -0.00055240587051992682 -0.020779089473068484 0 -0.00036333576886150279 -0.020719017164413409 0 -9.4225645299755037e-05 -0.020864780796017588 0 -0.0003971976231353007 -0.021050355263521635 0 -0.0003971976231353007 -0.021050355263521635 0 -0.00055240587051992682 -0.020779089473068484 0 -0.00059179050050958671 -0.021010262366094781 0 -0.00055240587051992682 -0.020779089473068484 0 -0.00059179050050958671 -0.021010262366094781 0 -0.00085763074369621319 -0.020894161463945918 0 -0.00059179050050958671 -0.021010262366094781 0 -0.0005129816747560487 -0.021269511940335131 0 -0.000705879583351558 -0.021207289624298856 0 -0.0003971976231353007 -0.021050355263521635 0 -0.00059179050050958671 -0.021010262366094781 0 -0.0005129816747560487 -0.021269511940335131 0 -0.00066989371486123094 -0.021436446934823081 0 -0.00059327240687311197 -0.021427641707689758 0 -0.000705879583351558 -0.021207289624298856 0 -0.00059327240687311197 -0.021427641707689758 0 -0.00046940561948845185 -0.021471776225985374 0 -0.000705879583351558 -0.021207289624298856 0 -0.0005129816747560487 -0.021269511940335131 0 -0.00044379123235221686 -0.021466759377037174 0 -0.000705879583351558 -0.021207289624298856 0 -0.00096367435355850125 -0.020544359132617412 0 -0.00045609751081255277 -0.021395769576622675 0 -0.00096367435355850125 -0.020544359132617412 0 -0.001420979165594061 -0.020478581464475284 0 -0.00055921600874523096 -0.021563230778881129 0 -0.00047275474028366199 -0.021469974238331489 0 -0.00054796579967159368 -0.021663866566039056 0 -0.00066989371486123094 -0.021436446934823081 0 -0.00059327240687311197 -0.021427641707689758 0 -0.00060215527993597463 -0.021508752813220188 0 -0.00066989371486123094 -0.021436446934823081 0 -0.00066315421861598025 -0.02157146289745503 0 -0.00060215527993597463 -0.021508752813220188 0 -0.00066315421861598025 -0.02157146289745503 0 -0.00060215527993597463 -0.021508752813220188 0 -0.00055921600874523096 -0.021563230778881129 0 -0.00060215527993597463 -0.021508752813220188 0 -0.00055921600874523096 -0.021563230778881129 0 -0.00051978424483189979 -0.02150227011292986 0 -0.00055921600874523096 -0.021563230778881129 0 -0.00051978424483189979 -0.02150227011292986 0 -0.00047275474028366199 -0.021469974238331489 0 -0.00095696432715902473 -0.020604815333134994 0 -0.00096367435355850125 -0.020544359132617412 0 -0.00059327240687311197 -0.021427641707689758 0 -0.00051978424483189979 -0.02150227011292986 0 -0.00046940561948845185 -0.021471776225985374 0 -0.00059327240687311197 -0.021427