<?xml version="1.0"?>
<VTKFile type="UnstructuredGrid" version="0.1" byte_order="LittleEndian">
<UnstructuredGrid>
<Piece NumberOfPoints="30618" NumberOfCells="10744">
<Points>
<DataArray type="Float64" NumberOfComponents="3" format="ascii">
-0.49427958746526202 -0.49999999999999512 0 -0.4943900888896422 -0.47349089190363358 0 -0.49427958746526202 -0.49999999999999512 0 -0.5 -0.5 0 -0.4943900888896422 -0.47349089190363358 0 -0.5 -0.5 0 -0.4943900888896422 -0.47349089190363358 0 -0.5 -0.44150235328842258 0 -0.49427958746526202 -0.49999999999999512 0 -0.4943900888896422 -0.47349089190363358 0 -0.48436842240857858 -0.48714093788813112 0 -0.49427958746526202 -0.49999999999999512 0 -0.47650045540741742 -0.5 0 -0.48436842240857858 -0.48714093788813112 0 -0.4943900888896422 -0.47349089190363358 0 -0.47066899942757451 -0.47576530412887819 0 -0.48436842240857858 -0.48714093788813112 0 -0.47066899942757451 -0.47576530412887819 0 -0.47650045540741742 -0.5 0 -0.48436842240857858 -0.48714093788813112 0 -0.47066899942757451 -0.47576530412887819 0 -0.45872132334957288 -0.49999999999999928 0 -0.45242967983978871 -0.4846708604340636 0 -0.47066899942757451 -0.47576530412887819 0 -0.47650045540741742 -0.5 0 -0.45872132334957288 -0.49999999999999928 0 -0.47066899942757451 -0.47576530412887819 0 -0.45872132334957288 -0.49999999999999928 0 -0.47066899942757451 -0.47576530412887819 0 -0.45242967983978871 -0.4846708604340636 0 -0.45249717469141032 -0.46588444847215849 0 -0.43763952177061649 -0.47770500498713542 0 -0.45242967983978871 -0.4846708604340636 0 -0.45249717469141032 -0.46588444847215849 0 -0.43763952177061649 -0.47770500498713542 0 -0.44291044788006362 -0.49999999999999939 0 -0.45242967983978871 -0.4846708604340636 0 -0.43763952177061649 -0.47770500498713542 0 -0.44291044788006362 -0.49999999999999939 0 -0.45872132334957288 -0.49999999999999928 0 -0.44291044788006362 -0.49999999999999939 0 -0.45242967983978871 -0.4846708604340636 0 -0.44838221886832419 -0.4464230337388379 0 -0.4323685956611692 -0.45541000997427139 0 -0.435988539966085 -0.44148905847597392 0 -0.44838221886832419 -0.4464230337388379 0 -0.44213238819953832 -0.43491600865963681 0 -0.435988539966085 -0.44148905847597392 0 -0.44838221886832419 -0.4464230337388379 0 -0.45249717469141032 -0.46588444847215849 0 -0.45755175660874181 -0.45423607616472811 0 -0.44838221886832419 -0.4464230337388379 0 -0.45249717469141032 -0.46588444847215849 0 -0.4323685956611692 -0.45541000997427139 0 -0.43763952177061649 -0.47770500498713542 0 -0.45249717469141032 -0.46588444847215849 0 -0.4323685956611692 -0.45541000997427139 0 -0.47066899942757451 -0.47576530412887819 0 -0.45249717469141032 -0.46588444847215849 0 -0.4675747862741928 -0.45726336772241771 0 -0.45249717469141032 -0.46588444847215849 0 -0.45755175660874181 -0.45423607616472811 0 -0.4675747862741928 -0.45726336772241771 0 -0.44838221886832419 -0.4464230337388379 0 -0.46897642374787268 -0.44262015471777721 0 -0.45660235518767722 -0.42786105997071933 0 -0.44838221886832419 -0.4464230337388379 0 -0.45755175660874181 -0.45423607616472811 0 -0.46897642374787268 -0.44262015471777721 0 -0.45755175660874181 -0.45423607616472811 0 -0.4675747862741928 -0.45726336772241771 0 -0.46897642374787268 -0.44262015471777721 0 -0.4943900888896422 -0.47349089190363358 0 -0.5 -0.44150235328842258 0 -0.49450059031402238 -0.44698178380727199 0 -0.46897642374787268 -0.44262015471777721 0 -0.48473746643246862 -0.43972512984246093 0 -0.48043585850414389 -0.43127077967876992 0 -0.46897642374787268 -0.44262015471777721 0 -0.4826166755055763 -0.45153060825775743 0 -0.48473746643246862 -0.43972512984246093 0 -0.4675747862741928 -0.45726336772241771 0 -0.46897642374787268 -0.44262015471777721 0 -0.4826166755055763 -0.45153060825775743 0 -0.47066899942757451 -0.47576530412887819 0 -0.4826166755055763 -0.45153060825775743 0 -0.4943900888896422 -0.47349089190363358 0 -0.47066899942757451 -0.47576530412887819 0 -0.4826166755055763 -0.45153060825775743 0 -0.47066899942757451 -0.47576530412887819 0 -0.4675747862741928 -0.45726336772241771 0 -0.4826166755055763 -0.45153060825775743 0 -0.4943900888896422 -0.47349089190363358 0 -0.49450059031402238 -0.44698178380727199 0 -0.4943900888896422 -0.47349089190363358 0 -0.4826166755055763 -0.45153060825775743 0 -0.49450059031402238 -0.44698178380727199 0 -0.4826166755055763 -0.45153060825775743 0 -0.48473746643246862 -0.43972512984246093 0 -0.49450059031402238 -0.44698178380727199 0 -0.5 -0.44150235328842258 0 -0.49461109173840262 -0.42047267571091063 0 -0.5 -0.39656953661894012 0 -0.49450059031402238 -0.44698178380727199 0 -0.49461109173840262 -0.42047267571091063 0 -0.48473746643246862 -0.43972512984246093 0 -0.49461109173840262 -0.42047267571091063 0 -0.48043585850414389 -0.43127077967876992 0 -0.5 -0.44150235328842258 0 -0.49450059031402238 -0.44698178380727199 0 -0.49461109173840262 -0.42047267571091063 0 -0.48473746643246862 -0.43972512984246093 0 -0.49450059031402238 -0.44698178380727199 0 -0.49461109173840262 -0.42047267571091063 0 -0.49461109173840262 -0.42047267571091063 0 -0.4947215931627828 -0.39396356761454909 0 -0.49461109173840262 -0.42047267571091063 0 -0.48393842445605872 -0.40713040098299402 0 -0.4947215931627828 -0.39396356761454909 0 -0.49461109173840262 -0.42047267571091063 0 -0.48393842445605872 -0.40713040098299402 0 -0.47214510592166908 -0.41939033492402211 0 -0.48393842445605872 -0.40713040098299402 0 -0.47214510592166908 -0.41939033492402211 0 -0.47427590700138023 -0.39469502568249409 0 -0.46897642374787268 -0.44262015471777721 0 -0.47214510592166908 -0.41939033492402211 0 -0.48043585850414389 -0.43127077967876992 0 -0.49461109173840262 -0.42047267571091063 0 -0.47214510592166908 -0.41939033492402211 0 -0.48043585850414389 -0.43127077967876992 0 -0.5 -0.39656953661894012 0 -0.4947215931627828 -0.39396356761454909 0 -0.48030453056746109 -0.36861144308094029 0 -0.49461109173840262 -0.42047267571091063 0 -0.5 -0.39656953661894012 0 -0.4947215931627828 -0.39396356761454909 0 -0.48393842445605872 -0.40713040098299402 0 -0.4947215931627828 -0.39396356761454909 0 -0.47427590700138023 -0.39469502568249409 0 -0.47427590700138023 -0.39469502568249409 0 -0.48030453056746109 -0.36861144308094029 0 -0.4947215931627828 -0.39396356761454909 0 -0.47427590700138023 -0.39469502568249409 0 -0.48030453056746109 -0.36861144308094029 0 -0.47427590700138023 -0.39469502568249409 0 -0.46334377193483078 -0.37842983215876019 0 -0.48030453056746109 -0.36861144308094029 0 -0.46334377193483078 -0.37842983215876019 0 -0.45726543839001688 -0.40541672899881109 0 -0.44416021803808919 -0.38243724496113263 0 -0.47427590700138023 -0.39469502568249409 0 -0.46334377193483078 -0.37842983215876019 0 -0.45726543839001688 -0.40541672899881109 0 -0.45726543839001688 -0.40541672899881109 0 -0.43814282409564848 -0.40387353522152758 0 -0.44416021803808919 -0.38243724496113263 0 -0.43814282409564848 -0.40387353522152758 0 -0.44416021803808919 -0.38243724496113263 0 -0.4329908326547659 -0.40007252460533121 0 -0.43814282409564848 -0.40387353522152758 0 -0.44416021803808919 -0.38243724496113263 0 -0.46897642374787268 -0.44262015471777721 0 -0.47214510592166908 -0.41939033492402211 0 -0.45660235518767722 -0.42786105997071933 0 -0.47214510592166908 -0.41939033492402211 0 -0.47427590700138023 -0.39469502568249409 0 -0.45726543839001688 -0.40541672899881109 0 -0.47214510592166908 -0.41939033492402211 0 -0.45726543839001688 -0.40541672899881109 0 -0.45660235518767722 -0.42786105997071933 0 -0.45726543839001688 -0.40541672899881109 0 -0.45660235518767722 -0.42786105997071933 0 -0.44309263043645408 -0.41812298423377797 0 -0.45726543839001688 -0.40541672899881109 0 -0.43814282409564848 -0.40387353522152758 0 -0.44309263043645408 -0.41812298423377797 0 -0.43814282409564848 -0.40387353522152758 0 -0.44309263043645408 -0.41812298423377797 0 -0.43209373842114163 -0.42530092927673752 0 -0.44838221886832419 -0.4464230337388379 0 -0.45660235518767722 -0.42786105997071933 0 -0.44213238819953832 -0.43491600865963681 0 -0.45660235518767722 -0.42786105997071933 0 -0.44213238819953832 -0.43491600865963681 0 -0.43132710435572019 -0.42815377149591122 0 -0.45660235518767722 -0.42786105997071933 0 -0.44309263043645408 -0.41812298423377797 0 -0.43132710435572019 -0.42815377149591122 0 -0.45660235518767722 -0.42786105997071933 0 -0.43132710435572019 -0.42815377149591122 0 -0.44213238819953832 -0.43491600865963681 0 -0.42986244815509678 -0.43337144475258638 0 -0.435988539966085 -0.44148905847597392 0 -0.44213238819953832 -0.43491600865963681 0 -0.42986244815509678 -0.43337144475258638 0 -0.43132710435572019 -0.42815377149591122 0 -0.42986244815509678 -0.43337144475258638 0 -0.43132710435572019 -0.42815377149591122 0 -0.42986244815509678 -0.43337144475258638 0 -0.42494843276815808 -0.42822764260015772 0 -0.42026026496879931 -0.43681168621285732 0 -0.42986244815509678 -0.43337144475258638 0 -0.42494843276815808 -0.42822764260015772 0 -0.43132710435572019 -0.42815377149591122 0 -0.42494843276815808 -0.42822764260015772 0 -0.43209373842114163 -0.42530092927673752 0 -0.42214799869492048 -0.41876725226122891 0 -0.42494843276815808 -0.42822764260015772 0 -0.43209373842114163 -0.42530092927673752 0 -0.42494843276815808 -0.42822764260015772 0 -0.43209373842114163 -0.42530092927673752 0 -0.43132710435572019 -0.42815377149591122 0 -0.42494843276815808 -0.42822764260015772 0 -0.43132710435572019 -0.42815377149591122 0 -0.44309263043645408 -0.41812298423377797 0 -0.43209373842114163 -0.42530092927673752 0 -0.43132710435572019 -0.42815377149591122 0 -0.43209373842114163 -0.42530092927673752 0 -0.43132710435572019 -0.42815377149591122 0 -0.43814282409564848 -0.40387353522152758 0 -0.43209373842114163 -0.42530092927673752 0 -0.43814282409564848 -0.40387353522152758 0 -0.43209373842114163 -0.42530092927673752 0 -0.42736227186559528 -0.41250939947999687 0 -0.43814282409564848 -0.40387353522152758 0 -0.42736227186559528 -0.41250939947999687 0 -0.42798743510346321 -0.40461924019690898 0
[...]
<PointData Scalars="" Vectors="displacement," Tensors="">
<DataArray type="Float64" Name="displacement" NumberOfComponents="3" format="ascii">
-0.024999735829626626 -0.024713959876611111 0 -0.024611252172577178 -0.024621277893905572 0 -0.024999410336076704 -0.024717135333905623 0 -0.025000377935533107 -0.02499791891972597 0 -0.023703313930652621 -0.025257224542474529 0 -0.025000377935533107 -0.02499791891972597 0 -0.023703313930652621 -0.025257224542474529 0 -0.022074624261838063 -0.025001085773917037 0 -0.025000076650957749 -0.024713225782987267 0 -0.025657218805777121 -0.024017137327341301 0 -0.025398903578685135 -0.024086513527449623 0 -0.025000076650957749 -0.024713225782987267 0 -0.024999877837470073 -0.023825048807586853 0 -0.025398903578685135 -0.024086513527449623 0 -0.025657218805777121 -0.024017137327341301 0 -0.025677165504344998 -0.023825824554291126 0 -0.025398903578685135 -0.024086513527449623 0 -0.025677165504344998 -0.023825824554291126 0 -0.024999877837470073 -0.023825048807586853 0 -0.025398903578685135 -0.024086513527449623 0 -0.02522547944884268 -0.02365041981901048 0 -0.024999540950904779 -0.022935222460072291 0 -0.025153039677790447 -0.022991159495006866 0 -0.025677165504344998 -0.023825824554291126 0 -0.024999877837470073 -0.023825048807586853 0 -0.024999962806669791 -0.022936559359654222 0 -0.025441860817601625 -0.02371062059283922 0 -0.025000074032801047 -0.022936328688667219 0 -0.02522547944884268 -0.02365041981901048 0 -0.025153039677790447 -0.022991159495006866 0 -0.025268098721712536 -0.023437497208547309 0 -0.025114920325280666 -0.02282832625541565 0 -0.025153039677790447 -0.022991159495006866 0 -0.025268098721712536 -0.023437497208547309 0 -0.025114920325280666 -0.02282832625541565 0 -0.02499985638986571 -0.022147571134481958 0 -0.025153039677790447 -0.022991159495006866 0 -0.025313715923766213 -0.022375122990544696 0 -0.024999907327362361 -0.022145683914096437 0 -0.024999540950904779 -0.022935222460072291 0 -0.02499985638986571 -0.022147571134481958 0 -0.025153039677790447 -0.022991159495006866 0 -0.025519703933207891 -0.023783761799654732 0 -0.02563798785139659 -0.022510433645050558 0 -0.025891515893350214 -0.02305938741255302 0 -0.025519703933207891 -0.023783761799654732 0 -0.025745177088922766 -0.023679430293423689 0 -0.025891515893350214 -0.02305938741255302 0 -0.025519703933207891 -0.023783761799654732 0 -0.025268098721712536 -0.023437497208547309 0 -0.025358176899809765 -0.023818130172175607 0 -0.025519703933207891 -0.023783761799654732 0 -0.025268098721712536 -0.023437497208547309 0 -0.02563798785139659 -0.022510433645050558 0 -0.025114920325280666 -0.02282832625541565 0 -0.025268098721712536 -0.023437497208547309 0 -0.02563798785139659 -0.022510433645050558 0 -0.02522547944884268 -0.02365041981901048 0 -0.025268098721712536 -0.023437497208547309 0 -0.025322904658793263 -0.023903845637086349 0 -0.025268098721712536 -0.023437497208547309 0 -0.025358176899809765 -0.023818130172175607 0 -0.025322904658793263 -0.023903845637086349 0 -0.025519703933207891 -0.023783761799654732 0 -0.025169724971288988 -0.024321422648596238 0 -0.024791285915718837 -0.025088899106724728 0 -0.025519703933207891 -0.023783761799654732 0 -0.025358176899809765 -0.023818130172175607 0 -0.025169724971288988 -0.024321422648596238 0 -0.025358176899809765 -0.023818130172175607 0 -0.025322904658793263 -0.023903845637086349 0 -0.025169724971288988 -0.024321422648596238 0 -0.023703313930652621 -0.025257224542474529 0 -0.022074624261838063 -0.025001085773917037 0 -0.022355877426901986 -0.025274742831890667 0 -0.025169724971288988 -0.024321422648596238 0 -0.024773428136917377 -0.023902514277372704 0 -0.024231845759810855 -0.02412063034307986 0 -0.025169724971288988 -0.024321422648596238 0 -0.025330385429716353 -0.023935690848331082 0 -0.024773428136917377 -0.023902514277372704 0 -0.025322904658793263 -0.023903845637086349 0 -0.025169724971288988 -0.024321422648596238 0 -0.025330385429716353 -0.023935690848331082 0 -0.025441860817601625 -0.02371062059283922 0 -0.025351875046542006 -0.023908029220555894 0 -0.025657218805777121 -0.024017137327341301 0 -0.025677165504344998 -0.023825824554291126 0 -0.025330385429716353 -0.023935690848331082 0 -0.02522547944884268 -0.02365041981901048 0 -0.025322904658793263 -0.023903845637086349 0 -0.025330385429716353 -0.023935690848331082 0 -0.024611252172577178 -0.024621277893905572 0 -0.023747518590310338 -0.024392820454225361 0 -0.025657218805777121 -0.024017137327341301 0 -0.025330385429716353 -0.023935690848331082 0 -0.025193022535541464 -0.023497991382775744 0 -0.025330385429716353 -0.023935690848331082 0 -0.024773428136917377 -0.023902514277372704 0 -0.025193022535541464 -0.023497991382775744 0 -0.022074624261838063 -0.025001085773917037 0 -0.021005117149139767 -0.025266320551366597 0 -0.019830326146906524 -0.024997500471805465 0 -0.023747518590310338 -0.024392820454225361 0 -0.022127631187667651 -0.024377126128693572 0 -0.024773428136917377 -0.023902514277372704 0 -0.023257408615239575 -0.023324908964450317 0 -0.024231845759810855 -0.02412063034307986 0 -0.022074624261838063 -0.025001085773917037 0 -0.022355877426901986 -0.025274742831890667 0 -0.021005117149139767 -0.025266320551366597 0 -0.024773428136917377 -0.023902514277372704 0 -0.025193022535541464 -0.023497991382775744 0 -0.023257408615239575 -0.023324908964450317 0 -0.022127631187667651 -0.024377126128693572 0 -0.020087228473574352 -0.024818519933500066 0 -0.023257408615239575 -0.023324908964450317 0 -0.021690840959396371 -0.024612821273704774 0 -0.019838254801826636 -0.024954275725784451 0 -0.023257408615239575 -0.023324908964450317 0 -0.021690840959396371 -0.024612821273704774 0 -0.023363375324073055 -0.024781860583743737 0 -0.021690840959396371 -0.024612821273704774 0 -0.023363375324073055 -0.024781860583743737 0 -0.02059871331529858 -0.02527442543111966 0 -0.025169724971288988 -0.024321422648596238 0 -0.023363375324073055 -0.024781860583743737 0 -0.024231845759810855 -0.02412063034307986 0 -0.023257408615239575 -0.023324908964450317 0 -0.023363375324073055 -0.024781860583743737 0 -0.024231845759810855 -0.02412063034307986 0 -0.019830326146906524 -0.024997500471805465 0 -0.019838254801826636 -0.024954275725784451 0 -0.018678650800742515 -0.025604574235331919 0 -0.021005117149139767 -0.025266320551366597 0 -0.019830326146906524 -0.024997500471805465 0 -0.019838254801826636 -0.024954275725784451 0 -0.021690840959396371 -0.024612821273704774 0 -0.019838254801826636 -0.024954275725784451 0 -0.02059871331529858 -0.02527442543111966 0 -0.020431117337339658 -0.025307221714432081 0 -0.018925280483952776 -0.025166605450693821 0 -0.019838254801826636 -0.024954275725784451 0 -0.02059871331529858 -0.02527442543111966 0 -0.018678650800742515 -0.025604574235331919 0 -0.02059871331529858 -0.02527442543111966 0 -0.01967852105940094 -0.025814635334407678 0 -0.019078619707421276 -0.024819554371988111 0 -0.01967852105940094 -0.025814635334407678 0 -0.021850956364451231 -0.025979233552344532 0 -0.01997713549340591 -0.027135938428237527 0 -0.02059871331529858 -0.02527442543111966 0 -0.01967852105940094 -0.025814635334407678 0 -0.021850956364451231 -0.025979233552344532 0 -0.021850956364451231 -0.025979233552344532 0 -0.021768839069098895 -0.027676396788780772 0 -0.01997713549340591 -0.027135938428237527 0 -0.020853754965843751 -0.022141166388409211 0 -0.020780984377385094 -0.022065980326578888 0 -0.020900528397649342 -0.022063994419118032 0 -0.021081474027801514 -0.025011868502400243 0 -0.020719150119884313 -0.024583838964817289 0 -0.025169724971288988 -0.024321422648596238 0 -0.023363375324073055 -0.024781860583743737 0 -0.024791285915718837 -0.025088899106724728 0 -0.023363375324073055 -0.024781860583743737 0 -0.02059871331529858 -0.02527442543111966 0 -0.021850956364451231 -0.025979233552344532 0 -0.023363375324073055 -0.024781860583743737 0 -0.021850956364451231 -0.025979233552344532 0 -0.024791285915718837 -0.025088899106724728 0 -0.021850956364451231 -0.025979233552344532 0 -0.024791285915718837 -0.025088899106724728 0 -0.023407231014972722 -0.027130668753653019 0 -0.021850956364451231 -0.025979233552344532 0 -0.021768839069098895 -0.027676396788780772 0 -0.023407231014972722 -0.027130668753653019 0 -0.021768839069098895 -0.027676396788780772 0 -0.023407231014972722 -0.027130668753653019 0 -0.024337210998021257 -0.028566913371709333 0 -0.025519703933207891 -0.023783761799654732 0 -0.024791285915718837 -0.025088899106724728 0 -0.025745177088922766 -0.023679430293423689 0 -0.024791285915718837 -0.025088899106724728 0 -0.025745177088922766 -0.023679430293423689 0 -0.026841075662057304 -0.022753930302021233 0 -0.024791285915718837 -0.025088899106724728 0 -0.023407231014972722 -0.027130668753653019 0 -0.02472263331439193 -0.028681489104681965 0 -0.025186957723462244 -0.025656025402009234 0 -0.024821729650699124 -0.024074838956747488 0 -0.025745177088922766 -0.023679430293423689 0 -0.026511545370714481 -0.022597106421535076 0 -0.025891515893350214 -0.02305938741255302 0 -0.025745177088922766 -0.023679430293423689 0 -0.026511545370714481 -0.022597106421535076 0 -0.026841075662057304 -0.022753930302021233 0 -0.025807962051217548 -0.023875345708338561 0 -0.024821729650699124 -0.024074838956747488 0 -0.026511545370714481 -0.022597106421535076 0 -0.027009619996335502 -0.022178174743093262 0 -0.026617217539920433 -0.021840782401878062 0 -0.026511545370714481 -0.022597106421535076 0 -0.027009619996335502 -0.022178174743093262 0 -0.026992045867707131 -0.022743442566186413 0 -0.019868243150023425 -0.021696258403778781 0 -0.020004179053051328 -0.021989610204580408 0 -0.020242851589870284 -0.021577182053417809 0 -0.024798955016392815 -0.021778468354341433 0 -0.02331701850940477 -0.023636981413693029 0 -0.024209079269639212 -0.022378680413111363 0 -0.024832161768078856 -0.023921493823014433 0 -0.024220445904882683 -0.023755855089254225 0 -0.024798955016392815 -0.021778468354341433 0 -0.024821729650699124 -0.024074838956747488 0 -0.023407231014972722 -0.027130668753653019 0 -0.024337210998021257 -0.028566913371709333 0 -0.02472263331439193 -0.028681489104681965 0 -0.02331701850940477 -0.023636981413693029 0 -0.024821729650699124 -0.024074838956747488 0 -0.021081474027801514 -0.025011868502400243 0 -0.02331701850940477 -0.023636981413693029 0 -0.020853754965843751 -0.022141166388409211 0 -0.020004179053051328 -0.021989610204580408 0 -0.020495580953869861 -0.021792951098402732 0 -0.020853754965843751 -0.022141166388409211 0 -0.020495580953869861 -0.021792951098402732 0 -0.020771342582832922 -0.021840238131789296 0 -0.020495580953869861 -0.021792951098402732 0 -0.020242851589870284 -0.021577182053417809 0 -0.020578261518819047 -0.021342998772074195 0 -0.020495580953869861 -0.021792951098402732 0 -0.020578261518819047 -0.021342998772074195 0 -0.020771342582832922 -0.021840238131789296 0 -0.020004179053051328 -0.021989610204580408 0 -0.020495580953869861 -0.021792951098402732 0 -0.020242851589870284 -0.021577182053417809 0 -0.020578261518819047 -0.021342998772074195 0 -0.020193800784291852 -0.021196576045243904 0 -0.020470931522754074 -0.020651273096729993 0 -0.020578261518819047 -0.021342998772074195 0 -0.020906803349142196 -0.0208182627378754 0 -0.020470931522754074 -0.020651273096729993 0 -0.020242851589870284 -0.021577182053417809 0 -0.020578261518819047 -0.021342998772074195 0 -0.020193800784291852 -0.021196576045243904 0 -0.027009619996335502 -0.022178174743093262 0 -0.026617217539920433 -0.021840782401878062 0 -0.026948131526260143 -0.020745673282235606 0 -0.024798955016392815 -0.021778468354341433 0 -0.027286756338910385 -0.020236558739712574 0 -0.027456902343972536 -0.020568996189734325 0 -0.027181686278637682 -0.019704534385292186 0 -0.027502193946213175 -0.019626968880255821 0 -0.024798955016392815 -0.021778468354341433 0 -0.023549339680204534 -0.019980882310409655 0 -0.019868243150023425 -0.021696258403778781 0 -0.020193800784291852 -0.021196576045243904 0 -0.019810425372789649 -0.020694588931916471 0 -0.019868243150023425 -0.021696258403778781 0 -0.020242851589870284 -0.021577182053417809 0 -0.020193800784291852 -0.021196576045243904 0 -0.022055093978048432 -0.021464297416531358 0 -0.018569456112945536 -0.023143098792319586 0 -0.020900528397649342 -0.022063994419118032 0 -0.0213085204710835 -0.021409426163117241 0 -0.021893588398386819 -0.021457830708483398 0 -0.020764343046698282 -0.022132795718789608 0 -0.020900528397649342 -0.022063994419118032 0 -0.020712413075211041 -0.022263673370884703 0 -0.020780984377385094 -0.022065980326578888 0 -0.020764343046698282 -0.022132795718789608 0 -0.020900528397649342 -0.022063994419118032 0 -0.020764343046698282 -0.022132795718789608 0 -0.020712413075211041 -0.022263673370884703 0 -0.020645142025301665 -0.022143222056904551 0 -0.020780984377385094 -0.022065980326578888 0 -0.020764343046698282 -0.022132795718789608 0 -0.020645142025301665 -0.022143222056904551 0 -0.020900528397649342 -0.022063994419118032 0 -0.020903813305965586 -0.021573284007201238 0 -0.0213085204710835 -0.021409426163117241 0 -0.020853754965843751 -0.022141166388409211 0 -0.020900528397649342 -0.022063994419118032 0 -0.020771342582832922 -0.021840238131789296 0 -0.020900528397649342 -0.022063994419118032 0 -0.020771342582832922 -0.021840238131789296 0 -0.020903813305965586 -0.021573284007201238 0 -0.020578261518819047 -0.021342998772074195 0 -0.020771342582832922 -0.021840238131789296 0 -0.020903813305965586 -0.021573284007201238 0 -0.021177278943261196 -0.020903575608798689 0 -0.0213085204710835 -0.021409426163117241 0 -0.021577922991245509 -0.020680378778526784 0 -0.020578261518819047 -0.021342998772074195 0 -0.020903813305965586 -0.021573284007201238 0 -0.020973687695072688 -0.021210458014623998 0 -0.020578261518819047 -0.021342998772074195 0 -0.020973687695072688 -0.021210458014623998 0 -0.020906803349142196 -0.0208182627378754 0 -0.020973687695072688 -0.021210458014623998 0 -0.021177278943261196 -0.020903575608798689 0 -0.020906803349142196 -0.0208182627378754 0 -0.020973687695072688 -0.021210458014623998 0 -0.021177278943261196 -0.020903575608798689 0 -0.0213085204710835 -0.021409426163117241 0 -0.020903813305965586 -0.021573284007201238 0 -0.020973687695072688 -0.021210458014623998 0 -0.0213085204710835 -0.021409426163117241 0 -0.021322497727648049 -0.021375138218170463 0 -0.020035908246703777 -0.020057941568948134 0 -0.0213085204710835 -0.021409426163117241 0 -0.021695952221546105 -0.021082566556201637 0 -0.021502988197698792 -0.020715814860750737 0 -0.0213085204710835 -0.021409426163117241 0 -0.021701584428185029 -0.021328500479383651 0 -0.021893588398386819 -0.021457830708483398 0 -0.0213085204710835 -0.021409426163117241 0 -0.02169870932539833 -0.021188115353040979 0 -0.021701584428185029 -0.021328500479383651 0 -0.0213085204710835 -0.021409426163117241 0 -0.02169870932539833 -0.021188115353040979 0 -0.021695952221546105 -0.021082566556201637 0 -0.018643807412906947 -0.021262240647536061 0 -0.019063167195240198 -0.020646984578518098 0 -0.02169870932539833 -0.021188115353040979 0 -0.021780725531953721 -0.021247388775758685 0 -0.021693960372557341 -0.021082435928828913 0 -0.01694579434794085 -0.019854032151913486 0 -0.016856041553386457 -0.019678328256041898 0 -0.017509005720967877 -0.019300967406037522 0 -0.019223403125525351 -0.020758807673886152 0 -0.019063167195240198 -0.020646984578518098 0 -0.018643807412906947 -0.021262240647536061 0 -0.018569456112945536 -0.023143098792319586 0 -0.021780965350373965 -0.021250704719366801 0 -0.021701584428185029 -0.021328500479383651 0 -0.021893588398386819 -0.021457830708483398 0 -0.02169870932539833 -0.021188115353040979 0 -0.021780725531953721 -0.021247388775758685 0 -0.021701584428185029 -0.021328500479383651 0 -0.018643807412906947 -0.021262240647536061 0 -0.019165900471394569 -0.020986581546526627 0 -0.018596451953467163 -0.020649046514077909 0 -0.018569260056352087 -0.018039350826198262 0 -0.017973178098979286 -0.019433006354551106 0 -0.0192919050826795 -0.018490679586457816 0 -0.019207578376543386 -0.018696358989614949 0 -0.019010288910465894 -0.01828897333084788 0 -0.016856041553386457 -0.019678328256041898 0 -0.016844741096934259 -0.018833889011724159 0 -0.017509005720967877 -0.019300967406037522 0 -0.019063167195240198 -0.020646984578518098 0 -0.017075600388666679 -0.017415927246735213 0 -0.019063167195240198 -0.020646984578518098 0 -0.020035908246703777 -0.020057941568948134 0 -0.017075600388666679 -0.017415927246735213 0 -0.020035908246703777 -0.020057941568948134 0 -0.021577922991245509 -0.020680378778526784 0 -0.021137692847600278 -0.020403634523180392 0 -0.021153149926298902 -0.019824071251514128 0 -0.020035908246703777 -0.020057941568948134 0 -0.019733208435466359 -0.018163134777638312 0 -0.021177278943261196 -0.020903575608798689 0 -0.021137692847600278 -0.020403634523180392 0 -0.020906803349142196 -0.0208182627378754 0 -0.021177278943261196 -0.020903575608798689 0 -0.021577922991245509 -0.020680378778526784 0 -0.021137692847600278 -0.020403634523180392 0 -0.021137692847600278 -0.020403634523180392 0 -0.020906803349142196 -0.0208182627378754 0 -0.020857263377721969 -0.020468270992084488 0 -0.020906803349142196 -0.0208182627378754 0 -0.020857263377721969 -0.020468270992084488 0 -0.020470931522754074 -0.020651273096729993 0 -0.020857263377721969 -0.020468270992084488 0 -0.020974016442209857 -0.020073342228912324 0 -0.020702411453269766 -0.020172827450957619 0 -0.021137692847600278 -0.020403634523180392 0 -0.020857263377721969 -0.020468270992084488 0 -0.020974016442209857 -0.020073342228912324 0 -0.020813168280574529 -0.019731089965375939 0 -0.020979887118997318 -0.019736080658810939 0 -0.020702411453269766 -0.020172827450957619 0 -0.020979887118997318 -0.019736080658810939 0 -0.021261092519608234 -0.019643036388522432 0 -0.020702411453269766 -0.020172827450957619 0 -0.020974016442209857 -0.020073342228912324 0 -0.021070956310996782 -0.01977118583023154 0 -0.020702411453269766 -0.020172827450957619 0 -0.019918295763098687 -0.017894098301068095 0 -0.020447185782799915 -0.019906563675524368 0 -0.019918295763098687 -0.017894098301068095 0 -0.019877441279748997 -0.015713803304481945 0 -0.02107144282699239 -0.019418114368723309 0 -0.021258108080670655 -0.019638504626676198 0 -0.021110565787081075 -0.019170838875462198 0 -0.020813168280574529 -0.019731089965375939 0 -0.020979887118997318 -0.019736080658810939 0 -0.020968700164651927 -0.019552738606406533 0 -0.020813168280574529 -0.019731089965375939 0 -0.020834249179063614 -0.019407847077726279 0 -0.020968700164651927 -0.019552738606406533 0 -0.020834249179063614 -0.019407847077726279 0 -0.020968700164651927 -0.019552738606406533 0 -0.02107144282699239 -0.019418114368723309 0 -0.020968700164651927 -0.019552738606406533 0 -0.02107144282699239 -0.019418114368723309 0 -0.021152937447457151 -0.019564124263040866 0 -0.02107144282699239 -0.019418114368723309 0 -0.021152937447457151 -0.019564124263040866 0 -0.021258108080670655 -0.019638504626676198 0 -0.020207709100156811 -0.018134538321016729 0 -0.019918295763098687 -0.017894098301068095 0 -0.020979887118997318 -0.019736080658810939 0 -0.021152937447457151 -0.019564124263040866 0 -0.021261092519608234 -0.019643036388522432 0 -0.020979887118997318 -0.019736080658810939 0 -0.020968700164651927 -0.019552738606406533 0 -0.021152937447457151 -0.019564124263040866 0 -0.019781656020355923 -0.016024542809752934 0 -0.019860462417007233 -0.015939980974516554 0 -0.019726269419852231 -0.015858044215478755 0 -0.018615188408006668 -0.016277109453846975 0 -0.01836036771064762 -0.01696257619622997 0 -0.016737724929419433 -0.016007309279523579 0 -0.018615188408006668 -0.016277109453846975 0 -0.018868919444889914 -0.016450019893978724 0 -0.01836036771064762 -0.01696257619622997 0 -0.019733208435466359 -0.018163134777638312 0 -0.019918295763098687 -0.017894098301068095 0 -0.019918295763098687 -0.017894098301068095 0 -0.018967623079674124 -0.015047316530375691 0 -0.021137692847600278 -0.0204036345