<?xml version="1.0"?>
<VTKFile type="UnstructuredGrid" version="0.1" byte_order="LittleEndian">
<UnstructuredGrid>
<Piece NumberOfPoints="29399" NumberOfCells="10256">
<Points>
<DataArray type="Float64" NumberOfComponents="3" format="ascii">
-0.5 -0.5 0 -0.48785522249592078 -0.45510547826709291 0 -0.49999999999999939 -0.43211090192125279 0 -0.5 -0.5 0 -0.47706497702443318 -0.48211438569692427 0 -0.4340255331775193 -0.5 0 -0.5 -0.5 0 -0.47706497702443318 -0.48211438569692427 0 -0.48785522249592078 -0.45510547826709291 0 -0.47706497702443318 -0.48211438569692427 0 -0.46301557519371223 -0.47028428858007398 0 -0.47281078661105408 -0.4659983935873096 0 -0.47706497702443318 -0.48211438569692427 0 -0.44978858486427398 -0.47796311281516157 0 -0.4340255331775193 -0.5 0 -0.47706497702443318 -0.48211438569692427 0 -0.46301557519371223 -0.47028428858007398 0 -0.44978858486427398 -0.47796311281516157 0 -0.44978858486427398 -0.47796311281516157 0 -0.43875952096438031 -0.45787336534320211 0 -0.43113573132924138 -0.47761676140954412 0 -0.44978858486427398 -0.47796311281516157 0 -0.4340255331775193 -0.5 0 -0.43113573132924138 -0.47761676140954412 0 -0.45223485266728869 -0.43786838736911482 0 -0.43875952096438031 -0.45787336534320211 0 -0.43618584867324223 -0.43501579991252293 0 -0.45223485266728869 -0.43786838736911482 0 -0.43875952096438031 -0.45787336534320211 0 -0.45917301397625337 -0.44928587753588589 0 -0.43875952096438031 -0.45787336534320211 0 -0.45917301397625337 -0.44928587753588589 0 -0.46301557519371223 -0.47028428858007398 0 -0.44978858486427398 -0.47796311281516157 0 -0.43875952096438031 -0.45787336534320211 0 -0.43875952096438031 -0.45787336534320211 0 -0.46330737173015057 -0.45648942180514729 0 -0.46301557519371223 -0.47028428858007398 0 -0.43875952096438031 -0.45787336534320211 0 -0.46330737173015057 -0.45648942180514729 0 -0.43875952096438031 -0.45787336534320211 0 -0.46330737173015057 -0.45648942180514729 0 -0.45917301397625337 -0.44928587753588589 0 -0.46301557519371223 -0.47028428858007398 0 -0.46330737173015057 -0.45648942180514729 0 -0.47281078661105408 -0.4659983935873096 0 -0.46330737173015057 -0.45648942180514729 0 -0.45917301397625337 -0.44928587753588589 0 -0.47958650698812638 -0.44069838972856917 0 -0.45917301397625337 -0.44928587753588589 0 -0.46398950252270998 -0.43895260679367609 0 -0.47958650698812638 -0.44069838972856917 0 -0.45223485266728869 -0.43786838736911482 0 -0.45917301397625337 -0.44928587753588589 0 -0.46398950252270998 -0.43895260679367609 0 -0.46330737173015057 -0.45648942180514729 0 -0.47958650698812638 -0.44069838972856917 0 -0.48785522249592078 -0.45510547826709291 0 -0.45917301397625337 -0.44928587753588589 0 -0.47958650698812638 -0.44069838972856917 0 -0.46330737173015057 -0.45648942180514729 0 -0.47281078661105408 -0.4659983935873096 0 -0.48785522249592078 -0.45510547826709291 0 -0.46330737173015057 -0.45648942180514729 0 -0.48785522249592078 -0.45510547826709291 0 -0.47706497702443318 -0.48211438569692427 0 -0.47281078661105408 -0.4659983935873096 0 -0.48785522249592078 -0.45510547826709291 0 -0.47958650698812638 -0.44069838972856917 0 -0.48785522249592078 -0.45510547826709291 0 -0.49999999999999939 -0.43211090192125279 0 -0.49999999999999939 -0.43211090192125279 0 -0.47843166005470938 -0.41309176286659988 0 -0.48074545087550191 -0.42846470676438903 0 -0.47958650698812638 -0.44069838972856917 0 -0.49999999999999939 -0.43211090192125279 0 -0.48074545087550191 -0.42846470676438903 0 -0.47958650698812638 -0.44069838972856917 0 -0.49999999999999939 -0.43211090192125279 0 -0.49999999999999939 -0.43211090192125279 0 -0.47843166005470938 -0.41309176286659988 0 -0.5 -0.40538148133488661 0 -0.47843166005470938 -0.41309176286659988 0 -0.48074545087550191 -0.42846470676438903 0 -0.46496363645917171 -0.42795777254113421 0 -0.47958650698812638 -0.44069838972856917 0 -0.48074545087550191 -0.42846470676438903 0 -0.46496363645917171 -0.42795777254113421 0 -0.46398950252270998 -0.43895260679367609 0 -0.47958650698812638 -0.44069838972856917 0 -0.46496363645917171 -0.42795777254113421 0 -0.5 -0.37865206074852031 0 -0.48033657026594562 -0.39101113556798189 0 -0.48123451327010192 -0.36814604317790067 0 -0.5 -0.37865206074852031 0 -0.5 -0.40538148133488661 0 -0.48033657026594562 -0.39101113556798189 0 -0.47843166005470938 -0.41309176286659988 0 -0.5 -0.40538148133488661 0 -0.48033657026594562 -0.39101113556798189 0 -0.47843166005470938 -0.41309176286659988 0 -0.48033657026594562 -0.39101113556798189 0 -0.46088385718869179 -0.39680748353729389 0 -0.48033657026594562 -0.39101113556798189 0 -0.4646033122459079 -0.38033546343750479 0 -0.48123451327010192 -0.36814604317790067 0 -0.48033657026594562 -0.39101113556798189 0 -0.4646033122459079 -0.38033546343750479 0 -0.46088385718869179 -0.39680748353729389 0 -0.4646033122459079 -0.38033546343750479 0 -0.44854026618311033 -0.38546870473476808 0 -0.45104081779574029 -0.37252649685374672 0 -0.4646033122459079 -0.38033546343750479 0 -0.46088385718869179 -0.39680748353729389 0 -0.44854026618311033 -0.38546870473476808 0 -0.46088385718869179 -0.39680748353729389 0 -0.44027100535894809 -0.39805254757944059 0 -0.45486558543259409 -0.41258386744224013 0 -0.46088385718869179 -0.39680748353729389 0 -0.44027100535894809 -0.39805254757944059 0 -0.44854026618311033 -0.38546870473476808 0 -0.44027100535894809 -0.39805254757944059 0 -0.44854026618311033 -0.38546870473476808 0 -0.434279569089773 -0.37817471820876081 0 -0.44854026618311033 -0.38546870473476808 0 -0.434279569089773 -0.37817471820876081 0 -0.45104081779574029 -0.37252649685374672 0 -0.46496363645917171 -0.42795777254113421 0 -0.45486558543259409 -0.41258386744224013 0 -0.44948479057128637 -0.42556886357975171 0 -0.45223485266728869 -0.43786838736911482 0 -0.46496363645917171 -0.42795777254113421 0 -0.44948479057128637 -0.42556886357975171 0 -0.45223485266728869 -0.43786838736911482 0 -0.46398950252270998 -0.43895260679367609 0 -0.46496363645917171 -0.42795777254113421 0 -0.47843166005470938 -0.41309176286659988 0 -0.46088385718869179 -0.39680748353729389 0 -0.45486558543259409 -0.41258386744224013 0 -0.47843166005470938 -0.41309176286659988 0 -0.46496363645917171 -0.42795777254113421 0 -0.45486558543259409 -0.41258386744224013 0 -0.44027100535894809 -0.39805254757944059 0 -0.45486558543259409 -0.41258386744224013 0 -0.43917402962413571 -0.41441849063374631 0 -0.45486558543259409 -0.41258386744224013 0 -0.43917402962413571 -0.41441849063374631 0 -0.44948479057128637 -0.42556886357975171 0 -0.43917402962413571 -0.41441849063374631 0 -0.44948479057128637 -0.42556886357975171 0 -0.43618584867324223 -0.43501579991252293 0 -0.45223485266728869 -0.43786838736911482 0 -0.44948479057128637 -0.42556886357975171 0 -0.43618584867324223 -0.43501579991252293 0 -0.43618584867324223 -0.43501579991252293 0 -0.42436285365945192 -0.42152237219546668 0 -0.41829325246487592 -0.43924056062661321 0 -0.43917402962413571 -0.41441849063374631 0 -0.43618584867324223 -0.43501579991252293 0 -0.42436285365945192 -0.42152237219546668 0 -0.43917402962413571 -0.41441849063374631 0 -0.42436285365945192 -0.42152237219546668 0 -0.41977590717905028 -0.40136560653662939 0 -0.42436285365945192 -0.42152237219546668 0 -0.41977590717905028 -0.40136560653662939 0 -0.40527224526832772 -0.42455649486449792 0 -0.41977590717905028 -0.40136560653662939 0 -0.39573952943159019 -0.39934762468205931 0 -0.40527224526832772 -0.42455649486449792 0 -0.41977590717905028 -0.40136560653662939 0 -0.40527224526832772 -0.42455649486449792 0 -0.40527224526832772 -0.42455649486449792 0 -0.40063540183020618 -0.44351216963214529 0 -0.41829325246487592 -0.43924056062661321 0 -0.42436285365945192 -0.42152237219546668 0 -0.40527224526832772 -0.42455649486449792 0 -0.41829325246487592 -0.43924056062661321 0 -0.434279569089773 -0.37817471820876081 0 -0.41224218961801562 -0.38174530613926122 0 -0.42497747640885508 -0.3693990414354637 0 -0.434279569089773 -0.37817471820876081 0 -0.41977590717905028 -0.40136560653662939 0 -0.434279569089773 -0.37817471820876081 0 -0.41977590717905028 -0.40136560653662939 0 -0.41224218961801562 -0.38174530613926122 0 -0.44027100535894809 -0.39805254757944059 0 -0.43917402962413571 -0.41441849063374631 0 -0.41977590717905028 -0.40136560653662939 0 -0.44027100535894809 -0.39805254757944059 0 -0.434279569089773 -0.37817471820876081 0 -0.41977590717905028 -0.40136560653662939 0 -0.41977590717905028 -0.40136560653662939 0 -0.41224218961801562 -0.38174530613926122 0 -0.39573952943159019 -0.39934762468205931 0 -0.41224218961801562 -0.38174530613926122 0 -0.39573952943159019 -0.39934762468205931 0 -0.38614913526049721 -0.37716824179615122 0 -0.41224218961801562 -0.38174530613926122 0 -0.38614913526049721 -0.37716824179615122 0 -0.40601759577077678 -0.36697411160306981 0 -0.39573952943159019 -0.39934762468205931 0 -0.38511814291255581 -0.41360735826705619 0 -0.3676828007387708 -0.3966689990774222 0 -0.39573952943159019 -0.39934762468205931 0 -0.38614913526049721 -0.37716824179615122 0 -0.3676828007387708 -0.3966689990774222 0 -0.40527224526832772 -0.42455649486449792 0 -0.38511814291255581 -0.41360735826705619 0 -0.38640661492244949 -0.42901576344532 0 -0.40527224526832772 -0.42455649486449792 0 -0.38640661492244949 -0.42901576344532 0 -0.40063540183020618 -0.44351216963214529 0 -0.39573952943159019 -0.39934762468205931 0 -0.40527224526832772 -0.42455649486449792 0 -0.38511814291255581 -0.41360735826705619 0 -0.38511814291255581 -0.41360735826705619 0 -0.38640661492244949 -0.42901576344532 0 -0.37048952420164089 -0.41844790926598152 0 -0.38640661492244949 -0.42901576344532 0 -0.37098302872015132 -0.43408639701922058 0 -0.37048952420164089 -0.41844790926598152 0 -0.38640661492244949 -0.42901576344532 0 -0.38446330129505291 -0.44491985800488898 0 -0.37098302872015132 -0.43408639701922058 0 -0.38446330129505291 -0.44491985800488898 0 -0.39099470471969439 -0.46056622059227958 0 -0.36948293443814928 -0.44838814416989492 0 -0.38640661492244949 -0.4290157634453
[...]
<PointData Scalars="" Vectors="displacement," Tensors="">
<DataArray type="Float64" Name="displacement" NumberOfComponents="3" format="ascii">
0.004999618204499485 2.4902799986864568e-08 0 0.0049276354553119388 5.6699856681536747e-06 0 0.004999764883906934 3.14959596159519e-08 0 0.004999618204499485 2.4902799986864568e-08 0 0.0048039503266850041 9.4251464392033305e-06 0 0.0043404746406398012 5.5790900445146275e-08 0 0.004999618204499485 2.4902799986864568e-08 0 0.0048039503266850041 9.4251464392033305e-06 0 0.0049276354553119388 5.6699856681536747e-06 0 0.0048039503266850041 9.4251464392033305e-06 0 0.0046926222835709233 1.3726599305452702e-05 0 0.0047846180002054624 1.0825825255821818e-05 0 0.0048039503266850041 9.4251464392033305e-06 0 0.0045582116073744341 1.0890766995202272e-05 0 0.0043404746406398012 5.5790900445146275e-08 0 0.0048039503266850041 9.4251464392033305e-06 0 0.0046926222835709233 1.3726599305452702e-05 0 0.0045582116073744341 1.0890766995202272e-05 0 0.0045582116073744341 1.0890766995202272e-05 0 0.0045278851676286104 7.3135034815054582e-06 0 0.0043957115235310866 1.2064794400477688e-05 0 0.0045582116073744341 1.0890766995202272e-05 0 0.0043404746406398012 5.5790900445146275e-08 0 0.0043957115235310866 1.2064794400477688e-05 0 0.0047238302080259672 7.1555650623548325e-05 0 0.0045873140135620953 6.7563488708008351e-05 0 0.0046526609182431407 6.0619518531246875e-05 0 0.0047238302080259672 7.1555650623548325e-05 0 0.0045873140135620953 6.7563488708008351e-05 0 0.0047134791676387332 8.1700625730647954e-05 0 0.0045655270727090261 2.359141500744266e-06 0 0.0048398535763933539 5.3810893765727328e-06 0 0.0046926222835709233 1.3726599305452702e-05 0 0.0045582116073744341 1.0890766995202272e-05 0 0.0045278851676286104 7.3135034815054582e-06 0 0.0045655270727090261 2.359141500744266e-06 0 0.0048379579839298512 -2.0069342330303089e-05 0 0.0046926222835709233 1.3726599305452702e-05 0 0.0045278851676286104 7.3135034815054582e-06 0 0.0047162135864164253 1.2463868914053147e-05 0 0.0049108002363070103 -0.000106412100333868 0 0.0049208125077327448 -5.5598406033866636e-05 0 0.0049365334211643047 -6.452375649119135e-05 0 0.0046926222835709233 1.3726599305452702e-05 0 0.0047162135864164253 1.2463868914053147e-05 0 0.0047846180002054624 1.0825825255821818e-05 0 0.0049208125077327448 -5.5598406033866636e-05 0 0.0049365334211643047 -6.452375649119135e-05 0 0.0049637141168841544 -1.8450929534458853e-05 0 0.0047134791676387332 8.1700625730647954e-05 0 0.0047793713025816066 7.3933317333219528e-05 0 0.0048599716843853386 6.5099306585610545e-05 0 0.0047238302080259672 7.1555650623548325e-05 0 0.0047134791676387332 8.1700625730647954e-05 0 0.0047793713025816066 7.3933317333219528e-05 0 0.0049208125077327448 -5.5598406033866636e-05 0 0.0049637141168841544 -1.8450929534458853e-05 0 0.0049276354553119388 5.6699856681536747e-06 0 0.0048398535763933539 5.3810893765727328e-06 0 0.0049078165071154613 1.1895746320909243e-05 0 0.0047162135864164253 1.2463868914053147e-05 0 0.0047846180002054624 1.0825825255821818e-05 0 0.0049276354553119388 5.6699856681536747e-06 0 0.0048379579839298512 -2.0069342330303089e-05 0 0.0049030914810843764 1.9000592225195602e-05 0 0.0048039503266850041 9.4251464392033305e-06 0 0.0047846180002054624 1.0825825255821818e-05 0 0.0049276354553119388 5.6699856681536747e-06 0 0.0049637141168841544 -1.8450929534458853e-05 0 0.0049276354553119388 5.6699856681536747e-06 0 0.004999764883906934 3.14959596159519e-08 0 0.0049997950144858878 1.0207506032685878e-07 0 0.0049099169090351565 5.3631247138351174e-05 0 0.004898059238222432 5.2306384150651817e-05 0 0.0048599716843853386 6.5099306585610545e-05 0 0.0049997950144858878 1.0207506032685878e-07 0 0.004898059238222432 5.2306384150651817e-05 0 0.0049078165071154613 1.1895746320909243e-05 0 0.004999954327687941 -2.2128504706128748e-09 0 0.0049997950144858878 1.0207506032685878e-07 0 0.0049099169090351565 5.3631247138351174e-05 0 0.00499991892971869 2.4362918392543485e-08 0 0.0049099169090351565 5.3631247138351174e-05 0 0.004898059238222432 5.2306384150651817e-05 0 0.0048202664299963616 6.9936175401582381e-05 0 0.0048599716843853386 6.5099306585610545e-05 0 0.004898059238222432 5.2306384150651817e-05 0 0.0048202664299963616 6.9936175401582381e-05 0 0.0047793713025816066 7.3933317333219528e-05 0 0.0048599716843853386 6.5099306585610545e-05 0 0.0048202664299963616 6.9936175401582381e-05 0 0.0049999399854266796 3.0933007265388666e-08 0 0.004947804769548347 4.0106910832453695e-05 0 0.0049656682748342503 2.9366377323318088e-05 0 0.0049999399854266796 3.0933007265388666e-08 0 0.00499991892971869 2.4362918392543485e-08 0 0.004947804769548347 4.0106910832453695e-05 0 0.0049099169090351565 5.3631247138351174e-05 0 0.00499991892971869 2.4362918392543485e-08 0 0.004947804769548347 4.0106910832453695e-05 0 0.0049099169090351565 5.3631247138351174e-05 0 0.004947804769548347 4.0106910832453695e-05 0 0.0048888107839403115 6.0316503140827426e-05 0 0.004947804769548347 4.0106910832453695e-05 0 0.0049286050592000884 5.0716544429965764e-05 0 0.0049656682748342503 2.9366377323318088e-05 0 0.004947804769548347 4.0106910832453695e-05 0 0.0049286050592000884 5.0716544429965764e-05 0 0.0048888107839403115 6.0316503140827426e-05 0 0.0049286050592000884 5.0716544429965764e-05 0 0.0048949481275706282 5.2945328528857332e-05 0 0.0049204923460895288 5.1405926277159439e-05 0 0.0049286050592000884 5.0716544429965764e-05 0 0.0048888107839403115 6.0316503140827426e-05 0 0.0048949481275706282 5.2945328528857332e-05 0 0.0048888107839403115 6.0316503140827426e-05 0 0.0048379653823099351 4.8689497015250863e-05 0 0.0048228500265455158 6.7024504218006378e-05 0 0.0048888107839403115 6.0316503140827426e-05 0 0.0048379653823099351 4.8689497015250863e-05 0 0.0048949481275706282 5.2945328528857332e-05 0 0.0048379653823099351 4.8689497015250863e-05 0 0.0048949481275706282 5.2945328528857332e-05 0 0.0049100693226073614 2.9753723283809613e-05 0 0.0048949481275706282 5.2945328528857332e-05 0 0.0049100693226073614 2.9753723283809613e-05 0 0.0049204923460895288 5.1405926277159439e-05 0 0.0048202664299963616 6.9936175401582381e-05 0 0.0048228500265455158 6.7024504218006378e-05 0 0.0047557457694734585 6.8424213719757055e-05 0 0.0047238302080259672 7.1555650623548325e-05 0 0.0048202664299963616 6.9936175401582381e-05 0 0.0047557457694734585 6.8424213719757055e-05 0 0.0047238302080259672 7.1555650623548325e-05 0 0.0047793713025816066 7.3933317333219528e-05 0 0.0048202664299963616 6.9936175401582381e-05 0 0.0049099169090351565 5.3631247138351174e-05 0 0.0048888107839403115 6.0316503140827426e-05 0 0.0048228500265455158 6.7024504218006378e-05 0 0.0049099169090351565 5.3631247138351174e-05 0 0.0048202664299963616 6.9936175401582381e-05 0 0.0048228500265455158 6.7024504218006378e-05 0 0.0048379653823099351 4.8689497015250863e-05 0 0.0048228500265455158 6.7024504218006378e-05 0 0.0047576814243711915 5.8117858764445581e-05 0 0.0048228500265455158 6.7024504218006378e-05 0 0.0047576814243711915 5.8117858764445581e-05 0 0.0047557457694734585 6.8424213719757055e-05 0 0.0047576814243711915 5.8117858764445581e-05 0 0.0047557457694734585 6.8424213719757055e-05 0 0.0046526609182431407 6.0619518531246875e-05 0 0.0047238302080259672 7.1555650623548325e-05 0 0.0047557457694734585 6.8424213719757055e-05 0 0.0046526609182431407 6.0619518531246875e-05 0 0.0046526609182431407 6.0619518531246875e-05 0 0.0046576685375270231 3.7449384038219499e-05 0 0.0045418152507057385 4.7119397072367866e-05 0 0.0047576814243711915 5.8117858764445581e-05 0 0.0046526609182431407 6.0619518531246875e-05 0 0.0046576685375270231 3.7449384038219499e-05 0 0.0047576814243711915 5.8117858764445581e-05 0 0.0046576685375270231 3.7449384038219499e-05 0 0.004789660147792375 -5.4294291747493779e-06 0 0.0046576685375270231 3.7449384038219499e-05 0 0.004789660147792375 -5.4294291747493779e-06 0 0.0045404606720860861 1.896418410129211e-05 0 0.0045625260078583866 1.6439496704163168e-05 0 0.0045565713927664996 3.0618055703963853e-06 0 0.0045404606720860861 1.896418410129211e-05 0 0.004675068608833201 1.2975679153671446e-05 0 0.0045596827696030226 1.2548037341918844e-05 0 0.0045404606720860861 1.896418410129211e-05 0 0.004424559300463024 4.5650899302994687e-05 0 0.0045418152507057385 4.7119397072367866e-05 0 0.0046576685375270231 3.7449384038219499e-05 0 0.0045404606720860861 1.896418410129211e-05 0 0.0045418152507057385 4.7119397072367866e-05 0 0.004686126176510457 6.4753044541435923e-05 0 0.0046217958611575634 -1.7574849688186159e-05 0 0.0047435202361575763 1.04389460182686e-05 0 0.0047975356763517848 4.2976571251716987e-05 0 0.004675068608833201 1.2975679153671446e-05 0 0.004686126176510457 6.4753044541435923e-05 0 0.0045625260078583866 1.6439496704163168e-05 0 0.0046217958611575634 -1.7574849688186159e-05 0 0.0048379653823099351 4.8689497015250863e-05 0 0.0047576814243711915 5.8117858764445581e-05 0 0.004789660147792375 -5.4294291747493779e-06 0 0.0048379653823099351 4.8689497015250863e-05 0 0.0049100693226073614 2.9753723283809613e-05 0 0.004789660147792375 -5.4294291747493779e-06 0 0.0045625260078583866 1.6439496704163168e-05 0 0.0046217958611575634 -1.7574849688186159e-05 0 0.0045565713927664996 3.0618055703963853e-06 0 0.0046217958611575634 -1.7574849688186159e-05 0 0.0045565713927664996 3.0618055703963853e-06 0 0.0045847927862734889 -5.5270219060848314e-06 0 0.0046217958611575634 -1.7574849688186159e-05 0 0.0045847927862734889 -5.5270219060848314e-06 0 0.0045957677324513883 -1.339041246228913e-05 0 0.0045565713927664996 3.0618055703963853e-06 0 0.0045060687631445582 7.1304501747864672e-06 0 0.0045550830738341295 -2.1447671523869422e-05 0 0.0045565713927664996 3.0618055703963853e-06 0 0.0045847927862734889 -5.5270219060848314e-06 0 0.0045550830738341295 -2.1447671523869422e-05 0 0.0045404606720860861 1.896418410129211e-05 0 0.0045060687631445582 7.1304501747864672e-06 0 0.0044417740506178024 1.5420407137353614e-05 0 0.0045404606720860861 1.896418410129211e-05 0 0.0044417740506178024 1.5420407137353614e-05 0 0.004424559300463024 4.5650899302994687e-05 0 0.0045565713927664996 3.0618055703963853e-06 0 0.0045404606720860861 1.896418410129211e-05 0 0.0045060687631445582 7.1304501747864672e-06 0 0.0045060687631445582 7.1304501747864672e-06 0 0.0044417740506178024 1.5420407137353614e-05 0 0.0044542994656179002 -2.2203993138848284e-05 0 0.0044417740506178024 1.5420407137353614e-05 0 0.0043514878774636809 -1.7354141074149724e-05 0 0.0044542994656179002 -2.2203993138848284e-05 0 0.0044417740506178024 1.5420407137353614e-05 0 0.0043263679618149508 1.8685044789464185e-05 0 0.0043514878774636809 -1.7354141074149724e-05 0 0.0043263679618149508 1.8685044789464185e-05 0 0.0042220212414783046 4.0769776604163426e-05 0 0.0042282047422446739 -1.1951826549920238e-05 0 0.0044417740506178024 1.5420407137353614e-05 0 0.0043263679618149508 1.8685044789464185e-05 0 0.004424559300463024 4.5650899302994687e-05 0 0.0043263679618149508 1.8685044789464185e-05 0 0.004424559300463024 4.5650899302994687e-05 0 0.0042220212414783046 4.0769776604163426e-05 0 0.004424559300463024 4.5650899302994687e-05 0 0.0042220212414783046 4.0769776604163426e-05 0 0.0044543857961733199 6.0613097676077903e-05 0 0.0042520781569846712 2.5985644376238657e-05 0 0.0043270577895231999 4.394163746785955e-05 0 0.0042220212414783046 4.0769776604163426e-05 0 0.0042509827054091074 3.3151362389170987e-05 0 0.0042459565455447374 3.1323553071419322e-05 0 0.0042220212414783046 4.0769776604163426e-05 0 0.0039989930514552404 -2.1560795674515995e-06 0 0.0042282047422446739 -1.1951826549920238e-05 0 0.0041003480858662769 3.4115548642367595e-05 0 0.0037792426239423643 1.9463848596269502e-07 0 0.0039989930514552404 -2.1560795674515995e-06 0 0.0038420401739335881 1.0409381591092018e-07 0 0.0041003480858662769 3.4115548642367595e-05 0 0.0043404746406398012 5.5790900445146275e-08 0 0.0038420401739335881 1.0409381591092018e-07 0 0.0041003480858662769 3.4115548642367595e-05 0 0.0037792426239423643 1.9463848596269502e-07 0 0.0042220212414783046 4.0769776604163426e-05 0 0.0041003480858662769 3.4115548642367595e-05 0 0.0039989930514552404 -2.1560795674515995e-06 0 0.0042220212414783046 4.0769776604163426e-05 0 0.0041003480858662769 3.4115548642367595e-05 0 0.0042509827054091074 3.3151362389170987e-05 0 0.0041003480858662769 3.4115548642367595e-05 0 0.0042509827054091074 3.3151362389170987e-05 0 0.0043957115235310866 1.2064794400477688e-05 0 0.0041003480858662769 3.4115548642367595e-05 0 0.0043404746406398012 5.5790900445146275e-08 0 0.0043957115235310866 1.2064794400477688e-05 0 0.0045278851676286104 7.3135034815054582e-06 0 0.0042509827054091074 3.3151362389170987e-05 0 0.0043957115235310866 1.2064794400477688e-05 0 0.0045873140135620953 6.7563488708008351e-05 0 0.0045535832185513731 5.9083599772343922e-05 0 0.0044543857961733199 6.0613097676077903e-05 0 0.0045655270727090261 2.359141500744266e-06 0 0.0042237076407956858 3.5667840865467861e-05 0 0.0045655270727090261 2.359141500744266e-06 0 0.0043270577895231999 4.394163746785955e-05 0 0.0045873140135620953 6.7563488708008351e-05 0 0.0046526609182431407 6.0619518531246875e-05 0 0.0045535832185513731 5.9083599772343922e-05 0 0.0046526609182431407 6.0619518531246875e-05 0 0.0045535832185513731 5.9083599772343922e-05 0 0.0045418152507057385 4.7119397072367866e-05 0 0.004424559300463024 4.5650899302994687e-05 0 0.0045418152507057385 4.7119397072367866e-05 0 0.0044543857961733199 6.0613097676077903e-05 0 0.0045535832185513731 5.9083599772343922e-05 0 0.0045418152507057385 4.7119397072367866e-05 0 0.0044543857961733199 6.0613097676077903e-05 0 0.0042511593543889722 1.8556329037895549e-05 0 0.0042509827054091074 3.3151362389170987e-05 0 0.0042459565455447374 3.1323553071419322e-05 0 0.0049001227525372146 6.5696758151701076e-05 0 0.0049164586165619042 2.035806625815871e-05 0 0.0048734817544739363 5.4508945773181282e-05 0 0.0049001227525372146 6.5696758151701076e-05 0 0.0049164586165619042 2.035806625815871e-05 0 0.004953108707853063 1.6648329417781248e-05 0 0.0049001227525372146 6.5696758151701076e-05 0 0.004953108707853063 1.6648329417781248e-05 0 0.0049517812715669405 3.9341045651860562e-05 0 0.0049164586165619042 2.035806625815871e-05 0 0.0049670905013498847 1.0606228788170209e-05 0 0.004953108707853063 1.6648329417781248e-05 0 0.0049670905013498847 1.0606228788170209e-05 0 0.0049999694799107023 -8.0242092925065842e-09 0 0.004999955455029635 1.6451275372535279e-08 0 0.0049999694799107023 -8.0242092925065842e-09 0 0.004953108707853063 1.6648329417781248e-05 0 0.0049792524101455148 1.1375849388134004e-05 0 0.0049670905013498847 1.0606228788170209e-05 0 0.0049999694799107023 -8.0242092925065842e-09 0 0.004953108707853063 1.6648329417781248e-05 0 0.004953108707853063 1.6648329417781248e-05 0 0.0049792524101455148 1.1375849388134004e-05 0 0.0049686731838406075 2.443751383137308e-05 0 0.0049999694799107023 -8.0242092925065842e-09 0 0.0049792524101455148 1.1375849388134004e-05 0 0.0049999352711287016 4.8748642273552355e-08 0 0.0049792524101455148 1.1375849388134004e-05 0 0.0049999352711287016 4.8748642273552355e-08 0 0.0049725660703068327 2.3968082671064044e-05 0 0.0049999887087821973 2.2182654013072343e-09 0 0.0049832452761365423 1.3073831288964358e-05 0 0.0049999352711287016 4.8748642273552355e-08 0 0.0049725660703068327 2.3968082671064044e-05 0 0.0049695175878736748 2.4750774379035676e-05 0 0.0049792524101455148 1.1375849388134004e-05 0 0.0049725660703068327 2.3968082671064044e-05 0 0.0049686731838406075 2.443751383137308e-05 0 0.0049686731838406075 2.443751383137308e-05 0 0.0049670383105023504 3.724211416891333e-05 0 0.0049517812715669405 3.9341045651860562e-05 0 0.0049725660703068327 2.3968082671064044e-05 0 0.0049686731838406075 2.443751383137308e-05 0 0.0049670383105023504 3.724211416891333e-05 0 0.004953108707853063 1.6648329417781248e-05 0 0.0049686731838406075 2.443751383137308e-05 0 0.0049517812715669405 3.9341045651860562e-05 0 0.0049001227525372146 6.5696758151701076e-05 0 0.0049517812715669405 3.9341045651860562e-05 0 0.0049681095165075104 4.9922395255175141e-05 0 0.0048912810843322893 6.9246954751332594e-05 0 0.0048512575560771222 8.0985999509513917e-05 0 0.0049670383105023504 3.724211416891333e-05 0 0.0049628995999263445 3.9945436539047442e-05 0 0.0049681095165075104 4.9922395255175141e-05 0 0.0049670383105023504 3.724211416891333e-05 0 0.0049517812715669405 3.9341045651860562e-05 0 0.0049681095165075104 4.9922395255175141e-05 0 0.0049628995999263445 3.9945436539047442e-05 0 0.0049445441981774687 4.5598697769360967e-05 0 0.0049611744423217145 3.8858364208642289e-05 0 0.0049670383105023504 3.724211416891333e-05 0 0.0049628995999263445 3.9945436539047442e-05 0 0.0049611744423217145 3.8858364208642289e-05 0 0.0049628995999263445 3.9945436539047442e-05 0 0.0049445441981774687 4.5598697769360967e-05 0 0.004955526677810098 1.7759514387834045e-05 0 0.0049461684119896645 4.6024140857409773e-05 0 0.0049611744423217145 3.8858364208642289e-05 0 0.0049621666692123085 3.3008795407760442e-05 0 0.0049445441981774687 4.5598697769360967e-05 0 0.0049461684119896645 4.6024140857409773e-05 0 0.0049611744423217145 3.8858364208642289e-05 0 0.0049725660703068327 2.3968082671064044e-05 0 0.0049670383105023504 3.724211416891333e-05 0 0.0049611744423217145 3.8858364208642289e-05 0 0.0049725660703068327 2.3968082671064044e-05 0 0.0049695175878736748 2.4750774379035676e-05 0 0.0049621666692123085 3.3008795407760442e-05 0 0.0049725660703068327 2.3968082671064044e-05 0 0.0049611744423217145 3.8858364208642289e-05 0 0.0049621666692123085 3.3008795407760442e-05 0 0.0050000060533653403 -4.5876660523422592e-09 0 0.0049987452012412829 7.507942842117416e-07 0 0.0049999855075962283 9.6033113647209123e-09 0 0.0049987452012412829 7.507942842117416e-07 0 0.0049999855075962283 9.6033113647209123e-09 0 0.0049880318814618813 9.3587774231974129e-06 0 0.0049987452012412829 7.507942842117416e-07 0 0.0049880318814618813 9.3587774231974129e-06 0 0.0049668844790143685 2.7494362147191851e-05 0 0.0049999855075962283 9.6033113647209123e-09 0 0.0049880318814618813 9.3587774231974129e-06 0 0.0049999532313845579 1.7900660754951532e-08 0 0.0049461684119896645 4.6024140857409773e-05 0 0.0049621666692123085 3.3008795407760442e-05 0 0.0049668844790143685 2.7494362147191851e-05 0 0.0049832452761365423 1.3073831288964358e-05 0 0.0049713775675424721 2.5249883443957456e-05 0 0.0049695175878736748 2.4750774379035676e-05 0 0.0049621666692123085 3.3008795407760442e-05 0 0.0049668844790143685 2.7494362147191851e-05 0 0.0049668844790143685 2.7494362147191851e-05 0 0.0049656682748342503 2.9366377323318088e-05 0 0.0049415262161615079 4.4709211311060082e-05 0 0.0049880318814618813 9.3587774231974129e-06 0 0.0049668844790143685 2.7494362147191851e-05 0 0.0049999532313845579 1.7900660754951532e-08 0 0.0049668844790143685 2.7494362147191851e-05 0 0.0049999532313845579 1.7900660754951532e-08 0 0.0049656682748342503 2.9366377323318088e-05 0 0.0049999399854266796 3.0933007265388666e-08 0 0.0049999532313845579 1.7900660754951532e-08 0 0.0049656682748342503 2.9366377323318088e-05 0 0.0049286050592000884 5.0716544429965764e-05 0 0.0049656682748342503 2.9366377323318088e-05 0 0.0049415262161615079 4.4709211311060082e-05 0 0.0049286050592000884 5.0716544429965764e-05 0 0.0049415262161615079 4.4709211311060082e-05 0 0.0049204923460895288 5.1405926277159439e-05 0 0.0049415262161615079 4.4709211311060082e-05 0 0.0049127832739054829 6.4571171412474793e-05 0 0.0049204923460895288 5.1405926277159439e-05 0 0.0049461684119896645 4.6024140857409773e-05 0 0.0049668844790143685 2.7494362147191851e-05 0 0.0049415262161615079 4.4709211311060082e-05 0 0.0049461684119896645 4.6024140857409773e-05 0 0.0049415262161615079 4.4709211311060082e-05 0 0.0049127832739054829 6.4571171412474793e-05 0 0.0049445441981774687 4.5598697769360967e-05 0 0.0049127832739054829 6.4571171412474793e-05 0 0.0049072810675628055 3.1886103825630452e-05 0 0.0049445441981774687 4.5598697769360967e-05 0 0.0049461684119896645