<?xml version="1.0"?>
<VTKFile type="UnstructuredGrid" version="0.1" byte_order="LittleEndian">
<UnstructuredGrid>
<Piece NumberOfPoints="32267" NumberOfCells="11294">
<Points>
<DataArray type="Float64" NumberOfComponents="3" format="ascii">
-0.5 -0.5 0 -0.4779969169821825 -0.48004118979368932 0 -0.45985108158750942 -0.5 0 -0.5 -0.5 0 -0.4779969169821825 -0.48004118979368932 0 -0.5 -0.45604062325510158 0 -0.4779969169821825 -0.48004118979368932 0 -0.45985108158750942 -0.5 0 -0.45589919812242219 -0.48201114766129483 0 -0.45985108158750942 -0.5 0 -0.45589919812242219 -0.48201114766129483 0 -0.44397027182405691 -0.49673585221425082 0 -0.45589919812242219 -0.48201114766129483 0 -0.44324514157222472 -0.46542183946236559 0 -0.46690479900543103 -0.45973727301250139 0 -0.4779969169821825 -0.48004118979368932 0 -0.45589919812242219 -0.48201114766129483 0 -0.46690479900543103 -0.45973727301250139 0 -0.45589919812242219 -0.48201114766129483 0 -0.43827490591795798 -0.49003266897132552 0 -0.44324514157222472 -0.46542183946236559 0 -0.43827490591795798 -0.49003266897132552 0 -0.44324514157222472 -0.46542183946236559 0 -0.45589919812242219 -0.48201114766129483 0 -0.43827490591795798 -0.49003266897132552 0 -0.44397027182405691 -0.49673585221425082 0 -0.43827490591795798 -0.49003266897132552 0 -0.43790736807124908 -0.49185258494969569 0 -0.43827490591795798 -0.49003266897132552 0 -0.43790736807124908 -0.49185258494969569 0 -0.44397027182405691 -0.49673585221425082 0 -0.43827490591795798 -0.49003266897132552 0 -0.44397027182405691 -0.49673585221425082 0 -0.44821537722649057 -0.44081100995340561 0 -0.44324514157222472 -0.46542183946236559 0 -0.44821537722649057 -0.44081100995340561 0 -0.44324514157222472 -0.46542183946236559 0 -0.42948657869339202 -0.45535112721785648 0 -0.44821537722649057 -0.44081100995340561 0 -0.44324514157222472 -0.46542183946236559 0 -0.46690479900543103 -0.45973727301250139 0 -0.44821537722649057 -0.44081100995340561 0 -0.46690479900543103 -0.45973727301250139 0 -0.47240740703149098 -0.43288937542937778 0 -0.4779969169821825 -0.48004118979368932 0 -0.46690479900543103 -0.45973727301250139 0 -0.5 -0.45604062325510158 0 -0.46690479900543103 -0.45973727301250139 0 -0.5 -0.45604062325510158 0 -0.47240740703149098 -0.43288937542937778 0 -0.5 -0.45604062325510158 0 -0.48498758732175767 -0.4107591774302029 0 -0.50000000000000089 -0.3960422103856418 0 -0.5 -0.45604062325510158 0 -0.48498758732175767 -0.4107591774302029 0 -0.47240740703149098 -0.43288937542937778 0 -0.48498758732175767 -0.4107591774302029 0 -0.47021605690964779 -0.41753025936399157 0 -0.46413763519767343 -0.40762232143223248 0 -0.48498758732175767 -0.4107591774302029 0 -0.47021605690964779 -0.41753025936399157 0 -0.47240740703149098 -0.43288937542937778 0 -0.49213433386555339 -0.3946556140885038 0 -0.48133207929396932 -0.37953952885752718 0 -0.49401778063161778 -0.37339140475552313 0 -0.49213433386555339 -0.3946556140885038 0 -0.49401778063161778 -0.37339140475552313 0 -0.5 -0.37460320738661418 0 -0.49213433386555339 -0.3946556140885038 0 -0.50000000000000089 -0.3960422103856418 0 -0.5 -0.37460320738661418 0 -0.49213433386555339 -0.3946556140885038 0 -0.49401778063161778 -0.37339140475552313 0 -0.49213433386555339 -0.3946556140885038 0 -0.49158637257434251 -0.400842124805251 0 -0.49213433386555339 -0.3946556140885038 0 -0.50000000000000089 -0.3960422103856418 0 -0.49213433386555339 -0.3946556140885038 0 -0.50000000000000089 -0.3960422103856418 0 -0.49158637257434251 -0.400842124805251 0 -0.48498758732175767 -0.4107591774302029 0 -0.50000000000000089 -0.3960422103856418 0 -0.49158637257434251 -0.400842124805251 0 -0.48498758732175767 -0.4107591774302029 0 -0.46418220686459249 -0.38972808282361998 0 -0.48498758732175767 -0.4107591774302029 0 -0.46418220686459249 -0.38972808282361998 0 -0.46413763519767343 -0.40762232143223248 0 -0.48498758732175767 -0.4107591774302029 0 -0.49158637257434251 -0.400842124805251 0 -0.46418220686459249 -0.38972808282361998 0 -0.49213433386555339 -0.3946556140885038 0 -0.49158637257434251 -0.400842124805251 0 -0.46418220686459249 -0.38972808282361998 0 -0.49213433386555339 -0.3946556140885038 0 -0.46418220686459249 -0.38972808282361998 0 -0.49213433386555339 -0.3946556140885038 0 -0.48133207929396932 -0.37953952885752718 0 -0.46418220686459249 -0.38972808282361998 0 -0.48133207929396932 -0.37953952885752718 0 -0.46418220686459249 -0.38972808282361998 0 -0.47077706266147501 -0.37067129134782201 0 -0.45346010100460871 -0.37888965460129681 0 -0.46418220686459249 -0.38972808282361998 0 -0.47077706266147501 -0.37067129134782201 0 -0.45346010100460871 -0.37888965460129681 0 -0.45293980134961898 -0.38275293822586742 0 -0.45346010100460871 -0.37888965460129681 0 -0.46418220686459249 -0.38972808282361998 0 -0.45293980134961898 -0.38275293822586742 0 -0.45346010100460871 -0.37888965460129681 0 -0.46418220686459249 -0.38972808282361998 0 -0.46418220686459249 -0.38972808282361998 0 -0.44503203431541338 -0.40224260935122708 0 -0.46413763519767343 -0.40762232143223248 0 -0.44503203431541338 -0.40224260935122708 0 -0.44204378208548373 -0.38582541809078641 0 -0.42917051412032992 -0.39698223244882419 0 -0.46418220686459249 -0.38972808282361998 0 -0.44503203431541338 -0.40224260935122708 0 -0.44204378208548373 -0.38582541809078641 0 -0.46418220686459249 -0.38972808282361998 0 -0.44204378208548373 -0.38582541809078641 0 -0.46418220686459249 -0.38972808282361998 0 -0.44204378208548373 -0.38582541809078641 0 -0.45293980134961898 -0.38275293822586742 0 -0.45346010100460871 -0.37888965460129681 0 -0.44204378208548373 -0.38582541809078641 0 -0.44139842523855288 -0.36669712369939172 0 -0.45346010100460871 -0.37888965460129681 0 -0.44204378208548373 -0.38582541809078641 0 -0.45293980134961898 -0.38275293822586742 0 -0.44821537722649057 -0.44081100995340561 0 -0.47240740703149098 -0.43288937542937778 0 -0.45318561288075648 -0.41620018044444551 0 -0.47021605690964779 -0.41753025936399157 0 -0.47240740703149098 -0.43288937542937778 0 -0.45318561288075648 -0.41620018044444551 0 -0.44503203431541338 -0.40224260935122708 0 -0.45318561288075648 -0.41620018044444551 0 -0.46413763519767343 -0.40762232143223248 0 -0.47021605690964779 -0.41753025936399157 0 -0.45318561288075648 -0.41620018044444551 0 -0.46413763519767343 -0.40762232143223248 0 -0.44503203431541338 -0.40224260935122708 0 -0.45318561288075648 -0.41620018044444551 0 -0.43037155225938939 -0.41718167064990042 0 -0.44821537722649057 -0.44081100995340561 0 -0.45318561288075648 -0.41620018044444551 0 -0.44821537722649057 -0.44081100995340561 0 -0.45318561288075648 -0.41620018044444551 0 -0.43037155225938939 -0.41718167064990042 0 -0.44821537722649057 -0.44081100995340561 0 -0.43037155225938939 -0.41718167064990042 0 -0.41953220471164182 -0.43916914031157073 0 -0.43037155225938939 -0.41718167064990042 0 -0.41284624032663092 -0.4024444323801657 0 -0.40578712334688699 -0.42296611140237622 0 -0.41284624032663092 -0.4024444323801657 0 -0.40578712334688699 -0.42296611140237622 0 -0.40578712334688699 -0.42296611140237622 0 -0.39872800636714201 -0.44348779042458619 0 -0.41953220471164182 -0.43916914031157073 0 -0.43037155225938939 -0.41718167064990042 0 -0.40578712334688699 -0.42296611140237622 0 -0.41953220471164182 -0.43916914031157073 0 -0.44204378208548373 -0.38582541809078641 0 -0.41990535730637429 -0.38192275335795511 0 -0.433171078525727 -0.37223747198640511 0 -0.44204378208548373 -0.38582541809078641 0 -0.41990535730637429 -0.38192275335795511 0 -0.44204378208548373 -0.38582541809078641 0 -0.42917051412032992 -0.39698223244882419 0 -0.41990535730637429 -0.38192275335795511 0 -0.43037155225938939 -0.41718167064990042 0 -0.42917051412032992 -0.39698223244882419 0 -0.41284624032663092 -0.4024444323801657 0 -0.44503203431541338 -0.40224260935122708 0 -0.43037155225938939 -0.41718167064990042 0 -0.42917051412032992 -0.39698223244882419 0 -0.42917051412032992 -0.39698223244882419 0 -0.41284624032663092 -0.4024444323801657 0 -0.41990535730637429 -0.38192275335795511 0 -0.41284624032663092 -0.4024444323801657 0 -0.41990535730637429 -0.38192275335795511 0 -0.41284624032663092 -0.4024444323801657 0 -0.40904786293448098 -0.39057720807628632 0 -0.41990535730637429 -0.38192275335795511 0 -0.40904786293448098 -0.39057720807628632 0 -0.41760147812874338 -0.38151661479547722 0 -0.41990535730637429 -0.38192275335795511 0 -0.40904786293448098 -0.39057720807628632 0 -0.41094006390726873 -0.3796838534771026 0 -0.41760147812874338 -0.38151661479547722 0 -0.40904786293448098 -0.39057720807628632 0 -0.41094006390726873 -0.3796838534771026 0 -0.40325802045229181 -0.37882723263132467 0 -0.41094006390726873 -0.3796838534771026 0 -0.40325802045229181 -0.37882723263132467 0 -0.40850176135721472 -0.37322419466228768 0 -0.41094006390726873 -0.3796838534771026 0 -0.41263849002648911 -0.37459649623290842 0 -0.40850176135721472 -0.37322419466228768 0 -0.41094006390726873 -0.3796838534771026 0 -0.41592004076714018 -0.3777292250341226 0 -0.41263849002648911 -0.37459649623290842 0 -0.41592004076714018 -0.3777292250341226 0 -0.41623679061020202 -0.37359749145821008 0 -0.41263849002648911 -0.37459649623290842 0 -0.41592004076714018 -0.3777292250341226 0 -0.41990535730637429 -0.38192275335795511 0 -0.41623679061020202 -0.37359749145821008 0 -0.41592004076714018 -0.3777292250341226 0 -0.41760147812874338 -0.38151661479547722 0 -0.41990535730637429 -0.38192275335795511 0 -0.41094006390726873 -0.3796838534771026 0 -0.41592004076714018 -0.3777292250341226 0 -0.41760147812874338 -0.38151661479547722 0 -0.41760147812874338 -0.38151661479547722 0 -0.41990535730637429 -0.38192275335795511 0 -0.40904786293448098 -0.39057720807628632 0 -0.40325802045229181 -0.37882723263132467 0 -0.39123163180816262 -0.38394447025104178 0 -0.40325802045229181 -0.37882723263132467 0 -0.39123163180816262 -0.38394447025104178 0 -0.39731501940956221 -0.37080500369994052 0 -0.39123163180816262 -0.38394447025104178 0 -0.39731501940956221 -0.37080500369994052 0 -0.3873
[...]
<PointData Scalars="" Vectors="displacement," Tensors="">
<DataArray type="Float64" Name="displacement" NumberOfComponents="3" format="ascii">
-0.034998728815516973 -0.034997854308468142 0 -0.034046883961704161 -0.034115347347893329 0 -0.034997936134901007 -0.032194774490705923 0 -0.034998728815516973 -0.034997854308468142 0 -0.034046883961704161 -0.034115347347893329 0 -0.03192461410996783 -0.034997687961423045 0 -0.034046883961704161 -0.034115347347893329 0 -0.034997936134901007 -0.032194774490705923 0 -0.034316242688921965 -0.033130155980196349 0 -0.034997936134901007 -0.032194774490705923 0 -0.034316242688921965 -0.033130155980196349 0 -0.035104218494372667 -0.031272237226837786 0 -0.034316242688921965 -0.033130155980196349 0 -0.033346585638817691 -0.034373776155280637 0 -0.032820414531152704 -0.034418563604245223 0 -0.034046883961704161 -0.034115347347893329 0 -0.034316242688921965 -0.033130155980196349 0 -0.032820414531152704 -0.034418563604245223 0 -0.034316242688921965 -0.033130155980196349 0 -0.034665599333134657 -0.032398987531433394 0 -0.033346585638817691 -0.034373776155280637 0 -0.033876329879644118 -0.0326758644970069 0 -0.031822348848551701 -0.034606428891658485 0 -0.034316242688921965 -0.033130155980196349 0 -0.034665599333134657 -0.032398987531433394 0 -0.035104218494372667 -0.031272237226837786 0 -0.033876329879644118 -0.0326758644970069 0 -0.034037123065614946 -0.032632925346042216 0 -0.035566474973294272 -0.030779680936698105 0 -0.035431075024241449 -0.030754440489640992 0 -0.035104218494372667 -0.031272237226837786 0 -0.033876329879644118 -0.0326758644970069 0 -0.035111655017938656 -0.031497997856536633 0 -0.031165984308369796 -0.035083490846538723 0 -0.031822348848551701 -0.034606428891658485 0 -0.030596498112340591 -0.034925455078799003 0 -0.030880676060383434 -0.034792267339736845 0 -0.03078944928997053 -0.034916428864973335 0 -0.031676238822035303 -0.035325998482663795 0 -0.033346585638817691 -0.034373776155280637 0 -0.032820414531152704 -0.034418563604245223 0 -0.031676238822035303 -0.035325998482663795 0 -0.032820414531152704 -0.034418563604245223 0 -0.030969959806429755 -0.035040791246508926 0 -0.034046883961704161 -0.034115347347893329 0 -0.032820414531152704 -0.034418563604245223 0 -0.03192461410996783 -0.034997687961423045 0 -0.032820414531152704 -0.034418563604245223 0 -0.03192461410996783 -0.034997687961423045 0 -0.030969959806429755 -0.035040791246508926 0 -0.03192461410996783 -0.034997687961423045 0 -0.029375300652328559 -0.035381521601845212 0 -0.027726178166013079 -0.034998941780287486 0 -0.03192461410996783 -0.034997687961423045 0 -0.029375300652328559 -0.035381521601845212 0 -0.030969959806429755 -0.035040791246508926 0 -0.029375300652328559 -0.035381521601845212 0 -0.030181673206480401 -0.035220588300108699 0 -0.030125173733510081 -0.035234045483313249 0 -0.029375300652328559 -0.035381521601845212 0 -0.030181673206480401 -0.035220588300108699 0 -0.030969959806429755 -0.035040791246508926 0 -0.027570580699640176 -0.033453787408139743 0 -0.027777805996785913 -0.033296102439330288 0 -0.027853998030450935 -0.033463961114388957 0 -0.027626127985794682 -0.035546377333835665 0 -0.026139490799327945 -0.035415987060836603 0 -0.026222232790595445 -0.034999996138846717 0 -0.027626127985794682 -0.035546377333835665 0 -0.02772294881817524 -0.034999992644143677 0 -0.026222232790595445 -0.034999996138846717 0 -0.027580177730563531 -0.034707556372190668 0 -0.026941430921175805 -0.034422357671219039 0 -0.027580177730563531 -0.034707556372190668 0 -0.028113347477810212 -0.03487957929736455 0 -0.027580177730563531 -0.034707556372190668 0 -0.027722784884538484 -0.035000080453645742 0 -0.027943249884820262 -0.03523743986594971 0 -0.027726178166013079 -0.034998941780287486 0 -0.028428993687132358 -0.035171682377180109 0 -0.029375300652328559 -0.035381521601845212 0 -0.027726178166013079 -0.034998941780287486 0 -0.028428993687132358 -0.035171682377180109 0 -0.029390510968483725 -0.035929083572829291 0 -0.02881881400610815 -0.03457750469980353 0 -0.029375300652328559 -0.035381521601845212 0 -0.03041930317211242 -0.035247980649404133 0 -0.030125173733510081 -0.035234045483313249 0 -0.029375300652328559 -0.035381521601845212 0 -0.028428993687132358 -0.035171682377180109 0 -0.027749208392994874 -0.036946632863441922 0 -0.028032688331481505 -0.035134548344573947 0 -0.028428993687132358 -0.035171682377180109 0 -0.027749208392994874 -0.036946632863441922 0 -0.027580177730563531 -0.034707556372190668 0 -0.02881881400610815 -0.03457750469980353 0 -0.027570580699640176 -0.033453787408139743 0 -0.027777805996785913 -0.033296102439330288 0 -0.027647017188222833 -0.033061086897510847 0 -0.027777805996785913 -0.033296102439330288 0 -0.027647017188222833 -0.033061086897510847 0 -0.027900872490934054 -0.033147059564960724 0 -0.027805583500413657 -0.032898146328009928 0 -0.027647017188222833 -0.033061086897510847 0 -0.027900872490934054 -0.033147059564960724 0 -0.030266875358471616 -0.029619296922706553 0 -0.030685828658264969 -0.029937083329090428 0 -0.031449285248100804 -0.0316720622458476 0 -0.029824257695626091 -0.033271719296408118 0 -0.030875686615310247 -0.031597324269156464 0 -0.030266875358471616 -0.029619296922706553 0 -0.02881881400610815 -0.03457750469980353 0 -0.03041930317211242 -0.035247980649404133 0 -0.030393638893637547 -0.035116897789701236 0 -0.030125173733510081 -0.035234045483313249 0 -0.030393638893637547 -0.035116897789701236 0 -0.03051692260306299 -0.035073997412289552 0 -0.030474229669257051 -0.03500101761352075 0 -0.03041930317211242 -0.035247980649404133 0 -0.030393638893637547 -0.035116897789701236 0 -0.03051692260306299 -0.035073997412289552 0 -0.02881881400610815 -0.03457750469980353 0 -0.030362961988955703 -0.032978001371250426 0 -0.029824257695626091 -0.033271719296408118 0 -0.030437337549485379 -0.029989783391084466 0 -0.030875686615310247 -0.031597324269156464 0 -0.031447835965593279 -0.031666023090567881 0 -0.030437337549485379 -0.029989783391084466 0 -0.033240681653259066 -0.029874367013742218 0 -0.031447835965593279 -0.031666023090567881 0 -0.030437337549485379 -0.029989783391084466 0 -0.030875686615310247 -0.031597324269156464 0 -0.031676238822035303 -0.035325998482663795 0 -0.030969959806429755 -0.035040791246508926 0 -0.030364095907903784 -0.035250497428793076 0 -0.030181673206480401 -0.035220588300108699 0 -0.030969959806429755 -0.035040791246508926 0 -0.030364095907903784 -0.035250497428793076 0 -0.030393638893637547 -0.035116897789701236 0 -0.030364095907903784 -0.035250497428793076 0 -0.030125173733510081 -0.035234045483313249 0 -0.030181673206480401 -0.035220588300108699 0 -0.030364095907903784 -0.035250497428793076 0 -0.030125173733510081 -0.035234045483313249 0 -0.030393638893637547 -0.035116897789701236 0 -0.030364095907903784 -0.035250497428793076 0 -0.030471656584051179 -0.035009344890367736 0 -0.031165984308369796 -0.035083490846538723 0 -0.030416822513762022 -0.035217392719117439 0 -0.030596498112340591 -0.034925455078799003 0 -0.030364095907903784 -0.035250497428793076 0 -0.030471656584051179 -0.035009344890367736 0 -0.030596498112340591 -0.034925455078799003 0 -0.030471656584051179 -0.035009344890367736 0 -0.030683865790199476 -0.03496336086135108 0 -0.030471656584051179 -0.035009344890367736 0 -0.030492558121825719 -0.034963608561657269 0 -0.03058838910609454 -0.034996969418734293 0 -0.03318871853248527 -0.029302768857304432 0 -0.033580959838318776 -0.02952946240436289 0 -0.03058838910609454 -0.034996969418734293 0 -0.030805327564287568 -0.034963641607650572 0 -0.030683865790199476 -0.03496336086135108 0 -0.030471656584051179 -0.035009344890367736 0 -0.03058838910609454 -0.034996969418734293 0 -0.030683865790199476 -0.03496336086135108 0 -0.030437337549485379 -0.029989783391084466 0 -0.031033994756730861 -0.026768771555345735 0 -0.032432896335904814 -0.028682903551089978 0 -0.030362961988955703 -0.032978001371250426 0 -0.032897747616991414 -0.028321190811703718 0 -0.03051692260306299 -0.035073997412289552 0 -0.030474229669257051 -0.03500101761352075 0 -0.030557109641196539 -0.034922032819823597 0 -0.030471656584051179 -0.035009344890367736 0 -0.030474229669257051 -0.03500101761352075 0 -0.030492558121825719 -0.034963608561657269 0 -0.030393638893637547 -0.035116897789701236 0 -0.030471656584051179 -0.035009344890367736 0 -0.030474229669257051 -0.03500101761352075 0 -0.030474229669257051 -0.03500101761352075 0 -0.030492558121825719 -0.034963608561657269 0 -0.030557109641196539 -0.034922032819823597 0 -0.03318871853248527 -0.029302768857304432 0 -0.032897747616991414 -0.028321190811703718 0 -0.035816964517868102 -0.023510656953196322 0 -0.035344766546751359 -0.02366596968793239 0 -0.034994165669087876 -0.023341779617317721 0 -0.035344766546751359 -0.02366596968793239 0 -0.034981539064915405 -0.023423608744730807 0 -0.034994165669087876 -0.023341779617317721 0 -0.035344766546751359 -0.02366596968793239 0 -0.034932985320488358 -0.023628230208098549 0 -0.034981539064915405 -0.023423608744730807 0 -0.035344766546751359 -0.02366596968793239 0 -0.034932985320488358 -0.023628230208098549 0 -0.034918254363705346 -0.023831273415131395 0 -0.034932985320488358 -0.023628230208098549 0 -0.034918254363705346 -0.023831273415131395 0 -0.034717668288577121 -0.023710036134618875 0 -0.034932985320488358 -0.023628230208098549 0 -0.034754563433286943 -0.023601015269920197 0 -0.034717668288577121 -0.023710036134618875 0 -0.034932985320488358 -0.023628230208098549 0 -0.03485475288603896 -0.02349556804252961 0 -0.034754563433286943 -0.023601015269920197 0 -0.03485475288603896 -0.02349556804252961 0 -0.034714307162472292 -0.023514557180471608 0 -0.034754563433286943 -0.023601015269920197 0 -0.03485475288603896 -0.02349556804252961 0 -0.034990403724280153 -0.023359992190785848 0 -0.034714307162472292 -0.023514557180471608 0 -0.03485475288603896 -0.02349556804252961 0 -0.034981539064915405 -0.023423608744730807 0 -0.034990403724280153 -0.023359992190785848 0 -0.034932985320488358 -0.023628230208098549 0 -0.03485475288603896 -0.02349556804252961 0 -0.034981539064915405 -0.023423608744730807 0 -0.033132971426563143 -0.02735218961023848 0 -0.032897747616991414 -0.028321190811703718 0 -0.035344766546751359 -0.02366596968793239 0 -0.034918254363705346 -0.023831273415131395 0 -0.035116804457523319 -0.024146820889017095 0 -0.034918254363705346 -0.023831273415131395 0 -0.035116804457523319 -0.024146820889017095 0 -0.034659703653151554 -0.023971425857525007 0 -0.035116804457523319 -0.024146820889017095 0 -0.034659703653151554 -0.023971425857525007 0 -0.034708834673822041 -0.024160884900331983 0 -0.035344766546751359 -0.02366596968793239 0 -0.035116804457523319 -0.024146820889017095 0 -0.035706488608792927 -0.02412808843497001 0 -0.035816964517868102 -0.023510656953196322 0 -0.035706488608792927 -0.02412808843497001 0 -0.036367117930170924 -0.0243597753366766 0 -0.035816964517868102 -0.023510656953196322 0 -0.035344766546751359 -0.02366596968793239 0 -0.035706488608792927 -0.02412808843497001 0 -0.035116804457523319 -0.024146820889017095 0 -0.035706488608792927 -0.02412808843497001 0 -0.035562618524271179 -0.024352641561955178 0 -0.036116928636530543 -0.024605642316718634 0 -0.035562618524271179 -0.024352641561955178 0 -0.035370268154772684 -0.024521278045626791 0 -0.035706488608792927 -0.02412808843497001 0 -0.036116928636530543 -0.024605642316718634 0 -0.036367117930170924 -0.0243597753366766 0 -0.035706488608792927 -0.02412808843497001 0 -0.036116928636530543 -0.024605642316718634 0 -0.035562618524271179 -0.024352641561955178 0 -0.035116804457523319 -0.024146820889017095 0 -0.034824544687823471 -0.02431779762145822 0 -0.035370268154772684 -0.024521278045626791 0 -0.035116804457523319 -0.024146820889017095 0 -0.035562618524271179 -0.024352641561955178 0 -0.035370268154772684 -0.024521278045626791 0 -0.035116804457523319 -0.024146820889017095 0 -0.034824544687823471 -0.02431779762145822 0 -0.034708834673822041 -0.024160884900331983 0 -0.033580959838318776 -0.02952946240436289 0 -0.035285730972872499 -0.027945624738690156 0 -0.036777163700485761 -0.023864282112517246 0 -0.036367117930170924 -0.0243597753366766 0 -0.037219825592324562 -0.025047849079083126 0 -0.036777163700485761 -0.023864282112517246 0 -0.037219825592324562 -0.025047849079083126 0 -0.038006715887854682 -0.024382921239339893 0 -0.038165812897143638 -0.024432972457985314 0 -0.035285730972872499 -0.027945624738690156 0 -0.035816964517868102 -0.023510656953196322 0 -0.036777163700485761 -0.023864282112517246 0 -0.036367117930170924 -0.0243597753366766 0 -0.036367117930170924 -0.0243597753366766 0 -0.036797850216657269 -0.024960237401593036 0 -0.037219825592324562 -0.025047849079083126 0 -0.036116928636530543 -0.024605642316718634 0 -0.036367117930170924 -0.0243597753366766 0 -0.036797850216657269 -0.024960237401593036 0 -0.036116928636530543 -0.024605642316718634 0 -0.036797850216657269 -0.024960237401593036 0 -0.036412480158618261 -0.024969191699433492 0 -0.036797850216657269 -0.024960237401593036 0 -0.037219825592324562 -0.025047849079083126 0 -0.037240645565029457 -0.025261562838587825 0 -0.037219825592324562 -0.025047849079083126 0 -0.037240645565029457 -0.025261562838587825 0 -0.037293920923122725 -0.02564909178165314 0 -0.037219825592324562 -0.025047849079083126 0 -0.037293920923122725 -0.02564909178165314 0 -0.037302188199817225 -0.025933582582741782 0 -0.037293920923122725 -0.02564909178165314 0 -0.037302188199817225 -0.025933582582741782 0 -0.037210971837876382 -0.026576294297330706 0 -0.035285730972872499 -0.027945624738690156 0 -0.037724456386558441 -0.026859668073050694 0 -0.035285730972872499 -0.027945624738690156 0 -0.033777549178712972 -0.032065315983207977 0 -0.038431887418005663 -0.027149458403590419 0 -0.037210971837876382 -0.026576294297330706 0 -0.037272856050527672 -0.028382064131395074 0 -0.037210971837876382 -0.026576294297330706 0 -0.036227189557010084 -0.027482504418774749 0 -0.037272856050527672 -0.028382064131395074 0 -0.037210971837876382 -0.026576294297330706 0 -0.036949657899575876 -0.025665747891718948 0 -0.036440494473866429 -0.02635446006378454 0 -0.037293920923122725 -0.02564909178165314 0 -0.037210971837876382 -0.026576294297330706 0 -0.036949657899575876 -0.025665747891718948 0 -0.036949657899575876 -0.025665747891718948 0 -0.036440494473866429 -0.02635446006378454 0 -0.036168369581004584 -0.025632736112766071 0 -0.035598151479423676 -0.026827236375827769 0 -0.036114720090667782 -0.025775788415926301 0 -0.036440494473866429 -0.02635446006378454 0 -0.035472971715929592 -0.026651262867175018 0 -0.036168369581004584 -0.025632736112766071 0 -0.036440494473866429 -0.02635446006378454 0 -0.035472971715929592 -0.026651262867175018 0 -0.036227189557010084 -0.027482504418774749 0 -0.035672536453605262 -0.027019604567142978 0 -0.034999828760110846 -0.02643344264226009 0 -0.036168369581004584 -0.025632736112766071 0 -0.035672536453605262 -0.027019604567142978 0 -0.034999828760110846 -0.02643344264226009 0 -0.035000045449251817 -0.028275730486274454 0 -0.035598151479423676 -0.026827236375827769 0 -0.035000120405812012 -0.028275207868415884 0 -0.035472971715929592 -0.026651262867175018 0 -0.034999462911516864 -0.028273250102221759 0 -0.036227189557010084 -0.027482504418774749 0 -0.034999462911516864 -0.028273250102221759 0 -0.036227189557010084 -0.027482504418774749 0 -0.036093144787860999 -0.028690815638401965 0 -0.037210971837876382 -0.026576294297330706 0 -0.036440494473866429 -0.02635446006378454 0 -0.036227189557010084 -0.027482504418774749 0 -0.035431075024241449 -0.030754440489640992 0 -0.035104218494372667 -0.031272237226837786 0 -0.034999462911516864 -0.028273250102221759 0 -0.035431075024241449 -0.030754440489640992 0 -0.034999462911516864 -0.028273250102221759 0 -0.035649210391303005 -0.029693946137206089 0 -0.036227189557010084 -0.027482504418774749 0 -0.036093144787860999 -0.028690815638401965 0 -0.037272856050527672 -0.028382064131395074 0 -0.034997936134901007 -0.032194774490705923 0 -0.035104218494372667 -0.031272237226837786 0 -0.034999462911516864 -0.028273250102221759 0 -0.036093144787860999 -0.028690815638401965 0 -0.036488276636786665 -0.029576546938101661 0 -0.037272856050527672 -0.028382064131395074 0 -0.036093144787860999 -0.028690815638401965 0 -0.035649210391303005 -0.029693946137206089 0 -0.036488276636786665 -0.029576546938101661 0 -0.034999462911516864 -0.028273250102221759 0 -0.036093144787860999 -0.028690815638401965 0 -0.035649210391303005 -0.029693946137206089 0 -0.035559301258581907 -0.030767411576211327 0 -0.035431075024241449 -0.030754440489640992 0 -0.035649210391303005 -0.029693946137206089 0 -0.031181145520373949 -0.034781323401931533 0 -0.030880676060383434 -0.034792267339736845 0 -0.030978981473410862 -0.034928791582385516 0 -0.035559301258581907 -0.030767411576211327 0 -0.035649210391303005 -0.029693946137206089 0 -0.036488276636786665 -0.029576546938101661 0 -0.033876329879644118 -0.0326758644970069 0 -0.033701123636691505 -0.032243911965704239 0 -0.030880676060383434 -0.034792267339736845 0 -0.030978981473410862 -0.034928791582385516 0 -0.03078944928997053 -0.034916428864973335 0 -0.030978981473410862 -0.034928791582385516 0 -0.03078944928997053 -0.034916428864973335 0 -0.030870378178282708 -0.03494463312298976 0 -0.030596498112340591 -0.034925455078799003 0 -0.03078944928997053 -0.034916428864973335 0 -0.030683865790199476 -0.03496336086135108 0 -0.030805327564287568 -0.034963641607650572 0 -0.030683865790199476 -0.03496336086135108 0 -0.030870378178282708 -0.03494463312298976 0 -0.03078944928997053 -0.034916428864973335 0 -0.030683865790199476 -0.03496336086135108 0 -0.030870378178282708 -0.03494463312298976 0 -0.033701123636691505 -0.032243911965704239 0 -0.033777549178712972 -0.032065315983207977 0 -0.014613694975110527 -0.033034928299673541 0 -0.014729162672189622 -0.033319425967002311 0 -0.014482717762331619 -0.032911801335389554 0 -0.014809294606828444 -0.032965611678028368 0 -0.014751982811426345 -0.033353647813837144 0 -0.014476168049463976 -0.033455995164128262 0 -0.014632145906446632 -0.033133251671738868 0 -0.014751982811426345 -0.033353647813837144 0 -0.014407212771026042 -0.033319120552253736 0 -0.014476168049463976 -0.033455995164128262 0 -0.014325142556648851 -0.033433019711362998 0 -0.014407212771026042 -0.033319120552253736 0 -0.014476168049463976 -0.033455995164128262 0 -0.014632145906446632 -0.033133251671738868 0 -0.015842272144339004 -0.035253666439296026 0 -0.01902604271909774 -0.034125793853080622 0 -0.014476168049463976 -0.033455995164128262 0 -0.01456459074379074 -0.033847257154735459 0 -0.014298687082091258 -0.033603062269392581 0 -0.014476168049463976 -0.033455995164128262 0 -0.01456459074379074 -0.033847257154735459 0 -0.014751982811426345 -0.033353647813837144 0 -0.017906807149441067 -0.036513219605804552 0 -0.018804429083475762 -0.035898016767521718 0 -0.016855288659334618 -0.035186923335688132 0 -0.01760146006624717 -0.034999456385522029 0 -0.018804429083475762 -0.035898016767521718 0 -0.016855288659334618 -0.035186923335688132 0 -0.01760146006624717 -0.034999456385522029 0 -0.019506109152459532 -0.034999777207740182 0 -0.018804429083475762 -0.035898016767521718 0 -0.019506109152459532 -0.034999777207740182 0 -0.018804429083475762 -0.035898016767521718 0 -0.020277573134843713 -0.035829813957514452 0 -0.017906807149441067 -0.036513219605804552 0 -0.018804429083475762 -0.035898016767521718 0 -0.019959471282363764 -0.036848366691280866 0 -0.019540762166909295 -0.036871249533934281 0 -0.01902604271909774 -0.034125793853080622 0 -0.018804429083475762 -0.035898016767521718 0 -0.020277573134843713 -0.035829813957514452 0 -0.020224306571567797 -0.03715495027389628 0 -0.020277573134843713 -0.035829813957514452 0 -0.021318810341166009 -0.036349825263164728 0 -0.020224306571567797 -0.03715495027389628 0 -0.019506109152459532 -0.034999777207740182 0 -0.020277573134843713 -0.035829813957514452 0 -0.02140927102293198 -0.034999665046022248 0 -0.021409