<?xml version="1.0"?>
<VTKFile type="UnstructuredGrid" version="0.1" byte_order="LittleEndian">
<UnstructuredGrid>
<Piece NumberOfPoints="29649" NumberOfCells="10383">
<Points>
<DataArray type="Float64" NumberOfComponents="3" format="ascii">
-0.5 -0.5 0 -0.46846304837030139 -0.47681974484589279 0 -0.48095733451828748 -0.45151771881915381 0 -0.5 -0.5 0 -0.48095733451828748 -0.45151771881915381 0 -0.5 -0.41004107980355592 0 -0.5 -0.5 0 -0.46846304837030139 -0.47681974484589279 0 -0.43694249661973472 -0.5 0 -0.46846304837030139 -0.47681974484589279 0 -0.43812936226539828 -0.46068668964276449 0 -0.43694249661973472 -0.5 0 -0.46846304837030139 -0.47681974484589279 0 -0.43812936226539828 -0.46068668964276449 0 -0.45845195183622178 -0.4438048196963616 0 -0.43812936226539828 -0.46068668964276449 0 -0.45845195183622178 -0.4438048196963616 0 -0.43918444256534639 -0.44118424196448941 0 -0.43812936226539828 -0.46068668964276449 0 -0.45845195183622178 -0.4438048196963616 0 -0.45845195183622178 -0.4438048196963616 0 -0.48095733451828748 -0.45151771881915381 0 -0.47877454140704528 -0.42692294974995881 0 -0.46846304837030139 -0.47681974484589279 0 -0.45845195183622178 -0.4438048196963616 0 -0.48095733451828748 -0.45151771881915381 0 -0.48095733451828748 -0.45151771881915381 0 -0.5 -0.41004107980355592 0 -0.47877454140704528 -0.42692294974995881 0 -0.5 -0.41004107980355592 0 -0.47877454140704528 -0.42692294974995881 0 -0.5 -0.41004107980355592 0 -0.47877454140704528 -0.42692294974995881 0 -0.47243234888893598 -0.40049214461995541 0 -0.47243234888893598 -0.40049214461995541 0 -0.45265074823147139 -0.37657536171875539 0 -0.48149581473229153 -0.36560973465004282 0 -0.5 -0.40151284668718701 0 -0.47243234888893598 -0.40049214461995541 0 -0.48149581473229153 -0.36560973465004282 0 -0.5 -0.41004107980355592 0 -0.5 -0.40151284668718701 0 -0.47243234888893598 -0.40049214461995541 0 -0.47243234888893598 -0.40049214461995541 0 -0.4435264055902457 -0.40174756327198358 0 -0.45265074823147139 -0.37657536171875539 0 -0.4435264055902457 -0.40174756327198358 0 -0.45265074823147139 -0.37657536171875539 0 -0.42852276756970431 -0.38604195239277661 0 -0.4435264055902457 -0.40174756327198358 0 -0.45265074823147139 -0.37657536171875539 0 -0.45845195183622178 -0.4438048196963616 0 -0.47877454140704528 -0.42692294974995881 0 -0.45148180128362969 -0.42103547645820472 0 -0.45845195183622178 -0.4438048196963616 0 -0.47877454140704528 -0.42692294974995881 0 -0.47243234888893598 -0.40049214461995541 0 -0.4435264055902457 -0.40174756327198358 0 -0.45148180128362969 -0.42103547645820472 0 -0.47877454140704528 -0.42692294974995881 0 -0.47243234888893598 -0.40049214461995541 0 -0.45148180128362969 -0.42103547645820472 0 -0.4435264055902457 -0.40174756327198358 0 -0.45148180128362969 -0.42103547645820472 0 -0.42684152784681861 -0.40914846015563022 0 -0.43918444256534639 -0.44118424196448941 0 -0.45845195183622178 -0.4438048196963616 0 -0.45148180128362969 -0.42103547645820472 0 -0.43918444256534639 -0.44118424196448941 0 -0.45148180128362969 -0.42103547645820472 0 -0.42894023828224448 -0.42776986004131412 0 -0.45148180128362969 -0.42103547645820472 0 -0.42894023828224448 -0.42776986004131412 0 -0.42684152784681861 -0.40914846015563022 0 -0.42894023828224448 -0.42776986004131412 0 -0.42684152784681861 -0.40914846015563022 0 -0.40946564482035419 -0.42250913069730489 0 -0.42684152784681861 -0.40914846015563022 0 -0.40946564482035419 -0.42250913069730489 0 -0.41140369542360961 -0.39941030067509248 0 -0.40946564482035419 -0.42250913069730489 0 -0.39951177656723941 -0.44536924043939857 0 -0.42057564098021222 -0.44427974735154963 0 -0.42894023828224448 -0.42776986004131412 0 -0.40946564482035419 -0.42250913069730489 0 -0.42057564098021222 -0.44427974735154963 0 -0.42684152784681861 -0.40914846015563022 0 -0.42852276756970431 -0.38604195239277661 0 -0.41140369542360961 -0.39941030067509248 0 -0.4435264055902457 -0.40174756327198358 0 -0.42684152784681861 -0.40914846015563022 0 -0.42852276756970431 -0.38604195239277661 0 -0.42852276756970431 -0.38604195239277661 0 -0.40201560677793108 -0.3774769889713252 0 -0.41990857931974251 -0.36610276665878261 0 -0.42852276756970431 -0.38604195239277661 0 -0.41140369542360961 -0.39941030067509248 0 -0.40201560677793108 -0.3774769889713252 0 -0.41140369542360961 -0.39941030067509248 0 -0.40201560677793108 -0.3774769889713252 0 -0.39668402828850341 -0.39425826581320877 0 -0.40201560677793108 -0.3774769889713252 0 -0.39668402828850341 -0.39425826581320877 0 -0.37665814286574312 -0.37990398172601098 0 -0.41140369542360961 -0.39941030067509248 0 -0.39273342017679058 -0.40934484128062598 0 -0.41140369542360961 -0.39941030067509248 0 -0.39668402828850341 -0.39425826581320877 0 -0.39273342017679058 -0.40934484128062598 0 -0.39668402828850341 -0.39425826581320877 0 -0.38125146789249648 -0.3965050731948016 0 -0.39273342017679058 -0.40934484128062598 0 -0.39668402828850341 -0.39425826581320877 0 -0.38125146789249648 -0.3965050731948016 0 -0.37665814286574312 -0.37990398172601098 0 -0.40946564482035419 -0.42250913069730489 0 -0.39040617458807442 -0.42806511775088329 0 -0.39951177656723941 -0.44536924043939857 0 -0.40946564482035419 -0.42250913069730489 0 -0.41140369542360961 -0.39941030067509248 0 -0.39273342017679058 -0.40934484128062598 0 -0.40946564482035419 -0.42250913069730489 0 -0.39273342017679058 -0.40934484128062598 0 -0.39040617458807442 -0.42806511775088329 0 -0.39273342017679058 -0.40934484128062598 0 -0.39040617458807442 -0.42806511775088329 0 -0.37406314492997172 -0.41927938188615971 0 -0.38125146789249648 -0.3965050731948016 0 -0.39273342017679058 -0.40934484128062598 0 -0.37406314492997172 -0.41927938188615971 0 -0.39273342017679058 -0.40934484128062598 0 -0.37406314492997172 -0.41927938188615971 0 -0.39040617458807442 -0.42806511775088329 0 -0.37523890169680202 -0.44400008610684222 0 -0.37406314492997172 -0.41927938188615971 0 -0.39040617458807442 -0.42806511775088329 0 -0.37523890169680202 -0.44400008610684222 0 -0.39951177656723941 -0.44536924043939857 0 -0.37523890169680202 -0.44400008610684222 0 -0.39325528242618829 -0.47016722636390162 0 -0.36043766218581369 -0.47389687249373852 0 -0.39951177656723941 -0.44536924043939857 0 -0.39325528242618829 -0.47016722636390162 0 -0.41236904621998838 -0.46002388974635849 0 -0.37523890169680202 -0.44400008610684222 0 -0.39951177656723941 -0.44536924043939857 0 -0.39325528242618829 -0.47016722636390162 0 -0.3890072089015234 -0.5 0 -0.39325528242618829 -0.47016722636390162 0 -0.36043766218581369 -0.47389687249373852 0 -0.3890072089015234 -0.5 0 -0.39325528242618829 -0.47016722636390162 0 -0.41780677269457472 -0.47756855958916739 0 -0.43812936226539828 -0.46068668964276449 0 -0.43694249661973472 -0.5 0 -0.41780677269457472 -0.47756855958916739 0 -0.3890072089015234 -0.5 0 -0.43694249661973472 -0.5 0 -0.41780677269457472 -0.47756855958916739 0 -0.39325528242618829 -0.47016722636390162 0 -0.41780677269457472 -0.47756855958916739 0 -0.41236904621998838 -0.46002388974635849 0 -0.43812936226539828 -0.46068668964276449 0 -0.41780677269457472 -0.47756855958916739 0 -0.43812936226539828 -0.46068668964276449 0 -0.42057564098021222 -0.44427974735154963 0 -0.41236904621998838 -0.46002388974635849 0 -0.43812936226539828 -0.46068668964276449 0 -0.41780677269457472 -0.47756855958916739 0 -0.41236904621998838 -0.46002388974635849 0 -0.43918444256534639 -0.44118424196448941 0 -0.43812936226539828 -0.46068668964276449 0 -0.42057564098021222 -0.44427974735154963 0 -0.43918444256534639 -0.44118424196448941 0 -0.42894023828224448 -0.42776986004131412 0 -0.42057564098021222 -0.44427974735154963 0 -0.39951177656723941 -0.44536924043939857 0 -0.42057564098021222 -0.44427974735154963 0 -0.41236904621998838 -0.46002388974635849 0 -0.49182563042982802 -0.26849984666022259 0 -0.4836512608596566 -0.2910512661412526 0 -0.5 -0.33139711299081198 0 -0.49182563042982802 -0.26849984666022259 0 -0.5 -0.33139711299081198 0 -0.49999999999999972 -0.24594842717919291 0 -0.44435088170999809 -0.26430770419017108 0 -0.46147138058704462 -0.26200666123987998 0 -0.45079035186059652 -0.24728701821004481 0 -0.44435088170999809 -0.26430770419017108 0 -0.43981298953622111 -0.25362310229907731 0 -0.45079035186059652 -0.24728701821004481 0 -0.44435088170999809 -0.26430770419017108 0 -0.45439163254145171 -0.28256448647516108 0 -0.43355407276668539 -0.27886185885587278 0 -0.44435088170999809 -0.26430770419017108 0 -0.46147138058704462 -0.26200666123987998 0 -0.45439163254145171 -0.28256448647516108 0 -0.46147138058704462 -0.26200666123987998 0 -0.47276745845585388 -0.27576362153877759 0 -0.45439163254145171 -0.28256448647516108 0 -0.46147138058704462 -0.26200666123987998 0 -0.46969437889539828 -0.24095406338282691 0 -0.45079035186059652 -0.24728701821004481 0 -0.46147138058704462 -0.26200666123987998 0 -0.47861902030246323 -0.25831528033366469 0 -0.47276745845585388 -0.27576362153877759 0 -0.46147138058704462 -0.26200666123987998 0 -0.47861902030246323 -0.25831528033366469 0 -0.46969437889539828 -0.24095406338282691 0 -0.47861902030246323 -0.25831528033366469 0 -0.49182563042982802 -0.26849984666022259 0 -0.49999999999999972 -0.24594842717919291 0 -0.49182563042982802 -0.26849984666022259 0 -0.49999999999999972 -0.24594842717919291 0 -0.49182563042982802 -0.26849984666022259 0 -0.4836512608596566 -0.2910512661412526 0 -0.47861902030246323 -0.25831528033366469 0 -0.49182563042982802 -0.26849984666022259 0 -0.47276745845585388 -0.27576362153877759 0 -0.49182563042982802 -0.26849984666022259 0 -0.47276745845585388 -0.27576362153877759 0 -0.4836512608596566 -0.2910512661412526 0 -0.47276745845585388 -0.27576362153877759 0 -0.4836512608596566 -0.2910512661412526 0 -0.46797769944258383 -0.29294229754877332 0 -0.4836512608596566 -0.2910512661412526 0 -0.47547689128948489 -0.31360268562228238 0 -0.49146109512584052 -0.32177921152073852 0 -0.4836512608596566 -0.2910512661412526 0 -0.46797769944258383 -0.29294229754877332 0 -0.47547689128948489 -0.31
[...]
<PointData Scalars="" Vectors="displacement," Tensors="">
<DataArray type="Float64" Name="displacement" NumberOfComponents="3" format="ascii">
0.024998891761790785 0.024998339468313004 0 0.024466981268218654 0.024004961524566007 0 0.023234288110574559 0.024759260805311083 0 0.024998891761790785 0.024998339468313004 0 0.023234288110574559 0.024759260805311083 0 0.020507379273742514 0.024997806666250223 0 0.024998891761790785 0.024998339468313004 0 0.024466981268218654 0.024004961524566007 0 0.024997699949085773 0.021849228850444432 0 0.024466981268218654 0.024004961524566007 0 0.024707427895825178 0.022959113483375763 0 0.024997699949085773 0.021849228850444432 0 0.024466981268218654 0.024004961524566007 0 0.024707427895825178 0.022959113483375763 0 0.023734258237175055 0.024358284142808866 0 0.023968112435159283 0.022289791051096863 0 0.022900241522829098 0.023482128902976223 0 0.022659673907074941 0.022084007718094947 0 0.023230916102174776 0.021622610428789137 0 0.022092313644759883 0.022633720206966679 0 0.023734258237175055 0.024358284142808866 0 0.023234288110574559 0.024759260805311083 0 0.02209637703211188 0.025045716771433121 0 0.024466981268218654 0.024004961524566007 0 0.023734258237175055 0.024358284142808866 0 0.023234288110574559 0.024759260805311083 0 0.023234288110574559 0.024759260805311083 0 0.020507379273742514 0.024997806666250223 0 0.02209637703211188 0.025045716771433121 0 0.020676612672884353 0.024883255092408383 0 0.021622462069768745 0.024409012762874698 0 0.020500078634253138 0.024999392688071335 0 0.021146575887509952 0.023795954545349548 0 0.020804955194279599 0.024176048698742066 0 0.020804955194279599 0.024176048698742066 0 0.020176319571283817 0.024382789224961947 0 0.019017030440146618 0.025152201543826726 0 0.020078100275949903 0.024998707772685671 0 0.020804955194279599 0.024176048698742066 0 0.019017030440146618 0.025152201543826726 0 0.020500078634253138 0.024999392688071335 0 0.020078100275949903 0.024998707772685671 0 0.020804955194279599 0.024176048698742066 0 0.020804955194279599 0.024176048698742066 0 0.021840118314220974 0.022916740052430697 0 0.020176319571283817 0.024382789224961947 0 0.021840118314220974 0.022916740052430697 0 0.021995174216611974 0.022024322756559911 0 0.022216518193343814 0.022208104497832837 0 0.021566082509009311 0.022953379569931764 0 0.021195089895362382 0.023080876453928201 0 0.022092313644759883 0.022633720206966679 0 0.021146575887509952 0.023795954545349548 0 0.021863797909856351 0.022890046305663131 0 0.022900241522829098 0.023482128902976223 0 0.021622462069768745 0.024409012762874698 0 0.020804955194279599 0.024176048698742066 0 0.021840118314220974 0.022916740052430697 0 0.021863797909856351 0.022890046305663131 0 0.021146575887509952 0.023795954545349548 0 0.020804955194279599 0.024176048698742066 0 0.021863797909856351 0.022890046305663131 0 0.021840118314220974 0.022916740052430697 0 0.021863797909856351 0.022890046305663131 0 0.022444508409412974 0.022197943252437274 0 0.022659673907074941 0.022084007718094947 0 0.022092313644759883 0.022633720206966679 0 0.021863797909856351 0.022890046305663131 0 0.022659673907074941 0.022084007718094947 0 0.021863797909856351 0.022890046305663131 0 0.022703845257716935 0.022026059529953367 0 0.021863797909856351 0.022890046305663131 0 0.022703845257716935 0.022026059529953367 0 0.022444508409412974 0.022197943252437274 0 0.022703845257716935 0.022026059529953367 0 0.022444508409412974 0.022197943252437274 0 0.023222582774178824 0.021622264952545864 0 0.022444508409412974 0.022197943252437274 0 0.023222582774178824 0.021622264952545864 0 0.022659875888784552 0.02211951628541799 0 0.023222582774178824 0.021622264952545864 0 0.023905521865589877 0.020970399651174049 0 0.023297134823131088 0.021580932519874453 0 0.022703845257716935 0.022026059529953367 0 0.023222582774178824 0.021622264952545864 0 0.023297134823131088 0.021580932519874453 0 0.022444508409412974 0.022197943252437274 0 0.022216518193343814 0.022208104497832837 0 0.022659875888784552 0.02211951628541799 0 0.021840118314220974 0.022916740052430697 0 0.022444508409412974 0.022197943252437274 0 0.022216518193343814 0.022208104497832837 0 0.022216518193343814 0.022208104497832837 0 0.02203819117275841 0.022501484303882865 0 0.02176151462211778 0.022287521504251818 0 0.022216518193343814 0.022208104497832837 0 0.022659875888784552 0.02211951628541799 0 0.02203819117275841 0.022501484303882865 0 0.022659875888784552 0.02211951628541799 0 0.02203819117275841 0.022501484303882865 0 0.02244910420288292 0.022540433017821992 0 0.02203819117275841 0.022501484303882865 0 0.02244910420288292 0.022540433017821992 0 0.02212038886109079 0.022951502986639071 0 0.022763494757856904 0.022040631246872684 0 0.023032845813928539 0.021752766757235663 0 0.022659875888784552 0.02211951628541799 0 0.02244910420288292 0.022540433017821992 0 0.022695337643553328 0.022616011736061346 0 0.02244910420288292 0.022540433017821992 0 0.022470906924954386 0.022794841170606754 0 0.022695337643553328 0.022616011736061346 0 0.02244910420288292 0.022540433017821992 0 0.022470906924954386 0.022794841170606754 0 0.02212038886109079 0.022951502986639071 0 0.023222582774178824 0.021622264952545864 0 0.023852201633744227 0.020936256973583194 0 0.023905521865589877 0.020970399651174049 0 0.023222582774178824 0.021622264952545864 0 0.022659875888784552 0.02211951628541799 0 0.023599861728490872 0.021291570260877347 0 0.023222582774178824 0.021622264952545864 0 0.023599861728490872 0.021291570260877347 0 0.023852201633744227 0.020936256973583194 0 0.023599861728490872 0.021291570260877347 0 0.023852201633744227 0.020936256973583194 0 0.024223639464833739 0.020468122053999668 0 0.022470906924954386 0.022794841170606754 0 0.022695337643553328 0.022616011736061346 0 0.022742367830726272 0.022826343211212758 0 0.023032845813928539 0.021752766757235663 0 0.023660855719799291 0.022313901393505392 0 0.023852201633744227 0.020936256973583194 0 0.024360349996442231 0.020148402864154983 0 0.024223639464833739 0.020468122053999668 0 0.023852201633744227 0.020936256973583194 0 0.024360349996442231 0.020148402864154983 0 0.023905521865589877 0.020970399651174049 0 0.024360349996442231 0.020148402864154983 0 0.024581755453560547 0.020322469097163589 0 0.024949288474372031 0.018915575924068586 0 0.023905521865589877 0.020970399651174049 0 0.024581755453560547 0.020322469097163589 0 0.02400092332959607 0.021202640932773027 0 0.024360349996442231 0.020148402864154983 0 0.023905521865589877 0.020970399651174049 0 0.024581755453560547 0.020322469097163589 0 0.024998566807323409 0.01945111863833569 0 0.024581755453560547 0.020322469097163589 0 0.024949288474372031 0.018915575924068586 0 0.024998566807323409 0.01945111863833569 0 0.024581755453560547 0.020322469097163589 0 0.0247201686474579 0.021193132135108379 0 0.024707427895825178 0.022959113483375763 0 0.024997699949085773 0.021849228850444432 0 0.0247201686474579 0.021193132135108379 0 0.024998566807323409 0.01945111863833569 0 0.024997699949085773 0.021849228850444432 0 0.0247201686474579 0.021193132135108379 0 0.024581755453560547 0.020322469097163589 0 0.0247201686474579 0.021193132135108379 0 0.02400092332959607 0.021202640932773027 0 0.023968112435159283 0.022289791051096863 0 0.024570558564736028 0.021367069515535641 0 0.023230916102174776 0.021622610428789137 0 0.023297134823131088 0.021580932519874453 0 0.02400092332959607 0.021202640932773027 0 0.023230916102174776 0.021622610428789137 0 0.0247201686474579 0.021193132135108379 0 0.02400092332959607 0.021202640932773027 0 0.022659673907074941 0.022084007718094947 0 0.023230916102174776 0.021622610428789137 0 0.023297134823131088 0.021580932519874453 0 0.022659673907074941 0.022084007718094947 0 0.022703845257716935 0.022026059529953367 0 0.023297134823131088 0.021580932519874453 0 0.023905521865589877 0.020970399651174049 0 0.023297134823131088 0.021580932519874453 0 0.02400092332959607 0.021202640932773027 0 0.01342976657420746 0.025396992049551318 0 0.01456595799832036 0.025779608933012288 0 0.016570920082858771 0.024999148506992797 0 0.01342976657420746 0.025396992049551318 0 0.016570920082858771 0.024999148506992797 0 0.012296952457681936 0.025000355147762766 0 0.012300882059354475 0.02610176780489417 0 0.012301820820915623 0.025799380778604126 0 0.011907006151699474 0.026057019649706581 0 0.012300882059354475 0.02610176780489417 0 0.01201816464302226 0.026143819391333794 0 0.011907006151699474 0.026057019649706581 0 0.012300882059354475 0.02610176780489417 0 0.012755323535583415 0.025903582589090382 0 0.012660047143348872 0.026347817136443068 0 0.012300882059354475 0.02610176780489417 0 0.012301820820915623 0.025799380778604126 0 0.012755323535583415 0.025903582589090382 0 0.012301820820915623 0.025799380778604126 0 0.012628339422136842 0.025540528498022002 0 0.012755323535583415 0.025903582589090382 0 0.012301820820915623 0.025799380778604126 0 0.011810083203464522 0.025723089087271708 0 0.011907006151699474 0.026057019649706581 0 0.012301820820915623 0.025799380778604126 0 0.012302034827198063 0.025446621648476636 0 0.012628339422136842 0.025540528498022002 0 0.012301820820915623 0.025799380778604126 0 0.012302034827198063 0.025446621648476636 0 0.011810083203464522 0.025723089087271708 0 0.012302034827198063 0.025446621648476636 0 0.012502695413903114 0.025192490861574306 0 0.012296079191083199 0.025000019504233528 0 0.013033305994516324 0.025295007387143777 0 0.012297439987934136 0.025000038524351641 0 0.013033305994516324 0.025295007387143777 0 0.013418184973123897 0.025568532902232998 0 0.012302034827198063 0.025446621648476636 0 0.012502695413903114 0.025192490861574306 0 0.012628339422136842 0.025540528498022002 0 0.012502695413903114 0.025192490861574306 0 0.012628339422136842 0.025540528498022002 0 0.012956241781837258 0.025302402781042704 0 0.012628339422136842 0.025540528498022002 0 0.012956241781837258 0.025302402781042704 0 0.012998814625811194 0.025621637849264772 0 0.01456595799832036 0.025779608933012288 0 0.015699755914688363 0.026175642892953124 0 0.016109173342099478 0.025376762977099256 0 0.012956241781837258 0.025302402781042704 0 0.012998814625811194 0.025621637849264772 0 0.013480333716585044 0.025449348432031244 0 0.013418184973123897 0.025568532902232998 0 0.01648691720740459 0.024938463536595408 0 0.013254261199577368 0.025850958995060989 0 0.012998814625811194 0.025621637849264772 0 0.013480333716585044 0.025449348432031244 0 0.016586567039597887 0.024197253941939292 0 0.01648691720740459 0.024938463536595408 0 0.012628339422136842 0.025540528498022002 0 0.012998814625811194 0.025621637849264772 0 0.012755323535583415 0.025903582589090382 0 0.013254261199577368 0.025850958995060989 0 0.012998814625811194 0.025621637849264772 0 0.012755323535583415 0.025903582589090382 0 0.012755323535583415 0.025903582589090382 0 0.013032480445265259 0.026245495545357336 0 0.012660047143348872 0.026347817136443068 0 0.013254261199577368 0.025850958995060989 0 0.012755323535583415 0.025903582589090382 0 0.013032480445265259 0.026245495545357336 0 0.019875793306461449 0.022731232060476142 0 0.01990942901493058 0.022555940089247117 0 0.019846946367436315 0.022525361582722246 0 0.016586567039597887 0.024197253941939292 0 0.016692789253484684 0.024243995932510844 0 0.020078100275949903 0.024998707772685671 0 0.016570920082858771 0.024999148506992797 0 0.019017030440146618 0.025152201543826726 0 0.019875793306461449 0.022731232060476142 0 0.019735341151423051 0.022701019166784478 0 0.019846946367436315 0.022525361582722246 0 0.019735341151423051 0.022701019166784478 0 0.019645967586622997 0.02255292192649893 0 0.019846946367436315 0.022525361582722246 0 0.020457564611396296 0.021867163526403017 0 0.019728090233924668 0.023755632748796465 0 0.019735341151423051 0.022701019166784478 0 0.019645967586622997 0.02255292192649893 0 0.019458122847782269 0.022797338113109838 0 0.019735341151423051 0.022701019166784478 0 0.019629625312016653 0.022859166505118982 0 0.019458122847782269 0.022797338113109838 0 0.018255166111515706 0.024707942705849247 0 0.019728090233924668 0.023755632748796465 0 0.019735341151423051 0.022701019166784478 0 0.019629625312016653 0.022859166505118982 0 0.019781039300766114 0.022923599065387833 0 0.019875793306461449 0.022731232060476142 0 0.019735341151423051 0.022701019166784478 0 0.019781039300766114 0.022923599065387833 0 0.015716517179908775 0.026097552982233478 0 0.016109173342099478 0.025376762977099256 0 0.016746476666423718 0.025641047000733261 0 0.01648691720740459 0.024938463536595408 0 0.01583883619726623 0.025889901457840141 0 0.016718514629849433 0.026470486588748999 0 0.015716517179908775 0.026097552982233478 0 0.016746476666423718 0.025641047000733261 0 0.018255166111515706 0.024707942705849247 0 0.01648691720740459 0.024938463536595408 0 0.01456595799832036 0.025779608933012288 0 0.016109173342099478 0.025376762977099256 0 0.016570920082858771 0.024999148506992797 0 0.016570920082858771 0.024999148506992797 0 0.016746476666423718 0.025641047000733261 0 0.019017030440146618 0.025152201543826726 0 0.016718514629849433 0.026470486588748999 0 0.016746476666423718 0.025641047000733261 0 0.019017030440146618 0.025152201543826726 0 0.016109173342099478 0.025376762977099256 0 0.016570920082858771 0.024999148506992797 0 0.016746476666423718 0.025641047000733261 0 0.01861219318494681 0.025967812945213005 0 0.019728090233924668 0.023755632748796465 0 0.016718514629849433 0.026470486588748999 0 0.019017030440146618 0.025152201543826726 0 0.018057410232526723 0.02680345276156668 0 0.020176319571283817 0.024382789224961947 0 0.019017030440146618 0.025152201543826726 0 0.019711326908923497 0.024738343279493098 0 0.021195089895362382 0.023080876453928201 0 0.019728090233924668 0.023755632748796465 0 0.020909509375804845 0.021868268176160187 0 0.021430299970470575 0.021566764355610175 0 0.021581218542441074 0.021969727671976597 0 0.021995174216611974 0.022024322756559911 0 0.022216518193343814 0.022208104497832837 0 0.021581218542441074 0.021969727671976597 0 0.021995174216611974 0.022024322756559911 0 0.021430299970470575 0.021566764355610175 0 0.021581218542441074 0.021969727671976597 0 0.022216518193343814 0.022208104497832837 0 0.021581218542441074 0.021969727671976597 0 0.02176151462211778 0.022287521504251818 0 0.020909509375804845 0.021868268176160187 0 0.021581218542441074 0.021969727671976597 0 0.021049815406557992 0.022276137711329407 0 0.021581218542441074 0.021969727671976597 0 0.02176151462211778 0.022287521504251818 0 0.021049815406557992 0.022276137711329407 0 0.02176151462211778 0.022287521504251818 0 0.021392238154006839 0.022537636569109391 0 0.021049815406557992 0.022276137711329407 0 0.02203819117275841 0.022501484303882865 0 0.02176151462211778 0.022287521504251818 0 0.021392238154006839 0.022537636569109391 0 0.02203819117275841 0.022501484303882865 0 0.021459712538905853 0.022918039319128052 0 0.021392238154006839 0.022537636569109391 0 0.02203819117275841 0.022501484303882865 0 0.02212038886109079 0.022951502986639071 0 0.021459712538905853 0.022918039319128052 0 0.021104404001299155 0.015980776407096255 0 0.019739895954656302 0.015680128470479417 0 0.020078073886281696 0.0090130752545631646 0 0.018030935375229918 0.0082832397683826782 0 0.018273757823500214 0.010004999652255734 0 0.021459712538905853 0.022918039319128052 0 0.021392238154006839 0.022537636569109391 0 0.020582884017569501 0.022828368847880809 0 0.019739895954656302 0.015680128470479417 0 0.018587062003612018 0.01470650855466139 0 0.018030935375229918 0.0082832397683826782 0 0.016383376173368359 0.007778225348704695 0 0.016262049271727912 0.0095063448639788484 0 0.016383376173368359 0.007778225348704695 0 0.014973809025456685 0.0086962352348702223 0 0.016262049271727912 0.0095063448639788484 0 0.016383376173368359 0.007778225348704695 0 0.014973484637471356 0.0073506341922938388 0 0.014973809025456685 0.0086962352348702223 0 0.020582884017569501 0.022828368847880809 0 0.019536277109621709 0.022487264671475493 0 0.019827464738901776 0.022463509329956218 0 0.018587062003612018 0.01470650855466139 0 0.015961324182519665 0.019517002804431884 0 0.020582884017569501 0.022828368847880809 0 0.019979165839620894 0.022375522867461074 0 0.019827464738901776 0.022463509329956218 0 0.021392238154006839 0.022537636569109391 0 0.020582884017569501 0.022828368847880809 0 0.021049815406557992 0.022276137711329407 0 0.020582884017569501 0.022828368847880809 0 0.019979165839620894 0.022375522867461074 0 0.021049815406557992 0.022276137711329407 0 0.020909509375804845 0.021868268176160187 0 0.019979165839620894 0.022375522867461074 0 0.021049815406557992 0.022276137711329407 0 0.020457564611396296 0.021867163526403017 0 0.019895748181845693 0.022554076952574158 0 0.019979165839620894 0.022375522867461074 0 0.019846946367436315 0.022525361582722246 0 0.019878104117497554 0.022430816477485054 0 0.019645967586622997 0.02255292192649893 0 0.019979165839620894 0.022375522867461074 0 0.019846946367436315 0.022525361582722246 0 0.019846946367436315 0.022525361582722246 0 0.019877443340321259 0.022470226123797444 0 0.019878104117497554 0.022430816477485054 0 0.01990942901493058 0.022555940089247117 0 0.019846946367436315 0.022525361582722246 0 0.019877443340321259 0.022470226123797444 0 0.016692789253484684 0.024243995932510844 0 0.013873460354240018 0.024869422874778724 0 0.01990942901493058 0.022555940089247117 0 0.019877443340321259 0.022470226123797444 0 0.019872539137500134 0.022474934385296789 0 0.013032480445265259 0.026245495545357336 0 0.012807929140236473 0.026676186653802857 0 0.012660047143348872 0.026347817136443068 0 0.013873460354240018 0.024869422874778724 0 0.015961324182519665 0.019517002804431884 0 0.010778394270309237 0.024877247782029727 0 0.010781226361704884 0.024842193808081916 0 0.010936670537477086 0.024784299163475697 0 0.019877443340321259 0.022470226123797444 0 0.019872539137500134 0.022474934385296789 0 0.019848864313011205 0.022440192345470653 0 0.011804947973107788 0.015915342927154658 0 0.015961324182519665 0.019517002804431884 0 0.019877443340321259 0.022470226123797444 0 0.019878104117497554 0.022430816477485054 0 0.019848864313011205 0.022440192345470653 0 0.019878104117497554 0.022430816477485054 0 0.019848864313011205 0.022440192345470653 0 0.019827464738901776 0.022463509329956218 0 0.019979165839620894 0.022375522867461074 0 0.019878104117497554 0.022430816477485054 0 0.019827464738901776 0.022463509329956218 0 0.015961324182519665 0.019517002804431884 0 0.018813523701612649 0.020316122592877545 0 0.014973484637471356 0.0073506341922938388 0 0.014973809025456685 0.0086962352348702223 0 0.014101794542254355 0.0083462302168570528 0 0.014101794542254355 0.0083462302168570528 0 0.013164013258149839 0.0085587093410285815 0 0.014012970431827919 0.0095804500067989944 0 0.014973809025456685 0.0086962352348702223 0 0.014101794542254355 0.0083462302168570528 0 0.014012970431827919 0.0095804500067989944 0 0.013650890833513563 0.0075024270690474898 0 0.014973484637471356 0.0073506341922938388 0 0.014101794542254355 0.0083462302168570528 0 0.013650890833513563 0.0075024270690474898 0 0.014101794542254355 0.0083462302168570528 0 0.013164013258149839 0.0085587093410285815 0 0.013650890833513563 0.0075024270690474898 0 0.013164013258149839 0.0085587093410285815 0 0.01247704359113515 0.0076342152044356001 0 0.011804947973107788 0.015915342927154658 0 0.010942726256128974 0.015480419535093793 0 0.013164013258149839 0.0085587093410285815 0 0.012343074428367672 0.0089450827452992755 0 0.01247704359113515 0.0076342152044356001 0 0.011080934181892354 0.024620211098299188 0 0.011102089116573564 0.024994177376673411 0 0.01137494658689665 0.025090587730681412 0 0.011102089116573564 0.024994177376673411 0 0.010921751737518028 0.025306075105086288 0 0.01137494658689665 0.025090587730681412 0 0.011102089116573564 0.024994177376673411 0 0.010943328651291665 0.02499661206828873 0 0.01092175173751