<?xml version="1.0"?>
<VTKFile type="UnstructuredGrid" version="0.1" byte_order="LittleEndian">
<UnstructuredGrid>
<Piece NumberOfPoints="29649" NumberOfCells="10383">
<Points>
<DataArray type="Float64" NumberOfComponents="3" format="ascii">
-0.5 -0.5 0 -0.46846304837030139 -0.47681974484589279 0 -0.48095733451828748 -0.45151771881915381 0 -0.5 -0.5 0 -0.48095733451828748 -0.45151771881915381 0 -0.5 -0.41004107980355592 0 -0.5 -0.5 0 -0.46846304837030139 -0.47681974484589279 0 -0.43694249661973472 -0.5 0 -0.46846304837030139 -0.47681974484589279 0 -0.43812936226539828 -0.46068668964276449 0 -0.43694249661973472 -0.5 0 -0.46846304837030139 -0.47681974484589279 0 -0.43812936226539828 -0.46068668964276449 0 -0.45845195183622178 -0.4438048196963616 0 -0.43812936226539828 -0.46068668964276449 0 -0.45845195183622178 -0.4438048196963616 0 -0.43918444256534639 -0.44118424196448941 0 -0.43812936226539828 -0.46068668964276449 0 -0.45845195183622178 -0.4438048196963616 0 -0.45845195183622178 -0.4438048196963616 0 -0.48095733451828748 -0.45151771881915381 0 -0.47877454140704528 -0.42692294974995881 0 -0.46846304837030139 -0.47681974484589279 0 -0.45845195183622178 -0.4438048196963616 0 -0.48095733451828748 -0.45151771881915381 0 -0.48095733451828748 -0.45151771881915381 0 -0.5 -0.41004107980355592 0 -0.47877454140704528 -0.42692294974995881 0 -0.5 -0.41004107980355592 0 -0.47877454140704528 -0.42692294974995881 0 -0.5 -0.41004107980355592 0 -0.47877454140704528 -0.42692294974995881 0 -0.47243234888893598 -0.40049214461995541 0 -0.47243234888893598 -0.40049214461995541 0 -0.45265074823147139 -0.37657536171875539 0 -0.48149581473229153 -0.36560973465004282 0 -0.5 -0.40151284668718701 0 -0.47243234888893598 -0.40049214461995541 0 -0.48149581473229153 -0.36560973465004282 0 -0.5 -0.41004107980355592 0 -0.5 -0.40151284668718701 0 -0.47243234888893598 -0.40049214461995541 0 -0.47243234888893598 -0.40049214461995541 0 -0.4435264055902457 -0.40174756327198358 0 -0.45265074823147139 -0.37657536171875539 0 -0.4435264055902457 -0.40174756327198358 0 -0.45265074823147139 -0.37657536171875539 0 -0.42852276756970431 -0.38604195239277661 0 -0.4435264055902457 -0.40174756327198358 0 -0.45265074823147139 -0.37657536171875539 0 -0.45845195183622178 -0.4438048196963616 0 -0.47877454140704528 -0.42692294974995881 0 -0.45148180128362969 -0.42103547645820472 0 -0.45845195183622178 -0.4438048196963616 0 -0.47877454140704528 -0.42692294974995881 0 -0.47243234888893598 -0.40049214461995541 0 -0.4435264055902457 -0.40174756327198358 0 -0.45148180128362969 -0.42103547645820472 0 -0.47877454140704528 -0.42692294974995881 0 -0.47243234888893598 -0.40049214461995541 0 -0.45148180128362969 -0.42103547645820472 0 -0.4435264055902457 -0.40174756327198358 0 -0.45148180128362969 -0.42103547645820472 0 -0.42684152784681861 -0.40914846015563022 0 -0.43918444256534639 -0.44118424196448941 0 -0.45845195183622178 -0.4438048196963616 0 -0.45148180128362969 -0.42103547645820472 0 -0.43918444256534639 -0.44118424196448941 0 -0.45148180128362969 -0.42103547645820472 0 -0.42894023828224448 -0.42776986004131412 0 -0.45148180128362969 -0.42103547645820472 0 -0.42894023828224448 -0.42776986004131412 0 -0.42684152784681861 -0.40914846015563022 0 -0.42894023828224448 -0.42776986004131412 0 -0.42684152784681861 -0.40914846015563022 0 -0.40946564482035419 -0.42250913069730489 0 -0.42684152784681861 -0.40914846015563022 0 -0.40946564482035419 -0.42250913069730489 0 -0.41140369542360961 -0.39941030067509248 0 -0.40946564482035419 -0.42250913069730489 0 -0.39951177656723941 -0.44536924043939857 0 -0.42057564098021222 -0.44427974735154963 0 -0.42894023828224448 -0.42776986004131412 0 -0.40946564482035419 -0.42250913069730489 0 -0.42057564098021222 -0.44427974735154963 0 -0.42684152784681861 -0.40914846015563022 0 -0.42852276756970431 -0.38604195239277661 0 -0.41140369542360961 -0.39941030067509248 0 -0.4435264055902457 -0.40174756327198358 0 -0.42684152784681861 -0.40914846015563022 0 -0.42852276756970431 -0.38604195239277661 0 -0.42852276756970431 -0.38604195239277661 0 -0.40201560677793108 -0.3774769889713252 0 -0.41990857931974251 -0.36610276665878261 0 -0.42852276756970431 -0.38604195239277661 0 -0.41140369542360961 -0.39941030067509248 0 -0.40201560677793108 -0.3774769889713252 0 -0.41140369542360961 -0.39941030067509248 0 -0.40201560677793108 -0.3774769889713252 0 -0.39668402828850341 -0.39425826581320877 0 -0.40201560677793108 -0.3774769889713252 0 -0.39668402828850341 -0.39425826581320877 0 -0.37665814286574312 -0.37990398172601098 0 -0.41140369542360961 -0.39941030067509248 0 -0.39273342017679058 -0.40934484128062598 0 -0.41140369542360961 -0.39941030067509248 0 -0.39668402828850341 -0.39425826581320877 0 -0.39273342017679058 -0.40934484128062598 0 -0.39668402828850341 -0.39425826581320877 0 -0.38125146789249648 -0.3965050731948016 0 -0.39273342017679058 -0.40934484128062598 0 -0.39668402828850341 -0.39425826581320877 0 -0.38125146789249648 -0.3965050731948016 0 -0.37665814286574312 -0.37990398172601098 0 -0.40946564482035419 -0.42250913069730489 0 -0.39040617458807442 -0.42806511775088329 0 -0.39951177656723941 -0.44536924043939857 0 -0.40946564482035419 -0.42250913069730489 0 -0.41140369542360961 -0.39941030067509248 0 -0.39273342017679058 -0.40934484128062598 0 -0.40946564482035419 -0.42250913069730489 0 -0.39273342017679058 -0.40934484128062598 0 -0.39040617458807442 -0.42806511775088329 0 -0.39273342017679058 -0.40934484128062598 0 -0.39040617458807442 -0.42806511775088329 0 -0.37406314492997172 -0.41927938188615971 0 -0.38125146789249648 -0.3965050731948016 0 -0.39273342017679058 -0.40934484128062598 0 -0.37406314492997172 -0.41927938188615971 0 -0.39273342017679058 -0.40934484128062598 0 -0.37406314492997172 -0.41927938188615971 0 -0.39040617458807442 -0.42806511775088329 0 -0.37523890169680202 -0.44400008610684222 0 -0.37406314492997172 -0.41927938188615971 0 -0.39040617458807442 -0.42806511775088329 0 -0.37523890169680202 -0.44400008610684222 0 -0.39951177656723941 -0.44536924043939857 0 -0.37523890169680202 -0.44400008610684222 0 -0.39325528242618829 -0.47016722636390162 0 -0.36043766218581369 -0.47389687249373852 0 -0.39951177656723941 -0.44536924043939857 0 -0.39325528242618829 -0.47016722636390162 0 -0.41236904621998838 -0.46002388974635849 0 -0.37523890169680202 -0.44400008610684222 0 -0.39951177656723941 -0.44536924043939857 0 -0.39325528242618829 -0.47016722636390162 0 -0.3890072089015234 -0.5 0 -0.39325528242618829 -0.47016722636390162 0 -0.36043766218581369 -0.47389687249373852 0 -0.3890072089015234 -0.5 0 -0.39325528242618829 -0.47016722636390162 0 -0.41780677269457472 -0.47756855958916739 0 -0.43812936226539828 -0.46068668964276449 0 -0.43694249661973472 -0.5 0 -0.41780677269457472 -0.47756855958916739 0 -0.3890072089015234 -0.5 0 -0.43694249661973472 -0.5 0 -0.41780677269457472 -0.47756855958916739 0 -0.39325528242618829 -0.47016722636390162 0 -0.41780677269457472 -0.47756855958916739 0 -0.41236904621998838 -0.46002388974635849 0 -0.43812936226539828 -0.46068668964276449 0 -0.41780677269457472 -0.47756855958916739 0 -0.43812936226539828 -0.46068668964276449 0 -0.42057564098021222 -0.44427974735154963 0 -0.41236904621998838 -0.46002388974635849 0 -0.43812936226539828 -0.46068668964276449 0 -0.41780677269457472 -0.47756855958916739 0 -0.41236904621998838 -0.46002388974635849 0 -0.43918444256534639 -0.44118424196448941 0 -0.43812936226539828 -0.46068668964276449 0 -0.42057564098021222 -0.44427974735154963 0 -0.43918444256534639 -0.44118424196448941 0 -0.42894023828224448 -0.42776986004131412 0 -0.42057564098021222 -0.44427974735154963 0 -0.39951177656723941 -0.44536924043939857 0 -0.42057564098021222 -0.44427974735154963 0 -0.41236904621998838 -0.46002388974635849 0 -0.49182563042982802 -0.26849984666022259 0 -0.4836512608596566 -0.2910512661412526 0 -0.5 -0.33139711299081198 0 -0.49182563042982802 -0.26849984666022259 0 -0.5 -0.33139711299081198 0 -0.49999999999999972 -0.24594842717919291 0 -0.44435088170999809 -0.26430770419017108 0 -0.46147138058704462 -0.26200666123987998 0 -0.45079035186059652 -0.24728701821004481 0 -0.44435088170999809 -0.26430770419017108 0 -0.43981298953622111 -0.25362310229907731 0 -0.45079035186059652 -0.24728701821004481 0 -0.44435088170999809 -0.26430770419017108 0 -0.45439163254145171 -0.28256448647516108 0 -0.43355407276668539 -0.27886185885587278 0 -0.44435088170999809 -0.26430770419017108 0 -0.46147138058704462 -0.26200666123987998 0 -0.45439163254145171 -0.28256448647516108 0 -0.46147138058704462 -0.26200666123987998 0 -0.47276745845585388 -0.27576362153877759 0 -0.45439163254145171 -0.28256448647516108 0 -0.46147138058704462 -0.26200666123987998 0 -0.46969437889539828 -0.24095406338282691 0 -0.45079035186059652 -0.24728701821004481 0 -0.46147138058704462 -0.26200666123987998 0 -0.47861902030246323 -0.25831528033366469 0 -0.47276745845585388 -0.27576362153877759 0 -0.46147138058704462 -0.26200666123987998 0 -0.47861902030246323 -0.25831528033366469 0 -0.46969437889539828 -0.24095406338282691 0 -0.47861902030246323 -0.25831528033366469 0 -0.49182563042982802 -0.26849984666022259 0 -0.49999999999999972 -0.24594842717919291 0 -0.49182563042982802 -0.26849984666022259 0 -0.49999999999999972 -0.24594842717919291 0 -0.49182563042982802 -0.26849984666022259 0 -0.4836512608596566 -0.2910512661412526 0 -0.47861902030246323 -0.25831528033366469 0 -0.49182563042982802 -0.26849984666022259 0 -0.47276745845585388 -0.27576362153877759 0 -0.49182563042982802 -0.26849984666022259 0 -0.47276745845585388 -0.27576362153877759 0 -0.4836512608596566 -0.2910512661412526 0 -0.47276745845585388 -0.27576362153877759 0 -0.4836512608596566 -0.2910512661412526 0 -0.46797769944258383 -0.29294229754877332 0 -0.4836512608596566 -0.2910512661412526 0 -0.47547689128948489 -0.31360268562228238 0 -0.49146109512584052 -0.32177921152073852 0 -0.4836512608596566 -0.2910512661412526 0 -0.46797769944258383 -0.29294229754877332 0 -0.47547689128948489 -0.31
[...]
<PointData Scalars="" Vectors="displacement," Tensors="">
<DataArray type="Float64" Name="displacement" NumberOfComponents="3" format="ascii">
1.0119916214361565e-06 0.024997974220251205 0 0.00016863260019478059 0.024397325762026901 0 5.1801523134325132e-05 0.023279595198428576 0 1.0119916214361565e-06 0.024997974220251205 0 5.1801523134325132e-05 0.023279595198428576 0 -1.7805845293696332e-06 0.020507125648023643 0 1.0119916214361565e-06 0.024997974220251205 0 0.00016863260019478059 0.024397325762026901 0 1.1118741336169766e-07 0.024999115778450241 0 0.00016863260019478059 0.024397325762026901 0 0.00016310282631744406 0.024570252340986899 0 1.1118741336169766e-07 0.024999115778450241 0 0.00016863260019478059 0.024397325762026901 0 0.00016310282631744406 0.024570252340986899 0 -0.00010319360569249198 0.023994610023628148 0 0.00038811098765919607 0.023689526984505656 0 0.00020739711847160775 0.022727061046648976 0 0.00029902086588480092 0.022419685687611938 0 0.00072659430174369611 0.02286415658768693 0 0.00052534844925783625 0.021476448555624271 0 -0.00010319360569249198 0.023994610023628148 0 5.1801523134325132e-05 0.023279595198428576 0 -0.00028789911013701039 0.022666023061799902 0 0.00016863260019478059 0.024397325762026901 0 -0.00010319360569249198 0.023994610023628148 0 5.1801523134325132e-05 0.023279595198428576 0 5.1801523134325132e-05 0.023279595198428576 0 -1.7805845293696332e-06 0.020507125648023643 0 -0.00028789911013701039 0.022666023061799902 0 -3.1238538834536934e-05 0.020685707006726124 0 -2.9765247198389898e-05 0.021602978992232031 0 3.3991430676072286e-07 0.020499356241257021 0 9.4988128022549721e-05 0.020508826688715856 0 -0.00013541527588980783 0.020255941374242491 0 -0.00013541527588980783 0.020255941374242491 0 -0.0004238975448632736 0.020501051263366106 0 -0.00022566168383763858 0.018680878781514552 0 -3.5171207704628308e-07 0.020076528709650751 0 -0.00013541527588980783 0.020255941374242491 0 -0.00022566168383763858 0.018680878781514552 0 3.3991430676072286e-07 0.020499356241257021 0 -3.5171207704628308e-07 0.020076528709650751 0 -0.00013541527588980783 0.020255941374242491 0 -0.00013541527588980783 0.020255941374242491 0 -0.00054069494503054696 0.021541836576829881 0 -0.0004238975448632736 0.020501051263366106 0 -0.00054069494503054696 0.021541836576829881 0 -0.0013975104503026784 0.021475963996185024 0 -0.0011954386171744793 0.022208359011857658 0 -0.00043533553891193756 0.02145106057761129 0 -0.001011767351010171 0.021186556557272314 0 0.00052534844925783625 0.021476448555624271 0 9.4988128022549721e-05 0.020508826688715856 0 -8.2145300913303749e-05 0.021467617863837701 0 0.00020739711847160775 0.022727061046648976 0 -2.9765247198389898e-05 0.021602978992232031 0 -0.00013541527588980783 0.020255941374242491 0 -0.00054069494503054696 0.021541836576829881 0 -8.2145300913303749e-05 0.021467617863837701 0 9.4988128022549721e-05 0.020508826688715856 0 -0.00013541527588980783 0.020255941374242491 0 -8.2145300913303749e-05 0.021467617863837701 0 -0.00054069494503054696 0.021541836576829881 0 -8.2145300913303749e-05 0.021467617863837701 0 -0.0005422066351942719 0.022424191441651947 0 0.00029902086588480092 0.022419685687611938 0 0.00052534844925783625 0.021476448555624271 0 -8.2145300913303749e-05 0.021467617863837701 0 0.00029902086588480092 0.022419685687611938 0 -8.2145300913303749e-05 0.021467617863837701 0 -6.8622095220821823e-05 0.022648156749173417 0 -8.2145300913303749e-05 0.021467617863837701 0 -6.8622095220821823e-05 0.022648156749173417 0 -0.0005422066351942719 0.022424191441651947 0 -6.8622095220821823e-05 0.022648156749173417 0 -0.0005422066351942719 0.022424191441651947 0 -0.00025850262988538574 0.023334768881728602 0 -0.0005422066351942719 0.022424191441651947 0 -0.00025850262988538574 0.023334768881728602 0 -0.00096916185610404579 0.022847701869823163 0 -0.00025850262988538574 0.023334768881728602 0 0.00014807502844141966 0.024051951954566358 0 0.00021687485380883471 0.023333769326812189 0 -6.8622095220821823e-05 0.022648156749173417 0 -0.00025850262988538574 0.023334768881728602 0 0.00021687485380883471 0.023333769326812189 0 -0.0005422066351942719 0.022424191441651947 0 -0.0011954386171744793 0.022208359011857658 0 -0.00096916185610404579 0.022847701869823163 0 -0.00054069494503054696 0.021541836576829881 0 -0.0005422066351942719 0.022424191441651947 0 -0.0011954386171744793 0.022208359011857658 0 -0.0011954386171744793 0.022208359011857658 0 -0.0013578490442950951 0.022733084145517873 0 -0.0015958590784320883 0.022284142297319131 0 -0.0011954386171744793 0.022208359011857658 0 -0.00096916185610404579 0.022847701869823163 0 -0.0013578490442950951 0.022733084145517873 0 -0.00096916185610404579 0.022847701869823163 0 -0.0013578490442950951 0.022733084145517873 0 -0.0010970271791763673 0.022877416533914893 0 -0.0013578490442950951 0.022733084145517873 0 -0.0010970271791763673 0.022877416533914893 0 -0.0013215651512797932 0.023081341546325112 0 -0.00096986108054482377 0.022942718646691992 0 -0.00086474133945857066 0.023346492856847603 0 -0.00096916185610404579 0.022847701869823163 0 -0.0010970271791763673 0.022877416533914893 0 -0.0010040827633322244 0.022914926844139882 0 -0.0010970271791763673 0.022877416533914893 0 -0.0011169529512122683 0.023016977518857028 0 -0.0010040827633322244 0.022914926844139882 0 -0.0010970271791763673 0.022877416533914893 0 -0.0011169529512122683 0.023016977518857028 0 -0.0013215651512797932 0.023081341546325112 0 -0.00025850262988538574 0.023334768881728602 0 -0.00018750779293544542 0.02409324458551762 0 0.00014807502844141966 0.024051951954566358 0 -0.00025850262988538574 0.023334768881728602 0 -0.00096916185610404579 0.022847701869823163 0 -0.00071247518240011689 0.023911037037749269 0 -0.00025850262988538574 0.023334768881728602 0 -0.00071247518240011689 0.023911037037749269 0 -0.00018750779293544542 0.02409324458551762 0 -0.00071247518240011689 0.023911037037749269 0 -0.00018750779293544542 0.02409324458551762 0 -0.00039628912133182509 0.024485665201255825 0 -0.0011169529512122683 0.023016977518857028 0 -0.0010040827633322244 0.022914926844139882 0 -0.00092793660377565174 0.023077646494500718 0 -0.00086474133945857066 0.023346492856847603 0 -0.00056789320254604372 0.024016997883403345 0 -0.00018750779293544542 0.02409324458551762 0 4.5341550564380678e-05 0.024523164132576974 0 -0.00039628912133182509 0.024485665201255825 0 -0.00018750779293544542 0.02409324458551762 0 4.5341550564380678e-05 0.024523164132576974 0 0.00014807502844141966 0.024051951954566358 0 4.5341550564380678e-05 0.024523164132576974 0 0.00025420182900594117 0.024513850939978911 0 0.00014892920672549315 0.024830265181471502 0 0.00014807502844141966 0.024051951954566358 0 0.00025420182900594117 0.024513850939978911 0 0.00036143425056513699 0.02402597602459702 0 4.5341550564380678e-05 0.024523164132576974 0 0.00014807502844141966 0.024051951954566358 0 0.00025420182900594117 0.024513850939978911 0 4.9782076606129159e-07 0.024998971416246983 0 0.00025420182900594117 0.024513850939978911 0 0.00014892920672549315 0.024830265181471502 0 4.9782076606129159e-07 0.024998971416246983 0 0.00025420182900594117 0.024513850939978911 0 0.00029914151445489167 0.024466400915113842 0 0.00016310282631744406 0.024570252340986899 0 1.1118741336169766e-07 0.024999115778450241 0 0.00029914151445489167 0.024466400915113842 0 4.9782076606129159e-07 0.024998971416246983 0 1.1118741336169766e-07 0.024999115778450241 0 0.00029914151445489167 0.024466400915113842 0 0.00025420182900594117 0.024513850939978911 0 0.00029914151445489167 0.024466400915113842 0 0.00036143425056513699 0.02402597602459702 0 0.00038811098765919607 0.023689526984505656 0 0.00031847466780492352 0.024316592548381758 0 0.00072659430174369611 0.02286415658768693 0 0.00021687485380883471 0.023333769326812189 0 0.00036143425056513699 0.02402597602459702 0 0.00072659430174369611 0.02286415658768693 0 0.00029914151445489167 0.024466400915113842 0 0.00036143425056513699 0.02402597602459702 0 0.00029902086588480092 0.022419685687611938 0 0.00072659430174369611 0.02286415658768693 0 0.00021687485380883471 0.023333769326812189 0 0.00029902086588480092 0.022419685687611938 0 -6.8622095220821823e-05 0.022648156749173417 0 0.00021687485380883471 0.023333769326812189 0 0.00014807502844141966 0.024051951954566358 0 0.00021687485380883471 0.023333769326812189 0 0.00036143425056513699 0.02402597602459702 0 -1.7613329671868464e-05 0.013650220055925087 0 -1.7265416029352436e-05 0.01490894540275201 0 -5.047295359160728e-07 0.016570612325419041 0 -1.7613329671868464e-05 0.013650220055925087 0 -5.047295359160728e-07 0.016570612325419041 0 -1.1812284416714368e-07 0.01229894606762626 0 -0.00059564621685772375 0.011258065170215008 0 -0.00055631891035683233 0.011383068612713222 0 -0.00039719724561701659 0.011204564813558209 0 -0.00059564621685772375 0.011258065170215008 0 -0.00048235273784504604 0.011210925001173315 0 -0.00039719724561701659 0.011204564813558209 0 -0.00059564621685772375 0.011258065170215008 0 -0.00083708860852721076 0.011401517668038848 0 -0.0007884630909577551 0.011214421929744667 0 -0.00059564621685772375 0.011258065170215008 0 -0.00055631891035683233 0.011383068612713222 0 -0.00083708860852721076 0.011401517668038848 0 -0.00055631891035683233 0.011383068612713222 0 -0.0007647908647022743 0.01160201814398955 0 -0.00083708860852721076 0.011401517668038848 0 -0.00055631891035683233 0.011383068612713222 0 -0.00020762831922336246 0.011313717903073697 0 -0.00039719724561701659 0.011204564813558209 0 -0.00055631891035683233 0.011383068612713222 0 -0.00048012132139990682 0.011632749038077076 0 -0.0007647908647022743 0.01160201814398955 0 -0.00055631891035683233 0.011383068612713222 0 -0.00048012132139990682 0.011632749038077076 0 -0.00020762831922336246 0.011313717903073697 0 -0.00048012132139990682 0.011632749038077076 0 -0.00068400381753849879 0.011956097799847158 0 -9.9167271052740429e-07 0.012294981733379479 0 -0.00026845165663655411 0.012846957202448602 0 8.50380963948044e-08 0.012297709765068858 0 -0.00026845165663655411 0.012846957202448602 0 -0.00038752881416218385 0.013197276436171393 0 -0.00048012132139990682 0.011632749038077076 0 -0.00068400381753849879 0.011956097799847158 0 -0.0007647908647022743 0.01160201814398955 0 -0.00068400381753849879 0.011956097799847158 0 -0.0007647908647022743 0.01160201814398955 0 -0.00096685613741724695 0.011786351543341796 0 -0.0007647908647022743 0.01160201814398955 0 -0.00096685613741724695 0.011786351543341796 0 -0.00097691614900751898 0.0115850140091764 0 -1.7265416029352436e-05 0.01490894540275201 0 -0.00010016023445366651 0.015574951454291011 0 -7.6165834770598932e-05 0.01623519290849575 0 -0.00096685613741724695 0.011786351543341796 0 -0.00097691614900751898 0.0115850140091764 0 -0.0012330527805124217 0.011711248326806053 0 -0.00038752881416218385 0.013197276436171393 0 -0.0012169039620428151 0.015155116652294425 0 -0.0011059415319212298 0.011469633996807895 0 -0.00097691614900751898 0.0115850140091764 0 -0.0012330527805124217 0.011711248326806053 0 -0.0022170362221575271 0.014744992927597202 0 -0.0012169039620428151 0.015155116652294425 0 -0.0007647908647022743 0.01160201814398955 0 -0.00097691614900751898 0.0115850140091764 0 -0.00083708860852721076 0.011401517668038848 0 -0.0011059415319212298 0.011469633996807895 0 -0.00097691614900751898 0.0115850140091764 0 -0.00083708860852721076 0.011401517668038848 0 -0.00083708860852721076 0.011401517668038848 0 -0.00097666200793676702 0.011289858736575988 0 -0.0007884630909577551 0.011214421929744667 0 -0.0011059415319212298 0.011469633996807895 0 -0.00083708860852721076 0.011401517668038848 0 -0.00097666200793676702 0.011289858736575988 0 -0.0033709561182977128 0.01834529219117307 0 -0.0041244526227606545 0.019883415573459549 0 -0.0026636779668995944 0.020182471572756443 0 -0.0022170362221575271 0.014744992927597202 0 -0.0027398471146635132 0.01584616648818931 0 -3.5171207704628308e-07 0.020076528709650751 0 -5.047295359160728e-07 0.016570612325419041 0 -0.00022566168383763858 0.018680878781514552 0 -0.0033709561182977128 0.01834529219117307 0 -0.0018590068725902568 0.018679823739480652 0 -0.0026636779668995944 0.020182471572756443 0 -0.0018590068725902568 0.018679823739480652 0 -0.00088685072492255147 0.019942124459229851 0 -0.0026636779668995944 0.020182471572756443 0 -0.0015502005721347277 0.020973055354683148 0 -0.00081804699947832878 0.019262507701208891 0 -0.0018590068725902568 0.018679823739480652 0 -0.00088685072492255147 0.019942124459229851 0 0.00053208100664714562 0.017951485622738253 0 -0.0018590068725902568 0.018679823739480652 0 -0.0010212982806718997 0.017374098741522286 0 0.00053208100664714562 0.017951485622738253 0 -0.00035145092769528285 0.017467912862134019 0 -0.00081804699947832878 0.019262507701208891 0 -0.0018590068725902568 0.018679823739480652 0 -0.0010212982806718997 0.017374098741522286 0 -0.0025717898793414041 0.016790891058297275 0 -0.0033709561182977128 0.01834529219117307 0 -0.0018590068725902568 0.018679823739480652 0 -0.0025717898793414041 0.016790891058297275 0 -0.00047380278424242984 0.017160466373892885 0 -7.6165834770598932e-05 0.01623519290849575 0 3.8609437921183104e-05 0.017112422244603406 0 -0.0012169039620428151 0.015155116652294425 0 -0.00017934524770089221 0.016419802798779751 0 5.749536500407825e-05 0.017412428537021133 0 -0.00047380278424242984 0.017160466373892885 0 3.8609437921183104e-05 0.017112422244603406 0 -0.00035145092769528285 0.017467912862134019 0 -0.0012169039620428151 0.015155116652294425 0 -1.7265416029352436e-05 0.01490894540275201 0 -7.6165834770598932e-05 0.01623519290849575 0 -5.047295359160728e-07 0.016570612325419041 0 -5.047295359160728e-07 0.016570612325419041 0 3.8609437921183104e-05 0.017112422244603406 0 -0.00022566168383763858 0.018680878781514552 0 5.749536500407825e-05 0.017412428537021133 0 3.8609437921183104e-05 0.017112422244603406 0 -0.00022566168383763858 0.018680878781514552 0 -7.6165834770598932e-05 0.01623519290849575 0 -5.047295359160728e-07 0.016570612325419041 0 3.8609437921183104e-05 0.017112422244603406 0 -0.00021197792764671172 0.018465980623635823 0 -0.00081804699947832878 0.019262507701208891 0 5.749536500407825e-05 0.017412428537021133 0 -0.00022566168383763858 0.018680878781514552 0 -0.00016299719997775155 0.017708891045632669 0 -0.0004238975448632736 0.020501051263366106 0 -0.00022566168383763858 0.018680878781514552 0 -0.0013063269404117819 0.019846496121649692 0 -0.001011767351010171 0.021186556557272314 0 -0.00081804699947832878 0.019262507701208891 0 -0.0021946306072198342 0.021841629261208757 0 -0.0019044680527787413 0.02134984075522953 0 -0.0017850035498804891 0.021796931202390984 0 -0.0013975104503026784 0.021475963996185024 0 -0.0011954386171744793 0.022208359011857658 0 -0.0017850035498804891 0.021796931202390984 0 -0.0013975104503026784 0.021475963996185024 0 -0.0019044680527787413 0.02134984075522953 0 -0.0017850035498804891 0.021796931202390984 0 -0.0011954386171744793 0.022208359011857658 0 -0.0017850035498804891 0.021796931202390984 0 -0.0015958590784320883 0.022284142297319131 0 -0.0021946306072198342 0.021841629261208757 0 -0.0017850035498804891 0.021796931202390984 0 -0.0020671165156407284 0.022166884144031219 0 -0.0017850035498804891 0.021796931202390984 0 -0.0015958590784320883 0.022284142297319131 0 -0.0020671165156407284 0.022166884144031219 0 -0.0015958590784320883 0.022284142297319131 0 -0.0018341257584731834 0.022498318016386437 0 -0.0020671165156407284 0.022166884144031219 0 -0.0013578490442950951 0.022733084145517873 0 -0.0015958590784320883 0.022284142297319131 0 -0.0018341257584731834 0.022498318016386437 0 -0.0013578490442950951 0.022733084145517873 0 -0.001778567665305542 0.022876711802931323 0 -0.0018341257584731834 0.022498318016386437 0 -0.0013578490442950951 0.022733084145517873 0 -0.0013215651512797932 0.023081341546325112 0 -0.001778567665305542 0.022876711802931323 0 -0.0027936892244277462 0.020740338818438044 0 -0.0034520164378662324 0.020455950709704733 0 -0.0043144067564731417 0.018328241640497612 0 -0.0051792141269819542 0.018112687317829737 0 -0.005107230239151328 0.018681713870877654 0 -0.001778567665305542 0.022876711802931323 0 -0.0018341257584731834 0.022498318016386437 0 -0.0022336513084243704 0.022542997651215698 0 -0.0034520164378662324 0.020455950709704733 0 -0.0039371484437744813 0.020649663294853033 0 -0.0051792141269819542 0.018112687317829737 0 -0.0054290977460263509 0.018159244487239708 0 -0.0055095413283048882 0.018202268091986044 0 -0.0054290977460263509 0.018159244487239708 0 -0.0053259204699189384 0.01807099368834026 0 -0.0055095413283048882 0.018202268091986044 0 -0.0054290977460263509 0.018159244487239708 0 -0.0052242287067396677 0.01839583908329943 0 -0.0053259204699189384 0.01807099368834026 0 -0.0022336513084243704 0.022542997651215698 0 -0.0028343035222471416 0.022231845849206979 0 -0.0026775393325179872 0.022232186951236115 0 -0.0039371484437744813 0.020649663294853033 0 -0.0030373376237893997 0.017971834229660592 0 -0.0022336513084243704 0.022542997651215698 0 -0.002461690572555293 0.022052181123567844 0 -0.0026775393325179872 0.022232186951236115 0 -0.0018341257584731834 0.022498318016386437 0 -0.0022336513084243704 0.022542997651215698 0 -0.0020671165156407284 0.022166884144031219 0 -0.0022336513084243704 0.022542997651215698 0 -0.002461690572555293 0.022052181123567844 0 -0.0020671165156407284 0.022166884144031219 0 -0.0021946306072198342 0.021841629261208757 0 -0.002461690572555293 0.022052181123567844 0 -0.0020671165156407284 0.022166884144031219 0 -0.0015502005721347277 0.020973055354683148 0 -0.0024106802002100583 0.02197942657054397 0 -0.002461690572555293 0.022052181123567844 0 -0.0026636779668995944 0.020182471572756443 0 -0.0030394318744319149 0.021639716868034939 0 -0.00088685072492255147 0.019942124459229851 0 -0.002461690572555293 0.022052181123567844 0 -0.0026636779668995944 0.020182471572756443 0 -0.0026636779668995944 0.020182471572756443 0 -0.0037779372924668158 0.021139622932393669 0 -0.0030394318744319149 0.021639716868034939 0 -0.0041244526227606545 0.019883415573459549 0 -0.0026636779668995944 0.020182471572756443 0 -0.0037779372924668158 0.021139622932393669 0 -0.0027398471146635132 0.01584616648818931 0 -0.0013893800806143494 0.0152929299343598 0 -0.0041244526227606545 0.019883415573459549 0 -0.0037779372924668158 0.021139622932393669 0 -0.0048400338435329628 0.02135329233831813 0 -0.00097666200793676702 0.011289858736575988 0 -0.00086911903044885927 0.011123517350615822 0 -0.0007884630909577551 0.011214421929744667 0 -0.0013893800806143494 0.0152929299343598 0 -0.0030373376237893997 0.017971834229660592 0 -0.00044682911821465073 0.011712719579990167 0 -0.00042836319832922519 0.011612421878467016 0 -0.00069400044840745988 0.011717456638464985 0 -0.0037779372924668158 0.021139622932393669 0 -0.0048400338435329628 0.02135329233831813 0 -0.0032079026416629037 0.022285573297240773 0 -0.0025416679652199739 0.014783163218402801 0 -0.0030373376237893997 0.017971834229660592 0 -0.0037779372924668158 0.021139622932393669 0 -0.0030394318744319149 0.021639716868034939 0 -0.0032079026416629037 0.022285573297240773 0 -0.0030394318744319149 0.021639716868034939 0 -0.0032079026416629037 0.022285573297240773 0 -0.0026775393325179872 0.022232186951236115 0 -0.002461690572555293 0.022052181123567844 0 -0.0030394318744319149 0.021639716868034939 0 -0.0026775393325179872 0.022232186951236115 0 -0.0030373376237893997 0.017971834229660592 0 -0.0030208395531642561 0.019341948666959437 0 -0.0052242287067396677 0.01839583908329943 0 -0.0053259204699189384 0.01807099368834026 0 -0.0049762408476227904 0.01812886301691221 0 -0.0049762408476227904 0.01812886301691221 0 -0.0045264647961904695 0.01798448831993309 0 -0.0050050697840231199 0.017451071827051919 0 -0.0053259204699189384 0.01807099368834026 0 -0.0049762408476227904 0.01812886301691221 0 -0.0050050697840231199 0.017451071827051919 0 -0.004766