<?xml version="1.0"?>
<VTKFile type="UnstructuredGrid" version="0.1" byte_order="LittleEndian">
<UnstructuredGrid>
<Piece NumberOfPoints="30578" NumberOfCells="10723">
<Points>
<DataArray type="Float64" NumberOfComponents="3" format="ascii">
-0.5 -0.5 0 -0.47439485679867832 -0.48072581506667478 0 -0.5 -0.44765434486020428 0 -0.5 -0.5 0 -0.47439485679867832 -0.48072581506667478 0 -0.43702443379937372 -0.49999999999999922 0 -0.47439485679867832 -0.48072581506667478 0 -0.45530669598391149 -0.47718009944797551 0 -0.43702443379937372 -0.49999999999999922 0 -0.47439485679867832 -0.48072581506667478 0 -0.45530669598391149 -0.47718009944797551 0 -0.4597353119515426 -0.45943449384344293 0 -0.45530669598391149 -0.47718009944797551 0 -0.44381084376742141 -0.47114793899167112 0 -0.4597353119515426 -0.45943449384344293 0 -0.45530669598391149 -0.47718009944797551 0 -0.44381084376742141 -0.47114793899167112 0 -0.43702443379937372 -0.49999999999999922 0 -0.44381084376742141 -0.47114793899167112 0 -0.43702443379937372 -0.49999999999999922 0 -0.45059725373546922 -0.44229587798334291 0 -0.4339166039271336 -0.43498117536117131 0 -0.43309128002320102 -0.45351235807576151 0 -0.44381084376742141 -0.47114793899167112 0 -0.45059725373546922 -0.44229587798334291 0 -0.4597353119515426 -0.45943449384344293 0 -0.44381084376742141 -0.47114793899167112 0 -0.45059725373546922 -0.44229587798334291 0 -0.43309128002320102 -0.45351235807576151 0 -0.44381084376742141 -0.47114793899167112 0 -0.45059725373546922 -0.44229587798334291 0 -0.4597353119515426 -0.45943449384344293 0 -0.47505511338101108 -0.44868394208069429 0 -0.46517432262153441 -0.43649963461163338 0 -0.45059725373546922 -0.44229587798334291 0 -0.4597353119515426 -0.45943449384344293 0 -0.46517432262153441 -0.43649963461163338 0 -0.47505511338101108 -0.44868394208069429 0 -0.47820614292347569 -0.42776699273468149 0 -0.46517432262153441 -0.43649963461163338 0 -0.47505511338101108 -0.44868394208069429 0 -0.47820614292347569 -0.42776699273468149 0 -0.47439485679867832 -0.48072581506667478 0 -0.47505511338101108 -0.44868394208069429 0 -0.5 -0.44765434486020428 0 -0.47439485679867832 -0.48072581506667478 0 -0.4597353119515426 -0.45943449384344293 0 -0.47505511338101108 -0.44868394208069429 0 -0.47505511338101108 -0.44868394208069429 0 -0.5 -0.44765434486020428 0 -0.47820614292347569 -0.42776699273468149 0 -0.5 -0.44765434486020428 0 -0.49656450065014057 -0.42151023988558672 0 -0.47820614292347569 -0.42776699273468149 0 -0.5 -0.44765434486020428 0 -0.49656450065014057 -0.42151023988558672 0 -0.50000000000000089 -0.37904661106745707 0 -0.49656450065014057 -0.42151023988558672 0 -0.48135717246594062 -0.40685004338866881 0 -0.47820614292347569 -0.42776699273468149 0 -0.49656450065014057 -0.42151023988558672 0 -0.48135717246594062 -0.40685004338866881 0 -0.48135717246594062 -0.40685004338866881 0 -0.47820614292347569 -0.42776699273468149 0 -0.48135717246594062 -0.40685004338866881 0 -0.47820614292347569 -0.42776699273468149 0 -0.45738366370351707 -0.41344381697501481 0 -0.49656450065014057 -0.42151023988558672 0 -0.48135717246594062 -0.40685004338866881 0 -0.50000000000000089 -0.37904661106745707 0 -0.50000000000000089 -0.37904661106745707 0 -0.48466894952205442 -0.38486603086372417 0 -0.48717439863114548 -0.36823452950912272 0 -0.48135717246594062 -0.40685004338866881 0 -0.50000000000000089 -0.37904661106745707 0 -0.48466894952205442 -0.38486603086372417 0 -0.48466894952205442 -0.38486603086372417 0 -0.48717439863114548 -0.36823452950912272 0 -0.50000000000000089 -0.37904661106745707 0 -0.48466894952205442 -0.38486603086372417 0 -0.48135717246594062 -0.40685004338866881 0 -0.48466894952205442 -0.38486603086372417 0 -0.46593083509403682 -0.39197871725165279 0 -0.48135717246594062 -0.40685004338866881 0 -0.48466894952205442 -0.38486603086372417 0 -0.48135717246594062 -0.40685004338866881 0 -0.46593083509403682 -0.39197871725165279 0 -0.48466894952205442 -0.38486603086372417 0 -0.47195833844942919 -0.37959069520904498 0 -0.46593083509403682 -0.39197871725165279 0 -0.48466894952205442 -0.38486603086372417 0 -0.46593083509403682 -0.39197871725165279 0 -0.48466894952205442 -0.38486603086372417 0 -0.47195833844942919 -0.37959069520904498 0 -0.48717439863114548 -0.36823452950912272 0 -0.46593083509403682 -0.39197871725165279 0 -0.44890944387521442 -0.39029302340116001 0 -0.45132291774153199 -0.37789636588759368 0 -0.47195833844942919 -0.37959069520904498 0 -0.46593083509403682 -0.39197871725165279 0 -0.45132291774153199 -0.37789636588759368 0 -0.46593083509403682 -0.39197871725165279 0 -0.45132291774153199 -0.37789636588759368 0 -0.48135717246594062 -0.40685004338866881 0 -0.46593083509403682 -0.39197871725165279 0 -0.45738366370351707 -0.41344381697501481 0 -0.46593083509403682 -0.39197871725165279 0 -0.44275815558040038 -0.40077469311046232 0 -0.45738366370351707 -0.41344381697501481 0 -0.46593083509403682 -0.39197871725165279 0 -0.44275815558040038 -0.40077469311046232 0 -0.46593083509403682 -0.39197871725165279 0 -0.44275815558040038 -0.40077469311046232 0 -0.44890944387521442 -0.39029302340116001 0 -0.44275815558040038 -0.40077469311046232 0 -0.44064580868350911 -0.39542861624611658 0 -0.44890944387521442 -0.39029302340116001 0 -0.44225344557501872 -0.38376649822575309 0 -0.45132291774153199 -0.37789636588759368 0 -0.43671500038902772 -0.36381401452353412 0 -0.44890944387521442 -0.39029302340116001 0 -0.44225344557501872 -0.38376649822575309 0 -0.45132291774153199 -0.37789636588759368 0 -0.44064580868350911 -0.39542861624611658 0 -0.44225344557501872 -0.38376649822575309 0 -0.43040194378266172 -0.3881600185019185 0 -0.44064580868350911 -0.39542861624611658 0 -0.44890944387521442 -0.39029302340116001 0 -0.44225344557501872 -0.38376649822575309 0 -0.47820614292347569 -0.42776699273468149 0 -0.46517432262153441 -0.43649963461163338 0 -0.45738366370351707 -0.41344381697501481 0 -0.45059725373546922 -0.44229587798334291 0 -0.45738366370351707 -0.41344381697501481 0 -0.45059725373546922 -0.44229587798334291 0 -0.46517432262153441 -0.43649963461163338 0 -0.45738366370351707 -0.41344381697501481 0 -0.44275815558040038 -0.40077469311046232 0 -0.45738366370351707 -0.41344381697501481 0 -0.44164244492799948 -0.42121090558557039 0 -0.45059725373546922 -0.44229587798334291 0 -0.45738366370351707 -0.41344381697501481 0 -0.44164244492799948 -0.42121090558557039 0 -0.45059725373546922 -0.44229587798334291 0 -0.44164244492799948 -0.42121090558557039 0 -0.4339166039271336 -0.43498117536117131 0 -0.4339166039271336 -0.43498117536117131 0 -0.42355654769347711 -0.414558964497861 0 -0.41671115160429401 -0.44095791049380378 0 -0.44164244492799948 -0.42121090558557039 0 -0.4339166039271336 -0.43498117536117131 0 -0.42355654769347711 -0.414558964497861 0 -0.44275815558040038 -0.40077469311046232 0 -0.44164244492799948 -0.42121090558557039 0 -0.42355654769347711 -0.414558964497861 0 -0.42355654769347711 -0.414558964497861 0 -0.41056920252370888 -0.3963363404412637 0 -0.40050668374064252 -0.41734442193795029 0 -0.42355654769347711 -0.414558964497861 0 -0.41671115160429401 -0.44095791049380378 0 -0.42355654769347711 -0.414558964497861 0 -0.40050668374064252 -0.41734442193795029 0 -0.41671115160429401 -0.44095791049380378 0 -0.44225344557501872 -0.38376649822575309 0 -0.43040194378266172 -0.3881600185019185 0 -0.43671500038902772 -0.36381401452353412 0 -0.43040194378266172 -0.3881600185019185 0 -0.43671500038902772 -0.36381401452353412 0 -0.44064580868350911 -0.39542861624611658 0 -0.42355654769347711 -0.414558964497861 0 -0.43040194378266172 -0.3881600185019185 0 -0.42355654769347711 -0.414558964497861 0 -0.43040194378266172 -0.3881600185019185 0 -0.44275815558040038 -0.40077469311046232 0 -0.44064580868350911 -0.39542861624611658 0 -0.42355654769347711 -0.414558964497861 0 -0.44064580868350911 -0.39542861624611658 0 -0.43040194378266172 -0.3881600185019185 0 -0.42355654769347711 -0.414558964497861 0 -0.43040194378266172 -0.3881600185019185 0 -0.41056920252370888 -0.3963363404412637 0 -0.43040194378266172 -0.3881600185019185 0 -0.4079689369259607 -0.37224253963894771 0 -0.43040194378266172 -0.3881600185019185 0 -0.41056920252370888 -0.3963363404412637 0 -0.4079689369259607 -0.37224253963894771 0 -0.41056920252370888 -0.3963363404412637 0 -0.39195929229331972 -0.37982250283040359 0 -0.4079689369259607 -0.37224253963894771 0 -0.41056920252370888 -0.3963363404412637 0 -0.39195929229331972 -0.37982250283040359 0 -0.39357845321732049 -0.39746174547711199 0 -0.41056920252370888 -0.3963363404412637 0 -0.39357845321732049 -0.39746174547711199 0 -0.40050668374064252 -0.41734442193795029 0 -0.39357845321732049 -0.39746174547711199 0 -0.38114412328536468 -0.40833987260765031 0 -0.36544727141479139 -0.39026932065168712 0 -0.39195929229331972 -0.37982250283040359 0 -0.37549160074202448 -0.3732971907138336 0 -0.36544727141479139 -0.39026932065168712 0 -0.39195929229331972 -0.37982250283040359 0 -0.39357845321732049 -0.39746174547711199 0 -0.36544727141479139 -0.39026932065168712 0 -0.40050668374064252 -0.41734442193795029 0 -0.3944977858259317 -0.43926335073686201 0 -0.41671115160429401 -0.44095791049380378 0 -0.40050668374064252 -0.41734442193795029 0 -0.38028594703985957 -0.42392304976487449 0 -0.3944977858259317 -0.43926335073686201 0 -0.39357845321732049 -0.39746174547711199 0 -0.40050668374064252 -0.41734442193795029 0 -0.38114412328536468 -0.40833987260765031 0 -0.40050668374064252 -0.41734442193795029 0 -0.38114412328536468 -0.40833987260765031 0 -0.38028594703985957 -0.42392304976487449 0 -0.38114412328536468 -0.40833987260765031 0 -0.38028594703985957 -0.42392304976487449 0 -0.36590226101420908 -0.41270082520662749 0 -0.38028594703985957 -0.42392304976487449 0 -0.3944977858259317 -0.43926335073686201 0 -0.3723601590800425 -0.44005613486137668 0 -0.3944977858259317 -0.43926335073686201 0 -0.38265619596279349 -0.45813348326120767 0 -0.3723601590800425 -0.44005613486137668 0 -0.40093272222703252 -0.45142790024540502 0 -0.3944977858
[...]
<PointData Scalars="" Vectors="displacement," Tensors="">
<DataArray type="Float64" Name="displacement" NumberOfComponents="3" format="ascii">
0.004999613329546293 1.5972784435359954e-07 0 0.0048546992378654483 2.3778539628143997e-05 0 0.0049998615457257653 -2.4473753211157592e-09 0 0.004999613329546293 1.5972784435359954e-07 0 0.0048546992378654483 2.3778539628143997e-05 0 0.0043711475690951865 -2.8644003195807449e-07 0 0.0048546992378654483 2.3778539628143997e-05 0 0.0047722425511758319 -2.5400767168677597e-06 0 0.0043711475690951865 -2.8644003195807449e-07 0 0.0048546992378654483 2.3778539628143997e-05 0 0.0047722425511758319 -2.5400767168677597e-06 0 0.0048777151423155972 4.118082779836151e-06 0 0.0047722425511758319 -2.5400767168677597e-06 0 0.0048211105000612511 -7.9347512795408049e-05 0 0.0048777151423155972 4.118082779836151e-06 0 0.0047722425511758319 -2.5400767168677597e-06 0 0.0048211105000612511 -7.9347512795408049e-05 0 0.0043711475690951865 -2.8644003195807449e-07 0 0.0045563998982894776 -1.9494341797623638e-05 0 0.0043703227689482855 -1.3558192217357399e-08 0 0.0044775027953711218 8.1576091095895739e-05 0 0.0045221944592284411 -1.7718753995934565e-05 0 0.0043939255714825183 -1.7086437379170051e-05 0 0.0048211105000612511 -7.9347512795408049e-05 0 0.0048819701489111441 3.2536686996510415e-05 0 0.0048777151423155972 4.118082779836151e-06 0 0.0042849289245699912 1.7916864650126511e-05 0 0.0044775027953711218 8.1576091095895739e-05 0 0.0043939255714825183 -1.7086437379170051e-05 0 0.0045563998982894776 -1.9494341797623638e-05 0 0.0046715764214127053 4.8978522765625524e-05 0 0.0048777151423155972 4.118082779836151e-06 0 0.0049233660394361663 -1.4881769029186618e-05 0 0.0048555662156057637 3.9397225377320411e-06 0 0.0048819701489111441 3.2536686996510415e-05 0 0.0048777151423155972 4.118082779836151e-06 0 0.0048555662156057637 3.9397225377320411e-06 0 0.0049233660394361663 -1.4881769029186618e-05 0 0.0047949811583094326 -6.2037934414384616e-05 0 0.0048555662156057637 3.9397225377320411e-06 0 0.0049228408683616113 -1.9336741969445728e-05 0 0.0048818467824555999 -3.5142901559297794e-05 0 0.0048546992378654483 2.3778539628143997e-05 0 0.0049233660394361663 -1.4881769029186618e-05 0 0.0049998615457257653 -2.4473753211157592e-09 0 0.0048546992378654483 2.3778539628143997e-05 0 0.0048777151423155972 4.118082779836151e-06 0 0.0049233660394361663 -1.4881769029186618e-05 0 0.0049233660394361663 -1.4881769029186618e-05 0 0.0049998615457257653 -2.4473753211157592e-09 0 0.0049869116377392582 -1.0095621242415222e-05 0 0.0049998615457257653 -2.4473753211157592e-09 0 0.0049990552968080249 -4.0986815046169311e-07 0 0.0049869116377392582 -1.0095621242415222e-05 0 0.0049998615457257653 -2.4473753211157592e-09 0 0.0049990552968080249 -4.0986815046169311e-07 0 0.0050000580657682831 -9.9811276123306787e-10 0 0.0049990552968080249 -4.0986815046169311e-07 0 0.005002485983734691 -8.7710794106342145e-06 0 0.0049869116377392582 -1.0095621242415222e-05 0 0.0050293046878958567 -1.7501233983977177e-05 0 0.0048797479949164143 -9.2259372289744089e-07 0 0.0048797479949164143 -9.2259372289744089e-07 0 0.0048818467824555999 -3.5142901559297794e-05 0 0.0046756068366427279 -5.4956664343239214e-05 0 0.0047949811583094326 -6.2037934414384616e-05 0 0.0046835514543945959 5.5578746691514448e-05 0 0.0049990552968080249 -4.0986815046169311e-07 0 0.0049988869500989172 -5.0412129251091092e-07 0 0.0050000580657682831 -9.9811276123306787e-10 0 0.0050000032858892743 2.0942235405119974e-09 0 0.0050007212193031317 1.6290356976687605e-06 0 0.0049998046597939756 1.6630230886953898e-06 0 0.0049988869500989172 -5.0412129251091092e-07 0 0.0050000580657682831 -9.9811276123306787e-10 0 0.0049995902631584767 -3.5595916509616255e-07 0 0.004983391239328761 1.4973292415440678e-05 0 0.0050055441705788043 2.9275638603774857e-06 0 0.0049999967841050348 -4.7307432084888553e-09 0 0.004983391239328761 1.4973292415440678e-05 0 0.0048736764713305323 1.6795933882647731e-05 0 0.0048974330160049062 2.0436622075736794e-05 0 0.0048891907929711504 5.3625476415996034e-07 0 0.0048797479949164143 -9.2259372289744089e-07 0 0.004983391239328761 1.4973292415440678e-05 0 0.0048797479949164143 -9.2259372289744089e-07 0 0.0047933362220040736 2.1331960388148625e-05 0 0.0050047551323286364 3.1188390543669085e-06 0 0.0050030904489757758 7.443094260740061e-06 0 0.0050066119229168187 9.7782761651352126e-06 0 0.004983391239328761 1.4973292415440678e-05 0 0.0047933362220040736 2.1331960388148625e-05 0 0.0050047551323286364 3.1188390543669085e-06 0 0.0050030904489757758 7.443094260740061e-06 0 0.0049998046597939756 1.6630230886953898e-06 0 0.0046966407510999801 5.1893884073919784e-05 0 0.0046967815048078948 3.4412098444623691e-05 0 0.004707528190202136 3.581468792568419e-05 0 0.0050030904489757758 7.443094260740061e-06 0 0.0050066119229168187 9.7782761651352126e-06 0 0.0050024758237329891 1.5828440739891437e-05 0 0.0047933362220040736 2.1331960388148625e-05 0 0.0048791117908414759 5.9342368613141955e-06 0 0.0046756068366427279 -5.4956664343239214e-05 0 0.0046403278456979393 2.0451913143423246e-05 0 0.0046835514543945959 5.5578746691514448e-05 0 0.0046403278456979393 2.0451913143423246e-05 0 0.004679842955834612 2.9656818434064446e-05 0 0.0046835514543945959 5.5578746691514448e-05 0 0.0047933362220040736 2.1331960388148625e-05 0 0.004648542272606174 2.5034427938192841e-05 0 0.0046966407510999801 5.1893884073919784e-05 0 0.004679842955834612 2.9656818434064446e-05 0 0.0046967815048078948 3.4412098444623691e-05 0 0.004679842955834612 2.9656818434064446e-05 0 0.0046941378692585143 2.3368733813539901e-05 0 0.0046967815048078948 3.4412098444623691e-05 0 0.0047016934463146457 2.7874516950339473e-05 0 0.004707528190202136 3.581468792568419e-05 0 0.0047164567305524614 2.4852836620927519e-05 0 0.0046967815048078948 3.4412098444623691e-05 0 0.0047016934463146457 2.7874516950339473e-05 0 0.004707528190202136 3.581468792568419e-05 0 0.0046941378692585143 2.3368733813539901e-05 0 0.0047016934463146457 2.7874516950339473e-05 0 0.0046966563712736 1.9608375285846232e-05 0 0.0046941378692585143 2.3368733813539901e-05 0 0.0046967815048078948 3.4412098444623691e-05 0 0.0047016934463146457 2.7874516950339473e-05 0 0.0047949811583094326 -6.2037934414384616e-05 0 0.0048555662156057637 3.9397225377320411e-06 0 0.0046835514543945959 5.5578746691514448e-05 0 0.0046715764214127053 4.8978522765625524e-05 0 0.0046788460232296946 5.6550322077768846e-05 0 0.0048819701489111441 3.2536686996510415e-05 0 0.0048555662156057637 3.9397225377320411e-06 0 0.0046835514543945959 5.5578746691514448e-05 0 0.004679842955834612 2.9656818434064446e-05 0 0.0046835514543945959 5.5578746691514448e-05 0 0.0046142518220268448 1.5275055410724693e-05 0 0.0044775027953711218 8.1576091095895739e-05 0 0.0046835514543945959 5.5578746691514448e-05 0 0.0046142518220268448 1.5275055410724693e-05 0 0.0044775027953711218 8.1576091095895739e-05 0 0.0046142518220268448 1.5275055410724693e-05 0 0.0045221944592284411 -1.7718753995934565e-05 0 0.0045221944592284411 -1.7718753995934565e-05 0 0.0046307418884313032 -5.9090690490279766e-05 0 0.004478021666873595 -0.00011174895381048529 0 0.0046142518220268448 1.5275055410724693e-05 0 0.0045221944592284411 -1.7718753995934565e-05 0 0.0046307418884313032 -5.9090690490279766e-05 0 0.004679842955834612 2.9656818434064446e-05 0 0.0046142518220268448 1.5275055410724693e-05 0 0.0046307418884313032 -5.9090690490279766e-05 0 0.0032735533157952036 0.00030389413638602338 0 0.0033141766603740856 0.00027539939579257608 0 0.0032598729325086129 0.00025059615042815128 0 0.0039262899414921658 0.00010950715675160915 0 0.0038354242628780275 9.5511168030552987e-05 0 0.0032735533157952036 0.00030389413638602338 0 0.0032598729325086129 0.00025059615042815128 0 0.0032110947632282279 0.00028264715320329453 0 0.0047016934463146457 2.7874516950339473e-05 0 0.0046966563712736 1.9608375285846232e-05 0 0.0047164567305524614 2.4852836620927519e-05 0 0.0041459791983841582 0.00022190774373827694 0 0.0047486353341903969 0.00010770996503546642 0 0.0046941378692585143 2.3368733813539901e-05 0 0.0046307418884313032 -5.9090690490279766e-05 0 0.0047182667264696557 -1.5034136178460026e-05 0 0.0039262899414921658 0.00010950715675160915 0 0.0041459791983841582 0.00022190774373827694 0 0.004679842955834612 2.9656818434064446e-05 0 0.0046941378692585143 2.3368733813539901e-05 0 0.0046307418884313032 -5.9090690490279766e-05 0 0.0046956786817184499 -0.00011202549948747463 0 0.0041459791983841582 0.00022190774373827694 0 0.0032735533157952036 0.00030389413638602338 0 0.0033396947069398351 0.00032108183295757544 0 0.0033141766603740856 0.00027539939579257608 0 0.0041459791983841582 0.00022190774373827694 0 0.0037707099978476297 0.00024089613131420644 0 0.0033396947069398351 0.00032108183295757544 0 0.0033141766603740856 0.00027539939579257608 0 0.0033721185119167971 0.00027036100055735152 0 0.0033141766603740856 0.00027539939579257608 0 0.0033503920904473013 0.00023371602812070891 0 0.0033721185119167971 0.00027036100055735152 0 0.0033141766603740856 0.00027539939579257608 0 0.0033503920904473013 0.00023371602812070891 0 0.0033063432025796369 0.00023710166766232935 0 0.0033141766603740856 0.00027539939579257608 0 0.0033063432025796369 0.00023710166766232935 0 0.0032598729325086129 0.00025059615042815128 0 0.0033063432025796369 0.00023710166766232935 0 0.0032744885085323875 0.00020953229879316828 0 0.0033172741089204181 0.00017772505314344645 0 0.0033503920904473013 0.00023371602812070891 0 0.0033653068385967075 0.00019558734667229848 0 0.0033172741089204181 0.00017772505314344645 0 0.0033503920904473013 0.00023371602812070891 0 0.0033063432025796369 0.00023710166766232935 0 0.0033172741089204181 0.00017772505314344645 0 0.0032598729325086129 0.00025059615042815128 0 0.0032088609461649316 0.00023453654614454661 0 0.0032110947632282279 0.00028264715320329453 0 0.0032598729325086129 0.00025059615042815128 0 0.0032365078288630121 0.0002052739060577793 0 0.0032088609461649316 0.00023453654614454661 0 0.0033063432025796369 0.00023710166766232935 0 0.0032598729325086129 0.00025059615042815128 0 0.0032744885085323875 0.00020953229879316828 0 0.0032598729325086129 0.00025059615042815128 0 0.0032744885085323875 0.00020953229879316828 0 0.0032365078288630121 0.0002052739060577793 0 0.0032744885085323875 0.00020953229879316828 0 0.0032365078288630121 0.0002052739060577793 0 0.0032557671471175951 0.00017586666667209218 0 0.0032365078288630121 0.0002052739060577793 0 0.0032088609461649316 0.00023453654614454661 0 0.0031991017766649582 0.00018484713245479106 0 0.0032088609461649316 0.00023453654614454661 0 0.003167420487338314 0.00020808237609249252 0 0.0031991017766649582 0.00018484713245479106 0 0.0031865200280089888 0.00024705995268505931 0 0.0032088609461649316 0.00023453654614454661 0 0.003167420487338314 0.00020808237609249252 0 0.0031865200280089888 0.00024705995268505931 0 0.0032088609461649316 0.00023453654614454661 0 0.0032110947632282279 0.00028264715320329453 0 0.0031714025432933585 0.00012626413586424442 0 0.0038082647828868174 -1.1269086080917852e-05 0 0.0033326319957545309 8.188584941148585e-06 0 0.0035275858359525157 -9.3074215261151959e-05 0 0.0034684208123330904 -0.00026431021656680601 0 0.0031865200280089888 0.00024705995268505931 0 0.003167420487338314 0.00020808237609249252 0 0.0031594092878170811 0.00026316603326615161 0 0.0033326319957545309 8.188584941148585e-06 0 0.0034930116352754237 1.2297811692481862e-06 0 0.0035275858359525157 -9.3074215261151959e-05 0 0.0034930116352754237 1.2297811692481862e-06 0 0.0036912376430474547 -1.3612411146642429e-05 0 0.0035422036707597922 2.5451709179425018e-05 0 0.0034930116352754237 1.2297811692481862e-06 0 0.0036912376430474547 -1.3612411146642429e-05 0 0.0035275858359525157 -9.3074215261151959e-05 0 0.003749993910119201 1.8370732545580966e-07 0 0.0036912376430474547 -1.3612411146642429e-05 0 0.0040135342966163643 -5.3249262031891955e-07 0 0.003749993910119201 1.8370732545580966e-07 0 0.0036912376430474547 -1.3612411146642429e-05 0 0.0035422036707597922 2.5451709179425018e-05 0 0.0036912376430474547 -1.3612411146642429e-05 0 0.0040135342966163643 -5.3249262031891955e-07 0 0.0036746203325628175 -0.00020421319821156865 0 0.0040139862786381748 -6.1272833015557664e-08 0 0.0039427750833423581 -9.4387073145964765e-05 0 0.0036746203325628175 -0.00020421319821156865 0 0.0035275858359525157 -9.3074215261151959e-05 0 0.0034684208123330904 -0.00026431021656680601 0 0.0036912376430474547 -1.3612411146642429e-05 0 0.0036746203325628175 -0.00020421319821156865 0 0.0035275858359525157 -9.3074215261151959e-05 0 0.0039427750833423581 -9.4387073145964765e-05 0 0.0038082647828868174 -1.1269086080917852e-05 0 0.0043182682465528113 -7.9656699911652979e-05 0 0.0038082647828868174 -1.1269086080917852e-05 0 0.0042528199941715564 6.2094178362694718e-06 0 0.0042677092845885634 -7.8047052975445482e-06 0 0.0042532684601162855 -7.383249359948432e-06 0 0.0042172069344093783 -1.5964145149253604e-05 0 0.0042528199941715564 6.2094178362694718e-06 0 0.0042532684601162855 -7.383249359948432e-06 0 0.0042172069344093783 -1.5964145149253604e-05 0 0.0042528199941715564 6.2094178362694718e-06 0 0.004192194896713298 1.0010684901183623e-07 0 0.0040143223341890591 -1.9047718109958057e-07 0 0.0042172069344093783 -1.5964145149253604e-05 0 0.004192194896713298 1.0010684901183623e-07 0 0.0042528199941715564 6.2094178362694718e-06 0 0.004192194896713298 1.0010684901183623e-07 0 0.0043698361358189388 -3.1853844097753821e-08 0 0.0042528199941715564 6.2094178362694718e-06 0 0.0043698361358189388 -3.1853844097753821e-08 0 0.0042677092845885634 -7.8047052975445482e-06 0 0.0042849289245699912 1.7916864650126511e-05 0 0.0043698361358189388 -3.1853844097753821e-08 0 0.0042677092845885634 -7.8047052975445482e-06 0 0.0042677092845885634 -7.8047052975445482e-06 0 0.0043619200535075708 -7.1470175699364866e-05 0 0.0043939255714825183 -1.7086437379170051e-05 0 0.0042849289245699912 1.7916864650126511e-05 0 0.0042677092845885634 -7.8047052975445482e-06 0 0.0043939255714825183 -1.7086437379170051e-05 0 0.0045221944592284411 -1.7718753995934565e-05 0 0.0043939255714825183 -1.7086437379170051e-05 0 0.004478021666873595 -0.00011174895381048529 0 0.0043619200535075708 -7.1470175699364866e-05 0 0.0043939255714825183 -1.7086437379170051e-05 0 0.004478021666873595 -0.00011174895381048529 0 0.0043619200535075708 -7.1470175699364866e-05 0 0.004478021666873595 -0.00011174895381048529 0 0.0043021858151867246 -0.00015063812154439098 0 0.0038354242628780275 9.5511168030552987e-05 0 0.0038082647828868174 -1.1269086080917852e-05 0 0.0031865200280089888 0.00024705995268505931 0 0.0032110947632282279 0.00028264715320329453 0 0.0031594092878170811 0.00026316603326615161 0 0.0042677092845885634 -7.8047052975445482e-06 0 0.0043619200535075708 -7.1470175699364866e-05 0 0.0043021858151867246 -0.00015063812154439098 0 0.0049591171815188554 -1.9859848707284566e-05 0 0.004964744267051787 -5.0132953280826287e-05 0 0.0049803163164603799 -2.2430371870816858e-05 0 0.0049344410093733262 -4.5072495710274591e-05 0 0.0049591171815188554 -1.9859848707284566e-05 0 0.004964744267051787 -5.0132953280826287e-05 0 0.004990665381824291 -2.168815765590995e-05 0 0.004989155695226284 -7.64747072061326e-06 0 0.0049988045503164737 -6.6910402239853982e-06 0 0.0049589299673960452 -3.4803157692469832e-05 0 0.0049792778272132647 -1.3484381749307528e-05 0 0.004989155695226284 -7.64747072061326e-06 0 0.0049968651800564355 -3.2562589963872757e-07 0 0.0049872815497788488 -1.6105803723873213e-06 0 0.004989155695226284 -7.64747072061326e-06 0 0.0049988045503164737 -6.6910402239853982e-06 0 0.0049968651800564355 -3.2562589963872757e-07 0 0.0049792778272132647 -1.3484381749307528e-05 0 0.0049912280138542115 -2.4806335747192416e-06 0 0.0049988045503164737 -6.6910402239853982e-06 0 0.0049968651800564355 -3.2562589963872757e-07 0 0.0050007792644644706 -8.9086347058707288e-07 0 0.0049991764723220488 9.3133958218076175e-08 0 0.0049968651800564355 -3.2562589963872757e-07 0 0.0050007792644644706 -8.9086347058707288e-07 0 0.0049991764723220488 9.3133958218076175e-08 0 0.0050000000182268099 -1.7094820983468808e-09 0 0.0049999936846960181 2.643121836011894e-09 0 0.0049991764723220488 9.3133958218076175e-08 0 0.0050000000182268099 -1.7094820983468808e-09 0 0.0049999831301765002 -5.2424048929786268e-08 0 0.0049991764723220488 9.3133958218076175e-08 0 0.0049999936846960181 2.643121836011894e-09 0 0.0049968651800564355 -3.2562589963872757e-07 0 0.0049999936846960181 2.643121836011894e-09 0 0.0049968651800564355 -3.2562589963872757e-07 0 0.0049944210951895392 7.6140142423855529e-07 0 0.0049968651800564355 -3.2562589963872757e-07 0 0.0049872815497788488 -1.6105803723873213e-06 0 0.0049944210951895392 7.6140142423855529e-07 0 0.0049872815497788488 -1.6105803723873213e-06 0 0.0049944210951895392 7.6140142423855529e-07 0 0.0049880307485575329 1.0766158412390092e-06 0 0.0049999936846960181 2.643121836011894e-09 0 0.0049944210951895392 7.6140142423855529e-07 0 0.0049999835892165119 1.8670859407980586e-09 0 0.0049944210951895392 7.6140142423855529e-07 0 0.0049999835892165119 1.8670859407980586e-09 0 0.0049880307485575329 1.0766158412390092e-06 0 0.0049999835892165119 1.8670859407980586e-09 0 0.0049880307485575329 1.0766158412390092e-06 0 0.0049999822021701756 -1.1824939430372119e-09 0 0.0049872815497788488 -1.6105803723873213e-06 0 0.0049880307485575329 1.0766158412390092e-06 0 0.0049715461152162405 -6.1083358108513593e-06 0 0.0049880307485575329 1.0766158412390092e-06 0 0.0049715461152162405 -6.1083358108513593e-06 0 0.004982917515913521 2.2234643705127807e-06 0 0.004989155695226284 -7.64747072061326e-06 0 0.0049872815497788488 -1.6105803723873213e-06 0 0.0049715461152162405 -6.1083358108513593e-06 0 0.004989155695226284 -7.64747072061326e-06 0 0.0049715461152162405 -6.1083358108513593e-06 0 0.0049663350842839033 -1.9961184886929694e-05 0 0.004990665381824291 -2.168815765590995e-05 0 0.004989155695226284 -7.64747072061326e-06 0 0.0049663350842839033 -1.9961184886929694e-05 0 0.0049715461152162405 -6.1083358108513593e-06 0 0.0049663350842839033 -1.9961184886929694e-05 0 0.0049466495181840616 -2.2114961645909237e-05 0 0.0049466495181840616 -2.2114961645909237e-05 0 0.0049519112635878718 -1.2117326131374178e-05 0 0.0049311220894116036 -3.3997423877796442e-05 0 0.0049715461152162405 -6.1083358108513593e-06 0 0.0049466495181840616 -2.2114961645909237e-05 0 0.0049519112635878718 -1.2117326131374178e-05 0 0.0049658061254821565 7.4041735996759116e-07 0 0.0049565813701954696 -2.7551399689034985e-06 0 0.0049785889999956982 1.605383678875226e-05 0 0.0049846665981850375 2.1788535824455368e-05 0 0.004987829975064282 1.1133347492635918e-05 0 0.0049846665981850375 2.1788535824455368e-05 0 0.004987829975064282 1.1133347492635918e-05 0 0.0049910313016281634 1.6615041109709535e-05 0 0.0049785889999956982 1.605383678875226e-05 0 0.0049846665981850375 2.1788535824455368e-05 0 0.0049751063442012612 2.9949883254902144e-05 0 0.0049715461152162405 -6.1083358108513593e-06 0 0.0049519112635878718 -1.2117326131374178e-05 0 0.004982917515913521 2.2234643705127807e-06 0 0.0049785889999956982 1.605383678875226e-05 0 0.004987829975064282 1.1133347492635918e-05 0 0.004982917515913521 2.2234643705127807e-06 0 0.0049658061254821565 7.4041735996759116e-07 0 0.0049791447857304048 9.34562705483363e-07 0 0.0049880307485575329 1.0766158412390092e-06 0 0.004982917515913521 2.2234643705127807e-06 0 0.0049999822021701756 -1.1824939430372119e-09 0 0.004982917515913521 2.2234643705127807e-06 0 0.0049999822021701756 -1.1824939430372119e-09 0 0.0049938318701134247 2.2232084968265539e-06 0 0.0049999822021701756 -1.1824939430372119e-09 0 0.0049938318701134247 2.2232084968265539e-06 0 0.0049999967625915607 4.878108625865764e-10 0 0.004987829975064282 1.1133347492635918e-05 0 0.0049938318701134247 2.2232084968265539e-06 0 0.0049940798607656656 9.34188601423347e-06 0 0.004987829975064282 1.11333474926359