<?xml version="1.0"?>
<VTKFile type="UnstructuredGrid" version="0.1" byte_order="LittleEndian">
<UnstructuredGrid>
<Piece NumberOfPoints="30578" NumberOfCells="10723">
<Points>
<DataArray type="Float64" NumberOfComponents="3" format="ascii">
-0.5 -0.5 0 -0.47439485679867832 -0.48072581506667478 0 -0.5 -0.44765434486020428 0 -0.5 -0.5 0 -0.47439485679867832 -0.48072581506667478 0 -0.43702443379937372 -0.49999999999999922 0 -0.47439485679867832 -0.48072581506667478 0 -0.45530669598391149 -0.47718009944797551 0 -0.43702443379937372 -0.49999999999999922 0 -0.47439485679867832 -0.48072581506667478 0 -0.45530669598391149 -0.47718009944797551 0 -0.4597353119515426 -0.45943449384344293 0 -0.45530669598391149 -0.47718009944797551 0 -0.44381084376742141 -0.47114793899167112 0 -0.4597353119515426 -0.45943449384344293 0 -0.45530669598391149 -0.47718009944797551 0 -0.44381084376742141 -0.47114793899167112 0 -0.43702443379937372 -0.49999999999999922 0 -0.44381084376742141 -0.47114793899167112 0 -0.43702443379937372 -0.49999999999999922 0 -0.45059725373546922 -0.44229587798334291 0 -0.4339166039271336 -0.43498117536117131 0 -0.43309128002320102 -0.45351235807576151 0 -0.44381084376742141 -0.47114793899167112 0 -0.45059725373546922 -0.44229587798334291 0 -0.4597353119515426 -0.45943449384344293 0 -0.44381084376742141 -0.47114793899167112 0 -0.45059725373546922 -0.44229587798334291 0 -0.43309128002320102 -0.45351235807576151 0 -0.44381084376742141 -0.47114793899167112 0 -0.45059725373546922 -0.44229587798334291 0 -0.4597353119515426 -0.45943449384344293 0 -0.47505511338101108 -0.44868394208069429 0 -0.46517432262153441 -0.43649963461163338 0 -0.45059725373546922 -0.44229587798334291 0 -0.4597353119515426 -0.45943449384344293 0 -0.46517432262153441 -0.43649963461163338 0 -0.47505511338101108 -0.44868394208069429 0 -0.47820614292347569 -0.42776699273468149 0 -0.46517432262153441 -0.43649963461163338 0 -0.47505511338101108 -0.44868394208069429 0 -0.47820614292347569 -0.42776699273468149 0 -0.47439485679867832 -0.48072581506667478 0 -0.47505511338101108 -0.44868394208069429 0 -0.5 -0.44765434486020428 0 -0.47439485679867832 -0.48072581506667478 0 -0.4597353119515426 -0.45943449384344293 0 -0.47505511338101108 -0.44868394208069429 0 -0.47505511338101108 -0.44868394208069429 0 -0.5 -0.44765434486020428 0 -0.47820614292347569 -0.42776699273468149 0 -0.5 -0.44765434486020428 0 -0.49656450065014057 -0.42151023988558672 0 -0.47820614292347569 -0.42776699273468149 0 -0.5 -0.44765434486020428 0 -0.49656450065014057 -0.42151023988558672 0 -0.50000000000000089 -0.37904661106745707 0 -0.49656450065014057 -0.42151023988558672 0 -0.48135717246594062 -0.40685004338866881 0 -0.47820614292347569 -0.42776699273468149 0 -0.49656450065014057 -0.42151023988558672 0 -0.48135717246594062 -0.40685004338866881 0 -0.48135717246594062 -0.40685004338866881 0 -0.47820614292347569 -0.42776699273468149 0 -0.48135717246594062 -0.40685004338866881 0 -0.47820614292347569 -0.42776699273468149 0 -0.45738366370351707 -0.41344381697501481 0 -0.49656450065014057 -0.42151023988558672 0 -0.48135717246594062 -0.40685004338866881 0 -0.50000000000000089 -0.37904661106745707 0 -0.50000000000000089 -0.37904661106745707 0 -0.48466894952205442 -0.38486603086372417 0 -0.48717439863114548 -0.36823452950912272 0 -0.48135717246594062 -0.40685004338866881 0 -0.50000000000000089 -0.37904661106745707 0 -0.48466894952205442 -0.38486603086372417 0 -0.48466894952205442 -0.38486603086372417 0 -0.48717439863114548 -0.36823452950912272 0 -0.50000000000000089 -0.37904661106745707 0 -0.48466894952205442 -0.38486603086372417 0 -0.48135717246594062 -0.40685004338866881 0 -0.48466894952205442 -0.38486603086372417 0 -0.46593083509403682 -0.39197871725165279 0 -0.48135717246594062 -0.40685004338866881 0 -0.48466894952205442 -0.38486603086372417 0 -0.48135717246594062 -0.40685004338866881 0 -0.46593083509403682 -0.39197871725165279 0 -0.48466894952205442 -0.38486603086372417 0 -0.47195833844942919 -0.37959069520904498 0 -0.46593083509403682 -0.39197871725165279 0 -0.48466894952205442 -0.38486603086372417 0 -0.46593083509403682 -0.39197871725165279 0 -0.48466894952205442 -0.38486603086372417 0 -0.47195833844942919 -0.37959069520904498 0 -0.48717439863114548 -0.36823452950912272 0 -0.46593083509403682 -0.39197871725165279 0 -0.44890944387521442 -0.39029302340116001 0 -0.45132291774153199 -0.37789636588759368 0 -0.47195833844942919 -0.37959069520904498 0 -0.46593083509403682 -0.39197871725165279 0 -0.45132291774153199 -0.37789636588759368 0 -0.46593083509403682 -0.39197871725165279 0 -0.45132291774153199 -0.37789636588759368 0 -0.48135717246594062 -0.40685004338866881 0 -0.46593083509403682 -0.39197871725165279 0 -0.45738366370351707 -0.41344381697501481 0 -0.46593083509403682 -0.39197871725165279 0 -0.44275815558040038 -0.40077469311046232 0 -0.45738366370351707 -0.41344381697501481 0 -0.46593083509403682 -0.39197871725165279 0 -0.44275815558040038 -0.40077469311046232 0 -0.46593083509403682 -0.39197871725165279 0 -0.44275815558040038 -0.40077469311046232 0 -0.44890944387521442 -0.39029302340116001 0 -0.44275815558040038 -0.40077469311046232 0 -0.44064580868350911 -0.39542861624611658 0 -0.44890944387521442 -0.39029302340116001 0 -0.44225344557501872 -0.38376649822575309 0 -0.45132291774153199 -0.37789636588759368 0 -0.43671500038902772 -0.36381401452353412 0 -0.44890944387521442 -0.39029302340116001 0 -0.44225344557501872 -0.38376649822575309 0 -0.45132291774153199 -0.37789636588759368 0 -0.44064580868350911 -0.39542861624611658 0 -0.44225344557501872 -0.38376649822575309 0 -0.43040194378266172 -0.3881600185019185 0 -0.44064580868350911 -0.39542861624611658 0 -0.44890944387521442 -0.39029302340116001 0 -0.44225344557501872 -0.38376649822575309 0 -0.47820614292347569 -0.42776699273468149 0 -0.46517432262153441 -0.43649963461163338 0 -0.45738366370351707 -0.41344381697501481 0 -0.45059725373546922 -0.44229587798334291 0 -0.45738366370351707 -0.41344381697501481 0 -0.45059725373546922 -0.44229587798334291 0 -0.46517432262153441 -0.43649963461163338 0 -0.45738366370351707 -0.41344381697501481 0 -0.44275815558040038 -0.40077469311046232 0 -0.45738366370351707 -0.41344381697501481 0 -0.44164244492799948 -0.42121090558557039 0 -0.45059725373546922 -0.44229587798334291 0 -0.45738366370351707 -0.41344381697501481 0 -0.44164244492799948 -0.42121090558557039 0 -0.45059725373546922 -0.44229587798334291 0 -0.44164244492799948 -0.42121090558557039 0 -0.4339166039271336 -0.43498117536117131 0 -0.4339166039271336 -0.43498117536117131 0 -0.42355654769347711 -0.414558964497861 0 -0.41671115160429401 -0.44095791049380378 0 -0.44164244492799948 -0.42121090558557039 0 -0.4339166039271336 -0.43498117536117131 0 -0.42355654769347711 -0.414558964497861 0 -0.44275815558040038 -0.40077469311046232 0 -0.44164244492799948 -0.42121090558557039 0 -0.42355654769347711 -0.414558964497861 0 -0.42355654769347711 -0.414558964497861 0 -0.41056920252370888 -0.3963363404412637 0 -0.40050668374064252 -0.41734442193795029 0 -0.42355654769347711 -0.414558964497861 0 -0.41671115160429401 -0.44095791049380378 0 -0.42355654769347711 -0.414558964497861 0 -0.40050668374064252 -0.41734442193795029 0 -0.41671115160429401 -0.44095791049380378 0 -0.44225344557501872 -0.38376649822575309 0 -0.43040194378266172 -0.3881600185019185 0 -0.43671500038902772 -0.36381401452353412 0 -0.43040194378266172 -0.3881600185019185 0 -0.43671500038902772 -0.36381401452353412 0 -0.44064580868350911 -0.39542861624611658 0 -0.42355654769347711 -0.414558964497861 0 -0.43040194378266172 -0.3881600185019185 0 -0.42355654769347711 -0.414558964497861 0 -0.43040194378266172 -0.3881600185019185 0 -0.44275815558040038 -0.40077469311046232 0 -0.44064580868350911 -0.39542861624611658 0 -0.42355654769347711 -0.414558964497861 0 -0.44064580868350911 -0.39542861624611658 0 -0.43040194378266172 -0.3881600185019185 0 -0.42355654769347711 -0.414558964497861 0 -0.43040194378266172 -0.3881600185019185 0 -0.41056920252370888 -0.3963363404412637 0 -0.43040194378266172 -0.3881600185019185 0 -0.4079689369259607 -0.37224253963894771 0 -0.43040194378266172 -0.3881600185019185 0 -0.41056920252370888 -0.3963363404412637 0 -0.4079689369259607 -0.37224253963894771 0 -0.41056920252370888 -0.3963363404412637 0 -0.39195929229331972 -0.37982250283040359 0 -0.4079689369259607 -0.37224253963894771 0 -0.41056920252370888 -0.3963363404412637 0 -0.39195929229331972 -0.37982250283040359 0 -0.39357845321732049 -0.39746174547711199 0 -0.41056920252370888 -0.3963363404412637 0 -0.39357845321732049 -0.39746174547711199 0 -0.40050668374064252 -0.41734442193795029 0 -0.39357845321732049 -0.39746174547711199 0 -0.38114412328536468 -0.40833987260765031 0 -0.36544727141479139 -0.39026932065168712 0 -0.39195929229331972 -0.37982250283040359 0 -0.37549160074202448 -0.3732971907138336 0 -0.36544727141479139 -0.39026932065168712 0 -0.39195929229331972 -0.37982250283040359 0 -0.39357845321732049 -0.39746174547711199 0 -0.36544727141479139 -0.39026932065168712 0 -0.40050668374064252 -0.41734442193795029 0 -0.3944977858259317 -0.43926335073686201 0 -0.41671115160429401 -0.44095791049380378 0 -0.40050668374064252 -0.41734442193795029 0 -0.38028594703985957 -0.42392304976487449 0 -0.3944977858259317 -0.43926335073686201 0 -0.39357845321732049 -0.39746174547711199 0 -0.40050668374064252 -0.41734442193795029 0 -0.38114412328536468 -0.40833987260765031 0 -0.40050668374064252 -0.41734442193795029 0 -0.38114412328536468 -0.40833987260765031 0 -0.38028594703985957 -0.42392304976487449 0 -0.38114412328536468 -0.40833987260765031 0 -0.38028594703985957 -0.42392304976487449 0 -0.36590226101420908 -0.41270082520662749 0 -0.38028594703985957 -0.42392304976487449 0 -0.3944977858259317 -0.43926335073686201 0 -0.3723601590800425 -0.44005613486137668 0 -0.3944977858259317 -0.43926335073686201 0 -0.38265619596279349 -0.45813348326120767 0 -0.3723601590800425 -0.44005613486137668 0 -0.40093272222703252 -0.45142790024540502 0 -0.3944977858
[...]
<PointData Scalars="" Vectors="displacement," Tensors="">
<DataArray type="Float64" Name="displacement" NumberOfComponents="3" format="ascii">
0.014998839991736243 4.7918614660807525e-07 0 0.014564099957662819 7.1339880802280615e-05 0 0.014999584645136536 -7.3291316045971907e-09 0 0.014998839991736243 4.7918614660807525e-07 0 0.014564099957662819 7.1339880802280615e-05 0 0.01311344270852712 -8.5930716222662399e-07 0 0.014564099957662819 7.1339880802280615e-05 0 0.014316729584078727 -7.6155649703841703e-06 0 0.01311344270852712 -8.5930716222662399e-07 0 0.014564099957662819 7.1339880802280615e-05 0 0.014316729584078727 -7.6155649703841703e-06 0 0.014633149834744659 1.2364714398237015e-05 0 0.014316729584078727 -7.6155649703841703e-06 0 0.014463333907618201 -0.00023803869045302216 0 0.014633149834744659 1.2364714398237015e-05 0 0.014316729584078727 -7.6155649703841703e-06 0 0.014463333907618201 -0.00023803869045302216 0 0.01311344270852712 -8.5930716222662399e-07 0 0.013669213262087483 -5.8460346766804588e-05 0 0.013110968313931836 -4.0665518422195804e-08 0 0.013432538100109028 0.00024478587046507076 0 0.013566610600308431 -5.309603981739412e-05 0 0.013181802606148131 -5.1209479425959067e-05 0 0.014463333907618201 -0.00023803869045302216 0 0.014645921254840879 9.7623351959044574e-05 0 0.014633149834744659 1.2364714398237015e-05 0 0.012854808789087839 5.3793015595091541e-05 0 0.013432538100109028 0.00024478587046507076 0 0.013181802606148131 -5.1209479425959067e-05 0 0.013669213262087483 -5.8460346766804588e-05 0 0.014014748655637066 0.00014697125813402343 0 0.014633149834744659 1.2364714398237015e-05 0 0.014770102675022113 -4.4632431160084573e-05 0 0.014566712269559445 1.1842742475741031e-05 0 0.014645921254840879 9.7623351959044574e-05 0 0.014633149834744659 1.2364714398237015e-05 0 0.014566712269559445 1.1842742475741031e-05 0 0.014770102675022113 -4.4632431160084573e-05 0 0.014384963964084835 -0.00018608168281309415 0 0.014566712269559445 1.1842742475741031e-05 0 0.014768529396498345 -5.7995452316828309e-05 0 0.014645549787990804 -0.00010541010787941641 0 0.014564099957662819 7.1339880802280615e-05 0 0.014770102675022113 -4.4632431160084573e-05 0 0.014999584645136536 -7.3291316045971907e-09 0 0.014564099957662819 7.1339880802280615e-05 0 0.014633149834744659 1.2364714398237015e-05 0 0.014770102675022113 -4.4632431160084573e-05 0 0.014770102675022113 -4.4632431160084573e-05 0 0.014999584645136536 -7.3291316045971907e-09 0 0.014960734213170795 -3.0280001254385638e-05 0 0.014999584645136536 -7.3291316045971907e-09 0 0.014997165604371854 -1.2291137237515615e-06 0 0.014960734213170795 -3.0280001254385638e-05 0 0.014999584645136536 -7.3291316045971907e-09 0 0.014997165604371854 -1.2291137237515615e-06 0 0.015000174190312156 -2.9971380085958e-09 0 0.014997165604371854 -1.2291137237515615e-06 0 0.015007452333389406 -2.6307659079600426e-05 0 0.014960734213170795 -3.0280001254385638e-05 0 0.015087912748079147 -5.2505926539762407e-05 0 0.014639253666231746 -2.747097794002562e-06 0 0.014639253666231746 -2.747097794002562e-06 0 0.014645549787990804 -0.00010541010787941641 0 0.014026838628173556 -0.00016483688515171949 0 0.014384963964084835 -0.00018608168281309415 0 0.014050680535275646 0.00016678466680253301 0 0.014997165604371854 -1.2291137237515615e-06 0 0.014996660837629287 -1.5119284963897282e-06 0 0.015000174190312156 -2.9971380085958e-09 0 0.015000010044816742 6.3519708073999993e-09 0 0.015002187147447135 4.8973292224865112e-06 0 0.014999483579203859 5.0275935499904959e-06 0 0.014996660837629287 -1.5119284963897282e-06 0 0.015000174190312156 -2.9971380085958e-09 0 0.014998770894216544 -1.0675587749890784e-06 0 0.014950224338519492 4.4950442171573236e-05 0 0.015016714045121062 8.818382784457139e-06 0 0.01499999035143953 -1.4215328259239523e-08 0 0.014950224338519492 4.4950442171573236e-05 0 0.014621073326154949 5.0435122831043568e-05 0 0.014692339113935547 6.1356624049545871e-05 0 0.014667613799666296 1.6591979482354211e-06 0 0.014639253666231746 -2.747097794002562e-06 0 0.014950224338519492 4.4950442171573236e-05 0 0.014639253666231746 -2.747097794002562e-06 0 0.014380076641350313 6.4087869775750092e-05 0 0.015014413697656329 9.400525146391682e-06 0 0.015009412631708408 2.2404451521195874e-05 0 0.015019988550905094 2.9413805437055143e-05 0 0.014950224338519492 4.4950442171573236e-05 0 0.014380076641350313 6.4087869775750092e-05 0 0.015014413697656329 9.400525146391682e-06 0 0.015009412631708408 2.2404451521195874e-05 0 0.014999483579203859 5.0275935499904959e-06 0 0.01408998471609519 0.00015589364772034822 0 0.014090417320314822 0.00010335686966803266 0 0.014122725286820409 0.00010758152857244552 0 0.015009412631708408 2.2404451521195874e-05 0 0.015019988550905094 2.9413805437055143e-05 0 0.015007586230497914 4.7558702955036304e-05 0 0.014380076641350313 6.4087869775750092e-05 0 0.014637466258406459 1.7859591779889658e-05 0 0.014026838628173556 -0.00016483688515171949 0 0.013920991547608648 6.1399495388988213e-05 0 0.014050680535275646 0.00016678466680253301 0 0.013920991547608648 6.1399495388988213e-05 0 0.014039554242686112 8.9049970621052344e-05 0 0.014050680535275646 0.00016678466680253301 0 0.014380076641350313 6.4087869775750092e-05 0 0.013945646840386497 7.5198204750588724e-05 0 0.01408998471609519 0.00015589364772034822 0 0.014039554242686112 8.9049970621052344e-05 0 0.014090417320314822 0.00010335686966803266 0 0.014039554242686112 8.9049970621052344e-05 0 0.014082453456703588 7.0186316313292855e-05 0 0.014090417320314822 0.00010335686966803266 0 0.014105189810796795 8.3715148426297478e-05 0 0.014122725286820409 0.00010758152857244552 0 0.014149591707690166 7.4629053272719372e-05 0 0.014090417320314822 0.00010335686966803266 0 0.014105189810796795 8.3715148426297478e-05 0 0.014122725286820409 0.00010758152857244552 0 0.014082453456703588 7.0186316313292855e-05 0 0.014105189810796795 8.3715148426297478e-05 0 0.014090056256552215 5.8858549845251095e-05 0 0.014082453456703588 7.0186316313292855e-05 0 0.014090417320314822 0.00010335686966803266 0 0.014105189810796795 8.3715148426297478e-05 0 0.014384963964084835 -0.00018608168281309415 0 0.014566712269559445 1.1842742475741031e-05 0 0.014050680535275646 0.00016678466680253301 0 0.014014748655637066 0.00014697125813402343 0 0.014036562344960202 0.00016969712949188243 0 0.014645921254840879 9.7623351959044574e-05 0 0.014566712269559445 1.1842742475741031e-05 0 0.014050680535275646 0.00016678466680253301 0 0.014039554242686112 8.9049970621052344e-05 0 0.014050680535275646 0.00016678466680253301 0 0.013842783295567167 4.5889489252435583e-05 0 0.013432538100109028 0.00024478587046507076 0 0.014050680535275646 0.00016678466680253301 0 0.013842783295567167 4.5889489252435583e-05 0 0.013432538100109028 0.00024478587046507076 0 0.013842783295567167 4.5889489252435583e-05 0 0.013566610600308431 -5.309603981739412e-05 0 0.013566610600308431 -5.309603981739412e-05 0 0.013892251620032676 -0.00017719914892240008 0 0.013434089046538556 -0.00033518599216942582 0 0.013842783295567167 4.5889489252435583e-05 0 0.013566610600308431 -5.309603981739412e-05 0 0.013892251620032676 -0.00017719914892240008 0 0.014039554242686112 8.9049970621052344e-05 0 0.013842783295567167 4.5889489252435583e-05 0 0.013892251620032676 -0.00017719914892240008 0 0.009820403596620824 0.00091487790791833885 0 0.0099423842545684291 0.00082931246698270285 0 0.0097793466968035207 0.00075483786740275678 0 0.011778606998270212 0.00033007045477228007 0 0.011506037444438731 0.0002882377343044586 0 0.009820403596620824 0.00091487790791833885 0 0.0097793466968035207 0.00075483786740275678 0 0.009632807594110766 0.000851108252895838 0 0.014105189810796795 8.3715148426297478e-05 0 0.014090056256552215 5.8858549845251095e-05 0 0.014149591707690166 7.4629053272719372e-05 0 0.012438556589983486 0.00066782383686334458 0 0.014246815014896521 0.00032402495191957253 0 0.014082453456703588 7.0186316313292855e-05 0 0.013892251620032676 -0.00017719914892240008 0 0.01415484460810605 -4.5016295624586745e-05 0 0.011778606998270212 0.00033007045477228007 0 0.012438556589983486 0.00066782383686334458 0 0.014039554242686112 8.9049970621052344e-05 0 0.014082453456703588 7.0186316313292855e-05 0 0.013892251620032676 -0.00017719914892240008 0 0.014087555275971738 -0.00033601236965202639 0 0.012438556589983486 0.00066782383686334458 0 0.009820403596620824 0.00091487790791833885 0 0.010018983775076063 0.00096645496947256879 0 0.0099423842545684291 0.00082931246698270285 0 0.012438556589983486 0.00066782383686334458 0 0.011313201368547887 0.000726043763853638 0 0.010018983775076063 0.00096645496947256879 0 0.0099423842545684291 0.00082931246698270285 0 0.010116318227797684 0.0008141928574483823 0 0.0099423842545684291 0.00082931246698270285 0 0.010051097996925046 0.00070418984001875272 0 0.010116318227797684 0.0008141928574483823 0 0.0099423842545684291 0.00082931246698270285 0 0.010051097996925046 0.00070418984001875272 0 0.0099188782576373549 0.00071432933578644594 0 0.0099423842545684291 0.00082931246698270285 0 0.0099188782576373549 0.00071432933578644594 0 0.0097793466968035207 0.00075483786740275678 0 0.0099188782576373549 0.00071432933578644594 0 0.0098232616389552115 0.00063154247982859354 0 0.0099516917023757361 0.00053615940269937832 0 0.010051097996925046 0.00070418984001875272 0 0.010095863297156013 0.00058976080982919019 0 0.0099516917023757361 0.00053615940269937832 0 0.010051097996925046 0.00070418984001875272 0 0.0099188782576373549 0.00071432933578644594 0 0.0099516917023757361 0.00053615940269937832 0 0.0097793466968035207 0.00075483786740275678 0 0.0096261211448563609 0.00070660479502015073 0 0.009632807594110766 0.000851108252895838 0 0.0097793466968035207 0.00075483786740275678 0 0.0097092127103427187 0.00061871161184604343 0 0.0096261211448563609 0.00070660479502015073 0 0.0099188782576373549 0.00071432933578644594 0 0.0097793466968035207 0.00075483786740275678 0 0.0098232616389552115 0.00063154247982859354 0 0.0097793466968035207 0.00075483786740275678 0 0.0098232616389552115 0.00063154247982859354 0 0.0097092127103427187 0.00061871161184604343 0 0.0098232616389552115 0.00063154247982859354 0 0.0097092127103427187 0.00061871161184604343 0 0.009767072277464154 0.00053043693290214162 0 0.0097092127103427187 0.00061871161184604343 0 0.0096261211448563609 0.00070660479502015073 0 0.0095968441433920484 0.00055729450029744232 0 0.0096261211448563609 0.00070660479502015073 0 0.0095015765178623045 0.00062712741656450435 0 0.0095968441433920484 0.00055729450029744232 0 0.0095589766004102496 0.00074422079903726189 0 0.0096261211448563609 0.00070660479502015073 0 0.0095015765178623045 0.00062712741656450435 0 0.0095589766004102496 0.00074422079903726189 0 0.0096261211448563609 0.00070660479502015073 0 0.009632807594110766 0.000851108252895838 0 0.0095135658418920681 0.00038061317127048745 0 0.011424710455875359 -3.2868827535771954e-05 0 0.0099973874823250149 2.5033199020819585e-05 0 0.010582753895832056 -0.00027908866458190175 0 0.010405125382814764 -0.00079311060219997812 0 0.0095589766004102496 0.00074422079903726189 0 0.0095015765178623045 0.00062712741656450435 0 0.0094775137903369191 0.00079260087214966409 0 0.0099973874823250149 2.5033199020819585e-05 0 0.010479103822652895 4.0307726692690163e-06 0 0.010582753895832056 -0.00027908866458190175 0 0.010479103822652895 4.0307726692690163e-06 0 0.011073755076614494 -4.0714691248693895e-05 0 0.010626602756500122 7.6427049457702763e-05 0 0.010479103822652895 4.0307726692690163e-06 0 0.011073755076614494 -4.0714691248693895e-05 0 0.010582753895832056 -0.00027908866458190175 0 0.011249981674170319 5.5131252052329083e-07 0 0.011073755076614494 -4.0714691248693895e-05 0 0.012040603081763718 -1.5972881747345576e-06 0 0.011249981674170319 5.5131252052329083e-07 0 0.011073755076614494 -4.0714691248693895e-05 0 0.010626602756500122 7.6427049457702763e-05 0 0.011073755076614494 -4.0714691248693895e-05 0 0.012040603081763718 -1.5972881747345576e-06 0 0.011023914711031844 -0.0006126356995453761 0 0.012041958885411853 -1.8380890357954457e-07 0 0.011828306093677615 -0.00028317281442413999 0 0.011023914711031844 -0.0006126356995453761 0 0.010582753895832056 -0.00027908866458190175 0 0.010405125382814764 -0.00079311060219997812 0 0.011073755076614494 -4.0714691248693895e-05 0 0.011023914711031844 -0.0006126356995453761 0 0.010582753895832056 -0.00027908866458190175 0 0.011828306093677615 -0.00028317281442413999 0 0.011424710455875359 -3.2868827535771954e-05 0 0.012954918739920478 -0.00023924863617198351 0 0.011424710455875359 -3.2868827535771954e-05 0 0.012758468256060491 1.8638896931799608e-05 0 0.012803149157193126 -2.3383719496573722e-05 0 0.012759831672582661 -2.2141337762875137e-05 0 0.01265162932010668 -4.7891272002083454e-05 0 0.012758468256060491 1.8638896931799608e-05 0 0.012759831672582661 -2.2141337762875137e-05 0 0.01265162932010668 -4.7891272002083454e-05 0 0.012758468256060491 1.8638896931799608e-05 0 0.012576584692953922 3.0032584666574313e-07 0 0.012042967006376422 -5.7143917688423809e-07 0 0.01265162932010668 -4.7891272002083454e-05 0 0.012576584692953922 3.0032584666574313e-07 0 0.012758468256060491 1.8638896931799608e-05 0 0.012576584692953922 3.0032584666574313e-07 0 0.013109508406641782 -9.5505750648848349e-08 0 0.012758468256060491 1.8638896931799608e-05 0 0.013109508406641782 -9.5505750648848349e-08 0 0.012803149157193126 -2.3383719496573722e-05 0 0.012854808789087839 5.3793015595091541e-05 0 0.013109508406641782 -9.5505750648848349e-08 0 0.012803149157193126 -2.3383719496573722e-05 0 0.012803149157193126 -2.3383719496573722e-05 0 0.013085783817922508 -0.00021436160365493893 0 0.013181802606148131 -5.1209479425959067e-05 0 0.012854808789087839 5.3793015595091541e-05 0 0.012803149157193126 -2.3383719496573722e-05 0 0.013181802606148131 -5.1209479425959067e-05 0 0.013566610600308431 -5.309603981739412e-05 0 0.013181802606148131 -5.1209479425959067e-05 0 0.013434089046538556 -0.00033518599216942582 0 0.013085783817922508 -0.00021436160365493893 0 0.013181802606148131 -5.1209479425959067e-05 0 0.013434089046538556 -0.00033518599216942582 0 0.013085783817922508 -0.00021436160365493893 0 0.013434089046538556 -0.00033518599216942582 0 0.012906582217195907 -0.00045185854984680499 0 0.011506037444438731 0.0002882377343044586 0 0.011424710455875359 -3.2868827535771954e-05 0 0.0095589766004102496 0.00074422079903726189 0 0.009632807594110766 0.000851108252895838 0 0.0094775137903369191 0.00079260087214966409 0 0.012803149157193126 -2.3383719496573722e-05 0 0.013085783817922508 -0.00021436160365493893 0 0.012906582217195907 -0.00045185854984680499 0 0.014880042930844595 -5.6438751324388748e-05 0 0.014896186217789953 -0.00014443348994138959 0 0.014941820335385096 -6.3975947704340713e-05 0 0.014807834032511546 -0.00012968529321052911 0 0.014880042930844595 -5.6438751324388748e-05 0 0.014896186217789953 -0.00014443348994138959 0 0.014971217059158153 -6.2596432816888227e-05 0 0.014967093677098904 -2.1670808670332917e-05 0 0.014995696277738314 -1.9048087542652941e-05 0 0.014879236476648091 -0.00010007014890290441 0 0.014938750211362931 -3.8396923543352894e-05 0 0.014967093677098904 -2.1670808670332917e-05 0 0.014990321903517295 -6.0792025405097955e-07 0 0.014961914128125281 -4.2123458401803813e-06 0 0.014967093677098904 -2.1670808670332917e-05 0 0.014995696277738314 -1.9048087542652941e-05 0 0.014990321903517295 -6.0792025405097955e-07 0 0.014938750211362931 -3.8396923543352894e-05 0 0.014974057029975689 -6.6639967316983339e-06 0 0.014995696277738314 -1.9048087542652941e-05 0 0.014990321903517295 -6.0792025405097955e-07 0 0.015001988888291271 -2.3773822820288764e-06 0 0.01499734093388979 4.7225941689675258e-07 0 0.014990321903517295 -6.0792025405097955e-07 0 0.015001988888291271 -2.3773822820288764e-06 0 0.01499734093388979 4.7225941689675258e-07 0 0.014999999766481342 -4.7406207726572851e-09 0 0.014999980801019532 7.9803027732752171e-09 0 0.01499734093388979 4.7225941689675258e-07 0 0.014999999766481342 -4.7406207726572851e-09 0 0.014999813317472745 -1.871506864969553e-08 0 0.01499734093388979 4.7225941689675258e-07 0 0.014999980801019532 7.9803027732752171e-09 0 0.014990321903517295 -6.0792025405097955e-07 0 0.014999980801019532 7.9803027732752171e-09 0 0.014990321903517295 -6.0792025405097955e-07 0 0.014983298363665704 2.4527213635132422e-06 0 0.014990321903517295 -6.0792025405097955e-07 0 0.014961914128125281 -4.2123458401803813e-06 0 0.014983298363665704 2.4527213635132422e-06 0 0.014961914128125281 -4.2123458401803813e-06 0 0.014983298363665704 2.4527213635132422e-06 0 0.014964398350901341 3.4557002086241372e-06 0 0.014999980801019532 7.9803027732752171e-09 0 0.014983298363665704 2.4527213635132422e-06 0 0.014999951134769537 5.7165697898818376e-09 0 0.014983298363665704 2.4527213635132422e-06 0 0.014999951134769537 5.7165697898818376e-09 0 0.014964398350901341 3.4557002086241372e-06 0 0.014999951134769537 5.7165697898818376e-09 0 0.014964398350901341 3.4557002086241372e-06 0 0.014999947280368029 -3.3606956032515482e-09 0 0.014961914128125281 -4.2123458401803813e-06 0 0.014964398350901341 3.4557002086241372e-06 0 0.014915315618981777 -1.719710566456643e-05 0 0.014964398350901341 3.4557002086241372e-06 0 0.014915315618981777 -1.719710566456643e-05 0 0.014949351492367029 6.8921703032121108e-06 0 0.014967093677098904 -2.1670808670332917e-05 0 0.014961914128125281 -4.2123458401803813e-06 0 0.014915315618981777 -1.719710566456643e-05 0 0.014967093677098904 -2.1670808670332917e-05 0 0.014915315618981777 -1.719710566456643e-05 0 0.014899315530296225 -5.7238353498472705e-05 0 0.014971217059158153 -6.2596432816888227e-05 0 0.014967093677098904 -2.1670808670332917e-05 0 0.014899315530296225 -5.7238353498472705e-05 0 0.014915315618981777 -1.719710566456643e-05 0 0.014899315530296225 -5.7238353498472705e-05 0 0.014841514560755909 -6.3676280454546446e-05 0 0.014841514560755909 -6.3676280454546446e-05 0 0.014857812228682581 -3.4807697561022244e-05 0 0.014796872235764664 -9.7943436445099022e-05 0 0.014915315618981777 -1.719710566456643e-05 0 0.014841514560755909 -6.3676280454546446e-05 0 0.014857812228682581 -3.4807697561022244e-05 0 0.014898629263460552 3.1676718501339179e-06 0 0.014871517745584498 -6.3662869238580211e-06 0 0.014936102846097622 4.8191855255401107e-05 0 0.014954282554720215 6.5428449410073349e-05 0 0.014963766848235591 3.3455094724735919e-05 0 0.014954282554720215 6.5428449410073349e-05 0 0.014963766848235591 3.3455094724735919e-05 0 0.014973341329667971 4.9904444949351535e-05 0 0.014936102846097622 4.8191855255401107e-05 0 0.014954282554720215 6.5428449410073349e-05 0 0.014925534032538788 8.999470903510616e-05 0 0.014915315618981777 -1.719710566456643e-05 0 0.014857812228682581 -3.4807697561022244e-05 0 0.014949351492367029 6.8921703032121108e-06 0 0.014936102846097622 4.8191855255401107e-05 0 0.014963766848235591 3.3455094724735919e-05 0 0.014949351492367029 6.8921703032121108e-06 0 0.014898629263460552 3.1676718501339179e-06 0 0.014938157004206826 3.1140755247516055e-06 0 0.014964398350901341 3.4557002086241372e-06 0 0.014949351492367029 6.8921703032121108e-06 0 0.014999947280368029 -3.3606956032515482e-09 0 0.014949351492367029 6.8921703032121108e-06 0 0.014999947280368029 -3.3606956032515482e-09 0 0.014981679925132406 6.8037710616607297e-06 0 0.014999947280368029 -3.3606956032515482e-09 0 0.014981679925132406 6.8037710616607297e-06 0 0.014999990367833135 1.5207203606979105e-09 0 0.014963766848235591 3.3455094724735919e-05 0 0.014981679925132406 6.8037710616607297e-06 0 0.014982425522123494 2.8100107792871697e-05 0 0.014963766848235591 3.3455094724735919e-05 0 0.014949351492367029 6.8921703032121108e-06 0 0.014981679925132406 6.8037710616607297e-06 0 0.014981679925132406 6.8037710616607297e-06 0 0.014991750901363943 1.0482238294094471e-05 0 0.014982425522123494 2.8100107792871697e-05 0 0.014991750901363943 1.0482238294094471e-05 0 0.014997308036569418 2.636288585147941e-05 0 0.