<?xml version="1.0"?>
<VTKFile type="UnstructuredGrid" version="0.1" byte_order="LittleEndian">
<UnstructuredGrid>
<Piece NumberOfPoints="30578" NumberOfCells="10723">
<Points>
<DataArray type="Float64" NumberOfComponents="3" format="ascii">
-0.5 -0.5 0 -0.47439485679867832 -0.48072581506667478 0 -0.5 -0.44765434486020428 0 -0.5 -0.5 0 -0.47439485679867832 -0.48072581506667478 0 -0.43702443379937372 -0.49999999999999922 0 -0.47439485679867832 -0.48072581506667478 0 -0.45530669598391149 -0.47718009944797551 0 -0.43702443379937372 -0.49999999999999922 0 -0.47439485679867832 -0.48072581506667478 0 -0.45530669598391149 -0.47718009944797551 0 -0.4597353119515426 -0.45943449384344293 0 -0.45530669598391149 -0.47718009944797551 0 -0.44381084376742141 -0.47114793899167112 0 -0.4597353119515426 -0.45943449384344293 0 -0.45530669598391149 -0.47718009944797551 0 -0.44381084376742141 -0.47114793899167112 0 -0.43702443379937372 -0.49999999999999922 0 -0.44381084376742141 -0.47114793899167112 0 -0.43702443379937372 -0.49999999999999922 0 -0.45059725373546922 -0.44229587798334291 0 -0.4339166039271336 -0.43498117536117131 0 -0.43309128002320102 -0.45351235807576151 0 -0.44381084376742141 -0.47114793899167112 0 -0.45059725373546922 -0.44229587798334291 0 -0.4597353119515426 -0.45943449384344293 0 -0.44381084376742141 -0.47114793899167112 0 -0.45059725373546922 -0.44229587798334291 0 -0.43309128002320102 -0.45351235807576151 0 -0.44381084376742141 -0.47114793899167112 0 -0.45059725373546922 -0.44229587798334291 0 -0.4597353119515426 -0.45943449384344293 0 -0.47505511338101108 -0.44868394208069429 0 -0.46517432262153441 -0.43649963461163338 0 -0.45059725373546922 -0.44229587798334291 0 -0.4597353119515426 -0.45943449384344293 0 -0.46517432262153441 -0.43649963461163338 0 -0.47505511338101108 -0.44868394208069429 0 -0.47820614292347569 -0.42776699273468149 0 -0.46517432262153441 -0.43649963461163338 0 -0.47505511338101108 -0.44868394208069429 0 -0.47820614292347569 -0.42776699273468149 0 -0.47439485679867832 -0.48072581506667478 0 -0.47505511338101108 -0.44868394208069429 0 -0.5 -0.44765434486020428 0 -0.47439485679867832 -0.48072581506667478 0 -0.4597353119515426 -0.45943449384344293 0 -0.47505511338101108 -0.44868394208069429 0 -0.47505511338101108 -0.44868394208069429 0 -0.5 -0.44765434486020428 0 -0.47820614292347569 -0.42776699273468149 0 -0.5 -0.44765434486020428 0 -0.49656450065014057 -0.42151023988558672 0 -0.47820614292347569 -0.42776699273468149 0 -0.5 -0.44765434486020428 0 -0.49656450065014057 -0.42151023988558672 0 -0.50000000000000089 -0.37904661106745707 0 -0.49656450065014057 -0.42151023988558672 0 -0.48135717246594062 -0.40685004338866881 0 -0.47820614292347569 -0.42776699273468149 0 -0.49656450065014057 -0.42151023988558672 0 -0.48135717246594062 -0.40685004338866881 0 -0.48135717246594062 -0.40685004338866881 0 -0.47820614292347569 -0.42776699273468149 0 -0.48135717246594062 -0.40685004338866881 0 -0.47820614292347569 -0.42776699273468149 0 -0.45738366370351707 -0.41344381697501481 0 -0.49656450065014057 -0.42151023988558672 0 -0.48135717246594062 -0.40685004338866881 0 -0.50000000000000089 -0.37904661106745707 0 -0.50000000000000089 -0.37904661106745707 0 -0.48466894952205442 -0.38486603086372417 0 -0.48717439863114548 -0.36823452950912272 0 -0.48135717246594062 -0.40685004338866881 0 -0.50000000000000089 -0.37904661106745707 0 -0.48466894952205442 -0.38486603086372417 0 -0.48466894952205442 -0.38486603086372417 0 -0.48717439863114548 -0.36823452950912272 0 -0.50000000000000089 -0.37904661106745707 0 -0.48466894952205442 -0.38486603086372417 0 -0.48135717246594062 -0.40685004338866881 0 -0.48466894952205442 -0.38486603086372417 0 -0.46593083509403682 -0.39197871725165279 0 -0.48135717246594062 -0.40685004338866881 0 -0.48466894952205442 -0.38486603086372417 0 -0.48135717246594062 -0.40685004338866881 0 -0.46593083509403682 -0.39197871725165279 0 -0.48466894952205442 -0.38486603086372417 0 -0.47195833844942919 -0.37959069520904498 0 -0.46593083509403682 -0.39197871725165279 0 -0.48466894952205442 -0.38486603086372417 0 -0.46593083509403682 -0.39197871725165279 0 -0.48466894952205442 -0.38486603086372417 0 -0.47195833844942919 -0.37959069520904498 0 -0.48717439863114548 -0.36823452950912272 0 -0.46593083509403682 -0.39197871725165279 0 -0.44890944387521442 -0.39029302340116001 0 -0.45132291774153199 -0.37789636588759368 0 -0.47195833844942919 -0.37959069520904498 0 -0.46593083509403682 -0.39197871725165279 0 -0.45132291774153199 -0.37789636588759368 0 -0.46593083509403682 -0.39197871725165279 0 -0.45132291774153199 -0.37789636588759368 0 -0.48135717246594062 -0.40685004338866881 0 -0.46593083509403682 -0.39197871725165279 0 -0.45738366370351707 -0.41344381697501481 0 -0.46593083509403682 -0.39197871725165279 0 -0.44275815558040038 -0.40077469311046232 0 -0.45738366370351707 -0.41344381697501481 0 -0.46593083509403682 -0.39197871725165279 0 -0.44275815558040038 -0.40077469311046232 0 -0.46593083509403682 -0.39197871725165279 0 -0.44275815558040038 -0.40077469311046232 0 -0.44890944387521442 -0.39029302340116001 0 -0.44275815558040038 -0.40077469311046232 0 -0.44064580868350911 -0.39542861624611658 0 -0.44890944387521442 -0.39029302340116001 0 -0.44225344557501872 -0.38376649822575309 0 -0.45132291774153199 -0.37789636588759368 0 -0.43671500038902772 -0.36381401452353412 0 -0.44890944387521442 -0.39029302340116001 0 -0.44225344557501872 -0.38376649822575309 0 -0.45132291774153199 -0.37789636588759368 0 -0.44064580868350911 -0.39542861624611658 0 -0.44225344557501872 -0.38376649822575309 0 -0.43040194378266172 -0.3881600185019185 0 -0.44064580868350911 -0.39542861624611658 0 -0.44890944387521442 -0.39029302340116001 0 -0.44225344557501872 -0.38376649822575309 0 -0.47820614292347569 -0.42776699273468149 0 -0.46517432262153441 -0.43649963461163338 0 -0.45738366370351707 -0.41344381697501481 0 -0.45059725373546922 -0.44229587798334291 0 -0.45738366370351707 -0.41344381697501481 0 -0.45059725373546922 -0.44229587798334291 0 -0.46517432262153441 -0.43649963461163338 0 -0.45738366370351707 -0.41344381697501481 0 -0.44275815558040038 -0.40077469311046232 0 -0.45738366370351707 -0.41344381697501481 0 -0.44164244492799948 -0.42121090558557039 0 -0.45059725373546922 -0.44229587798334291 0 -0.45738366370351707 -0.41344381697501481 0 -0.44164244492799948 -0.42121090558557039 0 -0.45059725373546922 -0.44229587798334291 0 -0.44164244492799948 -0.42121090558557039 0 -0.4339166039271336 -0.43498117536117131 0 -0.4339166039271336 -0.43498117536117131 0 -0.42355654769347711 -0.414558964497861 0 -0.41671115160429401 -0.44095791049380378 0 -0.44164244492799948 -0.42121090558557039 0 -0.4339166039271336 -0.43498117536117131 0 -0.42355654769347711 -0.414558964497861 0 -0.44275815558040038 -0.40077469311046232 0 -0.44164244492799948 -0.42121090558557039 0 -0.42355654769347711 -0.414558964497861 0 -0.42355654769347711 -0.414558964497861 0 -0.41056920252370888 -0.3963363404412637 0 -0.40050668374064252 -0.41734442193795029 0 -0.42355654769347711 -0.414558964497861 0 -0.41671115160429401 -0.44095791049380378 0 -0.42355654769347711 -0.414558964497861 0 -0.40050668374064252 -0.41734442193795029 0 -0.41671115160429401 -0.44095791049380378 0 -0.44225344557501872 -0.38376649822575309 0 -0.43040194378266172 -0.3881600185019185 0 -0.43671500038902772 -0.36381401452353412 0 -0.43040194378266172 -0.3881600185019185 0 -0.43671500038902772 -0.36381401452353412 0 -0.44064580868350911 -0.39542861624611658 0 -0.42355654769347711 -0.414558964497861 0 -0.43040194378266172 -0.3881600185019185 0 -0.42355654769347711 -0.414558964497861 0 -0.43040194378266172 -0.3881600185019185 0 -0.44275815558040038 -0.40077469311046232 0 -0.44064580868350911 -0.39542861624611658 0 -0.42355654769347711 -0.414558964497861 0 -0.44064580868350911 -0.39542861624611658 0 -0.43040194378266172 -0.3881600185019185 0 -0.42355654769347711 -0.414558964497861 0 -0.43040194378266172 -0.3881600185019185 0 -0.41056920252370888 -0.3963363404412637 0 -0.43040194378266172 -0.3881600185019185 0 -0.4079689369259607 -0.37224253963894771 0 -0.43040194378266172 -0.3881600185019185 0 -0.41056920252370888 -0.3963363404412637 0 -0.4079689369259607 -0.37224253963894771 0 -0.41056920252370888 -0.3963363404412637 0 -0.39195929229331972 -0.37982250283040359 0 -0.4079689369259607 -0.37224253963894771 0 -0.41056920252370888 -0.3963363404412637 0 -0.39195929229331972 -0.37982250283040359 0 -0.39357845321732049 -0.39746174547711199 0 -0.41056920252370888 -0.3963363404412637 0 -0.39357845321732049 -0.39746174547711199 0 -0.40050668374064252 -0.41734442193795029 0 -0.39357845321732049 -0.39746174547711199 0 -0.38114412328536468 -0.40833987260765031 0 -0.36544727141479139 -0.39026932065168712 0 -0.39195929229331972 -0.37982250283040359 0 -0.37549160074202448 -0.3732971907138336 0 -0.36544727141479139 -0.39026932065168712 0 -0.39195929229331972 -0.37982250283040359 0 -0.39357845321732049 -0.39746174547711199 0 -0.36544727141479139 -0.39026932065168712 0 -0.40050668374064252 -0.41734442193795029 0 -0.3944977858259317 -0.43926335073686201 0 -0.41671115160429401 -0.44095791049380378 0 -0.40050668374064252 -0.41734442193795029 0 -0.38028594703985957 -0.42392304976487449 0 -0.3944977858259317 -0.43926335073686201 0 -0.39357845321732049 -0.39746174547711199 0 -0.40050668374064252 -0.41734442193795029 0 -0.38114412328536468 -0.40833987260765031 0 -0.40050668374064252 -0.41734442193795029 0 -0.38114412328536468 -0.40833987260765031 0 -0.38028594703985957 -0.42392304976487449 0 -0.38114412328536468 -0.40833987260765031 0 -0.38028594703985957 -0.42392304976487449 0 -0.36590226101420908 -0.41270082520662749 0 -0.38028594703985957 -0.42392304976487449 0 -0.3944977858259317 -0.43926335073686201 0 -0.3723601590800425 -0.44005613486137668 0 -0.3944977858259317 -0.43926335073686201 0 -0.38265619596279349 -0.45813348326120767 0 -0.3723601590800425 -0.44005613486137668 0 -0.40093272222703252 -0.45142790024540502 0 -0.3944977858
[...]
<PointData Scalars="" Vectors="displacement," Tensors="">
<DataArray type="Float64" Name="displacement" NumberOfComponents="3" format="ascii">
0.054995802458053002 1.6740021098965392e-06 0 0.053356015449990635 0.00020696184949145328 0 0.054997878658161803 -3.6051847965587385e-07 0 0.054995802458053002 1.6740021098965392e-06 0 0.053356015449990635 0.00020696184949145328 0 0.048082607127480741 -2.9778207742733514e-06 0 0.053356015449990635 0.00020696184949145328 0 0.052446902706115892 2.9126773888205045e-06 0 0.048082607127480741 -2.9778207742733514e-06 0 0.053356015449990635 0.00020696184949145328 0 0.052446902706115892 2.9126773888205045e-06 0 0.053453820183156343 5.1627270353184845e-05 0 0.052446902706115892 2.9126773888205045e-06 0 0.052982961182144121 -0.00072793683649306946 0 0.053453820183156343 5.1627270353184845e-05 0 0.052446902706115892 2.9126773888205045e-06 0 0.052982961182144121 -0.00072793683649306946 0 0.048082607127480741 -2.9778207742733514e-06 0 0.049475773461833419 -0.00041686516555387046 0 0.048073380662433295 -2.4926354687187165e-07 0 0.046545881572862303 0.00035740356847119417 0 0.046855004720207614 -0.00025249276033801184 0 0.046152684314711957 -0.00027164216183224742 0 0.052982961182144121 -0.00072793683649306946 0 0.052932753959715813 0.00079852131912257305 0 0.053453820183156343 5.1627270353184845e-05 0 0.04595955505850071 -0.00042273026159109168 0 0.046545881572862303 0.00035740356847119417 0 0.046152684314711957 -0.00027164216183224742 0 0.049475773461833419 -0.00041686516555387046 0 0.04965473455500781 0.00046904145840973781 0 0.053453820183156343 5.1627270353184845e-05 0 0.053870597977274282 -0.0004806660763617478 0 0.052308287089665145 -0.00019595938031581478 0 0.052932753959715813 0.00079852131912257305 0 0.053453820183156343 5.1627270353184845e-05 0 0.052308287089665145 -0.00019595938031581478 0 0.053870597977274282 -0.0004806660763617478 0 0.050961220203224966 -0.0017932541813279806 0 0.052308287089665145 -0.00019595938031581478 0 0.053802936127472362 -0.00059890068432973576 0 0.052709745227696933 -0.0010272550087932761 0 0.053356015449990635 0.00020696184949145328 0 0.053870597977274282 -0.0004806660763617478 0 0.054997878658161803 -3.6051847965587385e-07 0 0.053356015449990635 0.00020696184949145328 0 0.053453820183156343 5.1627270353184845e-05 0 0.053870597977274282 -0.0004806660763617478 0 0.053870597977274282 -0.0004806660763617478 0 0.054997878658161803 -3.6051847965587385e-07 0 0.054836277833859713 -0.00028291139234671583 0 0.054997878658161803 -3.6051847965587385e-07 0 0.054992986764007434 -1.6044380076003508e-05 0 0.054836277833859713 -0.00028291139234671583 0 0.054997878658161803 -3.6051847965587385e-07 0 0.054992986764007434 -1.6044380076003508e-05 0 0.055000975866440836 8.3894868664552691e-08 0 0.054992986764007434 -1.6044380076003508e-05 0 0.055140599093147107 -0.00023402405417862409 0 0.054836277833859713 -0.00028291139234671583 0 0.055597477081621348 -0.00031693526806080908 0 0.052558971684380604 -0.00025612629723742773 0 0.052558971684380604 -0.00025612629723742773 0 0.052709745227696933 -0.0010272550087932761 0 0.048373927847321557 -0.0018395163235725657 0 0.050961220203224966 -0.0017932541813279806 0 0.04860207497414315 0.00048312654553322505 0 0.054992986764007434 -1.6044380076003508e-05 0 0.054984987797482086 -1.1414925652358201e-05 0 0.055000975866440836 8.3894868664552691e-08 0 0.055000033826758513 2.5454539047549962e-08 0 0.055011588960311435 3.1792986673307737e-05 0 0.05498729886998472 2.9282579229874841e-05 0 0.054984987797482086 -1.1414925652358201e-05 0 0.055000975866440836 8.3894868664552691e-08 0 0.054993626856995159 -6.5247650039729706e-06 0 0.054639455038153546 0.00027101348043342087 0 0.055092196854461699 5.4056422129794809e-05 0 0.054999944173809344 -6.8287096063469144e-08 0 0.054639455038153546 0.00027101348043342087 0 0.052333605715231137 0.00014640248234949055 0 0.052875524784262141 0.00023020433791216621 0 0.052688208799154646 -0.00022598739972510529 0 0.052558971684380604 -0.00025612629723742773 0 0.054639455038153546 0.00027101348043342087 0 0.052558971684380604 -0.00025612629723742773 0 0.050604141231721821 8.888120360980487e-05 0 0.055003226331789085 5.2152571171940919e-05 0 0.054992078286954529 8.2293639001558162e-05 0 0.055004323227288189 0.0001007130226496012 0 0.054639455038153546 0.00027101348043342087 0 0.050604141231721821 8.888120360980487e-05 0 0.055003226331789085 5.2152571171940919e-05 0 0.054992078286954529 8.2293639001558162e-05 0 0.05498729886998472 2.9282579229874841e-05 0 0.048365585482467256 0.00090162934284215227 0 0.048389877705562412 0.00047130210251485001 0 0.04873489627508594 0.00053728076021071285 0 0.054992078286954529 8.2293639001558162e-05 0 0.055004323227288189 0.0001007130226496012 0 0.054980689317122473 0.00015504806972282495 0 0.050604141231721821 8.888120360980487e-05 0 0.052111479141802905 0.00015320143272717094 0 0.048373927847321557 -0.0018395163235725657 0 0.047411977739352379 -0.0002825497285689576 0 0.04860207497414315 0.00048312654553322505 0 0.047411977739352379 -0.0002825497285689576 0 0.04811251893444795 0.00032333826771535086 0 0.04860207497414315 0.00048312654553322505 0 0.050604141231721821 8.888120360980487e-05 0 0.047446950694764747 0.00019923466025533192 0 0.048365585482467256 0.00090162934284215227 0 0.04811251893444795 0.00032333826771535086 0 0.048389877705562412 0.00047130210251485001 0 0.04811251893444795 0.00032333826771535086 0 0.048231571452418208 0.00024014027350757075 0 0.048389877705562412 0.00047130210251485001 0 0.048563690642549645 0.00029066890158293814 0 0.04873489627508594 0.00053728076021071285 0 0.049141530241638601 0.00014366338356967912 0 0.048389877705562412 0.00047130210251485001 0 0.048563690642549645 0.00029066890158293814 0 0.04873489627508594 0.00053728076021071285 0 0.048231571452418208 0.00024014027350757075 0 0.048563690642549645 0.00029066890158293814 0 0.048423546391124582 -3.6788594022731707e-05 0 0.048231571452418208 0.00024014027350757075 0 0.048389877705562412 0.00047130210251485001 0 0.048563690642549645 0.00029066890158293814 0 0.050961220203224966 -0.0017932541813279806 0 0.052308287089665145 -0.00019595938031581478 0 0.04860207497414315 0.00048312654553322505 0 0.04965473455500781 0.00046904145840973781 0 0.048631883279585585 0.00048999362854268479 0 0.052932753959715813 0.00079852131912257305 0 0.052308287089665145 -0.00019595938031581478 0 0.04860207497414315 0.00048312654553322505 0 0.04811251893444795 0.00032333826771535086 0 0.04860207497414315 0.00048312654553322505 0 0.047698923097168965 4.2029816388926608e-05 0 0.046545881572862303 0.00035740356847119417 0 0.04860207497414315 0.00048312654553322505 0 0.047698923097168965 4.2029816388926608e-05 0 0.046545881572862303 0.00035740356847119417 0 0.047698923097168965 4.2029816388926608e-05 0 0.046855004720207614 -0.00025249276033801184 0 0.046855004720207614 -0.00025249276033801184 0 0.047548170104081432 -0.00052537554354990768 0 0.046411568381012451 -0.00076647863467009872 0 0.047698923097168965 4.2029816388926608e-05 0 0.046855004720207614 -0.00025249276033801184 0 0.047548170104081432 -0.00052537554354990768 0 0.04811251893444795 0.00032333826771535086 0 0.047698923097168965 4.2029816388926608e-05 0 0.047548170104081432 -0.00052537554354990768 0 0.035871107331166358 0.0043415465997236899 0 0.036338255498198219 0.003884311114128704 0 0.035483374321092685 0.0034719988650317932 0 0.041469289021430933 0.0018102156284314518 0 0.040538019603092564 0.0017839959751515017 0 0.035871107331166358 0.0043415465997236899 0 0.035483374321092685 0.0034719988650317932 0 0.034927095534140827 0.0040080434372934187 0 0.048563690642549645 0.00029066890158293814 0 0.048423546391124582 -3.6788594022731707e-05 0 0.049141530241638601 0.00014366338356967912 0 0.043734794127884863 0.0026899359550398346 0 0.051249017050998678 0.0011383714932048749 0 0.048231571452418208 0.00024014027350757075 0 0.047548170104081432 -0.00052537554354990768 0 0.048287514697287745 -0.00012609986630128108 0 0.041469289021430933 0.0018102156284314518 0 0.043734794127884863 0.0026899359550398346 0 0.04811251893444795 0.00032333826771535086 0 0.048231571452418208 0.00024014027350757075 0 0.047548170104081432 -0.00052537554354990768 0 0.048420759106155654 -0.00096244532742165059 0 0.043734794127884863 0.0026899359550398346 0 0.035871107331166358 0.0043415465997236899 0 0.036817277830340507 0.0045935021861484709 0 0.036338255498198219 0.003884311114128704 0 0.043734794127884863 0.0026899359550398346 0 0.041354203076699243 0.0031481434976797112 0 0.036817277830340507 0.0045935021861484709 0 0.036338255498198219 0.003884311114128704 0 0.037139932927537402 0.0037984882610991189 0 0.036338255498198219 0.003884311114128704 0 0.036777082517133755 0.0032180033917280464 0 0.037139932927537402 0.0037984882610991189 0 0.036338255498198219 0.003884311114128704 0 0.036777082517133755 0.0032180033917280464 0 0.036098926710758296 0.0032555414025154362 0 0.036338255498198219 0.003884311114128704 0 0.036098926710758296 0.0032555414025154362 0 0.035483374321092685 0.0034719988650317932 0 0.036098926710758296 0.0032555414025154362 0 0.035519232953418661 0.002777260185228181 0 0.036023724083918914 0.0022250555280288404 0 0.036777082517133755 0.0032180033917280464 0 0.036990007318185629 0.0025552034979248912 0 0.036023724083918914 0.0022250555280288404 0 0.036777082517133755 0.0032180033917280464 0 0.036098926710758296 0.0032555414025154362 0 0.036023724083918914 0.0022250555280288404 0 0.035483374321092685 0.0034719988650317932 0 0.034714816529026367 0.0032101587759927621 0 0.034927095534140827 0.0040080434372934187 0 0.035483374321092685 0.0034719988650317932 0 0.034977091592986613 0.0027004812807256634 0 0.034714816529026367 0.0032101587759927621 0 0.036098926710758296 0.0032555414025154362 0 0.035483374321092685 0.0034719988650317932 0 0.035519232953418661 0.002777260185228181 0 0.035483374321092685 0.0034719988650317932 0 0.035519232953418661 0.002777260185228181 0 0.034977091592986613 0.0027004812807256634 0 0.035519232953418661 0.002777260185228181 0 0.034977091592986613 0.0027004812807256634 0 0.03509628384231999 0.0022014539276175127 0 0.034977091592986613 0.0027004812807256634 0 0.034714816529026367 0.0032101587759927621 0 0.034406361454429338 0.0023553772858847227 0 0.034714816529026367 0.0032101587759927621 0 0.034028282338207282 0.0027762555207653233 0 0.034406361454429338 0.0023553772858847227 0 0.034455302918416711 0.0034308500499410067 0 0.034714816529026367 0.0032101587759927621 0 0.034028282338207282 0.0027762555207653233 0 0.034455302918416711 0.0034308500499410067 0 0.034714816529026367 0.0032101587759927621 0 0.034927095534140827 0.0040080434372934187 0 0.034239843655763755 0.0015525659329041505 0 0.041043320690285275 0.00030888000411310822 0 0.036077817484785508 5.0256550099983226e-05 0 0.038482464873590326 -0.0011505113865141854 0 0.037773356691253986 -0.0031949678191826856 0 0.034455302918416711 0.0034308500499410067 0 0.034028282338207282 0.0027762555207653233 0 0.03415696692560035 0.0037220350361866906 0 0.036077817484785508 5.0256550099983226e-05 0 0.03807270298571265 -2.0822099988311232e-05 0 0.038482464873590326 -0.0011505113865141854 0 0.03807270298571265 -2.0822099988311232e-05 0 0.040463517249181499 -0.00019612772305792236 0 0.038832757688873926 0.00028801670180195481 0 0.03807270298571265 -2.0822099988311232e-05 0 0.040463517249181499 -0.00019612772305792236 0 0.038482464873590326 -0.0011505113865141854 0 0.041249824869292837 2.126932141019483e-06 0 0.040463517249181499 -0.00019612772305792236 0 0.044148785592683246 -6.3511299477889175e-06 0 0.041249824869292837 2.126932141019483e-06 0 0.040463517249181499 -0.00019612772305792236 0 0.038832757688873926 0.00028801670180195481 0 0.040463517249181499 -0.00019612772305792236 0 0.044148785592683246 -6.3511299477889175e-06 0 0.040233833272540133 -0.002445875775141743 0 0.044153636788728794 -6.5648458591014195e-07 0 0.043042568299149202 -0.0010082382877688403 0 0.040233833272540133 -0.002445875775141743 0 0.038482464873590326 -0.0011505113865141854 0 0.037773356691253986 -0.0031949678191826856 0 0.040463517249181499 -0.00019612772305792236 0 0.040233833272540133 -0.002445875775141743 0 0.038482464873590326 -0.0011505113865141854 0 0.043042568299149202 -0.0010082382877688403 0 0.041043320690285275 0.00030888000411310822 0 0.046449875827826066 -0.00075992011380544909 0 0.041043320690285275 0.00030888000411310822 0 0.046327281768183071 0.00016689587197650253 0 0.045975103266620465 -8.686462748848271e-05 0 0.045891356795799941 0.00022651166950361266 0 0.0459567485937558 0.00010916918648272999 0 0.046327281768183071 0.00016689587197650253 0 0.045891356795799941 0.00022651166950361266 0 0.0459567485937558 0.00010916918648272999 0 0.046327281768183071 0.00016689587197650253 0 0.046113792327945664 1.5115930367805999e-06 0 0.044157451682144779 -1.6222649346191036e-06 0 0.0459567485937558 0.00010916918648272999 0 0.046113792327945664 1.5115930367805999e-06 0 0.046327281768183071 0.00016689587197650253 0 0.046113792327945664 1.5115930367805999e-06 0 0.048068291329914282 -1.4933174512650108e-06 0 0.046327281768183071 0.00016689587197650253 0 0.048068291329914282 -1.4933174512650108e-06 0 0.045975103266620465 -8.686462748848271e-05 0 0.04595955505850071 -0.00042273026159109168 0 0.048068291329914282 -1.4933174512650108e-06 0 0.045975103266620465 -8.686462748848271e-05 0 0.045975103266620465 -8.686462748848271e-05 0 0.046032161235347896 -0.00043176733280327452 0 0.046152684314711957 -0.00027164216183224742 0 0.04595955505850071 -0.00042273026159109168 0 0.045975103266620465 -8.686462748848271e-05 0 0.046152684314711957 -0.00027164216183224742 0 0.046855004720207614 -0.00025249276033801184 0 0.046152684314711957 -0.00027164216183224742 0 0.046411568381012451 -0.00076647863467009872 0 0.046032161235347896 -0.00043176733280327452 0 0.046152684314711957 -0.00027164216183224742 0 0.046411568381012451 -0.00076647863467009872 0 0.046032161235347896 -0.00043176733280327452 0 0.046411568381012451 -0.00076647863467009872 0 0.045718972650855089 -0.00070116211920761369 0 0.040538019603092564 0.0017839959751515017 0 0.041043320690285275 0.00030888000411310822 0 0.034455302918416711 0.0034308500499410067 0 0.034927095534140827 0.0040080434372934187 0 0.03415696692560035 0.0037220350361866906 0 0.045975103266620465 -8.686462748848271e-05 0 0.046032161235347896 -0.00043176733280327452 0 0.045718972650855089 -0.00070116211920761369 0 0.054526842252274103 -0.00026968324532120053 0 0.05459275909519809 -0.00061016503097307477 0 0.054766424574814454 -0.00029782357537927532 0 0.05426240471328337 -0.00055288290672081397 0 0.054526842252274103 -0.00026968324532120053 0 0.05459275909519809 -0.00061016503097307477 0 0.054841291608954526 -7.47619601261972e-05 0 0.05485217891969265 1.7813546191902555e-06 0 0.05493604150386263 -5.1323786741222537e-06 0 0.054521846457222072 -0.00035296417917258247 0 0.054737439592177986 -0.00013169398925163037 0 0.05485217891969265 1.7813546191902555e-06 0 0.054945385433031464 2.1811416608848454e-05 0 0.054860789146477427 2.5783830561814508e-05 0 0.05485217891969265 1.7813546191902555e-06 0 0.05493604150386263 -5.1323786741222537e-06 0 0.054945385433031464 2.1811416608848454e-05 0 0.054737439592177986 -0.00013169398925163037 0 0.054882941693614976 -2.9956610415896427e-05 0 0.05493604150386263 -5.1323786741222537e-06 0 0.054945385433031464 2.1811416608848454e-05 0 0.054983597491193824 1.0564658114955704e-05 0 0.054977258041166321 1.3852889489727839e-05 0 0.054945385433031464 2.1811416608848454e-05 0 0.054983597491193824 1.0564658114955704e-05 0 0.054977258041166321 1.3852889489727839e-05 0 0.054999958748478447 -6.7023211723820267e-09 0 0.054999916286747282 3.6884137989259396e-08 0 0.054977258041166321 1.3852889489727839e-05 0 0.054999958748478447 -6.7023211723820267e-09 0 0.054989412748627078 7.318064893995372e-06 0 0.054977258041166321 1.3852889489727839e-05 0 0.054999916286747282 3.6884137989259396e-08 0 0.054945385433031464 2.1811416608848454e-05 0 0.054999916286747282 3.6884137989259396e-08 0 0.054945385433031464 2.1811416608848454e-05 0 0.054939266644823223 2.0376626657751748e-05 0 0.054945385433031464 2.1811416608848454e-05 0 0.054860789146477427 2.5783830561814508e-05 0 0.054939266644823223 2.0376626657751748e-05 0 0.054860789146477427 2.5783830561814508e-05 0 0.054939266644823223 2.0376626657751748e-05 0 0.054886144954604518 2.7830463860012944e-05 0 0.054999916286747282 3.6884137989259396e-08 0 0.054939266644823223 2.0376626657751748e-05 0 0.054999837931251551 2.8288110121804708e-08 0 0.054939266644823223 2.0376626657751748e-05 0 0.054999837931251551 2.8288110121804708e-08 0 0.054886144954604518 2.7830463860012944e-05 0 0.054999837931251551 2.8288110121804708e-08 0 0.054886144954604518 2.7830463860012944e-05 0 0.054999849379522459 -7.9894651639306066e-10 0 0.054860789146477427 2.5783830561814508e-05 0 0.054886144954604518 2.7830463860012944e-05 0 0.054724975537897513 1.2934163697035783e-05 0 0.054886144954604518 2.7830463860012944e-05 0 0.054724975537897513 1.2934163697035783e-05 0 0.054849539250089188 3.9942315858971124e-05 0 0.05485217891969265 1.7813546191902555e-06 0 0.054860789146477427 2.5783830561814508e-05 0 0.054724975537897513 1.2934163697035783e-05 0 0.05485217891969265 1.7813546191902555e-06 0 0.054724975537897513 1.2934163697035783e-05 0 0.054645046341311274 -4.201823269399028e-05 0 0.054841291608954526 -7.47619601261972e-05 0 0.05485217891969265 1.7813546191902555e-06 0 0.054645046341311274 -4.201823269399028e-05 0 0.054724975537897513 1.2934163697035783e-05 0 0.054645046341311274 -4.201823269399028e-05 0 0.054505060510208612 -5.8768434141689331e-05 0 0.054505060510208612 -5.8768434141689331e-05 0 0.05459722220752454 -2.1426119342445158e-05 0 0.054426183894643383 -0.00010246656308039461 0 0.054724975537897513 1.2934163697035783e-05 0 0.054505060510208612 -5.8768434141689331e-05 0 0.05459722220752454 -2.1426119342445158e-05 0 0.054695775085127081 6.5042845608831375e-05 0 0.054619478836787978 7.4525461850033406e-05 0 0.054785840504553568 0.00016058770883082104 0 0.054835162845483794 0.00021572831830193068 0 0.054873555831769248 0.00011562957801814752 0 0.054835162845483794 0.00021572831830193068 0 0.054873555831769248 0.00011562957801814752 0 0.054894793539172961 0.00016658024433201452 0 0.054785840504553568 0.00016058770883082104 0 0.054835162845483794 0.00021572831830193068 0 0.054737126889591356 0.00029696487752580792 0 0.054724975537897513 1.2934163697035783e-05 0 0.05459722220752454 -2.1426119342445158e-05 0 0.054849539250089188 3.9942315858971124e-05 0 0.054785840504553568 0.00016058770883082104 0 0.054873555831769248 0.00011562957801814752 0 0.054849539250089188 3.9942315858971124e-05 0 0.054695775085127081 6.5042845608831375e-05 0 0.054815844950344826 3.1165472534717332e-05 0 0.054886144954604518 2.7830463860012944e-05 0 0.054849539250089188 3.9942315858971124e-05 0 0.054999849379522459 -7.9894651639306066e-10 0 0.054849539250089188 3.9942315858971124e-05 0 0.054999849379522459 -7.9894651639306066e-10 0 0.054937334310327025 3.4235505735832607e-05 0 0.054999849379522459 -7.9894651639306066e-10 0 0.054937334310327025 3.4235505735832607e-05 0 0.054999943408949731 2.0436037289908356e-08 0 0.054873555831769248 0.00011562957801814752 0 0.054937334310327025 3.4235505735832607e-05 0 0.054928172317799798 9.9270787619045725e-05 0 0.054873555831769248 0.00011562957801814752 0 0.054849539250089188 3.9942315858971124e-05 0 0.054937334310327025 3.4235505735832607e-05 0 0.054937334310327025 3.4235505735832607e-05 0 0.054963297211679696 4.5372995668243849e-05 0 0.054928172317799798 9.9270787619045725e-05 0 0.054963297211679696 4.5372995668243849e-05 0 0.054966549644957001 9.3669897022432639e-05 0 0.054928172317799798 9.9270787619045725e-05 0 0.054963297211679696 4.5372995668243849e-05 0 0.054999943408949731 2.0436037289908356e-08 0 0.05498729886998472 2.9282579229874841e-05 0 0.054937334310327025