<?xml version="1.0"?>
<VTKFile type="UnstructuredGrid" version="0.1" byte_order="LittleEndian">
<UnstructuredGrid>
<Piece NumberOfPoints="30578" NumberOfCells="10723">
<Points>
<DataArray type="Float64" NumberOfComponents="3" format="ascii">
-0.5 -0.5 0 -0.47439485679867832 -0.48072581506667478 0 -0.5 -0.44765434486020428 0 -0.5 -0.5 0 -0.47439485679867832 -0.48072581506667478 0 -0.43702443379937372 -0.49999999999999922 0 -0.47439485679867832 -0.48072581506667478 0 -0.45530669598391149 -0.47718009944797551 0 -0.43702443379937372 -0.49999999999999922 0 -0.47439485679867832 -0.48072581506667478 0 -0.45530669598391149 -0.47718009944797551 0 -0.4597353119515426 -0.45943449384344293 0 -0.45530669598391149 -0.47718009944797551 0 -0.44381084376742141 -0.47114793899167112 0 -0.4597353119515426 -0.45943449384344293 0 -0.45530669598391149 -0.47718009944797551 0 -0.44381084376742141 -0.47114793899167112 0 -0.43702443379937372 -0.49999999999999922 0 -0.44381084376742141 -0.47114793899167112 0 -0.43702443379937372 -0.49999999999999922 0 -0.45059725373546922 -0.44229587798334291 0 -0.4339166039271336 -0.43498117536117131 0 -0.43309128002320102 -0.45351235807576151 0 -0.44381084376742141 -0.47114793899167112 0 -0.45059725373546922 -0.44229587798334291 0 -0.4597353119515426 -0.45943449384344293 0 -0.44381084376742141 -0.47114793899167112 0 -0.45059725373546922 -0.44229587798334291 0 -0.43309128002320102 -0.45351235807576151 0 -0.44381084376742141 -0.47114793899167112 0 -0.45059725373546922 -0.44229587798334291 0 -0.4597353119515426 -0.45943449384344293 0 -0.47505511338101108 -0.44868394208069429 0 -0.46517432262153441 -0.43649963461163338 0 -0.45059725373546922 -0.44229587798334291 0 -0.4597353119515426 -0.45943449384344293 0 -0.46517432262153441 -0.43649963461163338 0 -0.47505511338101108 -0.44868394208069429 0 -0.47820614292347569 -0.42776699273468149 0 -0.46517432262153441 -0.43649963461163338 0 -0.47505511338101108 -0.44868394208069429 0 -0.47820614292347569 -0.42776699273468149 0 -0.47439485679867832 -0.48072581506667478 0 -0.47505511338101108 -0.44868394208069429 0 -0.5 -0.44765434486020428 0 -0.47439485679867832 -0.48072581506667478 0 -0.4597353119515426 -0.45943449384344293 0 -0.47505511338101108 -0.44868394208069429 0 -0.47505511338101108 -0.44868394208069429 0 -0.5 -0.44765434486020428 0 -0.47820614292347569 -0.42776699273468149 0 -0.5 -0.44765434486020428 0 -0.49656450065014057 -0.42151023988558672 0 -0.47820614292347569 -0.42776699273468149 0 -0.5 -0.44765434486020428 0 -0.49656450065014057 -0.42151023988558672 0 -0.50000000000000089 -0.37904661106745707 0 -0.49656450065014057 -0.42151023988558672 0 -0.48135717246594062 -0.40685004338866881 0 -0.47820614292347569 -0.42776699273468149 0 -0.49656450065014057 -0.42151023988558672 0 -0.48135717246594062 -0.40685004338866881 0 -0.48135717246594062 -0.40685004338866881 0 -0.47820614292347569 -0.42776699273468149 0 -0.48135717246594062 -0.40685004338866881 0 -0.47820614292347569 -0.42776699273468149 0 -0.45738366370351707 -0.41344381697501481 0 -0.49656450065014057 -0.42151023988558672 0 -0.48135717246594062 -0.40685004338866881 0 -0.50000000000000089 -0.37904661106745707 0 -0.50000000000000089 -0.37904661106745707 0 -0.48466894952205442 -0.38486603086372417 0 -0.48717439863114548 -0.36823452950912272 0 -0.48135717246594062 -0.40685004338866881 0 -0.50000000000000089 -0.37904661106745707 0 -0.48466894952205442 -0.38486603086372417 0 -0.48466894952205442 -0.38486603086372417 0 -0.48717439863114548 -0.36823452950912272 0 -0.50000000000000089 -0.37904661106745707 0 -0.48466894952205442 -0.38486603086372417 0 -0.48135717246594062 -0.40685004338866881 0 -0.48466894952205442 -0.38486603086372417 0 -0.46593083509403682 -0.39197871725165279 0 -0.48135717246594062 -0.40685004338866881 0 -0.48466894952205442 -0.38486603086372417 0 -0.48135717246594062 -0.40685004338866881 0 -0.46593083509403682 -0.39197871725165279 0 -0.48466894952205442 -0.38486603086372417 0 -0.47195833844942919 -0.37959069520904498 0 -0.46593083509403682 -0.39197871725165279 0 -0.48466894952205442 -0.38486603086372417 0 -0.46593083509403682 -0.39197871725165279 0 -0.48466894952205442 -0.38486603086372417 0 -0.47195833844942919 -0.37959069520904498 0 -0.48717439863114548 -0.36823452950912272 0 -0.46593083509403682 -0.39197871725165279 0 -0.44890944387521442 -0.39029302340116001 0 -0.45132291774153199 -0.37789636588759368 0 -0.47195833844942919 -0.37959069520904498 0 -0.46593083509403682 -0.39197871725165279 0 -0.45132291774153199 -0.37789636588759368 0 -0.46593083509403682 -0.39197871725165279 0 -0.45132291774153199 -0.37789636588759368 0 -0.48135717246594062 -0.40685004338866881 0 -0.46593083509403682 -0.39197871725165279 0 -0.45738366370351707 -0.41344381697501481 0 -0.46593083509403682 -0.39197871725165279 0 -0.44275815558040038 -0.40077469311046232 0 -0.45738366370351707 -0.41344381697501481 0 -0.46593083509403682 -0.39197871725165279 0 -0.44275815558040038 -0.40077469311046232 0 -0.46593083509403682 -0.39197871725165279 0 -0.44275815558040038 -0.40077469311046232 0 -0.44890944387521442 -0.39029302340116001 0 -0.44275815558040038 -0.40077469311046232 0 -0.44064580868350911 -0.39542861624611658 0 -0.44890944387521442 -0.39029302340116001 0 -0.44225344557501872 -0.38376649822575309 0 -0.45132291774153199 -0.37789636588759368 0 -0.43671500038902772 -0.36381401452353412 0 -0.44890944387521442 -0.39029302340116001 0 -0.44225344557501872 -0.38376649822575309 0 -0.45132291774153199 -0.37789636588759368 0 -0.44064580868350911 -0.39542861624611658 0 -0.44225344557501872 -0.38376649822575309 0 -0.43040194378266172 -0.3881600185019185 0 -0.44064580868350911 -0.39542861624611658 0 -0.44890944387521442 -0.39029302340116001 0 -0.44225344557501872 -0.38376649822575309 0 -0.47820614292347569 -0.42776699273468149 0 -0.46517432262153441 -0.43649963461163338 0 -0.45738366370351707 -0.41344381697501481 0 -0.45059725373546922 -0.44229587798334291 0 -0.45738366370351707 -0.41344381697501481 0 -0.45059725373546922 -0.44229587798334291 0 -0.46517432262153441 -0.43649963461163338 0 -0.45738366370351707 -0.41344381697501481 0 -0.44275815558040038 -0.40077469311046232 0 -0.45738366370351707 -0.41344381697501481 0 -0.44164244492799948 -0.42121090558557039 0 -0.45059725373546922 -0.44229587798334291 0 -0.45738366370351707 -0.41344381697501481 0 -0.44164244492799948 -0.42121090558557039 0 -0.45059725373546922 -0.44229587798334291 0 -0.44164244492799948 -0.42121090558557039 0 -0.4339166039271336 -0.43498117536117131 0 -0.4339166039271336 -0.43498117536117131 0 -0.42355654769347711 -0.414558964497861 0 -0.41671115160429401 -0.44095791049380378 0 -0.44164244492799948 -0.42121090558557039 0 -0.4339166039271336 -0.43498117536117131 0 -0.42355654769347711 -0.414558964497861 0 -0.44275815558040038 -0.40077469311046232 0 -0.44164244492799948 -0.42121090558557039 0 -0.42355654769347711 -0.414558964497861 0 -0.42355654769347711 -0.414558964497861 0 -0.41056920252370888 -0.3963363404412637 0 -0.40050668374064252 -0.41734442193795029 0 -0.42355654769347711 -0.414558964497861 0 -0.41671115160429401 -0.44095791049380378 0 -0.42355654769347711 -0.414558964497861 0 -0.40050668374064252 -0.41734442193795029 0 -0.41671115160429401 -0.44095791049380378 0 -0.44225344557501872 -0.38376649822575309 0 -0.43040194378266172 -0.3881600185019185 0 -0.43671500038902772 -0.36381401452353412 0 -0.43040194378266172 -0.3881600185019185 0 -0.43671500038902772 -0.36381401452353412 0 -0.44064580868350911 -0.39542861624611658 0 -0.42355654769347711 -0.414558964497861 0 -0.43040194378266172 -0.3881600185019185 0 -0.42355654769347711 -0.414558964497861 0 -0.43040194378266172 -0.3881600185019185 0 -0.44275815558040038 -0.40077469311046232 0 -0.44064580868350911 -0.39542861624611658 0 -0.42355654769347711 -0.414558964497861 0 -0.44064580868350911 -0.39542861624611658 0 -0.43040194378266172 -0.3881600185019185 0 -0.42355654769347711 -0.414558964497861 0 -0.43040194378266172 -0.3881600185019185 0 -0.41056920252370888 -0.3963363404412637 0 -0.43040194378266172 -0.3881600185019185 0 -0.4079689369259607 -0.37224253963894771 0 -0.43040194378266172 -0.3881600185019185 0 -0.41056920252370888 -0.3963363404412637 0 -0.4079689369259607 -0.37224253963894771 0 -0.41056920252370888 -0.3963363404412637 0 -0.39195929229331972 -0.37982250283040359 0 -0.4079689369259607 -0.37224253963894771 0 -0.41056920252370888 -0.3963363404412637 0 -0.39195929229331972 -0.37982250283040359 0 -0.39357845321732049 -0.39746174547711199 0 -0.41056920252370888 -0.3963363404412637 0 -0.39357845321732049 -0.39746174547711199 0 -0.40050668374064252 -0.41734442193795029 0 -0.39357845321732049 -0.39746174547711199 0 -0.38114412328536468 -0.40833987260765031 0 -0.36544727141479139 -0.39026932065168712 0 -0.39195929229331972 -0.37982250283040359 0 -0.37549160074202448 -0.3732971907138336 0 -0.36544727141479139 -0.39026932065168712 0 -0.39195929229331972 -0.37982250283040359 0 -0.39357845321732049 -0.39746174547711199 0 -0.36544727141479139 -0.39026932065168712 0 -0.40050668374064252 -0.41734442193795029 0 -0.3944977858259317 -0.43926335073686201 0 -0.41671115160429401 -0.44095791049380378 0 -0.40050668374064252 -0.41734442193795029 0 -0.38028594703985957 -0.42392304976487449 0 -0.3944977858259317 -0.43926335073686201 0 -0.39357845321732049 -0.39746174547711199 0 -0.40050668374064252 -0.41734442193795029 0 -0.38114412328536468 -0.40833987260765031 0 -0.40050668374064252 -0.41734442193795029 0 -0.38114412328536468 -0.40833987260765031 0 -0.38028594703985957 -0.42392304976487449 0 -0.38114412328536468 -0.40833987260765031 0 -0.38028594703985957 -0.42392304976487449 0 -0.36590226101420908 -0.41270082520662749 0 -0.38028594703985957 -0.42392304976487449 0 -0.3944977858259317 -0.43926335073686201 0 -0.3723601590800425 -0.44005613486137668 0 -0.3944977858259317 -0.43926335073686201 0 -0.38265619596279349 -0.45813348326120767 0 -0.3723601590800425 -0.44005613486137668 0 -0.40093272222703252 -0.45142790024540502 0 -0.3944977858
[...]
<PointData Scalars="" Vectors="displacement," Tensors="">
<DataArray type="Float64" Name="displacement" NumberOfComponents="3" format="ascii">
-0.024998066647731458 -7.9863922176799116e-07 0 -0.024273496189327236 -0.00011889269814071773 0 -0.024999307728628822 1.2236876605577883e-08 0 -0.024998066647731458 -7.9863922176799116e-07 0 -0.024273496189327236 -0.00011889269814071773 0 -0.021855737845475943 1.4322001597903655e-06 0 -0.024273496189327236 -0.00011889269814071773 0 -0.023861212755879165 1.2700383584340303e-05 0 -0.021855737845475943 1.4322001597903655e-06 0 -0.024273496189327236 -0.00011889269814071773 0 -0.023861212755879165 1.2700383584340303e-05 0 -0.02438857571157798 -2.0590413899180484e-05 0 -0.023861212755879165 1.2700383584340303e-05 0 -0.024105552500306254 0.00039673756397704153 0 -0.02438857571157798 -2.0590413899180484e-05 0 -0.023861212755879165 1.2700383584340303e-05 0 -0.024105552500306254 0.00039673756397704153 0 -0.021855737845475943 1.4322001597903655e-06 0 -0.022781999491447387 9.747170898812109e-05 0 -0.021851613844741435 6.7790961086787001e-08 0 -0.022387513976855601 -0.00040788045547947939 0 -0.022610972296142201 8.8593769979670745e-05 0 -0.02196962785741258 8.5432186895848466e-05 0 -0.024105552500306254 0.00039673756397704153 0 -0.024409850744555716 -0.00016268343498255453 0 -0.02438857571157798 -2.0590413899180484e-05 0 -0.021424644622849948 -8.9584323250627601e-05 0 -0.022387513976855601 -0.00040788045547947939 0 -0.02196962785741258 8.5432186895848466e-05 0 -0.022781999491447387 9.747170898812109e-05 0 -0.023357882107063518 -0.00024489261382812838 0 -0.02438857571157798 -2.0590413899180484e-05 0 -0.024616830197180826 7.4408845145934474e-05 0 -0.024277831078028816 -1.9698612688660399e-05 0 -0.024409850744555716 -0.00016268343498255453 0 -0.02438857571157798 -2.0590413899180484e-05 0 -0.024277831078028816 -1.9698612688660399e-05 0 -0.024616830197180826 7.4408845145934474e-05 0 -0.023974905791547155 0.00031018967207192496 0 -0.024277831078028816 -1.9698612688660399e-05 0 -0.024614204341808058 9.6683709847230443e-05 0 -0.024409233912277992 0.00017571450779649118 0 -0.024273496189327236 -0.00011889269814071773 0 -0.024616830197180826 7.4408845145934474e-05 0 -0.024999307728628822 1.2236876605577883e-08 0 -0.024273496189327236 -0.00011889269814071773 0 -0.02438857571157798 -2.0590413899180484e-05 0 -0.024616830197180826 7.4408845145934474e-05 0 -0.024616830197180826 7.4408845145934474e-05 0 -0.024999307728628822 1.2236876605577883e-08 0 -0.024934558188696294 5.0478106212080838e-05 0 -0.024999307728628822 1.2236876605577883e-08 0 -0.024995276484040128 2.0493407523084475e-06 0 -0.024934558188696294 5.0478106212080838e-05 0 -0.024999307728628822 1.2236876605577883e-08 0 -0.024995276484040128 2.0493407523084475e-06 0 -0.025000290328841421 4.9905638061655178e-09 0 -0.024995276484040128 2.0493407523084475e-06 0 -0.025012429918673463 4.3855397053175717e-05 0 -0.024934558188696294 5.0478106212080838e-05 0 -0.02514652343947929 8.7506169919883203e-05 0 -0.024398739974582077 4.6129686144879871e-06 0 -0.024398739974582077 4.6129686144879871e-06 0 -0.024409233912277992 0.00017571450779649118 0 -0.023378034183213634 0.00027478332171619878 0 -0.023974905791547155 0.00031018967207192496 0 -0.023417757271972969 -0.00027789373345757243 0 -0.024995276484040128 2.0493407523084475e-06 0 -0.024994434750494586 2.5206064625556142e-06 0 -0.025000290328841421 4.9905638061655178e-09 0 -0.025000016429446385 -1.0471117702558534e-08 0 -0.025003606096515672 -8.1451784883446055e-06 0 -0.024999023298969893 -8.3151154434795668e-06 0 -0.024994434750494586 2.5206064625556142e-06 0 -0.025000290328841421 4.9905638061655178e-09 0 -0.02499795131579239 1.7797958254803514e-06 0 -0.024916956196643792 -7.4866462077203104e-05 0 -0.02502772085289404 -1.4637819301890756e-05 0 -0.024999983920525184 2.3653716042438975e-08 0 -0.024916956196643792 -7.4866462077203104e-05 0 -0.024368382356652656 -8.397966941323634e-05 0 -0.024487165080024527 -0.00010218311037868097 0 -0.02444595396485575 -2.6812738207962092e-06 0 -0.024398739974582077 4.6129686144879871e-06 0 -0.024916956196643792 -7.4866462077203104e-05 0 -0.024398739974582077 4.6129686144879871e-06 0 -0.023966681110020371 -0.00010665980194074204 0 -0.025023775661643183 -1.5594195271833927e-05 0 -0.025015452244878875 -3.7215471303698029e-05 0 -0.025033059614584088 -4.8891380825673246e-05 0 -0.024916956196643792 -7.4866462077203104e-05 0 -0.023966681110020371 -0.00010665980194074204 0 -0.025023775661643183 -1.5594195271833927e-05 0 -0.025015452244878875 -3.7215471303698029e-05 0 -0.024999023298969893 -8.3151154434795668e-06 0 -0.023483203755499883 -0.00025946942036959457 0 -0.023483907524039459 -0.00017206049222311969 0 -0.023537640951010658 -0.00017907343962842248 0 -0.025015452244878875 -3.7215471303698029e-05 0 -0.025033059614584088 -4.8891380825673246e-05 0 -0.025012379118664947 -7.9142203699449163e-05 0 -0.023966681110020371 -0.00010665980194074204 0 -0.024395558954207384 -2.9671184306574032e-05 0 -0.023378034183213634 0.00027478332171619878 0 -0.023201639228489682 -0.00010225956571711485 0 -0.023417757271972969 -0.00027789373345757243 0 -0.023201639228489682 -0.00010225956571711485 0 -0.023399214779173044 -0.00014828409217032404 0 -0.023417757271972969 -0.00027789373345757243 0 -0.023966681110020371 -0.00010665980194074204 0 -0.023242711363030855 -0.00012517213969096474 0 -0.023483203755499883 -0.00025946942036959457 0 -0.023399214779173044 -0.00014828409217032404 0 -0.023483907524039459 -0.00017206049222311969 0 -0.023399214779173044 -0.00014828409217032404 0 -0.023470689346292553 -0.0001168436690677021 0 -0.023483907524039459 -0.00017206049222311969 0 -0.023508467231573207 -0.00013937258475169999 0 -0.023537640951010658 -0.00017907343962842248 0 -0.023582283652762291 -0.00012426418310463913 0 -0.023483907524039459 -0.00017206049222311969 0 -0.023508467231573207 -0.00013937258475169999 0 -0.023537640951010658 -0.00017907343962842248 0 -0.023470689346292553 -0.0001168436690677021 0 -0.023508467231573207 -0.00013937258475169999 0 -0.023483281856367982 -9.8041876429234165e-05 0 -0.023470689346292553 -0.0001168436690677021 0 -0.023483907524039459 -0.00017206049222311969 0 -0.023508467231573207 -0.00013937258475169999 0 -0.023974905791547155 0.00031018967207192496 0 -0.024277831078028816 -1.9698612688660399e-05 0 -0.023417757271972969 -0.00027789373345757243 0 -0.023357882107063518 -0.00024489261382812838 0 -0.023394230116148461 -0.00028275161038884486 0 -0.024409850744555716 -0.00016268343498255453 0 -0.024277831078028816 -1.9698612688660399e-05 0 -0.023417757271972969 -0.00027789373345757243 0 -0.023399214779173044 -0.00014828409217032404 0 -0.023417757271972969 -0.00027789373345757243 0 -0.023071259110134211 -7.6375277053624861e-05 0 -0.022387513976855601 -0.00040788045547947939 0 -0.023417757271972969 -0.00027789373345757243 0 -0.023071259110134211 -7.6375277053624861e-05 0 -0.022387513976855601 -0.00040788045547947939 0 -0.023071259110134211 -7.6375277053624861e-05 0 -0.022610972296142201 8.8593769979670745e-05 0 -0.022610972296142201 8.8593769979670745e-05 0 -0.023153709442156507 0.00029545345245139307 0 -0.022390108334367973 0.00055874476905242311 0 -0.023071259110134211 -7.6375277053624861e-05 0 -0.022610972296142201 8.8593769979670745e-05 0 -0.023153709442156507 0.00029545345245139307 0 -0.023399214779173044 -0.00014828409217032404 0 -0.023071259110134211 -7.6375277053624861e-05 0 -0.023153709442156507 0.00029545345245139307 0 -0.016367766578976019 -0.0015194706819301204 0 -0.01657088330187044 -0.0013769969789628831 0 -0.016299364662543069 -0.0012529807521407563 0 -0.019631449707460828 -0.00054753578375804602 0 -0.019177121314390158 -0.00047755584015276442 0 -0.016367766578976019 -0.0015194706819301204 0 -0.016299364662543069 -0.0012529807521407563 0 -0.016055473816141141 -0.0014132357660164717 0 -0.023508467231573207 -0.00013937258475169999 0 -0.023483281856367982 -9.8041876429234165e-05 0 -0.023582283652762291 -0.00012426418310463913 0 -0.020729895991920801 -0.0011095387186913846 0 -0.023743176670951986 -0.00053854982517732917 0 -0.023470689346292553 -0.0001168436690677021 0 -0.023153709442156507 0.00029545345245139307 0 -0.023591333632348263 7.5170680892295007e-05 0 -0.019631449707460828 -0.00054753578375804602 0 -0.020729895991920801 -0.0011095387186913846 0 -0.023399214779173044 -0.00014828409217032404 0 -0.023470689346292553 -0.0001168436690677021 0 -0.023153709442156507 0.00029545345245139307 0 -0.02347839340859224 0.00056012749743736224 0 -0.020729895991920801 -0.0011095387186913846 0 -0.016367766578976019 -0.0015194706819301204 0 -0.01669847353469919 -0.0016054091647878844 0 -0.01657088330187044 -0.0013769969789628831 0 -0.020729895991920801 -0.0011095387186913846 0 -0.018853549989238161 -0.0012044806565710299 0 -0.01669847353469919 -0.0016054091647878844 0 -0.01657088330187044 -0.0013769969789628831 0 -0.016860592559583998 -0.0013518050027867606 0 -0.01657088330187044 -0.0013769969789628831 0 -0.016751960452236519 -0.0011685801406035447 0 -0.016860592559583998 -0.0013518050027867606 0 -0.01657088330187044 -0.0013769969789628831 0 -0.016751960452236519 -0.0011685801406035447 0 -0.016531716012898191 -0.001185508338311647 0 -0.01657088330187044 -0.0013769969789628831 0 -0.016531716012898191 -0.001185508338311647 0 -0.016299364662543069 -0.0012529807521407563 0 -0.016531716012898191 -0.001185508338311647 0 -0.016372442542661941 -0.0010476614939658416 0 -0.016586370544602106 -0.0008886252657172314 0 -0.016751960452236519 -0.0011685801406035447 0 -0.016826534192983546 -0.00097793673336149176 0 -0.016586370544602106 -0.0008886252657172314 0 -0.016751960452236519 -0.0011685801406035447 0 -0.016531716012898191 -0.001185508338311647 0 -0.016586370544602106 -0.0008886252657172314 0 -0.016299364662543069 -0.0012529807521407563 0 -0.016044304730824677 -0.0011726827307227312 0 -0.016055473816141141 -0.0014132357660164717 0 -0.016299364662543069 -0.0012529807521407563 0 -0.016182539144315063 -0.0010263695302888971 0 -0.016044304730824677 -0.0011726827307227312 0 -0.016531716012898191 -0.001185508338311647 0 -0.016299364662543069 -0.0012529807521407563 0 -0.016372442542661941 -0.0010476614939658416 0 -0.016299364662543069 -0.0012529807521407563 0 -0.016372442542661941 -0.0010476614939658416 0 -0.016182539144315063 -0.0010263695302888971 0 -0.016372442542661941 -0.0010476614939658416 0 -0.016182539144315063 -0.0010263695302888971 0 -0.016278835735587981 -0.00087933333336046059 0 -0.016182539144315063 -0.0010263695302888971 0 -0.016044304730824677 -0.0011726827307227312 0 -0.015995508883324804 -0.00092423566227395587 0 -0.016044304730824677 -0.0011726827307227312 0 -0.015837102436691584 -0.0010404118804624627 0 -0.015995508883324804 -0.00092423566227395587 0 -0.015932600140044956 -0.0012352997634252963 0 -0.016044304730824677 -0.0011726827307227312 0 -0.015837102436691584 -0.0010404118804624627 0 -0.015932600140044956 -0.0012352997634252963 0 -0.016044304730824677 -0.0011726827307227312 0 -0.016055473816141141 -0.0014132357660164717 0 -0.015857012716466799 -0.00063132067932122362 0 -0.019041323914434079 5.6345430404587645e-05 0 -0.016663159978772657 -4.0942924705746032e-05 0 -0.017637929179762583 0.00046537107630575508 0 -0.017342104061665458 0.0013215510828340224 0 -0.015932600140044956 -0.0012352997634252963 0 -0.015837102436691584 -0.0010404118804624627 0 -0.015797046439085419 -0.0013158301663307554 0 -0.016663159978772657 -4.0942924705746032e-05 0 -0.017465058176377123 -6.1489058462447781e-06 0 -0.017637929179762583 0.00046537107630575508 0 -0.017465058176377123 -6.1489058462447781e-06 0 -0.018456188215237278 6.8062055733207817e-05 0 -0.017711018353798964 -0.00012725854589712727 0 -0.017465058176377123 -6.1489058462447781e-06 0 -0.018456188215237278 6.8062055733207817e-05 0 -0.017637929179762583 0.00046537107630575508 0 -0.018749969550596005 -9.1853662727905115e-07 0 -0.018456188215237278 6.8062055733207817e-05 0 -0.020067671483081837 2.6624631015945902e-06 0 -0.018749969550596005 -9.1853662727905115e-07 0 -0.018456188215237278 6.8062055733207817e-05 0 -0.017711018353798964 -0.00012725854589712727 0 -0.018456188215237278 6.8062055733207817e-05 0 -0.020067671483081837 2.6624631015945902e-06 0 -0.018373101662814088 0.0010210659910578402 0 -0.020069931393190868 3.063641650777884e-07 0 -0.019713875416711799 0.00047193536572982006 0 -0.018373101662814088 0.0010210659910578402 0 -0.017637929179762583 0.00046537107630575508 0 -0.017342104061665458 0.0013215510828340224 0 -0.018456188215237278 6.8062055733207817e-05 0 -0.018373101662814088 0.0010210659910578402 0 -0.017637929179762583 0.00046537107630575508 0 -0.019713875416711799 0.00047193536572982006 0 -0.019041323914434079 5.6345430404587645e-05 0 -0.021591341232764051 0.00039828349955826193 0 -0.019041323914434079 5.6345430404587645e-05 0 -0.021264099970857785 -3.1047089181351e-05 0 -0.02133854642294282 3.9023526487719858e-05 0 -0.021266342300581425 3.6916246799739726e-05 0 -0.021086034672046894 7.9820725746268005e-05 0 -0.021264099970857785 -3.1047089181351e-05 0 -0.021266342300581425 3.6916246799739726e-05 0 -0.021086034672046894 7.9820725746268005e-05 0 -0.021264099970857785 -3.1047089181351e-05 0 -0.020960974483566493 -5.0053424505918435e-07 0 -0.020071611670945299 9.5238590549791168e-07 0 -0.021086034672046894 7.9820725746268005e-05 0 -0.020960974483566493 -5.0053424505918435e-07 0 -0.021264099970857785 -3.1047089181351e-05 0 -0.020960974483566493 -5.0053424505918435e-07 0 -0.021849180679094707 1.5926922048876559e-07 0 -0.021264099970857785 -3.1047089181351e-05 0 -0.021849180679094707 1.5926922048876559e-07 0 -0.02133854642294282 3.9023526487719858e-05 0 -0.021424644622849948 -8.9584323250627601e-05 0 -0.021849180679094707 1.5926922048876559e-07 0 -0.02133854642294282 3.9023526487719858e-05 0 -0.02133854642294282 3.9023526487719858e-05 0 -0.021809600267537851 0.00035735087849681955 0 -0.02196962785741258 8.5432186895848466e-05 0 -0.021424644622849948 -8.9584323250627601e-05 0 -0.02133854642294282 3.9023526487719858e-05 0 -0.02196962785741258 8.5432186895848466e-05 0 -0.022610972296142201 8.8593769979670745e-05 0 -0.02196962785741258 8.5432186895848466e-05 0 -0.022390108334367973 0.00055874476905242311 0 -0.021809600267537851 0.00035735087849681955 0 -0.02196962785741258 8.5432186895848466e-05 0 -0.022390108334367973 0.00055874476905242311 0 -0.021809600267537851 0.00035735087849681955 0 -0.022390108334367973 0.00055874476905242311 0 -0.021510929075933615 0.0007531906077219492 0 -0.019177121314390158 -0.00047755584015276442 0 -0.019041323914434079 5.6345430404587645e-05 0 -0.015932600140044956 -0.0012352997634252963 0 -0.016055473816141141 -0.0014132357660164717 0 -0.015797046439085419 -0.0013158301663307554 0 -0.02133854642294282 3.9023526487719858e-05 0 -0.021809600267537851 0.00035735087849681955 0 -0.021510929075933615 0.0007531906077219492 0 -0.024795585907594311 9.9299243536408798e-05 0 -0.02482372133525897 0.00025066476640411687 0 -0.024901581582301931 0.00011215185935407005 0 -0.024672205046866673 0.00022536247855135859 0 -0.024795585907594311 9.9299243536408798e-05 0 -0.02482372133525897 0.00025066476640411687 0 -0.02495332690912145 0.00010844078827953766 0 -0.024945778476131428 3.8237353603060888e-05 0 -0.024994022751582357 3.3455201119921597e-05 0 -0.024794649836980227 0.00017401578846233825 0 -0.02489638913606633 6.7421908746528213e-05 0 -0.024945778476131428 3.8237353603060888e-05 0 -0.024984325900282163 1.6281294981957226e-06 0 -0.02493640774889426 8.0529018619335915e-06 0 -0.024945778476131428 3.8237353603060888e-05 0 -0.024994022751582357 3.3455201119921597e-05 0 -0.024984325900282163 1.6281294981957226e-06 0 -0.02489638913606633 6.7421908746528213e-05 0 -0.024956140069271059 1.2403167873591276e-05 0 -0.024994022751582357 3.3455201119921597e-05 0 -0.024984325900282163 1.6281294981957226e-06 0 -0.025003896322322344 4.4543173529374589e-06 0 -0.024995882361610235 -4.6566979108754879e-07 0 -0.024984325900282163 1.6281294981957226e-06 0 -0.025003896322322344 4.4543173529374589e-06 0 -0.024995882361610235 -4.6566979108754879e-07 0 -0.025000000091134053 8.5474104917287403e-09 0 -0.024999968423480075 -1.3215609180055056e-08 0 -0.024995882361610235 -4.6566979108754879e-07 0 -0.025000000091134053 8.5474104917287403e-09 0 -0.024999915650882498 2.621202446499062e-07 0 -0.024995882361610235 -4.6566979108754879e-07 0 -0.024999968423480075 -1.3215609180055056e-08 0 -0.024984325900282163 1.6281294981957226e-06 0 -0.024999968423480075 -1.3215609180055056e-08 0 -0.024984325900282163 1.6281294981957226e-06 0 -0.024972105475947689 -3.8070071211926005e-06 0 -0.024984325900282163 1.6281294981957226e-06 0 -0.02493640774889426 8.0529018619335915e-06 0 -0.024972105475947689 -3.8070071211926005e-06 0 -0.02493640774889426 8.0529018619335915e-06 0 -0.024972105475947689 -3.8070071211926005e-06 0 -0.024940153742787678 -5.3830792061973387e-06 0 -0.024999968423480075 -1.3215609180055056e-08 0 -0.024972105475947689 -3.8070071211926005e-06 0 -0.024999917946082573 -9.3354297039798474e-09 0 -0.024972105475947689 -3.8070071211926005e-06 0 -0.024999917946082573 -9.3354297039798474e-09 0 -0.024940153742787678 -5.3830792061973387e-06 0 -0.024999917946082573 -9.3354297039798474e-09 0 -0.024940153742787678 -5.3830792061973387e-06 0 -0.024999911010850882 5.9124697151805008e-09 0 -0.02493640774889426 8.0529018619335915e-06 0 -0.024940153742787678 -5.3830792061973387e-06 0 -0.024857730576081226 3.0541679054250063e-05 0 -0.024940153742787678 -5.3830792061973387e-06 0 -0.024857730576081226 3.0541679054250063e-05 0 -0.024914587579567625 -1.1117321852565152e-05 0 -0.024945778476131428 3.8237353603060888e-05 0 -0.02493640774889426 8.0529018619335915e-06 0 -0.024857730576081226 3.0541679054250063e-05 0 -0.024945778476131428 3.8237353603060888e-05 0 -0.024857730576081226 3.0541679054250063e-05 0 -0.024831675421419525 9.9805924434637818e-05 0 -0.02495332690912145 0.00010844078827953766 0 -0.024945778476131428 3.8237353603060888e-05 0 -0.024831675421419525 9.9805924434637818e-05 0 -0.024857730576081226 3.0541679054250063e-05 0 -0.024831675421419525 9.9805924434637818e-05 0 -0.02473324759092033 0.00011057480822953609 0 -0.02473324759092033 0.00011057480822953609 0 -0.024759556317939382 6.0586630656863489e-05 0 -0.024655610447058031 0.00016998711938896765 0 -0.024857730576081226 3.0541679054250063e-05 0 -0.02473324759092033 0.00011057480822953609 0 -0.024759556317939382 6.0586630656863489e-05 0 -0.024829030627410806 -3.702086799836543e-06 0 -0.024782906850977362 1.3775699844513522e-05 0 -0.024892944999978506 -8.0269183943752957e-05 0 -0.024923332990925192 -0.00010894267912226576 0 -0.024939149875321417 -5.5666737463174747e-05 0 -0.024923332990925192 -0.00010894267912226576 0 -0.024939149875321417 -5.5666737463174747e-05 0 -0.024955156508140813 -8.3075205548540577e-05 0 -0.024892944999978506 -8.0269183943752957e-05 0 -0.024923332990925192 -0.00010894267912226576 0 -0.02487553172100632 -0.00014974941627449623 0 -0.024857730576081226 3.0541679054250063e-05 0 -0.024759556317939382 6.0586630656863489e-05 0 -0.024914587579567625 -1.1117321852565152e-05 0 -0.024892944999978506 -8.0269183943752957e-05 0 -0.024939149875321417 -5.5666737463174747e-05 0 -0.024914587579567625 -1.1117321852565152e-05 0 -0.024829030627410806 -3.702086799836543e-06 0 -0.024895723928652039 -4.6728135274183733e-06 0 -0.024940153742787678 -5.3830792061973387e-06 0 -0.024914587579567625 -1.1117321852565152e-05 0 -0.024999911010850882 5.9124697151805008e-09 0 -0.024914587579567625 -1.1117321852565152e-05 0 -0.024999911010850882 5.9124697151805008e-09 0 -0.024969159350567132 -1.1116042484132621e-05 0 -0.024999911010850882 5.9124697151805008e-09 0 -0.024969159350567132 -1.1116042484132621e-05 0 -0.024999983812957802 -2.439054312931637e-09 0 -0.024939149875321417 -5.5666737463174747e-05 0 -0.024969159350567132 -1.1116042484132621e-05 0 -0.024970399303828328 -4.6709430071161832e-05 0 -0.024939149875321417 -5.56