<?xml version="1.0"?>
<VTKFile type="UnstructuredGrid" version="0.1" byte_order="LittleEndian">
<UnstructuredGrid>
<Piece NumberOfPoints="30578" NumberOfCells="10723">
<Points>
<DataArray type="Float64" NumberOfComponents="3" format="ascii">
-0.5 -0.5 0 -0.47439485679867832 -0.48072581506667478 0 -0.5 -0.44765434486020428 0 -0.5 -0.5 0 -0.47439485679867832 -0.48072581506667478 0 -0.43702443379937372 -0.49999999999999922 0 -0.47439485679867832 -0.48072581506667478 0 -0.45530669598391149 -0.47718009944797551 0 -0.43702443379937372 -0.49999999999999922 0 -0.47439485679867832 -0.48072581506667478 0 -0.45530669598391149 -0.47718009944797551 0 -0.4597353119515426 -0.45943449384344293 0 -0.45530669598391149 -0.47718009944797551 0 -0.44381084376742141 -0.47114793899167112 0 -0.4597353119515426 -0.45943449384344293 0 -0.45530669598391149 -0.47718009944797551 0 -0.44381084376742141 -0.47114793899167112 0 -0.43702443379937372 -0.49999999999999922 0 -0.44381084376742141 -0.47114793899167112 0 -0.43702443379937372 -0.49999999999999922 0 -0.45059725373546922 -0.44229587798334291 0 -0.4339166039271336 -0.43498117536117131 0 -0.43309128002320102 -0.45351235807576151 0 -0.44381084376742141 -0.47114793899167112 0 -0.45059725373546922 -0.44229587798334291 0 -0.4597353119515426 -0.45943449384344293 0 -0.44381084376742141 -0.47114793899167112 0 -0.45059725373546922 -0.44229587798334291 0 -0.43309128002320102 -0.45351235807576151 0 -0.44381084376742141 -0.47114793899167112 0 -0.45059725373546922 -0.44229587798334291 0 -0.4597353119515426 -0.45943449384344293 0 -0.47505511338101108 -0.44868394208069429 0 -0.46517432262153441 -0.43649963461163338 0 -0.45059725373546922 -0.44229587798334291 0 -0.4597353119515426 -0.45943449384344293 0 -0.46517432262153441 -0.43649963461163338 0 -0.47505511338101108 -0.44868394208069429 0 -0.47820614292347569 -0.42776699273468149 0 -0.46517432262153441 -0.43649963461163338 0 -0.47505511338101108 -0.44868394208069429 0 -0.47820614292347569 -0.42776699273468149 0 -0.47439485679867832 -0.48072581506667478 0 -0.47505511338101108 -0.44868394208069429 0 -0.5 -0.44765434486020428 0 -0.47439485679867832 -0.48072581506667478 0 -0.4597353119515426 -0.45943449384344293 0 -0.47505511338101108 -0.44868394208069429 0 -0.47505511338101108 -0.44868394208069429 0 -0.5 -0.44765434486020428 0 -0.47820614292347569 -0.42776699273468149 0 -0.5 -0.44765434486020428 0 -0.49656450065014057 -0.42151023988558672 0 -0.47820614292347569 -0.42776699273468149 0 -0.5 -0.44765434486020428 0 -0.49656450065014057 -0.42151023988558672 0 -0.50000000000000089 -0.37904661106745707 0 -0.49656450065014057 -0.42151023988558672 0 -0.48135717246594062 -0.40685004338866881 0 -0.47820614292347569 -0.42776699273468149 0 -0.49656450065014057 -0.42151023988558672 0 -0.48135717246594062 -0.40685004338866881 0 -0.48135717246594062 -0.40685004338866881 0 -0.47820614292347569 -0.42776699273468149 0 -0.48135717246594062 -0.40685004338866881 0 -0.47820614292347569 -0.42776699273468149 0 -0.45738366370351707 -0.41344381697501481 0 -0.49656450065014057 -0.42151023988558672 0 -0.48135717246594062 -0.40685004338866881 0 -0.50000000000000089 -0.37904661106745707 0 -0.50000000000000089 -0.37904661106745707 0 -0.48466894952205442 -0.38486603086372417 0 -0.48717439863114548 -0.36823452950912272 0 -0.48135717246594062 -0.40685004338866881 0 -0.50000000000000089 -0.37904661106745707 0 -0.48466894952205442 -0.38486603086372417 0 -0.48466894952205442 -0.38486603086372417 0 -0.48717439863114548 -0.36823452950912272 0 -0.50000000000000089 -0.37904661106745707 0 -0.48466894952205442 -0.38486603086372417 0 -0.48135717246594062 -0.40685004338866881 0 -0.48466894952205442 -0.38486603086372417 0 -0.46593083509403682 -0.39197871725165279 0 -0.48135717246594062 -0.40685004338866881 0 -0.48466894952205442 -0.38486603086372417 0 -0.48135717246594062 -0.40685004338866881 0 -0.46593083509403682 -0.39197871725165279 0 -0.48466894952205442 -0.38486603086372417 0 -0.47195833844942919 -0.37959069520904498 0 -0.46593083509403682 -0.39197871725165279 0 -0.48466894952205442 -0.38486603086372417 0 -0.46593083509403682 -0.39197871725165279 0 -0.48466894952205442 -0.38486603086372417 0 -0.47195833844942919 -0.37959069520904498 0 -0.48717439863114548 -0.36823452950912272 0 -0.46593083509403682 -0.39197871725165279 0 -0.44890944387521442 -0.39029302340116001 0 -0.45132291774153199 -0.37789636588759368 0 -0.47195833844942919 -0.37959069520904498 0 -0.46593083509403682 -0.39197871725165279 0 -0.45132291774153199 -0.37789636588759368 0 -0.46593083509403682 -0.39197871725165279 0 -0.45132291774153199 -0.37789636588759368 0 -0.48135717246594062 -0.40685004338866881 0 -0.46593083509403682 -0.39197871725165279 0 -0.45738366370351707 -0.41344381697501481 0 -0.46593083509403682 -0.39197871725165279 0 -0.44275815558040038 -0.40077469311046232 0 -0.45738366370351707 -0.41344381697501481 0 -0.46593083509403682 -0.39197871725165279 0 -0.44275815558040038 -0.40077469311046232 0 -0.46593083509403682 -0.39197871725165279 0 -0.44275815558040038 -0.40077469311046232 0 -0.44890944387521442 -0.39029302340116001 0 -0.44275815558040038 -0.40077469311046232 0 -0.44064580868350911 -0.39542861624611658 0 -0.44890944387521442 -0.39029302340116001 0 -0.44225344557501872 -0.38376649822575309 0 -0.45132291774153199 -0.37789636588759368 0 -0.43671500038902772 -0.36381401452353412 0 -0.44890944387521442 -0.39029302340116001 0 -0.44225344557501872 -0.38376649822575309 0 -0.45132291774153199 -0.37789636588759368 0 -0.44064580868350911 -0.39542861624611658 0 -0.44225344557501872 -0.38376649822575309 0 -0.43040194378266172 -0.3881600185019185 0 -0.44064580868350911 -0.39542861624611658 0 -0.44890944387521442 -0.39029302340116001 0 -0.44225344557501872 -0.38376649822575309 0 -0.47820614292347569 -0.42776699273468149 0 -0.46517432262153441 -0.43649963461163338 0 -0.45738366370351707 -0.41344381697501481 0 -0.45059725373546922 -0.44229587798334291 0 -0.45738366370351707 -0.41344381697501481 0 -0.45059725373546922 -0.44229587798334291 0 -0.46517432262153441 -0.43649963461163338 0 -0.45738366370351707 -0.41344381697501481 0 -0.44275815558040038 -0.40077469311046232 0 -0.45738366370351707 -0.41344381697501481 0 -0.44164244492799948 -0.42121090558557039 0 -0.45059725373546922 -0.44229587798334291 0 -0.45738366370351707 -0.41344381697501481 0 -0.44164244492799948 -0.42121090558557039 0 -0.45059725373546922 -0.44229587798334291 0 -0.44164244492799948 -0.42121090558557039 0 -0.4339166039271336 -0.43498117536117131 0 -0.4339166039271336 -0.43498117536117131 0 -0.42355654769347711 -0.414558964497861 0 -0.41671115160429401 -0.44095791049380378 0 -0.44164244492799948 -0.42121090558557039 0 -0.4339166039271336 -0.43498117536117131 0 -0.42355654769347711 -0.414558964497861 0 -0.44275815558040038 -0.40077469311046232 0 -0.44164244492799948 -0.42121090558557039 0 -0.42355654769347711 -0.414558964497861 0 -0.42355654769347711 -0.414558964497861 0 -0.41056920252370888 -0.3963363404412637 0 -0.40050668374064252 -0.41734442193795029 0 -0.42355654769347711 -0.414558964497861 0 -0.41671115160429401 -0.44095791049380378 0 -0.42355654769347711 -0.414558964497861 0 -0.40050668374064252 -0.41734442193795029 0 -0.41671115160429401 -0.44095791049380378 0 -0.44225344557501872 -0.38376649822575309 0 -0.43040194378266172 -0.3881600185019185 0 -0.43671500038902772 -0.36381401452353412 0 -0.43040194378266172 -0.3881600185019185 0 -0.43671500038902772 -0.36381401452353412 0 -0.44064580868350911 -0.39542861624611658 0 -0.42355654769347711 -0.414558964497861 0 -0.43040194378266172 -0.3881600185019185 0 -0.42355654769347711 -0.414558964497861 0 -0.43040194378266172 -0.3881600185019185 0 -0.44275815558040038 -0.40077469311046232 0 -0.44064580868350911 -0.39542861624611658 0 -0.42355654769347711 -0.414558964497861 0 -0.44064580868350911 -0.39542861624611658 0 -0.43040194378266172 -0.3881600185019185 0 -0.42355654769347711 -0.414558964497861 0 -0.43040194378266172 -0.3881600185019185 0 -0.41056920252370888 -0.3963363404412637 0 -0.43040194378266172 -0.3881600185019185 0 -0.4079689369259607 -0.37224253963894771 0 -0.43040194378266172 -0.3881600185019185 0 -0.41056920252370888 -0.3963363404412637 0 -0.4079689369259607 -0.37224253963894771 0 -0.41056920252370888 -0.3963363404412637 0 -0.39195929229331972 -0.37982250283040359 0 -0.4079689369259607 -0.37224253963894771 0 -0.41056920252370888 -0.3963363404412637 0 -0.39195929229331972 -0.37982250283040359 0 -0.39357845321732049 -0.39746174547711199 0 -0.41056920252370888 -0.3963363404412637 0 -0.39357845321732049 -0.39746174547711199 0 -0.40050668374064252 -0.41734442193795029 0 -0.39357845321732049 -0.39746174547711199 0 -0.38114412328536468 -0.40833987260765031 0 -0.36544727141479139 -0.39026932065168712 0 -0.39195929229331972 -0.37982250283040359 0 -0.37549160074202448 -0.3732971907138336 0 -0.36544727141479139 -0.39026932065168712 0 -0.39195929229331972 -0.37982250283040359 0 -0.39357845321732049 -0.39746174547711199 0 -0.36544727141479139 -0.39026932065168712 0 -0.40050668374064252 -0.41734442193795029 0 -0.3944977858259317 -0.43926335073686201 0 -0.41671115160429401 -0.44095791049380378 0 -0.40050668374064252 -0.41734442193795029 0 -0.38028594703985957 -0.42392304976487449 0 -0.3944977858259317 -0.43926335073686201 0 -0.39357845321732049 -0.39746174547711199 0 -0.40050668374064252 -0.41734442193795029 0 -0.38114412328536468 -0.40833987260765031 0 -0.40050668374064252 -0.41734442193795029 0 -0.38114412328536468 -0.40833987260765031 0 -0.38028594703985957 -0.42392304976487449 0 -0.38114412328536468 -0.40833987260765031 0 -0.38028594703985957 -0.42392304976487449 0 -0.36590226101420908 -0.41270082520662749 0 -0.38028594703985957 -0.42392304976487449 0 -0.3944977858259317 -0.43926335073686201 0 -0.3723601590800425 -0.44005613486137668 0 -0.3944977858259317 -0.43926335073686201 0 -0.38265619596279349 -0.45813348326120767 0 -0.3723601590800425 -0.44005613486137668 0 -0.40093272222703252 -0.45142790024540502 0 -0.3944977858
[...]
<PointData Scalars="" Vectors="displacement," Tensors="">
<DataArray type="Float64" Name="displacement" NumberOfComponents="3" format="ascii">
0.034997293681645225 1.1175316215301041e-06 0 0.033982583604961598 0.00016605160427954371 0 0.034999026677987564 -1.9575567482481882e-08 0 0.034997293681645225 1.1175316215301041e-06 0 0.033982583604961598 0.00016605160427954371 0 0.030598032923360299 -2.0039420414042854e-06 0 0.033982583604961598 0.00016605160427954371 0 0.033405386160258552 -1.7578434576335519e-05 0 0.030598032923360299 -2.0039420414042854e-06 0 0.033982583604961598 0.00016605160427954371 0 0.033405386160258552 -1.7578434576335519e-05 0 0.034142634392376463 2.8842788311624927e-05 0 0.033405386160258552 -1.7578434576335519e-05 0 0.033747466117761554 -0.00055443028508699683 0 0.034142634392376463 2.8842788311624927e-05 0 0.033405386160258552 -1.7578434576335519e-05 0 0.033747466117761554 -0.00055443028508699683 0 0.030598032923360299 -2.0039420414042854e-06 0 0.031891306884085778 -0.00013708901470236044 0 0.030592258588799652 -9.5265124026743556e-08 0 0.031326000541208196 0.00056853190526833452 0 0.031637111618212796 -0.00012227691179336777 0 0.030744709569002097 -0.00011848292576461744 0 0.033747466117761554 -0.00055443028508699683 0 0.034168406774460126 0.00023088651871348156 0 0.034142634392376463 2.8842788311624927e-05 0 0.029988211387749455 0.00012277889150445729 0 0.031326000541208196 0.00056853190526833452 0 0.030744709569002097 -0.00011848292576461744 0 0.031891306884085778 -0.00013708901470236044 0 0.032690017000169332 0.00034301557696228395 0 0.034142634392376463 2.8842788311624927e-05 0 0.0344615760700916 -0.00010648478779477906 0 0.033981177002760619 2.5775956317706512e-05 0 0.034168406774460126 0.00023088651871348156 0 0.034142634392376463 2.8842788311624927e-05 0 0.033981177002760619 2.5775956317706512e-05 0 0.0344615760700916 -0.00010648478779477906 0 0.033552174822185983 -0.00044258228974705037 0 0.033981177002760619 2.5775956317706512e-05 0 0.034457420780199449 -0.00013820652406162237 0 0.034165908929737338 -0.0002507818213771739 0 0.033982583604961598 0.00016605160427954371 0 0.0344615760700916 -0.00010648478779477906 0 0.034999026677987564 -1.9575567482481882e-08 0 0.033982583604961598 0.00016605160427954371 0 0.034142634392376463 2.8842788311624927e-05 0 0.0344615760700916 -0.00010648478779477906 0 0.0344615760700916 -0.00010648478779477906 0 0.034999026677987564 -1.9575567482481882e-08 0 0.034908256468094166 -7.1919870538282235e-05 0 0.034999026677987564 -1.9575567482481882e-08 0 0.034993413225119528 -2.9537588835271857e-06 0 0.034908256468094166 -7.1919870538282235e-05 0 0.034999026677987564 -1.9575567482481882e-08 0 0.034993413225119528 -2.9537588835271857e-06 0 0.03500040882656591 -6.2868060699787772e-09 0 0.034993413225119528 -2.9537588835271857e-06 0 0.035018224697745445 -6.2398625971496515e-05 0 0.034908256468094166 -7.1919870538282235e-05 0 0.035207209739803472 -0.00012338903887963693 0 0.034149623264616562 -8.5867142995539424e-06 0 0.034149623264616562 -8.5867142995539424e-06 0 0.034165908929737338 -0.0002507818213771739 0 0.032706769728053926 -0.00039434874402153832 0 0.033552174822185983 -0.00044258228974705037 0 0.032763874870330341 0.00038828182847072998 0 0.034993413225119528 -2.9537588835271857e-06 0 0.034992188835331506 -3.5701044783622627e-06 0 0.03500040882656591 -6.2868060699787772e-09 0 0.035000026049272305 1.5767451668270462e-08 0 0.035005527832987229 1.1866762774859876e-05 0 0.034999550032508084 1.2515620213730035e-05 0 0.034992188835331506 -3.5701044783622627e-06 0 0.03500040882656591 -6.2868060699787772e-09 0 0.034997118573012881 -2.5080346698350443e-06 0 0.034882811458294263 0.00010614765876311234 0 0.03504014339133716 2.1405181920969343e-05 0 0.034999977366226516 -3.3419372670007041e-08 0 0.034882811458294263 0.00010614765876311234 0 0.034104792363739561 0.00011664107582448354 0 0.034274326999578622 0.00014262854526241747 0 0.034215529608783851 5.6776273716763928e-07 0 0.034149623264616562 -8.5867142995539424e-06 0 0.034882811458294263 0.00010614765876311234 0 0.034149623264616562 -8.5867142995539424e-06 0 0.0335348866614762 0.00014542822791893605 0 0.035034192366078541 2.2807228695645046e-05 0 0.035022703202593077 5.2847176678402476e-05 0 0.035046733947168472 6.8903407169855464e-05 0 0.034882811458294263 0.00010614765876311234 0 0.0335348866614762 0.00014542822791893605 0 0.035034192366078541 2.2807228695645046e-05 0 0.035022703202593077 5.2847176678402476e-05 0 0.034999550032508084 1.2515620213730035e-05 0 0.032846144294420461 0.00035042455453298556 0 0.03284594018655547 0.00023841995264991053 0 0.032913285517794509 0.00024666505079001425 0 0.035022703202593077 5.2847176678402476e-05 0 0.035046733947168472 6.8903407169855464e-05 0 0.035018552464699634 0.00011041877492415714 0 0.0335348866614762 0.00014542822791893605 0 0.034137871543075383 3.5630511091098143e-05 0 0.032706769728053926 -0.00039434874402153832 0 0.03245468739538733 0.00013924586200751834 0 0.032763874870330341 0.00038828182847072998 0 0.03245468739538733 0.00013924586200751834 0 0.0327332452397451 0.00020903794777096395 0 0.032763874870330341 0.00038828182847072998 0 0.0335348866614762 0.00014542822791893605 0 0.032511238266719068 0.00017359604769524436 0 0.032846144294420461 0.00035042455453298556 0 0.0327332452397451 0.00020903794777096395 0 0.03284594018655547 0.00023841995264991053 0 0.0327332452397451 0.00020903794777096395 0 0.032830947714712941 0.0001658689380205308 0 0.03284594018655547 0.00023841995264991053 0 0.032876020199279925 0.00019680101231085619 0 0.032913285517794509 0.00024666505079001425 0 0.032966486898198054 0.00017940252238087475 0 0.03284594018655547 0.00023841995264991053 0 0.032876020199279925 0.00019680101231085619 0 0.032913285517794509 0.00024666505079001425 0 0.032830947714712941 0.0001658689380205308 0 0.032876020199279925 0.00019680101231085619 0 0.032843274754531367 0.00014665516639608122 0 0.032830947714712941 0.0001658689380205308 0 0.03284594018655547 0.00023841995264991053 0 0.032876020199279925 0.00019680101231085619 0 0.033552174822185983 -0.00044258228974705037 0 0.033981177002760619 2.5775956317706512e-05 0 0.032763874870330341 0.00038828182847072998 0 0.032690017000169332 0.00034301557696228395 0 0.032731584327009733 0.00039508642682457509 0 0.034168406774460126 0.00023088651871348156 0 0.033981177002760619 2.5775956317706512e-05 0 0.032763874870330341 0.00038828182847072998 0 0.0327332452397451 0.00020903794777096395 0 0.032763874870330341 0.00038828182847072998 0 0.032278957656781168 0.00010776760030606885 0 0.031326000541208196 0.00056853190526833452 0 0.032763874870330341 0.00038828182847072998 0 0.032278957656781168 0.00010776760030606885 0 0.031326000541208196 0.00056853190526833452 0 0.032278957656781168 0.00010776760030606885 0 0.031637111618212796 -0.00012227691179336777 0 0.031637111618212796 -0.00012227691179336777 0 0.032391778587892057 -0.0004087050388013909 0 0.031328788207958667 -0.00077644285826574734 0 0.032278957656781168 0.00010776760030606885 0 0.031637111618212796 -0.00012227691179336777 0 0.032391778587892057 -0.0004087050388013909 0 0.0327332452397451 0.00020903794777096395 0 0.032278957656781168 0.00010776760030606885 0 0.032391778587892057 -0.0004087050388013909 0 0.022634107180269578 0.0020694950652310464 0 0.022884595539390651 0.0018940432248162377 0 0.022542136753410269 0.0017372824739777233 0 0.027323485471743868 0.00073225937887782904 0 0.026719516370919499 0.00065049695217849238 0 0.022634107180269578 0.0020694950652310464 0 0.022542136753410269 0.0017372824739777233 0 0.022244747080113231 0.0019317340300988241 0 0.032876020199279925 0.00019680101231085619 0 0.032843274754531367 0.00014665516639608122 0 0.032966486898198054 0.00017940252238087475 0 0.028880546538011313 0.0015732899002599177 0 0.033207555975277483 0.00077698724145101384 0 0.032830947714712941 0.0001658689380205308 0 0.032391778587892057 -0.0004087050388013909 0 0.032997391536652328 -0.00010056102156111417 0 0.027323485471743868 0.00073225937887782904 0 0.028880546538011313 0.0015732899002599177 0 0.0327332452397451 0.00020903794777096395 0 0.032830947714712941 0.0001658689380205308 0 0.032391778587892057 -0.0004087050388013909 0 0.03283450585889762 -0.00080470425683572874 0 0.028880546538011313 0.0015732899002599177 0 0.022634107180269578 0.0020694950652310464 0 0.023049585940471098 0.0021780389465445803 0 0.022884595539390651 0.0018940432248162377 0 0.028880546538011313 0.0015732899002599177 0 0.026148322755739507 0.0016863962144212919 0 0.023049585940471098 0.0021780389465445803 0 0.022884595539390651 0.0018940432248162377 0 0.023245379662323359 0.0018643860150269623 0 0.022884595539390651 0.0018940432248162377 0 0.02310625063058875 0.0016378774306143886 0 0.023245379662323359 0.0018643860150269623 0 0.022884595539390651 0.0018940432248162377 0 0.02310625063058875 0.0016378774306143886 0 0.022830575244096426 0.0016572990529676054 0 0.022884595539390651 0.0018940432248162377 0 0.022830575244096426 0.0016572990529676054 0 0.022542136753410269 0.0017372824739777233 0 0.022830575244096426 0.0016572990529676054 0 0.022625722947421111 0.0014866800757358423 0 0.022892367906835034 0.0013003343957441295 0 0.02310625063058875 0.0016378774306143886 0 0.023198007634884322 0.0014035143173057305 0 0.022892367906835034 0.0013003343957441295 0 0.02310625063058875 0.0016378774306143886 0 0.022830575244096426 0.0016572990529676054 0 0.022892367906835034 0.0013003343957441295 0 0.022542136753410269 0.0017372824739777233 0 0.022225164988445116 0.0016336146719253685 0 0.022244747080113231 0.0019317340300988241 0 0.022542136753410269 0.0017372824739777233 0 0.022388503607477576 0.001454650771639155 0 0.022225164988445116 0.0016336146719253685 0 0.022830575244096426 0.0016572990529676054 0 0.022542136753410269 0.0017372824739777233 0 0.022625722947421111 0.0014866800757358423 0 0.022542136753410269 0.0017372824739777233 0 0.022625722947421111 0.0014866800757358423 0 0.022388503607477576 0.001454650771639155 0 0.022625722947421111 0.0014866800757358423 0 0.022388503607477576 0.001454650771639155 0 0.022498150332995674 0.0012773162379169961 0 0.022388503607477576 0.001454650771639155 0 0.022225164988445116 0.0016336146719253685 0 0.022158722068060653 0.0013215790714071105 0 0.022225164988445116 0.0016336146719253685 0 0.021968541792162715 0.0014674244895914311 0 0.022158722068060653 0.0013215790714071105 0 0.022090853732475615 0.0017097333397054638 0 0.022225164988445116 0.0016336146719253685 0 0.021968541792162715 0.0014674244895914311 0 0.022090853732475615 0.0017097333397054638 0 0.022225164988445116 0.0016336146719253685 0 0.022244747080113231 0.0019317340300988241 0 0.022026317583304506 0.00088517828119302018 0 0.026587215164535941 -0.00010544879420360587 0 0.023206124357370392 5.0671739514288642e-05 0 0.024632250370155317 -0.00067774071811510246 0 0.024205541817047756 -0.0019125453923039112 0 0.022090853732475615 0.0017097333397054638 0 0.021968541792162715 0.0014674244895914311 0 0.021929505080809798 0.0018071120518348587 0 0.023206124357370392 5.0671739514288642e-05 0 0.024386155754793661 3.8039268550226914e-06 0 0.024632250370155317 -0.00067774071811510246 0 0.024386155754793661 3.8039268550226914e-06 0 0.02581314173487265 -0.00010421377719558647 0 0.024770665768621195 0.00017997192979131457 0 0.024386155754793661 3.8039268550226914e-06 0 0.02581314173487265 -0.00010421377719558647 0 0.024632250370155317 -0.00067774071811510246 0 0.026249936057658591 1.3068580343186665e-06 0 0.02581314173487265 -0.00010421377719558647 0 0.028094726925180277 -3.824341774787479e-06 0 0.026249936057658591 1.3068580343186665e-06 0 0.02581314173487265 -0.00010421377719558647 0 0.024770665768621195 0.00017997192979131457 0 0.02581314173487265 -0.00010421377719558647 0 0.028094726925180277 -3.824341774787479e-06 0 0.02568813475619805 -0.0014704194069535114 0 0.028097889443217637 -4.4149988680703826e-07 0 0.027583128278324143 -0.00067808969459672009 0 0.02568813475619805 -0.0014704194069535114 0 0.024632250370155317 -0.00067774071811510246 0 0.024205541817047756 -0.0019125453923039112 0 0.02581314173487265 -0.00010421377719558647 0 0.02568813475619805 -0.0014704194069535114 0 0.024632250370155317 -0.00067774071811510246 0 0.027583128278324143 -0.00067808969459672009 0 0.026587215164535941 -0.00010544879420360587 0 0.030226064366201479 -0.00055167861736473919 0 0.026587215164535941 -0.00010544879420360587 0 0.029767175968919098 4.4276425474766436e-05 0 0.029868847477930994 -5.3691205234906684e-05 0 0.029767909289571348 -5.004465719546228e-05 0 0.029517898086324285 -0.00011018844991443673 0 0.029767175968919098 4.4276425474766436e-05 0 0.029767909289571348 -5.004465719546228e-05 0 0.029517898086324285 -0.00011018844991443673 0 0.029767175968919098 4.4276425474766436e-05 0 0.029345362168888726 7.0313021199678519e-07 0 0.02810025575534909 -1.3307438996085484e-06 0 0.029517898086324285 -0.00011018844991443673 0 0.029345362168888726 7.0313021199678519e-07 0 0.029767175968919098 4.4276425474766436e-05 0 0.029345362168888726 7.0313021199678519e-07 0 0.030588853512234948 -2.2814608877242291e-07 0 0.029767175968919098 4.4276425474766436e-05 0 0.030588853512234948 -2.2814608877242291e-07 0 0.029868847477930994 -5.3691205234906684e-05 0 0.029988211387749455 0.00012277889150445729 0 0.030588853512234948 -2.2814608877242291e-07 0 0.029868847477930994 -5.3691205234906684e-05 0 0.029868847477930994 -5.3691205234906684e-05 0 0.030522302197986718 -0.00049620479314020551 0 0.030744709569002097 -0.00011848292576461744 0 0.029988211387749455 0.00012277889150445729 0 0.029868847477930994 -5.3691205234906684e-05 0 0.030744709569002097 -0.00011848292576461744 0 0.031637111618212796 -0.00012227691179336777 0 0.030744709569002097 -0.00011848292576461744 0 0.031328788207958667 -0.00077644285826574734 0 0.030522302197986718 -0.00049620479314020551 0 0.030744709569002097 -0.00011848292576461744 0 0.031328788207958667 -0.00077644285826574734 0 0.030522302197986718 -0.00049620479314020551 0 0.031328788207958667 -0.00077644285826574734 0 0.030106874678358181 -0.0010462748774208853 0 0.026719516370919499 0.00065049695217849238 0 0.026587215164535941 -0.00010544879420360587 0 0.022090853732475615 0.0017097333397054638 0 0.022244747080113231 0.0019317340300988241 0 0.021929505080809798 0.0018071120518348587 0 0.029868847477930994 -5.3691205234906684e-05 0 0.030522302197986718 -0.00049620479314020551 0 0.030106874678358181 -0.0010462748774208853 0 0.034750683165918304 -0.00010398211493657285 0 0.034780192648763343 -0.00027577033154303348 0 0.034873316496038788 -0.00011923443114166061 0 0.034606771564940887 -0.00024656139980575915 0 0.034750683165918304 -0.00010398211493657285 0 0.034780192648763343 -0.00027577033154303348 0 0.034921433728444036 -9.9388570410142532e-05 0 0.034918980092987634 -2.698290642315793e-05 0 0.034977775375463663 -2.5371465847788314e-05 0 0.034747213231518789 -0.00018131987822659986 0 0.03486590888414897 -6.5464815928721487e-05 0 0.034918980092987634 -2.698290642315793e-05 0 0.034973278579052573 5.1639546527060963e-06 0 0.034914621815954935 1.5734033049055362e-06 0 0.034918980092987634 -2.698290642315793e-05 0 0.034977775375463663 -2.5371465847788314e-05 0 0.034973278579052573 5.1639546527060963e-06 0 0.03486590888414897 -6.5464815928721487e-05 0 0.034942015077508562 -8.1094432053262396e-06 0 0.034977775375463663 -2.5371465847788314e-05 0 0.034973278579052573 5.1639546527060963e-06 0 0.034998321553549226 -1.4438269427166364e-07 0 0.034990646140873619 4.4268792869480606e-06 0 0.034973278579052573 5.1639546527060963e-06 0 0.034998321553549226 -1.4438269427166364e-07 0 0.034990646140873619 4.4268792869480606e-06 0 0.034999991981445246 -5.7073376533061039e-09 0 0.034999952545617469 1.9609700409229025e-08 0 0.034990646140873619 4.4268792869480606e-06 0 0.034999991981445246 -5.7073376533061039e-09 0 0.034997081090123471 2.2148137037820268e-06 0 0.034990646140873619 4.4268792869480606e-06 0 0.034999952545617469 1.9609700409229025e-08 0 0.034973278579052573 5.1639546527060963e-06 0 0.034999952545617469 1.9609700409229025e-08 0 0.034973278579052573 5.1639546527060963e-06 0 0.034962608293454857 8.697079871432803e-06 0 0.034973278579052573 5.1639546527060963e-06 0 0.034914621815954935 1.5734033049055362e-06 0 0.034962608293454857 8.697079871432803e-06 0 0.034914621815954935 1.5734033049055362e-06 0 0.034962608293454857 8.697079871432803e-06 0 0.03492421208187392 1.2169306255706774e-05 0 0.034999952545617469 1.9609700409229025e-08 0 0.034962608293454857 8.697079871432803e-06 0 0.03499989502334399 1.5114818248145321e-08 0 0.034962608293454857 8.697079871432803e-06 0 0.03499989502334399 1.5114818248145321e-08 0 0.03492421208187392 1.2169306255706774e-05 0 0.03499989502334399 1.5114818248145321e-08 0 0.03492421208187392 1.2169306255706774e-05 0 0.034999891117428475 -3.8773424797141157e-09 0 0.034914621815954935 1.5734033049055362e-06 0 0.03492421208187392 1.2169306255706774e-05 0 0.034819173233601529 -1.8697914765174078e-05 0 0.03492421208187392 1.2169306255706774e-05 0 0.034819173233601529 -1.8697914765174078e-05 0 0.034894677409699128 2.0066507455773451e-05 0 0.034918980092987634 -2.698290642315793e-05 0 0.034914621815954935 1.5734033049055362e-06 0 0.034819173233601529 -1.8697914765174078e-05 0 0.034918980092987634 -2.698290642315793e-05 0 0.034819173233601529 -1.8697914765174078e-05 0 0.034777370687778308 -8.4090988651232756e-05 0 0.034921433728444036 -9.9388570410142532e-05 0 0.034918980092987634 -2.698290642315793e-05 0 0.034777370687778308 -8.4090988651232756e-05 0 0.034819173233601529 -1.8697914765174078e-05 0 0.034777370687778308 -8.4090988651232756e-05 0 0.034666892083794816 -9.7351773766078347e-05 0 0.034666892083794816 -9.7351773766078347e-05 0 0.034712010134784421 -5.0749475197520139e-05 0 0.034592753836386103 -0.00015222749544519255 0 0.034819173233601529 -1.8697914765174078e-05 0 0.034666892083794816 -9.7351773766078347e-05 0 0.034712010134784421 -5.0749475197520139e-05 0 0.034788760748976903 2.4637399500245834e-05 0 0.034734941298895344 2.0024429853471956e-05 0 0.034858420430714063 0.00011117465538353401 0 0.034898566939301046 0.00015126521497359286 0 0.034920881915195906 7.7849218046260524e-05 0 0.034898566939301046 0.00015126521497359286 0 0.034920881915195906 7.7849218046260524e-05 0 0.034941701240237835 0.00011565417623856868 0 0.034858420430714063 0.00011117465538353401 0 0.034898566939301046 0.00015126521497359286 0 0.034831358037578579 0.00020885729653855804 0 0.034819173233601529 -1.8697914765174078e-05 0 0.034712010134784421 -5.0749475197520139e-05 0 0.034894677409699128 2.0066507455773451e-05 0 0.034858420430714063 0.00011117465538353401 0 0.034920881915195906 7.7849218046260524e-05 0 0.034894677409699128 2.0066507455773451e-05 0 0.034788760748976903 2.4637399500245834e-05 0 0.03487125393390602 1.3298542123826874e-05 0 0.03492421208187392 1.2169306255706774e-05 0 0.034894677409699128 2.0066507455773451e-05 0 0.034999891117428475 -3.8773424797141157e-09 0 0.034894677409699128 2.0066507455773451e-05 0 0.034999891117428475 -3.8773424797141157e-09 0 0.034960849898669433 1.8253322949254954e-05 0 0.034999891117428475 -3.8773424797141157e-09 0 0.034960849898669433 1.8253322949254954e-05 0 0.034999978205828654 4.8328753113934899e-09 0 0.034920881915195906 7.7849218046260524e-05 0 0.034960849898669433 1.8253322949254954e-05 0 0.034961929944776399 6.5926601565552463e-05 0 0.034920881915195906 7.7849218046260524e-05 0 0.034894677409699128 2.0066507455773451e-05 0 0.034960849898669433 1.8253322949254954e-05 0 0.034960849898669433 1.8253322949254954e-05 0 0.034982460090179031 2.5740855106919275e-05 0 0.034961929944776399 6.5926601565552463e-05 0 0.034982460090179031 2.5740855106919275e-05 0 0.034995201463869363 6.200600943541789e-05 0 0.034961929944776399 6.5926601565552463e-05 0 0.034982460090179031 2.5740855106919275e-05 0 0.034999978205828654 4.8328753113934899e-09 0 0.034999550032508084 1.2515620213730035e