<?xml version="1.0"?>
<VTKFile type="UnstructuredGrid" version="0.1" byte_order="LittleEndian">
<UnstructuredGrid>
<Piece NumberOfPoints="30578" NumberOfCells="10723">
<Points>
<DataArray type="Float64" NumberOfComponents="3" format="ascii">
-0.5 -0.5 0 -0.47439485679867832 -0.48072581506667478 0 -0.5 -0.44765434486020428 0 -0.5 -0.5 0 -0.47439485679867832 -0.48072581506667478 0 -0.43702443379937372 -0.49999999999999922 0 -0.47439485679867832 -0.48072581506667478 0 -0.45530669598391149 -0.47718009944797551 0 -0.43702443379937372 -0.49999999999999922 0 -0.47439485679867832 -0.48072581506667478 0 -0.45530669598391149 -0.47718009944797551 0 -0.4597353119515426 -0.45943449384344293 0 -0.45530669598391149 -0.47718009944797551 0 -0.44381084376742141 -0.47114793899167112 0 -0.4597353119515426 -0.45943449384344293 0 -0.45530669598391149 -0.47718009944797551 0 -0.44381084376742141 -0.47114793899167112 0 -0.43702443379937372 -0.49999999999999922 0 -0.44381084376742141 -0.47114793899167112 0 -0.43702443379937372 -0.49999999999999922 0 -0.45059725373546922 -0.44229587798334291 0 -0.4339166039271336 -0.43498117536117131 0 -0.43309128002320102 -0.45351235807576151 0 -0.44381084376742141 -0.47114793899167112 0 -0.45059725373546922 -0.44229587798334291 0 -0.4597353119515426 -0.45943449384344293 0 -0.44381084376742141 -0.47114793899167112 0 -0.45059725373546922 -0.44229587798334291 0 -0.43309128002320102 -0.45351235807576151 0 -0.44381084376742141 -0.47114793899167112 0 -0.45059725373546922 -0.44229587798334291 0 -0.4597353119515426 -0.45943449384344293 0 -0.47505511338101108 -0.44868394208069429 0 -0.46517432262153441 -0.43649963461163338 0 -0.45059725373546922 -0.44229587798334291 0 -0.4597353119515426 -0.45943449384344293 0 -0.46517432262153441 -0.43649963461163338 0 -0.47505511338101108 -0.44868394208069429 0 -0.47820614292347569 -0.42776699273468149 0 -0.46517432262153441 -0.43649963461163338 0 -0.47505511338101108 -0.44868394208069429 0 -0.47820614292347569 -0.42776699273468149 0 -0.47439485679867832 -0.48072581506667478 0 -0.47505511338101108 -0.44868394208069429 0 -0.5 -0.44765434486020428 0 -0.47439485679867832 -0.48072581506667478 0 -0.4597353119515426 -0.45943449384344293 0 -0.47505511338101108 -0.44868394208069429 0 -0.47505511338101108 -0.44868394208069429 0 -0.5 -0.44765434486020428 0 -0.47820614292347569 -0.42776699273468149 0 -0.5 -0.44765434486020428 0 -0.49656450065014057 -0.42151023988558672 0 -0.47820614292347569 -0.42776699273468149 0 -0.5 -0.44765434486020428 0 -0.49656450065014057 -0.42151023988558672 0 -0.50000000000000089 -0.37904661106745707 0 -0.49656450065014057 -0.42151023988558672 0 -0.48135717246594062 -0.40685004338866881 0 -0.47820614292347569 -0.42776699273468149 0 -0.49656450065014057 -0.42151023988558672 0 -0.48135717246594062 -0.40685004338866881 0 -0.48135717246594062 -0.40685004338866881 0 -0.47820614292347569 -0.42776699273468149 0 -0.48135717246594062 -0.40685004338866881 0 -0.47820614292347569 -0.42776699273468149 0 -0.45738366370351707 -0.41344381697501481 0 -0.49656450065014057 -0.42151023988558672 0 -0.48135717246594062 -0.40685004338866881 0 -0.50000000000000089 -0.37904661106745707 0 -0.50000000000000089 -0.37904661106745707 0 -0.48466894952205442 -0.38486603086372417 0 -0.48717439863114548 -0.36823452950912272 0 -0.48135717246594062 -0.40685004338866881 0 -0.50000000000000089 -0.37904661106745707 0 -0.48466894952205442 -0.38486603086372417 0 -0.48466894952205442 -0.38486603086372417 0 -0.48717439863114548 -0.36823452950912272 0 -0.50000000000000089 -0.37904661106745707 0 -0.48466894952205442 -0.38486603086372417 0 -0.48135717246594062 -0.40685004338866881 0 -0.48466894952205442 -0.38486603086372417 0 -0.46593083509403682 -0.39197871725165279 0 -0.48135717246594062 -0.40685004338866881 0 -0.48466894952205442 -0.38486603086372417 0 -0.48135717246594062 -0.40685004338866881 0 -0.46593083509403682 -0.39197871725165279 0 -0.48466894952205442 -0.38486603086372417 0 -0.47195833844942919 -0.37959069520904498 0 -0.46593083509403682 -0.39197871725165279 0 -0.48466894952205442 -0.38486603086372417 0 -0.46593083509403682 -0.39197871725165279 0 -0.48466894952205442 -0.38486603086372417 0 -0.47195833844942919 -0.37959069520904498 0 -0.48717439863114548 -0.36823452950912272 0 -0.46593083509403682 -0.39197871725165279 0 -0.44890944387521442 -0.39029302340116001 0 -0.45132291774153199 -0.37789636588759368 0 -0.47195833844942919 -0.37959069520904498 0 -0.46593083509403682 -0.39197871725165279 0 -0.45132291774153199 -0.37789636588759368 0 -0.46593083509403682 -0.39197871725165279 0 -0.45132291774153199 -0.37789636588759368 0 -0.48135717246594062 -0.40685004338866881 0 -0.46593083509403682 -0.39197871725165279 0 -0.45738366370351707 -0.41344381697501481 0 -0.46593083509403682 -0.39197871725165279 0 -0.44275815558040038 -0.40077469311046232 0 -0.45738366370351707 -0.41344381697501481 0 -0.46593083509403682 -0.39197871725165279 0 -0.44275815558040038 -0.40077469311046232 0 -0.46593083509403682 -0.39197871725165279 0 -0.44275815558040038 -0.40077469311046232 0 -0.44890944387521442 -0.39029302340116001 0 -0.44275815558040038 -0.40077469311046232 0 -0.44064580868350911 -0.39542861624611658 0 -0.44890944387521442 -0.39029302340116001 0 -0.44225344557501872 -0.38376649822575309 0 -0.45132291774153199 -0.37789636588759368 0 -0.43671500038902772 -0.36381401452353412 0 -0.44890944387521442 -0.39029302340116001 0 -0.44225344557501872 -0.38376649822575309 0 -0.45132291774153199 -0.37789636588759368 0 -0.44064580868350911 -0.39542861624611658 0 -0.44225344557501872 -0.38376649822575309 0 -0.43040194378266172 -0.3881600185019185 0 -0.44064580868350911 -0.39542861624611658 0 -0.44890944387521442 -0.39029302340116001 0 -0.44225344557501872 -0.38376649822575309 0 -0.47820614292347569 -0.42776699273468149 0 -0.46517432262153441 -0.43649963461163338 0 -0.45738366370351707 -0.41344381697501481 0 -0.45059725373546922 -0.44229587798334291 0 -0.45738366370351707 -0.41344381697501481 0 -0.45059725373546922 -0.44229587798334291 0 -0.46517432262153441 -0.43649963461163338 0 -0.45738366370351707 -0.41344381697501481 0 -0.44275815558040038 -0.40077469311046232 0 -0.45738366370351707 -0.41344381697501481 0 -0.44164244492799948 -0.42121090558557039 0 -0.45059725373546922 -0.44229587798334291 0 -0.45738366370351707 -0.41344381697501481 0 -0.44164244492799948 -0.42121090558557039 0 -0.45059725373546922 -0.44229587798334291 0 -0.44164244492799948 -0.42121090558557039 0 -0.4339166039271336 -0.43498117536117131 0 -0.4339166039271336 -0.43498117536117131 0 -0.42355654769347711 -0.414558964497861 0 -0.41671115160429401 -0.44095791049380378 0 -0.44164244492799948 -0.42121090558557039 0 -0.4339166039271336 -0.43498117536117131 0 -0.42355654769347711 -0.414558964497861 0 -0.44275815558040038 -0.40077469311046232 0 -0.44164244492799948 -0.42121090558557039 0 -0.42355654769347711 -0.414558964497861 0 -0.42355654769347711 -0.414558964497861 0 -0.41056920252370888 -0.3963363404412637 0 -0.40050668374064252 -0.41734442193795029 0 -0.42355654769347711 -0.414558964497861 0 -0.41671115160429401 -0.44095791049380378 0 -0.42355654769347711 -0.414558964497861 0 -0.40050668374064252 -0.41734442193795029 0 -0.41671115160429401 -0.44095791049380378 0 -0.44225344557501872 -0.38376649822575309 0 -0.43040194378266172 -0.3881600185019185 0 -0.43671500038902772 -0.36381401452353412 0 -0.43040194378266172 -0.3881600185019185 0 -0.43671500038902772 -0.36381401452353412 0 -0.44064580868350911 -0.39542861624611658 0 -0.42355654769347711 -0.414558964497861 0 -0.43040194378266172 -0.3881600185019185 0 -0.42355654769347711 -0.414558964497861 0 -0.43040194378266172 -0.3881600185019185 0 -0.44275815558040038 -0.40077469311046232 0 -0.44064580868350911 -0.39542861624611658 0 -0.42355654769347711 -0.414558964497861 0 -0.44064580868350911 -0.39542861624611658 0 -0.43040194378266172 -0.3881600185019185 0 -0.42355654769347711 -0.414558964497861 0 -0.43040194378266172 -0.3881600185019185 0 -0.41056920252370888 -0.3963363404412637 0 -0.43040194378266172 -0.3881600185019185 0 -0.4079689369259607 -0.37224253963894771 0 -0.43040194378266172 -0.3881600185019185 0 -0.41056920252370888 -0.3963363404412637 0 -0.4079689369259607 -0.37224253963894771 0 -0.41056920252370888 -0.3963363404412637 0 -0.39195929229331972 -0.37982250283040359 0 -0.4079689369259607 -0.37224253963894771 0 -0.41056920252370888 -0.3963363404412637 0 -0.39195929229331972 -0.37982250283040359 0 -0.39357845321732049 -0.39746174547711199 0 -0.41056920252370888 -0.3963363404412637 0 -0.39357845321732049 -0.39746174547711199 0 -0.40050668374064252 -0.41734442193795029 0 -0.39357845321732049 -0.39746174547711199 0 -0.38114412328536468 -0.40833987260765031 0 -0.36544727141479139 -0.39026932065168712 0 -0.39195929229331972 -0.37982250283040359 0 -0.37549160074202448 -0.3732971907138336 0 -0.36544727141479139 -0.39026932065168712 0 -0.39195929229331972 -0.37982250283040359 0 -0.39357845321732049 -0.39746174547711199 0 -0.36544727141479139 -0.39026932065168712 0 -0.40050668374064252 -0.41734442193795029 0 -0.3944977858259317 -0.43926335073686201 0 -0.41671115160429401 -0.44095791049380378 0 -0.40050668374064252 -0.41734442193795029 0 -0.38028594703985957 -0.42392304976487449 0 -0.3944977858259317 -0.43926335073686201 0 -0.39357845321732049 -0.39746174547711199 0 -0.40050668374064252 -0.41734442193795029 0 -0.38114412328536468 -0.40833987260765031 0 -0.40050668374064252 -0.41734442193795029 0 -0.38114412328536468 -0.40833987260765031 0 -0.38028594703985957 -0.42392304976487449 0 -0.38114412328536468 -0.40833987260765031 0 -0.38028594703985957 -0.42392304976487449 0 -0.36590226101420908 -0.41270082520662749 0 -0.38028594703985957 -0.42392304976487449 0 -0.3944977858259317 -0.43926335073686201 0 -0.3723601590800425 -0.44005613486137668 0 -0.3944977858259317 -0.43926335073686201 0 -0.38265619596279349 -0.45813348326120767 0 -0.3723601590800425 -0.44005613486137668 0 -0.40093272222703252 -0.45142790024540502 0 -0.3944977858
[...]
<PointData Scalars="" Vectors="displacement," Tensors="">
<DataArray type="Float64" Name="displacement" NumberOfComponents="3" format="ascii">
-0.04499651996591663 -1.4375505991823874e-06 0 -0.043692293140789019 -0.00021400685665329098 0 -0.044998753911531894 2.2026377890042292e-08 0 -0.04499651996591663 -1.4375505991823874e-06 0 -0.043692293140789019 -0.00021400685665329098 0 -0.039340328121856685 2.5779602876226621e-06 0 -0.043692293140789019 -0.00021400685665329098 0 -0.042950182960582464 2.2860690451816697e-05 0 -0.039340328121856685 2.5779602876226621e-06 0 -0.043692293140789019 -0.00021400685665329098 0 -0.042950182960582464 2.2860690451816697e-05 0 -0.043899436280840351 -3.7062745018522025e-05 0 -0.042950182960582464 2.2860690451816697e-05 0 -0.043389994500551234 0.00071412761515868099 0 -0.043899436280840351 -3.7062745018522025e-05 0 -0.042950182960582464 2.2860690451816697e-05 0 -0.043389994500551234 0.00071412761515868099 0 -0.039340328121856685 2.5779602876226621e-06 0 -0.041007599084605287 0.00017544907617861739 0 -0.039332904920534574 1.2202372995621251e-07 0 -0.040297525158340106 -0.00073418481986305541 0 -0.040699750133055969 0.00015946878596340863 0 -0.039545330143342682 0.00015377793641252775 0 -0.043389994500551234 0.00071412761515868099 0 -0.043937731340200292 -0.00029283018296858787 0 -0.043899436280840351 -3.7062745018522025e-05 0 -0.038564360321129913 -0.00016125178185114516 0 -0.040297525158340106 -0.00073418481986305541 0 -0.039545330143342682 0.00015377793641252775 0 -0.041007599084605287 0.00017544907617861739 0 -0.042044187792714342 -0.00044080670489062511 0 -0.043899436280840351 -3.7062745018522025e-05 0 -0.044310294354925492 0.00013393592126268158 0 -0.043700095940451864 -3.5457502839587449e-05 0 -0.043937731340200292 -0.00029283018296858787 0 -0.043899436280840351 -3.7062745018522025e-05 0 -0.043700095940451864 -3.5457502839587449e-05 0 -0.044310294354925492 0.00013393592126268158 0 -0.043154830424784893 0.00055834140972946017 0 -0.043700095940451864 -3.5457502839587449e-05 0 -0.044305567815254493 0.00017403067772501382 0 -0.043936621042100402 0.00031628611403368152 0 -0.043692293140789019 -0.00021400685665329098 0 -0.044310294354925492 0.00013393592126268158 0 -0.044998753911531894 2.2026377890042292e-08 0 -0.043692293140789019 -0.00021400685665329098 0 -0.043899436280840351 -3.7062745018522025e-05 0 -0.044310294354925492 0.00013393592126268158 0 -0.044310294354925492 0.00013393592126268158 0 -0.044998753911531894 2.2026377890042292e-08 0 -0.044882204739653334 9.0860591181744882e-05 0 -0.044998753911531894 2.2026377890042292e-08 0 -0.044991497671272238 3.6888133541549313e-06 0 -0.044882204739653334 9.0860591181744882e-05 0 -0.044998753911531894 2.2026377890042292e-08 0 -0.044991497671272238 3.6888133541549313e-06 0 -0.045000522591914553 8.9830148510952871e-09 0 -0.044991497671272238 3.6888133541549313e-06 0 -0.045022373853612248 7.893971469571576e-05 0 -0.044882204739653334 9.0860591181744882e-05 0 -0.045263742191062731 0.00015751110585579759 0 -0.043917731954247738 8.3033435060735765e-06 0 -0.043917731954247738 8.3033435060735765e-06 0 -0.043936621042100402 0.00031628611403368152 0 -0.042080461529784549 0.00049460997908914734 0 -0.043154830424784893 0.00055834140972946017 0 -0.04215196308955136 -0.00050020872022362947 0 -0.044991497671272238 3.6888133541549313e-06 0 -0.044989982550890255 4.5370916325962064e-06 0 -0.045000522591914553 8.9830148510952871e-09 0 -0.045000029573003468 -1.8848011864606523e-08 0 -0.045006490973728185 -1.4661321279022862e-05 0 -0.044998241938145785 -1.4967207798264067e-05 0 -0.044989982550890255 4.5370916325962064e-06 0 -0.045000522591914553 8.9830148510952871e-09 0 -0.0449963123684263 3.2036324858631568e-06 0 -0.044850521153958822 -0.00013475963173896965 0 -0.04504989753520925 -2.634807474340356e-05 0 -0.04499997105694533 4.257668887639834e-08 0 -0.044850521153958822 -0.00013475963173896965 0 -0.043863088241974796 -0.00015116340494382929 0 -0.044076897144044162 -0.00018392959868163071 0 -0.044002717136740359 -4.826292877436051e-06 0 -0.043917731954247738 8.3033435060735765e-06 0 -0.044850521153958822 -0.00013475963173896965 0 -0.043917731954247738 8.3033435060735765e-06 0 -0.043140025998036687 -0.00019198764349333654 0 -0.045042796190957725 -2.8069551489304024e-05 0 -0.045027814040781967 -6.6987848346666164e-05 0 -0.045059507306251356 -8.8004485486223481e-05 0 -0.044850521153958822 -0.00013475963173896965 0 -0.043140025998036687 -0.00019198764349333654 0 -0.045042796190957725 -2.8069551489304024e-05 0 -0.045027814040781967 -6.6987848346666164e-05 0 -0.044998241938145785 -1.4967207798264067e-05 0 -0.042269766759899824 -0.0004670449566652756 0 -0.04227103354327106 -0.00030970888600161394 0 -0.042367753711819216 -0.00032233219133115924 0 -0.045027814040781967 -6.6987848346666164e-05 0 -0.045059507306251356 -8.8004485486223481e-05 0 -0.045022282413596883 -0.00014245596665902436 0 -0.043140025998036687 -0.00019198764349333654 0 -0.043912006117573288 -5.3408131751828368e-05 0 -0.042080461529784549 0.00049460997908914734 0 -0.041762950611281456 -0.00018406721829081337 0 -0.04215196308955136 -0.00050020872022362947 0 -0.041762950611281456 -0.00018406721829081337 0 -0.042118586602511499 -0.00026691136590657874 0 -0.04215196308955136 -0.00050020872022362947 0 -0.043140025998036687 -0.00019198764349333654 0 -0.041836880453455565 -0.00022530985144373519 0 -0.042269766759899824 -0.0004670449566652756 0 -0.042118586602511499 -0.00026691136590657874 0 -0.04227103354327106 -0.00030970888600161394 0 -0.042118586602511499 -0.00026691136590657874 0 -0.042247240823326621 -0.00021031860432185734 0 -0.04227103354327106 -0.00030970888600161394 0 -0.042315241016831803 -0.00025087065255305672 0 -0.042367753711819216 -0.00032233219133115924 0 -0.04244811057497215 -0.00022367552958834714 0 -0.04227103354327106 -0.00030970888600161394 0 -0.042315241016831803 -0.00025087065255305672 0 -0.042367753711819216 -0.00032233219133115924 0 -0.042247240823326621 -0.00021031860432185734 0 -0.042315241016831803 -0.00025087065255305672 0 -0.042269907341462402 -0.00017647537757261672 0 -0.042247240823326621 -0.00021031860432185734 0 -0.04227103354327106 -0.00030970888600161394 0 -0.042315241016831803 -0.00025087065255305672 0 -0.043154830424784893 0.00055834140972946017 0 -0.043700095940451864 -3.5457502839587449e-05 0 -0.04215196308955136 -0.00050020872022362947 0 -0.042044187792714342 -0.00044080670489062511 0 -0.04210961420906726 -0.00050895289869991788 0 -0.043937731340200292 -0.00029283018296858787 0 -0.043700095940451864 -3.5457502839587449e-05 0 -0.04215196308955136 -0.00050020872022362947 0 -0.042118586602511499 -0.00026691136590657874 0 -0.04215196308955136 -0.00050020872022362947 0 -0.041528266398241594 -0.00013747549869652198 0 -0.040297525158340106 -0.00073418481986305541 0 -0.04215196308955136 -0.00050020872022362947 0 -0.041528266398241594 -0.00013747549869652198 0 -0.040297525158340106 -0.00073418481986305541 0 -0.041528266398241594 -0.00013747549869652198 0 -0.040699750133055969 0.00015946878596340863 0 -0.040699750133055969 0.00015946878596340863 0 -0.041676676995881727 0.0005318162144125145 0 -0.040302195001862363 0.0010057405842943581 0 -0.041528266398241594 -0.00013747549869652198 0 -0.040699750133055969 0.00015946878596340863 0 -0.041676676995881727 0.0005318162144125145 0 -0.042118586602511499 -0.00026691136590657874 0 -0.041528266398241594 -0.00013747549869652198 0 -0.041676676995881727 0.0005318162144125145 0 -0.029461979842156781 -0.0027350472274742248 0 -0.029827589943366734 -0.0024785945621331983 0 -0.02933885639257747 -0.0022553653538533716 0 -0.035336609473429516 -0.00098556441076447796 0 -0.03451881836590226 -0.00085960051227497534 0 -0.029461979842156781 -0.0027350472274742248 0 -0.02933885639257747 -0.0022553653538533716 0 -0.028899852869054013 -0.002543824378829657 0 -0.042315241016831803 -0.00025087065255305672 0 -0.042269907341462402 -0.00017647537757261672 0 -0.04244811057497215 -0.00022367552958834714 0 -0.037313812785457409 -0.0019971696936444921 0 -0.042737718007713574 -0.00096938968531919969 0 -0.042247240823326621 -0.00021031860432185734 0 -0.041676676995881727 0.0005318162144125145 0 -0.042464400538226907 0.0001353072256061425 0 -0.035336609473429516 -0.00098556441076447796 0 -0.037313812785457409 -0.0019971696936444921 0 -0.042118586602511499 -0.00026691136590657874 0 -0.042247240823326621 -0.00021031860432185734 0 -0.041676676995881727 0.0005318162144125145 0 -0.04226110813546604 0.0010082294953872727 0 -0.037313812785457409 -0.0019971696936444921 0 -0.029461979842156781 -0.0027350472274742248 0 -0.03005725236245849 -0.0028897364966182031 0 -0.029827589943366734 -0.0024785945621331983 0 -0.037313812785457409 -0.0019971696936444921 0 -0.033936389980628666 -0.002168065181827856 0 -0.03005725236245849 -0.0028897364966182031 0 -0.029827589943366734 -0.0024785945621331983 0 -0.030349066607251146 -0.0024332490050161795 0 -0.029827589943366734 -0.0024785945621331983 0 -0.030153528814025679 -0.0021034442530863903 0 -0.030349066607251146 -0.0024332490050161795 0 -0.029827589943366734 -0.0024785945621331983 0 -0.030153528814025679 -0.0021034442530863903 0 -0.029757088823216701 -0.0021339150089609744 0 -0.029827589943366734 -0.0024785945621331983 0 -0.029757088823216701 -0.0021339150089609744 0 -0.02933885639257747 -0.0022553653538533716 0 -0.029757088823216701 -0.0021339150089609744 0 -0.029470396576791451 -0.0018857906891385262 0 -0.029855466980283751 -0.0015995254782910273 0 -0.030153528814025679 -0.0021034442530863903 0 -0.03028776154737034 -0.0017602861200506966 0 -0.029855466980283751 -0.0015995254782910273 0 -0.030153528814025679 -0.0021034442530863903 0 -0.029757088823216701 -0.0021339150089609744 0 -0.029855466980283751 -0.0015995254782910273 0 -0.02933885639257747 -0.0022553653538533716 0 -0.028879748515484364 -0.0021108289153009261 0 -0.028899852869054013 -0.002543824378829657 0 -0.02933885639257747 -0.0022553653538533716 0 -0.029128570459767064 -0.0018474651545200239 0 -0.028879748515484364 -0.0021108289153009261 0 -0.029757088823216701 -0.0021339150089609744 0 -0.02933885639257747 -0.0022553653538533716 0 -0.029470396576791451 -0.0018857906891385262 0 -0.02933885639257747 -0.0022553653538533716 0 -0.029470396576791451 -0.0018857906891385262 0 -0.029128570459767064 -0.0018474651545200239 0 -0.029470396576791451 -0.0018857906891385262 0 -0.029128570459767064 -0.0018474651545200239 0 -0.029301904324058312 -0.0015828000000488399 0 -0.029128570459767064 -0.0018474651545200239 0 -0.028879748515484364 -0.0021108289153009261 0 -0.028791915989984596 -0.0016636241920931279 0 -0.028879748515484364 -0.0021108289153009261 0 -0.028506784386044811 -0.0018727413848324409 0 -0.028791915989984596 -0.0016636241920931279 0 -0.028678680252080872 -0.0022235395741655407 0 -0.028879748515484364 -0.0021108289153009261 0 -0.028506784386044811 -0.0018727413848324409 0 -0.028678680252080872 -0.0022235395741655407 0 -0.028879748515484364 -0.0021108289153009261 0 -0.028899852869054013 -0.002543824378829657 0 -0.028542622889640188 -0.0011363772227782052 0 -0.034274383045981321 0.00010142177472825733 0 -0.029993687961790742 -7.3697264470339477e-05 0 -0.031748272523572631 0.00083766793735036611 0 -0.031215787310997799 0.0023787919491012541 0 -0.028678680252080872 -0.0022235395741655407 0 -0.028506784386044811 -0.0018727413848324409 0 -0.028434683590353713 -0.0023684942993953675 0 -0.029993687961790742 -7.3697264470339477e-05 0 -0.031437104717478785 -1.106803052323526e-05 0 -0.031748272523572631 0.00083766793735036611 0 -0.031437104717478785 -1.106803052323526e-05 0 -0.033221138787427065 0.00012251170031978115 0 -0.031879833036838112 -0.00022906538261483112 0 -0.031437104717478785 -1.106803052323526e-05 0 -0.033221138787427065 0.00012251170031978115 0 -0.031748272523572631 0.00083766793735036611 0 -0.033749945191072828 -1.6533659291023177e-06 0 -0.033221138787427065 0.00012251170031978115 0 -0.036121808669547291 4.7924335828703197e-06 0 -0.033749945191072828 -1.6533659291023177e-06 0 -0.033221138787427065 0.00012251170031978115 0 -0.031879833036838112 -0.00022906538261483112 0 -0.033221138787427065 0.00012251170031978115 0 -0.036121808669547291 4.7924335828703197e-06 0 -0.033071582993065334 0.0018379187839041161 0 -0.036125876507743564 5.5145549714002795e-07 0 -0.035484975750081228 0.00084948365831368096 0 -0.033071582993065334 0.0018379187839041161 0 -0.031748272523572631 0.00083766793735036611 0 -0.031215787310997799 0.0023787919491012541 0 -0.033221138787427065 0.00012251170031978115 0 -0.033071582993065334 0.0018379187839041161 0 -0.031748272523572631 0.00083766793735036611 0 -0.035484975750081228 0.00084948365831368096 0 -0.034274383045981321 0.00010142177472825733 0 -0.03886441421897531 0.00071691029920487297 0 -0.034274383045981321 0.00010142177472825733 0 -0.038275379947544014 -5.5884760526432753e-05 0 -0.03840938356129709 7.0242347677893646e-05 0 -0.038279416141046588 6.6449244239538859e-05 0 -0.037954862409684403 0.00014367730634328883 0 -0.038275379947544014 -5.5884760526432753e-05 0 -0.038279416141046588 6.6449244239538859e-05 0 -0.037954862409684403 0.00014367730634328883 0 -0.038275379947544014 -5.5884760526432753e-05 0 -0.037729754070419681 -9.0096164110653505e-07 0 -0.036128901007701525 1.7142946298962576e-06 0 -0.037954862409684403 0.00014367730634328883 0 -0.037729754070419681 -9.0096164110653505e-07 0 -0.038275379947544014 -5.5884760526432753e-05 0 -0.037729754070419681 -9.0096164110653505e-07 0 -0.039328525222370472 2.8668459687976094e-07 0 -0.038275379947544014 -5.5884760526432753e-05 0 -0.039328525222370472 2.8668459687976094e-07 0 -0.03840938356129709 7.0242347677893646e-05 0 -0.038564360321129913 -0.00016125178185114516 0 -0.039328525222370472 2.8668459687976094e-07 0 -0.03840938356129709 7.0242347677893646e-05 0 -0.03840938356129709 7.0242347677893646e-05 0 -0.039257280481568152 0.00064323158129427744 0 -0.039545330143342682 0.00015377793641252775 0 -0.038564360321129913 -0.00016125178185114516 0 -0.03840938356129709 7.0242347677893646e-05 0 -0.039545330143342682 0.00015377793641252775 0 -0.040699750133055969 0.00015946878596340863 0 -0.039545330143342682 0.00015377793641252775 0 -0.040302195001862363 0.0010057405842943581 0 -0.039257280481568152 0.00064323158129427744 0 -0.039545330143342682 0.00015377793641252775 0 -0.040302195001862363 0.0010057405842943581 0 -0.039257280481568152 0.00064323158129427744 0 -0.040302195001862363 0.0010057405842943581 0 -0.038719672336680541 0.0013557430938995099 0 -0.03451881836590226 -0.00085960051227497534 0 -0.034274383045981321 0.00010142177472825733 0 -0.028678680252080872 -0.0022235395741655407 0 -0.028899852869054013 -0.002543824378829657 0 -0.028434683590353713 -0.0023684942993953675 0 -0.03840938356129709 7.0242347677893646e-05 0 -0.039257280481568152 0.00064323158129427744 0 -0.038719672336680541 0.0013557430938995099 0 -0.044632054633669746 0.00017873863836552901 0 -0.044682698403466135 0.00045119657952740611 0 -0.044822846848143458 0.00020187334683731815 0 -0.044409969084359985 0.00040565246139244112 0 -0.044632054633669746 0.00017873863836552901 0 -0.044682698403466135 0.00045119657952740611 0 -0.044915988436418634 0.00019519341890319178 0 -0.044902401257036574 6.8827236485517567e-05 0 -0.044989240952848258 6.0219362015867777e-05 0 -0.044630369706564414 0.00031322841923222427 0 -0.044813500444919399 0.00012135943574375914 0 -0.044902401257036574 6.8827236485517567e-05 0 -0.044971786620507895 2.9306330967509961e-06 0 -0.044885533948009655 1.4495223351481735e-05 0 -0.044902401257036574 6.8827236485517567e-05 0 -0.044989240952848258 6.0219362015867777e-05 0 -0.044971786620507895 2.9306330967509961e-06 0 -0.044813500444919399 0.00012135943574375914 0 -0.044921052124687909 2.2325702172457982e-05 0 -0.044989240952848258 6.0219362015867777e-05 0 -0.044971786620507895 2.9306330967509961e-06 0 -0.045007013380180219 8.0177712352863374e-06 0 -0.04499258825089842 -8.3820562395846229e-07 0 -0.044971786620507895 2.9306330967509961e-06 0 -0.045007013380180219 8.0177712352863374e-06 0 -0.04499258825089842 -8.3820562395846229e-07 0 -0.0450000001640413 1.5385338885112108e-08 0 -0.044999943162264147 -2.3788096524093743e-08 0 -0.04499258825089842 -8.3820562395846229e-07 0 -0.0450000001640413 1.5385338885112108e-08 0 -0.044999848171588509 4.7181644036983116e-07 0 -0.04499258825089842 -8.3820562395846229e-07 0 -0.044999943162264147 -2.3788096524093743e-08 0 -0.044971786620507895 2.9306330967509961e-06 0 -0.044999943162264147 -2.3788096524093743e-08 0 -0.044971786620507895 2.9306330967509961e-06 0 -0.044949789856705842 -6.8526128181499824e-06 0 -0.044971786620507895 2.9306330967509961e-06 0 -0.044885533948009655 1.4495223351481735e-05 0 -0.044949789856705842 -6.8526128181499824e-06 0 -0.044885533948009655 1.4495223351481735e-05 0 -0.044949789856705842 -6.8526128181499824e-06 0 -0.044892276737017782 -9.6895425711550321e-06 0 -0.044999943162264147 -2.3788096524093743e-08 0 -0.044949789856705842 -6.8526128181499824e-06 0 -0.044999852302948631 -1.6803773467183742e-08 0 -0.044949789856705842 -6.8526128181499824e-06 0 -0.044999852302948631 -1.6803773467183742e-08 0 -0.044892276737017782 -9.6895425711550321e-06 0 -0.044999852302948631 -1.6803773467183742e-08 0 -0.044892276737017782 -9.6895425711550321e-06 0 -0.044999839819531567 1.0642445487320307e-08 0 -0.044885533948009655 1.4495223351481735e-05 0 -0.044892276737017782 -9.6895425711550321e-06 0 -0.044743915036946177 5.4975022297663188e-05 0 -0.044892276737017782 -9.6895425711550321e-06 0 -0.044743915036946177 5.4975022297663188e-05 0 -0.044846257643221678 -2.0011179334619029e-05 0 -0.044902401257036574 6.8827236485517567e-05 0 -0.044885533948009655 1.4495223351481735e-05 0 -0.044743915036946177 5.4975022297663188e-05 0 -0.044902401257036574 6.8827236485517567e-05 0 -0.044743915036946177 5.4975022297663188e-05 0 -0.044697015758555135 0.0001796506639823682 0 -0.044915988436418634 0.00019519341890319178 0 -0.044902401257036574 6.8827236485517567e-05 0 -0.044697015758555135 0.0001796506639823682 0 -0.044743915036946177 5.4975022297663188e-05 0 -0.044697015758555135 0.0001796506639823682 0 -0.04451984566365657 0.00019903465481319114 0 -0.04451984566365657 0.00019903465481319114 0 -0.044567201372290852 0.00010905593518237259 0 -0.044380098804704435 0.00030597681490017323 0 -0.044743915036946177 5.4975022297663188e-05 0 -0.04451984566365657 0.00019903465481319114 0 -0.044567201372290852 0.00010905593518237259 0 -0.0446922551293394 -6.6637562397073663e-06 0 -0.044609232331759237 2.479625972012448e-05 0 -0.044807300999961275 -0.00014448453109877497 0 -0.044861999383665321 -0.00019609682242010182 0 -0.044890469775578527 -0.00010020012743372715 0 -0.044861999383665321 -0.00019609682242010182 0 -0.044890469775578527 -0.00010020012743372715 0 -0.04491928171465346 -0.00014953536998738831 0 -0.044807300999961275 -0.00014448453109877497 0 -0.044861999383665321 -0.00019609682242010182 0 -0.044775957097811347 -0.00026954894929412561 0 -0.044743915036946177 5.4975022297663188e-05 0 -0.044567201372290852 0.00010905593518237259 0 -0.044846257643221678 -2.0011179334619029e-05 0 -0.044807300999961275 -0.00014448453109877497 0 -0.044890469775578527 -0.00010020012743372715 0 -0.044846257643221678 -2.0011179334619029e-05 0 -0.0446922551293394 -6.6637562397073663e-06 0 -0.044812303071573627 -8.4110643493552846e-06 0 -0.044892276737017782 -9.6895425711550321e-06 0 -0.044846257643221678 -2.0011179334619029e-05 0 -0.044999839819531567 1.0642445487320307e-08 0 -0.044846257643221678 -2.0011179334619029e-05 0 -0.044999839819531567 1.0642445487320307e-08 0 -0.044944486831020806 -2.0008876471444388e-05 0 -0.044999839819531567 1.0642445487320307e-08 0 -0.044944486831020806 -2.0008876471444388e-05 0 -0.044999970863324024 -4.390297763280607e-09 0 -0.044890469775578527 -0.00010020012743372715 0 -0.044944486831020806 -2.0008876471444388e-05 0 -0.044946718746890976 -8.4076974128104067e-05 0 -0.044890469775578527 -0.000100200127433