<?xml version="1.0"?>
<VTKFile type="UnstructuredGrid" version="0.1" byte_order="LittleEndian">
<UnstructuredGrid>
<Piece NumberOfPoints="29137" NumberOfCells="10222">
<Points>
<DataArray type="Float64" NumberOfComponents="3" format="ascii">
-0.5 -0.5 0 -0.4606846942148074 -0.47495635599240238 0 -0.47841963495131828 -0.46076903595573421 0 -0.5 -0.5 0 -0.47841963495131828 -0.46076903595573421 0 -0.5 -0.4362640087040317 0 -0.5 -0.5 0 -0.4606846942148074 -0.47495635599240238 0 -0.44263431785462781 -0.49999999999999961 0 -0.4606846942148074 -0.47495635599240238 0 -0.44907516603801478 -0.46105656159713232 0 -0.43239078184826918 -0.4765392468759283 0 -0.4606846942148074 -0.47495635599240238 0 -0.44263431785462781 -0.49999999999999961 0 -0.43239078184826918 -0.4765392468759283 0 -0.44263431785462781 -0.49999999999999961 0 -0.43239078184826918 -0.4765392468759283 0 -0.44774818270822381 -0.44611357173477029 0 -0.44907516603801478 -0.46105656159713232 0 -0.46029361270921959 -0.45206944964175061 0 -0.44774818270822381 -0.44611357173477029 0 -0.4537567913193124 -0.4316690308025411 0 -0.43990320969141927 -0.43564749176138112 0 -0.44774818270822381 -0.44611357173477029 0 -0.43990320969141927 -0.43564749176138112 0 -0.43696023539587209 -0.44499307334991739 0 -0.44774818270822381 -0.44611357173477029 0 -0.43554382460262359 -0.45590141028137271 0 -0.43696023539587209 -0.44499307334991739 0 -0.44907516603801478 -0.46105656159713232 0 -0.43239078184826918 -0.4765392468759283 0 -0.43554382460262359 -0.45590141028137271 0 -0.44774818270822381 -0.44611357173477029 0 -0.44907516603801478 -0.46105656159713232 0 -0.43554382460262359 -0.45590141028137271 0 -0.4606846942148074 -0.47495635599240238 0 -0.46029361270921959 -0.45206944964175061 0 -0.47841963495131828 -0.46076903595573421 0 -0.4606846942148074 -0.47495635599240238 0 -0.44907516603801478 -0.46105656159713232 0 -0.46029361270921959 -0.45206944964175061 0 -0.44774818270822381 -0.44611357173477029 0 -0.46029361270921959 -0.45206944964175061 0 -0.4537567913193124 -0.4316690308025411 0 -0.46029361270921959 -0.45206944964175061 0 -0.46975730027778201 -0.44190584235115787 0 -0.4537567913193124 -0.4316690308025411 0 -0.46975730027778201 -0.44190584235115787 0 -0.47841963495131828 -0.46076903595573421 0 -0.5 -0.4362640087040317 0 -0.46029361270921959 -0.45206944964175061 0 -0.46975730027778201 -0.44190584235115787 0 -0.47841963495131828 -0.46076903595573421 0 -0.5 -0.4362640087040317 0 -0.4774479055992894 -0.39476208359281789 0 -0.50000000000000711 -0.35667056638494898 0 -0.5 -0.4362640087040317 0 -0.4699149498912466 -0.41461340409965791 0 -0.4774479055992894 -0.39476208359281789 0 -0.46975730027778201 -0.44190584235115787 0 -0.5 -0.4362640087040317 0 -0.46730223929621317 -0.42812009735560169 0 -0.5 -0.4362640087040317 0 -0.4699149498912466 -0.41461340409965791 0 -0.46730223929621317 -0.42812009735560169 0 -0.4699149498912466 -0.41461340409965791 0 -0.4774479055992894 -0.39476208359281789 0 -0.46556621117060748 -0.40072575637817481 0 -0.4774479055992894 -0.39476208359281789 0 -0.46283572826181252 -0.39014548226829299 0 -0.4774479055992894 -0.39476208359281789 0 -0.46283572826181252 -0.39014548226829299 0 -0.48141786413091209 -0.37340802432662362 0 -0.46283572826181252 -0.39014548226829299 0 -0.48141786413091209 -0.37340802432662362 0 -0.46283572826181252 -0.39014548226829299 0 -0.48141786413091209 -0.37340802432662362 0 -0.47404614740477019 -0.37186123407992983 0 -0.46283572826181252 -0.39014548226829299 0 -0.46106922110715559 -0.38958736836906172 0 -0.47404614740477019 -0.37186123407992983 0 -0.46348729166808639 -0.37576334891521329 0 -0.45832738962730241 -0.38740294259565078 0 -0.45782484934247081 -0.36297365966535572 0 -0.46348729166808639 -0.37576334891521329 0 -0.46106922110715559 -0.38958736836906172 0 -0.47404614740477019 -0.37186123407992983 0 -0.46106922110715559 -0.38958736836906172 0 -0.47404614740477019 -0.37186123407992983 0 -0.45832738962730241 -0.38740294259565078 0 -0.45782484934247081 -0.36297365966535572 0 -0.45832738962730241 -0.38740294259565078 0 -0.45081146418215468 -0.38221798807870189 0 -0.45271483144369917 -0.37328769795421501 0 -0.46348729166808639 -0.37576334891521329 0 -0.46106922110715559 -0.38958736836906172 0 -0.45832738962730241 -0.38740294259565078 0 -0.46283572826181252 -0.39014548226829299 0 -0.46106922110715559 -0.38958736836906172 0 -0.46106922110715559 -0.38958736836906172 0 -0.45644959517205358 -0.39589765385678938 0 -0.44641482846402603 -0.39487671261133273 0 -0.46283572826181252 -0.39014548226829299 0 -0.46106922110715559 -0.38958736836906172 0 -0.45644959517205358 -0.39589765385678938 0 -0.46283572826181252 -0.39014548226829299 0 -0.45644959517205358 -0.39589765385678938 0 -0.46106922110715559 -0.38958736836906172 0 -0.45644959517205358 -0.39589765385678938 0 -0.46283572826181252 -0.39014548226829299 0 -0.45644959517205358 -0.39589765385678938 0 -0.46556621117060748 -0.40072575637817481 0 -0.4774479055992894 -0.39476208359281789 0 -0.46283572826181252 -0.39014548226829299 0 -0.46556621117060748 -0.40072575637817481 0 -0.45644959517205358 -0.39589765385678938 0 -0.4577490691997364 -0.40736937434801401 0 -0.4471029387664478 -0.40866493655535768 0 -0.45644959517205358 -0.39589765385678938 0 -0.46556621117060748 -0.40072575637817481 0 -0.4577490691997364 -0.40736937434801401 0 -0.44641482846402603 -0.39487671261133273 0 -0.43806649226582822 -0.38231983896642829 0 -0.43220865306735962 -0.39971971050548089 0 -0.45644959517205358 -0.39589765385678938 0 -0.4471029387664478 -0.40866493655535768 0 -0.44428018070773351 -0.40685899135890319 0 -0.45644959517205358 -0.39589765385678938 0 -0.44641482846402603 -0.39487671261133273 0 -0.44428018070773351 -0.40685899135890319 0 -0.45644959517205358 -0.39589765385678938 0 -0.44428018070773351 -0.40685899135890319 0 -0.45644959517205358 -0.39589765385678938 0 -0.4471029387664478 -0.40866493655535768 0 -0.44641482846402603 -0.39487671261133273 0 -0.44428018070773351 -0.40685899135890319 0 -0.43220865306735962 -0.39971971050548089 0 -0.46106922110715559 -0.38958736836906172 0 -0.45832738962730241 -0.38740294259565078 0 -0.43806649226582822 -0.38231983896642829 0 -0.46106922110715559 -0.38958736836906172 0 -0.44641482846402603 -0.39487671261133273 0 -0.43806649226582822 -0.38231983896642829 0 -0.45832738962730241 -0.38740294259565078 0 -0.43806649226582822 -0.38231983896642829 0 -0.45081146418215468 -0.38221798807870189 0 -0.46106922110715559 -0.38958736836906172 0 -0.43806649226582822 -0.38231983896642829 0 -0.44178258858949071 -0.38085699793472227 0 -0.43806649226582822 -0.38231983896642829 0 -0.45081146418215468 -0.38221798807870189 0 -0.44178258858949071 -0.38085699793472227 0 -0.43806649226582822 -0.38231983896642829 0 -0.44125992715722712 -0.37704264225458328 0 -0.44178258858949071 -0.38085699793472227 0 -0.43806649226582822 -0.38231983896642829 0 -0.43806649226582822 -0.38231983896642829 0 -0.44125992715722712 -0.37704264225458328 0 -0.43653992034091449 -0.37485146965091359 0 -0.44178258858949071 -0.38085699793472227 0 -0.44125992715722712 -0.37704264225458328 0 -0.44656110190926351 -0.37788530139230581 0 -0.44125992715722712 -0.37704264225458328 0 -0.44656110190926351 -0.37788530139230581 0 -0.44453936890232137 -0.37315928133165099 0 -0.45081146418215468 -0.38221798807870189 0 -0.44656110190926351 -0.37788530139230581 0 -0.45271483144369917 -0.37328769795421501 0 -0.44178258858949071 -0.38085699793472227 0 -0.45081146418215468 -0.38221798807870189 0 -0.44656110190926351 -0.37788530139230581 0 -0.46975730027778201 -0.44190584235115787 0 -0.4537567913193124 -0.4316690308025411 0 -0.46975730027778201 -0.44190584235115787 0 -0.4537567913193124 -0.4316690308025411 0 -0.46730223929621317 -0.42812009735560169 0 -0.4537567913193124 -0.4316690308025411 0 -0.46730223929621317 -0.42812009735560169 0 -0.45559704513896643 -0.41864484373584981 0 -0.4699149498912466 -0.41461340409965791 0 -0.46730223929621317 -0.42812009735560169 0 -0.45559704513896643 -0.41864484373584981 0 -0.4699149498912466 -0.41461340409965791 0 -0.46556621117060748 -0.40072575637817481 0 -0.4577490691997364 -0.40736937434801401 0 -0.4699149498912466 -0.41461340409965791 0 -0.4577490691997364 -0.40736937434801401 0 -0.45559704513896643 -0.41864484373584981 0 -0.4577490691997364 -0.40736937434801401 0 -0.45559704513896643 -0.41864484373584981 0 -0.4471029387664478 -0.40866493655535768 0 -0.45559704513896643 -0.41864484373584981 0 -0.4471029387664478 -0.40866493655535768 0 -0.43767781915887172 -0.42153939788952771 0 -0.4471029387664478 -0.40866493655535768 0 -0.44428018070773351 -0.40685899135890319 0 -0.43767781915887172 -0.42153939788952771 0 -0.44428018070773351 -0.40685899135890319 0 -0.43211076624341249 -0.41782032886101628 0 -0.44428018070773351 -0.40685899135890319 0 -0.43767781915887172 -0.42153939788952771 0 -0.43211076624341249 -0.41782032886101628 0 -0.4471029387664478 -0.40866493655535768 0 -0.43767781915887172 -0.42153939788952771 0 -0.4537567913193124 -0.4316690308025411 0 -0.43767781915887172 -0.42153939788952771 0 -0.43990320969141927 -0.43564749176138112 0 -0.4537567913193124 -0.4316690308025411 0 -0.43767781915887172 -0.42153939788952771 0 -0.4537567913193124 -0.4316690308025411 0 -0.45559704513896643 -0.41864484373584981 0 -0.43767781915887172 -0.42153939788952771 0 -0.43990320969141927 -0.43564749176138112 0 -0.42977278871618452 -0.42892313823348488 0 -0.43155283391876509 -0.43970097062362318 0 -0.42977278871618452 -0.42892313823348488 0 -0.43155283391876509 -0.43970097062362318 0 -0.42261879556371329 -0.43926725840517739 0 -0.42977278871618452 -0.42892313823348488 0 -0.41850157840159141 -0.4300785111672607 0 -0.42261879556371329 -0.43926725840517739 0 -0.42977278871618452 -0.42892313823348488 0 -0.43211076624341249 -0.41782032886101628 0 -0.41850157840159141 -0.4300785111672607 0 -0.43211076624341249 -0.41782032886101628 0 -0.41850157840159141 -0.4300785111672607 0 -0.43767781915887172 -0.42153939788952771 0 -0.42977278871618452 -0
[...]
<PointData Scalars="" Vectors="displacement," Tensors="">
<DataArray type="Float64" Name="displacement" NumberOfComponents="3" format="ascii">
2.2387468856648615e-07 0.05499732236671899 0 0.00033910308682753344 0.053264672859469252 0 0.00012039694997474366 0.051393728269498701 0 2.2387468856648615e-07 0.05499732236671899 0 0.00012039694997474366 0.051393728269498701 0 8.2934516006617166e-07 0.047990710696937944 0 2.2387468856648615e-07 0.05499732236671899 0 0.00033910308682753344 0.053264672859469252 0 1.0725035004909076e-06 0.054994775302151154 0 0.00033910308682753344 0.053264672859469252 0 0.00013541499324060786 0.053085111911184313 0 0.00039625819558380645 0.053952146739373541 0 0.00033910308682753344 0.053264672859469252 0 1.0725035004909076e-06 0.054994775302151154 0 0.00039625819558380645 0.053952146739373541 0 1.6768007396395073e-07 0.054999697630928421 0 0.00016592330808383414 0.054442605903656752 0 -0.00068030274566513232 0.052918186126913951 0 0.00013541499324060786 0.053085111911184313 0 -4.553248042243235e-05 0.051823854340549244 0 -0.00068030274566513232 0.052918186126913951 0 -0.001832515608441987 0.052315479414538055 0 -0.0014637004511578718 0.053380279878421644 0 -0.00068030274566513232 0.052918186126913951 0 -0.0014637004511578718 0.053380279878421644 0 -0.00083354932026514974 0.053613502416944521 0 -0.00068030274566513232 0.052918186126913951 0 -0.00021183070356623667 0.053776769185304406 0 -0.00083354932026514974 0.053613502416944521 0 0.00013541499324060786 0.053085111911184313 0 0.00039625819558380645 0.053952146739373541 0 -0.00021183070356623667 0.053776769185304406 0 -0.00068030274566513232 0.052918186126913951 0 0.00013541499324060786 0.053085111911184313 0 -0.00021183070356623667 0.053776769185304406 0 0.00033910308682753344 0.053264672859469252 0 -4.553248042243235e-05 0.051823854340549244 0 0.00012039694997474366 0.051393728269498701 0 0.00033910308682753344 0.053264672859469252 0 0.00013541499324060786 0.053085111911184313 0 -4.553248042243235e-05 0.051823854340549244 0 -0.00068030274566513232 0.052918186126913951 0 -4.553248042243235e-05 0.051823854340549244 0 -0.001832515608441987 0.052315479414538055 0 -4.553248042243235e-05 0.051823854340549244 0 -0.00049713255588987239 0.049951372614325827 0 -0.001832515608441987 0.052315479414538055 0 -0.00049713255588987239 0.049951372614325827 0 0.00012039694997474366 0.051393728269498701 0 8.2934516006617166e-07 0.047990710696937944 0 -4.553248042243235e-05 0.051823854340549244 0 -0.00049713255588987239 0.049951372614325827 0 0.00012039694997474366 0.051393728269498701 0 8.2934516006617166e-07 0.047990710696937944 0 -0.00013321582145933768 0.045227941582333717 0 -3.2151595919464333e-06 0.03924096307677765 0 8.2934516006617166e-07 0.047990710696937944 0 6.8216568833365297e-05 0.047410990128790922 0 -0.00013321582145933768 0.045227941582333717 0 -0.00049713255588987239 0.049951372614325827 0 8.2934516006617166e-07 0.047990710696937944 0 -6.6405589929350689e-05 0.048558423939465779 0 8.2934516006617166e-07 0.047990710696937944 0 6.8216568833365297e-05 0.047410990128790922 0 -6.6405589929350689e-05 0.048558423939465779 0 6.8216568833365297e-05 0.047410990128790922 0 -0.00013321582145933768 0.045227941582333717 0 -0.00011638994795281453 0.046879090249874987 0 -0.00081713757795412044 0.046423423148161273 0 -0.0019876127899717965 0.041683219682877831 0 -0.00013321582145933768 0.045227941582333717 0 -0.00025553455125631259 0.045481430673943161 0 -0.00046592369722978934 0.043277975026021508 0 -0.0019876127899717965 0.041683219682877831 0 -0.0001579827288327256 0.041149979695252879 0 -0.0011092777194305276 0.038210738428444677 0 -0.00057110746577463106 0.038749716816554911 0 -0.00053335505093370073 0.038524171575665442 0 -0.0011092777194305276 0.038210738428444677 0 -0.0010935099473885028 0.038156196950909861 0 -0.00053335505093370073 0.038524171575665442 0 -0.0051420134764800004 0.031971533882176252 0 -0.0065933893247380202 0.031057208380464215 0 -0.0035797526157167739 0.031531854319494096 0 -0.0051420134764800004 0.031971533882176252 0 -0.006914940062639794 0.031478410659678178 0 -0.0046477888480009602 0.033399658052983699 0 -0.0026396257179624213 0.037526790297905822 0 -0.0029812616920710053 0.035554478417079489 0 -0.0064594396634133954 0.031062832322307766 0 -0.0034806553328149948 0.031083701294481965 0 -0.0065933893247380202 0.031057208380464215 0 -0.0058364445594475652 0.029883467769864516 0 -0.0046901250044069564 0.029973246929375072 0 -0.0051420134764800004 0.031971533882176252 0 -0.006914940062639794 0.031478410659678178 0 -0.0065933893247380202 0.031057208380464215 0 -0.0019876127899717965 0.041683219682877831 0 -0.0026396257179624213 0.037526790297905822 0 -0.0020234739359480947 0.038376177558808532 0 -0.0018373373842586519 0.038515895724282552 0 -0.0018680413552051038 0.038803454477065971 0 -0.0032130340103205695 0.038724504129995306 0 -0.0034761490570624294 0.039558168151367291 0 -0.00048485662111398694 0.041741483288921417 0 -0.0019876127899717965 0.041683219682877831 0 -0.0012666512749682649 0.042344708065782159 0 -0.0026396257179624213 0.037526790297905822 0 -0.0012666512749682649 0.042344708065782159 0 -0.0010206712421374272 0.047042560141092891 0 -0.00047775790440651961 0.047501625893974921 0 -0.00011638994795281453 0.046879090249874987 0 -0.00013321582145933768 0.045227941582333717 0 -0.0010206712421374272 0.047042560141092891 0 -0.00011638994795281453 0.046879090249874987 0 -0.00047775790440651961 0.047501625893974921 0 2.6893506023533932e-05 0.047464705944963742 0 8.6951725240126066e-05 0.047724847224861582 0 -0.00047775790440651961 0.047501625893974921 0 -0.00011638994795281453 0.046879090249874987 0 2.6893506023533932e-05 0.047464705944963742 0 -0.0018680413552051038 0.038803454477065971 0 -0.0022352955322754646 0.039020366418416719 0 -0.0017247786269382415 0.039225704716377485 0 -0.0024498568830221661 0.043354185390735232 0 -0.0011636913104825881 0.04432212572452493 0 -0.0013493616368080881 0.044608791995452701 0 -0.0018373373842586519 0.038515895724282552 0 -0.0018680413552051038 0.038803454477065971 0 -0.001516270020659087 0.038885641493821448 0 -0.0012666512749682649 0.042344708065782159 0 -0.0018959207885215486 0.041305645799037893 0 -0.0012666512749682649 0.042344708065782159 0 -0.00036980003167793734 0.046138903556173491 0 -0.0018680413552051038 0.038803454477065971 0 -0.001516270020659087 0.038885641493821448 0 -0.0017247786269382415 0.039225704716377485 0 -0.006914940062639794 0.031478410659678178 0 -0.0065933893247380202 0.031057208380464215 0 -0.0057694117362358244 0.028004000086317742 0 -0.0020234739359480947 0.038376177558808532 0 -0.0018680413552051038 0.038803454477065971 0 -0.0022352955322754646 0.039020366418416719 0 -0.0065933893247380202 0.031057208380464215 0 -0.0057694117362358244 0.028004000086317742 0 -0.0058364445594475652 0.029883467769864516 0 -0.0026396257179624213 0.037526790297905822 0 -0.0036318871039164933 0.032729716286712222 0 -0.005549037112869545 0.028557357649501517 0 -0.0057694117362358244 0.028004000086317742 0 -0.0058364445594475652 0.029883467769864516 0 -0.005549037112869545 0.028557357649501517 0 -0.0054647850374185628 0.028102720310829089 0 -0.0051365795648688397 0.028526794969041199 0 -0.0044267120417752137 0.030795291410400431 0 -0.0036318871039164933 0.032729716286712222 0 -0.0054647850374185628 0.028102720310829089 0 -0.0051365795648688397 0.028526794969041199 0 -0.0049560214733656736 0.028084226592825931 0 -0.005549037112869545 0.028557357649501517 0 -0.0051365795648688397 0.028526794969041199 0 -0.0052467358798276393 0.029217569437499577 0 -0.0051365795648688397 0.028526794969041199 0 -0.0052467358798276393 0.029217569437499577 0 -0.0047369389103020148 0.028934490571255356 0 -0.0058364445594475652 0.029883467769864516 0 -0.0052467358798276393 0.029217569437499577 0 -0.0046901250044069564 0.029973246929375072 0 -0.005549037112869545 0.028557357649501517 0 -0.0058364445594475652 0.029883467769864516 0 -0.0052467358798276393 0.029217569437499577 0 -0.00050985425773388015 0.049748979262982648 0 -0.0010940508695693443 0.05038507259862135 0 -0.00049713255588987239 0.049951372614325827 0 -0.00023390125446010173 0.047836033871787947 0 -6.6405589929350689e-05 0.048558423939465779 0 -0.00023390125446010173 0.047836033871787947 0 -6.6405589929350689e-05 0.048558423939465779 0 0.00012275681161808536 0.047765651875221228 0 6.8216568833365297e-05 0.047410990128790922 0 -6.6405589929350689e-05 0.048558423939465779 0 0.00012275681161808536 0.047765651875221228 0 6.8216568833365297e-05 0.047410990128790922 0 -0.00011638994795281453 0.046879090249874987 0 2.6893506023533932e-05 0.047464705944963742 0 6.8216568833365297e-05 0.047410990128790922 0 2.6893506023533932e-05 0.047464705944963742 0 0.00012275681161808536 0.047765651875221228 0 2.6893506023533932e-05 0.047464705944963742 0 0.00012275681161808536 0.047765651875221228 0 8.6951725240126066e-05 0.047724847224861582 0 0.00012275681161808536 0.047765651875221228 0 8.6951725240126066e-05 0.047724847224861582 0 2.7340642663673044e-05 0.047580025028391065 0 -0.0011636913104825881 0.04432212572452493 0 -0.0013493616368080881 0.044608791995452701 0 0.00015439710905537236 0.045308435903408634 0 -0.0018959207885215486 0.041305645799037893 0 -0.00076119923843218681 0.045857139283311539 0 -0.0013493616368080881 0.044608791995452701 0 0.00015439710905537236 0.045308435903408634 0 -0.00022803670111365827 0.045877023914725194 0 -0.00036980003167793734 0.046138903556173491 0 -0.001274551559306497 0.048435366395428371 0 -0.001832515608441987 0.052315479414538055 0 -0.0023843771944299318 0.053482794965539614 0 -0.0014637004511578718 0.053380279878421644 0 -0.0010940508695693443 0.05038507259862135 0 -0.001274551559306497 0.048435366395428371 0 -0.00023390125446010173 0.047836033871787947 0 0.00012275681161808536 0.047765651875221228 0 2.7340642663673044e-05 0.047580025028391065 0 -0.0014637004511578718 0.053380279878421644 0 -0.0018821594086149132 0.05398925195245638 0 -0.0011911445716318288 0.053916307643491555 0 -0.0018821594086149132 0.05398925195245638 0 -0.0011911445716318288 0.053916307643491555 0 -0.0012216146271552364 0.054432094236059908 0 -0.0018821594086149132 0.05398925195245638 0 -0.0017821528560845947 0.054663113294235309 0 -0.0012216146271552364 0.054432094236059908 0 -0.0018821594086149132 0.05398925195245638 0 -0.0025980634609751962 0.053819941305257371 0 -0.0017821528560845947 0.054663113294235309 0 -0.00076119923843218681 0.045857139283311539 0 -0.0015571234289648976 0.050085098563804428 0 -0.0023843771944299318 0.053482794965539614 0 -0.0018821594086149132 0.05398925195245638 0 -0.0025980634609751962 0.053819941305257371 0 -0.0023843771944299318 0.053482794965539614 0 -0.0014637004511578718 0.053380279878421644 0 -0.0018821594086149132 0.05398925195245638 0 -0.0012035693166445364 0.039266551429541705 0 -0.001502623941763713 0.039694994256084325 0 -0.0017247786269382415 0.039225704716377485 0 -0.001516270020659087 0.038885641493821448 0 -0.0012035693166445364 0.039266551429541705 0 -0.0017247786269382415 0.039225704716377485 0 -0.00076119923843218681 0.045857139283311539 0 -0.00078479442567097948 0.042277946222227768 0 -0.001274551559306497 0.048435366395428371 0 -0.00076119923843218681 0.045857139283311539 0 -0.00079301035684351429 0.045947421946045085 0 -0.00019919012759827496 0.045011118339467054 0 -0.00087538291266534506 0.044873805242799401 0 -0.00019919012759827496 0.045011118339467054 0 -0.00087538291266534506 0.044873805242799401 0 -0.000757376822843042 0.044080763686107825 0 -0.00087538291266534506 0.044873805242799401 0 -0.0013521334757743441 0.044664288695217137 0 -0.000757376822843042 0.044080763686107825 0 -0.00079301035684351429 0.045947421946045085 0 -0.00087538291266534506 0.044873805242799401 0 -0.0014903385249616539 0.045170460220187801 0 -0.0017821528560845947 0.054663113294235309 0 -0.0010465853681144491 0.055414821955508252 0 -0.0012216146271552364 0.054432094236059908 0 -0.00087538291266534506 0.044873805242799401 0 -0.0013521334757743441 0.044664288695217137 0 -0.0014903385249616539 0.045170460220187801 0 -0.0015571234289648976 0.050085098563804428 0 -0.0011149558970622575 0.051298926575741234 0 -0.0013521334757743441 0.044664288695217137 0 -0.0014903385249616539 0.045170460220187801 0 -0.0018846487230401695 0.044703330521007646 0 -0.0014903385249616539 0.045170460220187801 0 -0.0021330308485559956 0.044493932521343552 0 -0.0018846487230401695 0.044703330521007646 0 -0.0013521334757743441 0.044664288695217137 0 -0.0017299292719895715 0.044481737619855001 0 -0.0018846487230401695 0.044703330521007646 0 -0.0054647850374185628 0.028102720310829089 0 -0.0049192463240781041 0.027768706453489295 0 -0.0048201719002699886 0.027184746976177773 0 -0.0036318871039164933 0.032729716286712222 0 -0.0038052999099497681 0.03016911234219162 0 -0.002532628220928596 0.033392546578819099 0 -0.0022951906905266544 0.033969428791597055 0 -0.0027651735485830554 0.03420503930623911 0 -0.0022352955322754646 0.039020366418416719 0 -0.0017247786269382415 0.039225704716377485 0 -0.0020093024145594021 0.03958988443380311 0 -0.0036318871039164933 0.032729716286712222 0 -0.0020019689480194973 0.037129175399689851 0 -0.0054647850374185628 0.028102720310829089 0 -0.0049192463240781041 0.027768706453489295 0 -0.0049560214733656736 0.028084226592825931 0 -0.001502623941763713 0.039694994256084325 0 -0.0017247786269382415 0.039225704716377485 0 -0.0020093024145594021 0.03958988443380311 0 -0.0022951906905266544 0.033969428791597055 0 -0.0023312486508002199 0.034390427990613585 0 -0.0020737379894678327 0.034545189810397496 0 -0.00078479442567097948 0.042277946222227768 0 -0.0016493381650963897 0.039015356605659163 0 -0.0020019689480194973 0.037129175399689851 0 -0.0016493381650963897 0.039015356605659163 0 -0.001502623941763713 0.039694994256084325 0 -0.0020093024145594021 0.03958988443380311 0 -0.0017909882104656047 0.040126054530500728 0 -0.0022951906905266544 0.033969428791597055 0 -0.0023312486508002199 0.034390427990613585 0 -0.0027651735485830554 0.03420503930623911 0 -0.0023889249860270696 0.03461735140340854 0 -0.0020121495651111033 0.034719016614874261 0 -0.0025141356356463865 0.034829345113068511 0 -0.0023889249860270696 0.03461735140340854 0 -0.0025141356356463865 0.034829345113068511 0 -0.0027651735485830554 0.03420503930623911 0 -0.0023312486508002199 0.034390427990613585 0 -0.0023889249860270696 0.03461735140340854 0 -0.0021239242599383548 0.03461801041726998 0 -0.0023312486508002199 0.034390427990613585 0 -0.0023889249860270696 0.03461735140340854 0 -0.0027651735485830554 0.03420503930623911 0 0.00040333070965679137 0.04403575102236286 0 0.0002688511052192854 0.043691654762769275 0 -0.000757376822843042 0.044080763686107825 0 -0.00079990707034856506 0.039553552457358324 0 -0.0023478105037085645 0.035192372861462581 0 -0.0023889249860270696 0.03461735140340854 0 -0.0021239242599383548 0.03461801041726998 0 -0.0020121495651111033 0.034719016614874261 0 -0.0016493381650963897 0.039015356605659163 0 -0.00079990707034856506 0.039553552457358324 0 -0.0021239242599383548 0.03461801041726998 0 -0.0020794115503505071 0.034556221940446524 0 -0.0020121495651111033 0.034719016614874261 0 -0.0023312486508002199 0.034390427990613585 0 -0.0021239242599383548 0.03461801041726998 0 -0.0020737379894678327 0.034545189810397496 0 -0.0013053092013349716 0.038044281973383075 0 -0.0016493381650963897 0.039015356605659163 0 -0.0013950054796973343 0.035362962900490229 0 -0.0017508541817718739 0.036037019340811119 0 -0.00097913907565578867 0.036411054623088641 0 -0.0013950054796973343 0.035362962900490229 0 -0.0017508541817718739 0.036037019340811119 0 -0.0022002092555650928 0.035586340101271693 0 -0.00079990707034856506 0.039553552457358324 0 -0.00071440488316320769 0.038979316083015331 0 -0.0017508541817718739 0.036037019340811119 0 -0.0024459759442132531 0.036190050374876756 0 -0.0022002092555650928 0.035586340101271693 0 -0.0013521334757743441 0.044664288695217137 0 -0.0017299292719895715 0.044481737619855001 0 -0.000757376822843042 0.044080763686107825 0 -0.0012823162100130219 0.043707374164064887 0 -0.0017299292719895715 0.044481737619855001 0 -0.00079405476083071547 0.04410923815094616 0 -0.0016121310896676092 0.044416335478757417 0 -0.00082533509280697875 0.044206198143770394 0 -0.0012823162100130219 0.043707374164064887 0 -0.0017299292719895715 0.044481737619855001 0 -0.0019814855602026315 0.04398451160744609 0 -0.0017299292719895715 0.044481737619855001 0 -0.0019814855602026315 0.04398451160744609 0 -0.0018846487230401695 0.044703330521007646 0 -0.00079990707034856506 0.039553552457358324 0 -0.00082533509280697875 0.044206198143770394 0 -0.00019919012759827496 0.045011118339467054 0 0.00040333070965679137 0.04403575102236286 0 -0.000757376822843042 0.044080763686107825 0 0.00013023623340527066 0.043762372585834403 0 -0.00079405476083071547 0.04410923815094616 0 -0.00067522653564162916 0.043352486664974425 0 -0.0012823162100130219 0.043707374164064887 0 -0.00079405476083071547 0.04410923815094616 0 -0.00067522653564162916 0.043352486664974425 0 -0.00067522653564162916 0.043352486664974425 0 -0.0013941706225580502 0.042648669631003014 0 -0.00034910019177235269 0.042558671189387699 0 0.00013023623340527066 0.043762372585834403 0 -0.00067522653564162916 0.043352486664974425 0 -0.00034910019177235269 0.042558671189387699 0 -0.0010728947186112003 0.046581973383583504 0 -0.0011975277769767838 0.044655831897543914 0 -0.0012823162100130219 0.043707374164064887 0 -0.00067522653564162916 0.043352486664974425 0 -0.0013941706225580502 0.042648669631003014 0 -0.0009195183254042988 0.046553442874901943 0 -0.00091819018400194491 0.046493248146795015 0 -0.00089220182883303998 0.046474363529071895 0 -0.0012823162100130219 0.043707374164064887 0 -0.0019814855602026315 0.04398451160744609 0 -0.0013941706225580502 0.042648669631003014 0 -0.0010728947186112003 0.046581973383583504 0 -0.00064649005221908431 0.049572957494118892 0 -0.00024753930534575504 0.051107448272516828 0 0.00044798560178145147 0.051399610410218892 0 -0.00048357660234435185 0.051775869199310792 0 -0.00024753930534575504 0.051107448272516828 0 -0.00061872880888138833 0.050719499031730592 0 -0.00048357660234435185 0.051775869199310792 0 -0.00024753930534575504 0.051107448272516828 0 -0.00045375376720456641 0.050354611102455836 0 0.00044798560178145147 0.051399610410218892 0 -0.00024753930534575504 0.051107448272516828 0 -0.00061872880888138833 0.050719499031730592 0 -0.00045375376720456641 0.050354611102455836 0 -0.0011149558970622575 0.051298926575741234 0 0.00033627161469990965 0.053420102183281908 0 -0.0010728947186112003 0.046581973383583504 0 -0.0011149558970622575 0.051298926575741234 0 -0.0019597804540732048 0.044137154751586832 0 -0.0021330308485559956 0.044493932521343552 0 -0.0018846487230401695 0.044703330521007646 0 -0.0010728947186112003 0.046581973383583504 0 -0.0018078256579085656 0.044040834026294461 0 -0.0004546950545520858 0.054870646456818446 0 -0.00021642230238015815 0.054890394071377704 0 -0.00019343293912017328 0.055060414969439364 0 -0.00021642230238015815 0.054890394071377704 0 -0.00019343293912017328 0.055060414969439364 0 -7.9781363648711648e-05 0.054963976389319685 0 -0.00019343293912017328 0.055060414969439364 0 -2.7971141760855737e-05 0.055068098323052046 0 -7.9781363648711648e-05 0.054963976389319685 0 -8.1258259685719827e-05 0.055179096319316362 0 7.6149437197727308e-08 0.054999852567045121 0 6.7480624169289322e-08 0.054999984104606867 0 3.2457606594264394e-10 0.05500000302157295 0 -7.1018672882245785e-10 0.054999995711921372 0 3.6337100925965898e-08 0.055000008018107185 0 -7.9781363648711648e-05 0.054963976389319685 0 -4.0531910149218946e-05 0.054919036958090889 0 -2.7971141760855737e-05 0.055068098323052046 0 3.6337100925965898e-08 0.055000008018107185 0 -7.9781363648711648e-05 0.054963976389319685 0 -4.0531910149218946e-05 0.054919036958090889 0 -5.5967365377030099e-05 0.0548448