<?xml version="1.0"?>
<VTKFile type="UnstructuredGrid" version="0.1" byte_order="LittleEndian">
<UnstructuredGrid>
<Piece NumberOfPoints="29971" NumberOfCells="10479">
<Points>
<DataArray type="Float64" NumberOfComponents="3" format="ascii">
-0.5 -0.5 0 -0.47667180158318623 -0.47876425912729931 0 -0.5 -0.43989996773298412 0 -0.5 -0.5 0 -0.47667180158318623 -0.47876425912729931 0 -0.43864636010920588 -0.5 0 -0.43864636010920588 -0.5 0 -0.45195722144859801 -0.46240628238328918 0 -0.42374156665668811 -0.47628906042119951 0 -0.47667180158318623 -0.47876425912729931 0 -0.43864636010920588 -0.5 0 -0.45195722144859801 -0.46240628238328918 0 -0.455466881120904 -0.4372987202930797 0 -0.43643387444078008 -0.42883277673949832 0 -0.42909439399616212 -0.45145189942443342 0 -0.455466881120904 -0.4372987202930797 0 -0.42909439399616212 -0.45145189942443342 0 -0.45195722144859801 -0.46240628238328918 0 -0.455466881120904 -0.4372987202930797 0 -0.42909439399616212 -0.45145189942443342 0 -0.45195722144859801 -0.46240628238328918 0 -0.46504301389962249 -0.44624181677099528 0 -0.47578387885950962 -0.4537461564169889 0 -0.47667180158318623 -0.47876425912729931 0 -0.45195722144859801 -0.46240628238328918 0 -0.47578387885950962 -0.4537461564169889 0 -0.45195722144859801 -0.46240628238328918 0 -0.46504301389962249 -0.44624181677099528 0 -0.455466881120904 -0.4372987202930797 0 -0.46504301389962249 -0.44624181677099528 0 -0.47186959727027472 -0.43505794208050907 0 -0.455466881120904 -0.4372987202930797 0 -0.47578387885950962 -0.4537461564169889 0 -0.47186959727027472 -0.43505794208050907 0 -0.47489595613583302 -0.42872805370667832 0 -0.47578387885950962 -0.4537461564169889 0 -0.47489595613583302 -0.42872805370667832 0 -0.46504301389962249 -0.44624181677099528 0 -0.47578387885950962 -0.4537461564169889 0 -0.47186959727027472 -0.43505794208050907 0 -0.47578387885950962 -0.4537461564169889 0 -0.5 -0.43989996773298412 0 -0.47489595613583302 -0.42872805370667832 0 -0.47667180158318623 -0.47876425912729931 0 -0.47578387885950962 -0.4537461564169889 0 -0.5 -0.43989996773298412 0 -0.47667180158318623 -0.47876425912729931 0 -0.47578387885950962 -0.4537461564169889 0 -0.5 -0.43989996773298412 0 -0.48064230659439228 -0.4073306226760563 0 -0.5 -0.39390733961494329 0 -0.5 -0.43989996773298412 0 -0.48064230659439228 -0.4073306226760563 0 -0.47489595613583302 -0.42872805370667832 0 -0.47489595613583302 -0.42872805370667832 0 -0.4740080334121573 -0.40370995099636803 0 -0.46713457572653022 -0.41804402240115812 0 -0.48064230659439228 -0.4073306226760563 0 -0.47489595613583302 -0.42872805370667832 0 -0.4740080334121573 -0.40370995099636803 0 -0.47489595613583302 -0.42872805370667832 0 -0.4740080334121573 -0.40370995099636803 0 -0.47186959727027472 -0.43505794208050907 0 -0.47489595613583302 -0.42872805370667832 0 -0.46713457572653022 -0.41804402240115812 0 -0.5 -0.39390733961494329 0 -0.48285875928396249 -0.39412573429909697 0 -0.48484966662368628 -0.37174628441182828 0 -0.48064230659439228 -0.4073306226760563 0 -0.5 -0.39390733961494329 0 -0.48285875928396249 -0.39412573429909697 0 -0.4740080334121573 -0.40370995099636803 0 -0.48285875928396249 -0.39412573429909697 0 -0.47340223230036188 -0.38664090429583692 0 -0.4740080334121573 -0.40370995099636803 0 -0.47340223230036188 -0.38664090429583692 0 -0.46749092184770108 -0.39336959226261858 0 -0.4740080334121573 -0.40370995099636803 0 -0.47340223230036188 -0.38664090429583692 0 -0.48064230659439228 -0.4073306226760563 0 -0.4740080334121573 -0.40370995099636803 0 -0.48285875928396249 -0.39412573429909697 0 -0.48064230659439228 -0.4073306226760563 0 -0.4740080334121573 -0.40370995099636803 0 -0.48285875928396249 -0.39412573429909697 0 -0.47340223230036188 -0.38664090429583692 0 -0.48484966662368628 -0.37174628441182828 0 -0.47340223230036188 -0.38664090429583692 0 -0.46529352246112421 -0.37999909927047221 0 -0.47386166008738478 -0.37158949175162709 0 -0.47340223230036188 -0.38664090429583692 0 -0.48484966662368628 -0.37174628441182828 0 -0.47386166008738478 -0.37158949175162709 0 -0.45753405095905991 -0.38096334164819928 0 -0.46529352246112421 -0.37999909927047221 0 -0.45795069614082701 -0.37310317303709611 0 -0.45753405095905991 -0.38096334164819928 0 -0.45795069614082701 -0.37310317303709611 0 -0.45753405095905991 -0.38096334164819928 0 -0.46529352246112421 -0.37999909927047221 0 -0.46451103528570892 -0.38728037312315899 0 -0.47340223230036188 -0.38664090429583692 0 -0.46451103528570892 -0.38728037312315899 0 -0.46749092184770108 -0.39336959226261858 0 -0.47340223230036188 -0.38664090429583692 0 -0.46529352246112421 -0.37999909927047221 0 -0.46451103528570892 -0.38728037312315899 0 -0.45753405095905991 -0.38096334164819928 0 -0.45883444886029728 -0.39542892813866781 0 -0.44366086430843421 -0.38714790528097298 0 -0.45753405095905991 -0.38096334164819928 0 -0.46451103528570892 -0.38728037312315899 0 -0.45883444886029728 -0.39542892813866781 0 -0.4740080334121573 -0.40370995099636803 0 -0.45883444886029728 -0.39542892813866781 0 -0.46749092184770108 -0.39336959226261858 0 -0.46451103528570892 -0.38728037312315899 0 -0.45883444886029728 -0.39542892813866781 0 -0.46749092184770108 -0.39336959226261858 0 -0.4740080334121573 -0.40370995099636803 0 -0.45883444886029728 -0.39542892813866781 0 -0.46035402320962038 -0.40696370259726877 0 -0.4740080334121573 -0.40370995099636803 0 -0.45883444886029728 -0.39542892813866781 0 -0.45883444886029728 -0.39542892813866781 0 -0.44987301768729671 -0.40078775420880941 0 -0.46035402320962038 -0.40696370259726877 0 -0.44987301768729671 -0.40078775420880941 0 -0.45192004036182087 -0.41684785724134049 0 -0.43197048345336708 -0.39863777240217202 0 -0.44987301768729671 -0.40078775420880941 0 -0.44366086430843421 -0.38714790528097298 0 -0.43197048345336708 -0.39863777240217202 0 -0.44366086430843421 -0.38714790528097298 0 -0.43197048345336708 -0.39863777240217202 0 -0.45883444886029728 -0.39542892813866781 0 -0.44987301768729671 -0.40078775420880941 0 -0.44366086430843421 -0.38714790528097298 0 -0.45883444886029728 -0.39542892813866781 0 -0.44366086430843421 -0.38714790528097298 0 -0.44366086430843421 -0.38714790528097298 0 -0.45795069614082701 -0.37310317303709611 0 -0.44501193458412641 -0.37074697587283773 0 -0.44366086430843421 -0.38714790528097298 0 -0.42469924077602689 -0.37679955039130619 0 -0.44501193458412641 -0.37074697587283773 0 -0.45753405095905991 -0.38096334164819928 0 -0.44366086430843421 -0.38714790528097298 0 -0.45795069614082701 -0.37310317303709611 0 -0.44366086430843421 -0.38714790528097298 0 -0.45795069614082701 -0.37310317303709611 0 -0.47186959727027472 -0.43505794208050907 0 -0.45192004036182087 -0.41684785724134049 0 -0.47186959727027472 -0.43505794208050907 0 -0.46713457572653022 -0.41804402240115812 0 -0.45192004036182087 -0.41684785724134049 0 -0.47186959727027472 -0.43505794208050907 0 -0.455466881120904 -0.4372987202930797 0 -0.45192004036182087 -0.41684785724134049 0 -0.44987301768729671 -0.40078775420880941 0 -0.46035402320962038 -0.40696370259726877 0 -0.45192004036182087 -0.41684785724134049 0 -0.4740080334121573 -0.40370995099636803 0 -0.46713457572653022 -0.41804402240115812 0 -0.46035402320962038 -0.40696370259726877 0 -0.46713457572653022 -0.41804402240115812 0 -0.46035402320962038 -0.40696370259726877 0 -0.45192004036182087 -0.41684785724134049 0 -0.45192004036182087 -0.41684785724134049 0 -0.43197048345336708 -0.39863777240217202 0 -0.45192004036182087 -0.41684785724134049 0 -0.43731422920290858 -0.41519459776977108 0 -0.43197048345336708 -0.39863777240217202 0 -0.45192004036182087 -0.41684785724134049 0 -0.43643387444078008 -0.42883277673949832 0 -0.43731422920290858 -0.41519459776977108 0 -0.455466881120904 -0.4372987202930797 0 -0.45192004036182087 -0.41684785724134049 0 -0.43643387444078008 -0.42883277673949832 0 -0.43643387444078008 -0.42883277673949832 0 -0.42461896476434752 -0.41892498694635633 0 -0.41965842300677031 -0.43436847920785948 0 -0.43731422920290858 -0.41519459776977108 0 -0.429700854569394 -0.41112347190871978 0 -0.42461896476434752 -0.41892498694635633 0 -0.43643387444078008 -0.42883277673949832 0 -0.43731422920290858 -0.41519459776977108 0 -0.42461896476434752 -0.41892498694635633 0 -0.43731422920290858 -0.41519459776977108 0 -0.429700854569394 -0.41112347190871978 0 -0.43197048345336708 -0.39863777240217202 0 -0.42416835989533203 -0.40861819247217579 0 -0.42250065298528611 -0.40794517607767339 0 -0.42461896476434752 -0.41892498694635633 0 -0.429700854569394 -0.41112347190871978 0 -0.42416835989533203 -0.40861819247217579 0 -0.42461896476434752 -0.41892498694635633 0 -0.42416835989533203 -0.40861819247217579 0 -0.42250065298528611 -0.40794517607767339 0 -0.42250065298528611 -0.40794517607767339 0 -0.40376839194436898 -0.4263561408621383 0 -0.42250065298528611 -0.40794517607767339 0 -0.42461896476434752 -0.41892498694635633 0 -0.40376839194436898 -0.4263561408621383 0 -0.42250065298528611 -0.40794517607767339 0 -0.39683156878216991 -0.39758621288307699 0 -0.40376839194436898 -0.4263561408621383 0 -0.42461896476434752 -0.41892498694635633 0 -0.41965842300677031 -0.43436847920785948 0 -0.40376839194436898 -0.4263561408621383 0 -0.41965842300677031 -0.43436847920785948 0 -0.40376839194436898 -0.4263561408621383 0 -0.40437648988819258 -0.44627659206687159 0 -0.44366086430843421 -0.38714790528097298 0 -0.42469924077602689 -0.37679955039130619 0 -0.42017486831373091 -0.38787065845529872 0 -0.44366086430843421 -0.38714790528097298 0 -0.42469924077602689 -0.37679955039130619 0 -0.44366086430843421 -0.38714790528097298 0 -0.43197048345336708 -0.39863777240217202 0 -0.42017486831373091 -0.38787065845529872 0 -0.43197048345336708 -0.39863777240217202 0 -0.42017486831373091 -0.38787065845529872 0 -0.43197048345336708 -0.39863777240217202 0 -0.42108728173015347 -0.39632963666229371 0 -0.42017486831373091 -0.38787065845529872 0 -0.42250065298528611 -0.40794517607767339 0 -0.43197048345336708 -0.39863777240217202 0 -0.42250065298528611 -0.
[...]
<PointData Scalars="" Vectors="displacement," Tensors="">
<DataArray type="Float64" Name="displacement" NumberOfComponents="3" format="ascii">
0.054994828405595074 -9.4573474707075631e-07 0 0.052567053946916249 -0.0002914104190773384 0 0.054999274128242209 4.869852413599261e-07 0 0.054994828405595074 -9.4573474707075631e-07 0 0.052567053946916249 -0.0002914104190773384 0 0.048253302158163099 1.2144538706211965e-06 0 0.048253302158163099 1.2144538706211965e-06 0 0.048965351589884062 0.00060763750721339375 0 0.047078325918811233 0.0005152700708446372 0 0.052567053946916249 -0.0002914104190773384 0 0.048253302158163099 1.2144538706211965e-06 0 0.048965351589884062 0.00060763750721339375 0 0.046910275315295138 0.00037594720974000272 0 0.045982979938984953 0.00098389469101759419 0 0.045496851547756081 0.0012032125142545432 0 0.046820799366601731 0.00033679186428196687 0 0.046663206014132604 0.00097356934333565415 0 0.048965351589884062 0.00060763750721339375 0 0.046910275315295138 0.00037594720974000272 0 0.047968401636241512 0.0008897389641024648 0 0.048965351589884062 0.00060763750721339375 0 0.047774392981467226 -0.00033680083896972171 0 0.048526363856292269 -0.00114629901027534 0 0.052567053946916249 -0.0002914104190773384 0 0.048965351589884062 0.00060763750721339375 0 0.048526363856292269 -0.00114629901027534 0 0.048965351589884062 0.00060763750721339375 0 0.047774392981467226 -0.00033680083896972171 0 0.046910275315295138 0.00037594720974000272 0 0.047774392981467226 -0.00033680083896972171 0 0.046950518710050321 -0.00079955854770476491 0 0.046910275315295138 0.00037594720974000272 0 0.048526363856292269 -0.00114629901027534 0 0.046950518710050321 -0.00079955854770476491 0 0.046552794094837403 -0.0009936129403848369 0 0.051406482869257468 -0.00079397935900874417 0 0.050428543394034381 -0.00075059443207807952 0 0.047774392981467226 -0.00033680083896972171 0 0.048526363856292269 -0.00114629901027534 0 0.046950518710050321 -0.00079955854770476491 0 0.054122995205428182 -0.00064913608020411031 0 0.054999274128242209 4.869852413599261e-07 0 0.054909331459922751 -0.00035916529158787824 0 0.052567053946916249 -0.0002914104190773384 0 0.054122995205428182 -0.00064913608020411031 0 0.054999274128242209 4.869852413599261e-07 0 0.052411450725212159 -0.0004339251350809166 0 0.051406482869257468 -0.00079397935900874417 0 0.054999274128242209 4.869852413599261e-07 0 0.05495728360332755 -0.00017385724700399273 0 0.054999694267975692 -4.8116167251075984e-07 0 0.054999274128242209 4.869852413599261e-07 0 0.05495728360332755 -0.00017385724700399273 0 0.054909331459922751 -0.00035916529158787824 0 0.046552794094837403 -0.0009936129403848369 0 0.04592451299317709 -0.00088435654947727942 0 0.046265401523946606 -0.00073208439511909123 0 0.05495728360332755 -0.00017385724700399273 0 0.054909331459922751 -0.00035916529158787824 0 0.054954974552999941 -0.00018313502490261717 0 0.050428543394034381 -0.00075059443207807952 0 0.051812727822327952 5.6257999397250117e-05 0 0.046950518710050321 -0.00079955854770476491 0 0.046552794094837403 -0.0009936129403848369 0 0.046265401523946606 -0.00073208439511909123 0 0.054999694267975692 -4.8116167251075984e-07 0 0.054826355814975171 -0.00014820054102799939 0 0.054956423083852311 -0.00010253188074488692 0 0.05495728360332755 -0.00017385724700399273 0 0.054999694267975692 -4.8116167251075984e-07 0 0.054826355814975171 -0.00014820054102799939 0 0.05490167590514046 -9.6013537382363262e-05 0 0.054826355814975171 -0.00014820054102799939 0 0.054628362496791795 -0.00021521339010540183 0 0.053292486959864972 -0.0001084236722354198 0 0.054628362496791795 -0.00021521339010540183 0 0.054037236236171828 -0.00056544372244598433 0 0.051812727822327952 5.6257999397250117e-05 0 0.055328157583893853 -0.00020735654322837313 0 0.05495728360332755 -0.00017385724700399273 0 0.05490167590514046 -9.6013537382363262e-05 0 0.054826355814975171 -0.00014820054102799939 0 0.05350904468558023 -0.00076612573959916131 0 0.051812727822327952 5.6257999397250117e-05 0 0.054826355814975171 -0.00014820054102799939 0 0.054628362496791795 -0.00021521339010540183 0 0.054956423083852311 -0.00010253188074488692 0 0.054628362496791795 -0.00021521339010540183 0 0.054708675568350011 -0.00063173416966469647 0 0.054917555027380438 -0.00033277082836311375 0 0.054628362496791795 -0.00021521339010540183 0 0.054956423083852311 -0.00010253188074488692 0 0.054917555027380438 -0.00033277082836311375 0 0.054554655391261288 -0.0011432511894587827 0 0.054708675568350011 -0.00063173416966469647 0 0.054951432140004183 -0.0008779261786957945 0 0.054352594838513173 -0.0015440601484187685 0 0.050047098728381076 -0.0021009727632151968 0 0.054554655391261288 -0.0011432511894587827 0 0.054708675568350011 -0.00063173416966469647 0 0.054356311022188374 -0.00072945165930465015 0 0.054628362496791795 -0.00021521339010540183 0 0.054356311022188374 -0.00072945165930465015 0 0.054037236236171828 -0.00056544372244598433 0 0.054628362496791795 -0.00021521339010540183 0 0.054708675568350011 -0.00063173416966469647 0 0.054356311022188374 -0.00072945165930465015 0 0.054554655391261288 -0.0011432511894587827 0 0.053850490936455976 -0.0011002978579503491 0 0.054099946691042067 -0.0020149041530889418 0 0.054554655391261288 -0.0011432511894587827 0 0.054356311022188374 -0.00072945165930465015 0 0.053850490936455976 -0.0011002978579503491 0 0.053292486959864972 -0.0001084236722354198 0 0.053850490936455976 -0.0011002978579503491 0 0.054037236236171828 -0.00056544372244598433 0 0.054356311022188374 -0.00072945165930465015 0 0.053850490936455976 -0.0011002978579503491 0 0.054037236236171828 -0.00056544372244598433 0 0.04592451299317709 -0.00088435654947727942 0 0.045720690057186202 -0.00050540862309833014 0 0.045986079943535985 -0.00054233297378683803 0 0.051812727822327952 5.6257999397250117e-05 0 0.049835321457112489 -0.00093874574963107363 0 0.045720690057186202 -0.00050540862309833014 0 0.045836027438105838 -0.00028908590090882509 0 0.045986079943535985 -0.00054233297378683803 0 0.045836027438105838 -0.00028908590090882509 0 0.046214200430533883 -0.00030410871403393033 0 0.045768761703017885 0.00010387404742658226 0 0.045836027438105838 -0.00028908590090882509 0 0.045525683183205844 -0.00015908027913955465 0 0.045768761703017885 0.00010387404742658226 0 0.045549321086035759 -0.0018152869903360624 0 0.042778803517054036 -0.00038548953273431693 0 0.045720690057186202 -0.00050540862309833014 0 0.045836027438105838 -0.00028908590090882509 0 0.045525683183205844 -0.00015908027913955465 0 0.049835321457112489 -0.00093874574963107363 0 0.045549321086035759 -0.0018152869903360624 0 0.042062926799601726 -0.0030217321567804533 0 0.041451593493892359 -0.0031503752890688105 0 0.041530353843171094 -0.0031614351029044018 0 0.042062926799601726 -0.0030217321567804533 0 0.041773202492439626 -0.002466642832181465 0 0.041530353843171094 -0.0031614351029044018 0 0.054554655391261288 -0.0011432511894587827 0 0.054099946691042067 -0.0020149041530889418 0 0.05492057237418943 -0.0011829758754565026 0 0.045549321086035759 -0.0018152869903360624 0 0.050047098728381076 -0.0021009727632151968 0 0.046739338717840972 -0.00072540846434906634 0 0.046453801702744393 0.00010676238125187143 0 0.046950518710050321 -0.00079955854770476491 0 0.046265401523946606 -0.00073208439511909123 0 0.046214200430533883 -0.00030410871403393033 0 0.046950518710050321 -0.00079955854770476491 0 0.046910275315295138 0.00037594720974000272 0 0.045711186646768619 0.0005377553437155905 0 0.045836027438105838 -0.00028908590090882509 0 0.045986079943535985 -0.00054233297378683803 0 0.046214200430533883 -0.00030410871403393033 0 0.04592451299317709 -0.00088435654947727942 0 0.046265401523946606 -0.00073208439511909123 0 0.045986079943535985 -0.00054233297378683803 0 0.046265401523946606 -0.00073208439511909123 0 0.045986079943535985 -0.00054233297378683803 0 0.046214200430533883 -0.00030410871403393033 0 0.046453801702744393 0.00010676238125187143 0 0.042778803517054036 -0.00038548953273431693 0 0.045711186646768619 0.0005377553437155905 0 0.045725332092499169 0.00087024017652167129 0 0.045473421326408171 0.00094968685043667295 0 0.045711186646768619 0.0005377553437155905 0 0.045982979938984953 0.00098389469101759419 0 0.045725332092499169 0.00087024017652167129 0 0.046910275315295138 0.00037594720974000272 0 0.045711186646768619 0.0005377553437155905 0 0.045982979938984953 0.00098389469101759419 0 0.045982979938984953 0.00098389469101759419 0 0.045745459512637372 0.0010150618696456754 0 0.04563002933057516 0.0010059602521432288 0 0.045725332092499169 0.00087024017652167129 0 0.045683638388659881 0.00096680908965364291 0 0.045745459512637372 0.0010150618696456754 0 0.045982979938984953 0.00098389469101759419 0 0.045725332092499169 0.00087024017652167129 0 0.045745459512637372 0.0010150618696456754 0 0.045725332092499169 0.00087024017652167129 0 0.045683638388659881 0.00096680908965364291 0 0.045473421326408171 0.00094968685043667295 0 0.045686391761312922 0.0010177681272957549 0 0.045704880546248598 0.0010205711426157103 0 0.045745459512637372 0.0010150618696456754 0 0.045683638388659881 0.00096680908965364291 0 0.045686391761312922 0.0010177681272957549 0 0.045745459512637372 0.0010150618696456754 0 0.040056953153777365 0.00010317945170523338 0 0.039824000306128468 0.00019423128370749085 0 0.039824000306128468 0.00019423128370749085 0 0.040068860608120607 0.00014297941797484129 0 0.045704880546248598 0.0010205711426157103 0 0.045745459512637372 0.0010150618696456754 0 0.045684937269855064 0.00073115961518677326 0 0.034747148413202866 -0.00015152595221944182 0 0.034895845568432705 -0.00068055641710795833 0 0.034326730315584093 -0.00055272513072991366 0 0.045745459512637372 0.0010150618696456754 0 0.04563002933057516 0.0010059602521432288 0 0.045684937269855064 0.00073115961518677326 0 0.04563002933057516 0.0010059602521432288 0 0.045684937269855064 0.00073115961518677326 0 0.045005177115391586 0.000730822774988331 0 0.039800001899470056 -0.0017965639622191125 0 0.039531572898045333 -0.0013896514895959913 0 0.039750598447095366 -0.0013079084274090122 0 0.045549321086035759 -0.0018152869903360624 0 0.040451854555931699 -0.0017884634499602048 0 0.039800001899470056 -0.0017965639622191125 0 0.040029222932792555 -0.0015490777602457015 0 0.039750598447095366 -0.0013079084274090122 0 0.042778803517054036 -0.00038548953273431693 0 0.039483659466683502 -0.00097713409276344227 0 0.039346228811465531 -0.00098314243048563629 0 0.039349800746409466 -0.0010681747578353061 0 0.039408524388370919 -0.0010767197779278355 0 0.039824000306128468 0.00019423128370749085 0 0.042778803517054036 -0.00038548953273431693 0 0.039266699537603485 -0.0010538656325319656 0 0.039346228811465531 -0.00098314243048563629 0 0.039349800746409466 -0.0010681747578353061 0 0.045683638388659881 0.00096680908965364291 0 0.045686391761312922 0.0010177681272957549 0 0.045473421326408171 0.00094968685043667295 0 0.045686391761312922 0.0010177681272957549 0 0.045673225038853585 0.0010425354165579952 0 0.045473421326408171 0.00094968685043667295 0 0.039266699537603485 -0.0010538656325319656 0 0.039377342663763526 -0.0011615112931140459 0 0.039310407909377079 -0.0012454056895737199 0 0.039266699537603485 -0.0010538656325319656 0 0.039377342663763526 -0.0011615112931140459 0 0.039349800746409466 -0.0010681747578353061 0 0.039824000306128468 0.00019423128370749085 0 0.037012737151555786 -0.0010399201262024618 0 0.039377342663763526 -0.0011615112931140459 0 0.039349800746409466 -0.0010681747578353061 0 0.039408524388370919 -0.0010767197779278355 0 0.039531572898045333 -0.0013896514895959913 0 0.039750598447095366 -0.0013079084274090122 0 0.039489077396423523 -0.0011884411606191418 0 0.039377342663763526 -0.0011615112931140459 0 0.039408524388370919 -0.0010767197779278355 0 0.039489077396423523 -0.0011884411606191418 0 0.039483659466683502 -0.00097713409276344227 0 0.039568264997781169 -0.0012338119675063164 0 0.039377342663763526 -0.0011615112931140459 0 0.039310407909377079 -0.0012454056895737199 0 0.03943996626383469 -0.0012999080471754864 0 0.039377342663763526 -0.0011615112931140459 0 0.039489077396423523 -0.0011884411606191418 0 0.03943996626383469 -0.0012999080471754864 0 0.037012737151555786 -0.0010399201262024618 0 0.03514706311608809 -0.0016175995541429066 0 0.034895845568432705 -0.00068055641710795833 0 0.034680216863434851 -0.0010658977057056544 0 0.035079775567486038 -0.0012053331254354466 0 0.039310407909377079 -0.0012454056895737199 0 0.03943996626383469 -0.0012999080471754864 0 0.039329304714966193 -0.0014277806435609227 0 0.035646567184032765 -0.0020149533218806926 0 0.03514706311608809 -0.0016175995541429066 0 0.032108160080846333 -0.0025407423635149442 0 0.032056497605221349 -0.0023259438427907374 0 0.032214080382356729 -0.0023277141026065763 0 0.034326730315584093 -0.00055272513072991366 0 0.034358683215302943 -0.00090788107640252756 0 0.034041104208376832 -0.0010058520842561713 0 0.040068860608120607 0.00014297941797484129 0 0.039422219039290211 -0.00047320577305118723 0 0.034895845568432705 -0.00068055641710795833 0 0.034326730315584093 -0.00055272513072991366 0 0.034358683215302943 -0.00090788107640252756 0 0.034895845568432705 -0.00068055641710795833 0 0.034680216863434851 -0.0010658977057056544 0 0.034358683215302943 -0.00090788107640252756 0 0.034680216863434851 -0.0010658977057056544 0 0.034358683215302943 -0.00090788107640252756 0 0.034444363789731668 -0.0011735054479282095 0 0.034358683215302943 -0.00090788107640252756 0 0.03406542254434413 -0.001094466919999566 0 0.034444363789731668 -0.0011735054479282095 0 0.034358683215302943 -0.00090788107640252756 0 0.034041104208376832 -0.0010058520842561713 0 0.03406542254434413 -0.001094466919999566 0 0.034041104208376832 -0.0010058520842561713 0 0.034099572405720528 -0.00099788372340968456 0 0.03406542254434413 -0.001094466919999566 0 0.044802042230080122 1.512600656191304e-05 0 0.045005177115391586 0.000730822774988331 0 0.043741932041099323 8.4784558599011265e-05 0 0.045684937269855064 0.00073115961518677326 0 0.044802042230080122 1.512600656191304e-05 0 0.045005177115391586 0.000730822774988331 0 0.045005177115391586 0.000730822774988331 0 0.044024481352233275 0.00073344185752995941 0 0.043741932041099323 8.4784558599011265e-05 0 0.044802042230080122 1.512600656191304e-05 0 0.043741932041099323 8.4784558599011265e-05 0 0.043257351862351072 -0.00048292038115999345 0 0.039422219039290211 -0.00047320577305118723 0 0.038812962980212459 -0.00067356630843802535 0 0.045068748927040679 0.00049235374718997825 0 0.043145255275143721 -0.00014302499689609403 0 0.046209683159270411 9.3673276300682213e-05 0 0.043100970472134729 1.1108970295275719e-06 0 0.047078325918811233 0.0005152700708446372 0 0.044024481352233275 0.00073344185752995941 0 0.043741932041099323 8.4784558599011265e-05 0 0.042820271513295614 -0.00017040077349051729 0 0.046209683159270411 9.3673276300682213e-05 0 0.043100970472134729 1.1108970295275719e-06 0 0.042820271513295614 -0.00017040077349051729 0 0.043741932041099323 8.4784558599011265e-05 0 0.042820271513295614 -0.00017040077349051729 0 0.043257351862351072 -0.00048292038115999345 0 0.048253302158163099 1.2144538706211965e-06 0 0.043100970472134729 1.1108970295275719e-06 0 0.047078325918811233 0.0005152700708446372 0 0.048965351589884062 0.00060763750721339375 0 0.047078325918811233 0.0005152700708446372 0 0.047968401636241512 0.0008897389641024648 0 0.045982979938984953 0.00098389469101759419 0 0.04563002933057516 0.0010059602521432288 0 0.045496851547756081 0.0012032125142545432 0 0.04563002933057516 0.0010059602521432288 0 0.045005177115391586 0.000730822774988331 0 0.045496851547756081 0.0012032125142545432 0 0.046209683159270411 9.3673276300682213e-05 0 0.047078325918811233 0.0005152700708446372 0 0.047968401636241512 0.0008897389641024648 0 0.045005177115391586 0.000730822774988331 0 0.044024481352233275 0.00073344185752995941 0 0.045496851547756081 0.0012032125142545432 0 0.045068748927040679 0.00049235374718997825 0 0.046663206014132604 0.00097356934333565415 0 0.05491191684198328 0.00032514882814252644 0 0.054898220739590539 6.42478079697953e-05 0 0.054857100497224261 0.00022364347475309189 0 0.050334728321546916 -0.00077952970977386202 0 0.055406757700919386 0.00011000944869602448 0 0.054516175024930107 -0.0017274168896955966 0 0.054414870640144476 -0.00079654319159570017 0 0.053473392344317458 -0.00052543251849490407 0 0.054516175024930107 -0.0017274168896955966 0 0.054414870640144476 -0.00079654319159570017 0 0.055074938091849761 -0.00026074634823441121 0 0.050334728321546916 -0.00077952970977386202 0 0.050128646517896648 -0.0013621032701117009 0 0.054516175024930107 -0.0017274168896955966 0 0.053473392344317458 -0.00052543251849490407 0 0.05264538876263343 -0.0016541320810676294 0 0.054598441000039091 8.7600123595789949e-05 0 0.054568375388041941 -0.00071599303839673723 0 0.054896833322034065 -8.0328366332630538e-05 0 0.054942397703584889 -4.0073163272285653e-05 0 0.054974353234673388 -1.0542675916634439e-05 0 0.053473392344317458 -0.00052543251849490407 0 0.054896833322034065 -8.0328366332630538e-05 0 0.052968009112194583 -4.5228618681290153e-05 0 0.053426319803968558 -0.00012266218319108602 0 0.054568375388041941 -0.00071599303839673723 0 0.054414870640144476 -0.00079654319159570017 0 0.053473392344317458 -0.00052543251849490407 0 0.054896833322034065 -8.0328366332630538e-05 0 0.054414870640144476 -0.00079654319159570017 0 0.055074938091849761 -0.00026074634823441121 0 0.054896833322034065 -8.0328366332630538e-05 0 0.054896833322034065 -8.0328366332630538e-05 0 0.054948446955604018 -2.6781714957800767e-05 0 0.055030735311970336 1.2705501679080768e-05 0 0.054948446955604018 -2.6781714957800767e-05 0 0.054985670880688897 5.9661942785290034e-07 0 0.055030735311970336 1.2705501679080768e-05 0 0.054896833322034065 -8.0328366332630538e-05 0 0.054948446955604018 -2.6781714957800767e-05 0 0.054942397703584889 -4.0073163272285653e-05 0 0.054948446955604018 -2.6781714957800767e-05 0 0.05496469868009915 -2.0521170008840168e-05 0 0.054942397703584889 -4.0073163272285653e-05 0 0.054948446955604018 -2.6781714957800767e-05 0 0.054985670880688897 5.9661942785290034e-07 0 0.05496469868009915 -2.0521170008840168e-05 0 0.054985670880688897 5.9661942785290034e-07 0 0.05499994052943287 -1.4326278104076094e-08 0 0.055000027093548752 2.1164586611255607e-08 0 0.054985670880688897 5.9661942785290034e-07 0 0.05499994052943287 -1.4326278104076094e-08 0 0.05496469868009915 -2.0521170008840168e-05 0 0.05499994052943287 -1.4326278104076094e-08 0 0.05496469868009915 -2.0521170008840168e-05 0 0.054981028693637947 -2.0187793801301775e-05 0 0.054963263946052922 -2.7201542064971464e-05 0 0.054981028693637947 -2.0187793801301775e-05 0 0.054974353234673388 -1.0542675916634439e-05 0 0.05496469868009915 -2.0521170008840168e-05 0 0.054963263946052922 -2.7201542064971464e-05 0 0.054981028693637947 -2.0187793801301775e-05 0 0.05496469868009915 -2.0521170008840168e-05 0 0.054942397703584889 -4.0073163272285653e-05 0 0.054963263946052922 -2.7201542064971464e-05 0 0.054942397703584889 -4.0073163272285653e-05 0 0.054963263946052922 -2.7201542064971464e-05 0 0.054974353234673388 -1.0542675916634439e-05 0 0.054981028693637947 -2.0187793801301775e-05 0 0.054997248574901528 -1.526649765783698e-05 0 0.054974353234673388 -1.0542675916634439e-05 0 0.055818137180161445 -0.0006306438866122494 0 0.054568375388041941 -0.00071599303839673723 0 0.054981028693637947 -2.0187793801301775e-05 0 0.05499999640068081 -2.0739323808787482e-08 0 0.054997248574901528 -1.526649765783698e-05 0 0.05499994052943287 -1.4326278104076094e-08 0 0.054981028693637947 -2.0187793801301775e-05 0 0.05499999640068081 -2.0739323808787482e-08 0 0.05499999640068081 -2.0739323808787482e-08 0 0.054997248574901528 -1.526649765783698e-05 0 0.054999994309302351 3.9716352866567523e-09 0 0.055818137180161445 -0.0006306438866122494 0 0.054999728421331065 1.7450985927739422e-07 0 