<?xml version="1.0"?>
<VTKFile type="UnstructuredGrid" version="0.1" byte_order="LittleEndian">
<UnstructuredGrid>
<Piece NumberOfPoints="31898" NumberOfCells="11152">
<Points>
<DataArray type="Float64" NumberOfComponents="3" format="ascii">
-0.5 -0.5 0 -0.47620991077874902 -0.44978878706170539 0 -0.49999999999999473 -0.42132396840504388 0 -0.5 -0.5 0 -0.47160970827802529 -0.4793630013852106 0 -0.47620991077874902 -0.44978878706170539 0 -0.5 -0.5 0 -0.47160970827802529 -0.4793630013852106 0 -0.44860394795025399 -0.5 0 -0.47160970827802529 -0.4793630013852106 0 -0.44860394795025399 -0.5 0 -0.4490820238307246 -0.45820516232899983 0 -0.44860394795025399 -0.5 0 -0.4490820238307246 -0.45820516232899983 0 -0.42881687682924802 -0.47781464288736519 0 -0.4490820238307246 -0.45820516232899983 0 -0.45555437223955858 -0.42914059360647611 0 -0.4490820238307246 -0.45820516232899983 0 -0.45555437223955858 -0.42914059360647611 0 -0.43867285131603428 -0.4271457417558665 0 -0.4490820238307246 -0.45820516232899983 0 -0.43867285131603428 -0.4271457417558665 0 -0.4263356171060747 -0.44269880333887462 0 -0.47160970827802529 -0.4793630013852106 0 -0.4490820238307246 -0.45820516232899983 0 -0.47620991077874902 -0.44978878706170539 0 -0.4490820238307246 -0.45820516232899983 0 -0.47620991077874902 -0.44978878706170539 0 -0.45555437223955858 -0.42914059360647611 0 -0.47620991077874902 -0.44978878706170539 0 -0.48101336032419229 -0.41069999664450008 0 -0.45555437223955858 -0.42914059360647611 0 -0.47620991077874902 -0.44978878706170539 0 -0.49999999999999473 -0.42132396840504388 0 -0.48101336032419229 -0.41069999664450008 0 -0.49999999999999473 -0.42132396840504388 0 -0.48101336032419229 -0.41069999664450008 0 -0.5 -0.393886241813306 0 -0.49999999999999473 -0.42132396840504388 0 -0.48101336032419229 -0.41069999664450008 0 -0.5 -0.393886241813306 0 -0.47854472220918332 -0.38978458738689759 0 -0.48422759779560409 -0.37130120630367158 0 -0.5 -0.393886241813306 0 -0.5 -0.36644851522156802 0 -0.48422759779560409 -0.37130120630367158 0 -0.48101336032419229 -0.41069999664450008 0 -0.5 -0.393886241813306 0 -0.47854472220918332 -0.38978458738689759 0 -0.48101336032419229 -0.41069999664450008 0 -0.47854472220918332 -0.38978458738689759 0 -0.46202672064839212 -0.40007602488395211 0 -0.48101336032419229 -0.41069999664450008 0 -0.46202672064839212 -0.40007602488395211 0 -0.47854472220918332 -0.38978458738689759 0 -0.46725442735267431 -0.37660061361585562 0 -0.46202672064839212 -0.40007602488395211 0 -0.47854472220918332 -0.38978458738689759 0 -0.46725442735267431 -0.37660061361585562 0 -0.48422759779560409 -0.37130120630367158 0 -0.46725442735267431 -0.37660061361585562 0 -0.46202672064839212 -0.40007602488395211 0 -0.46725442735267431 -0.37660061361585562 0 -0.45645674801697989 -0.38644133236760531 0 -0.46202672064839212 -0.40007602488395211 0 -0.46725442735267431 -0.37660061361585562 0 -0.45645674801697989 -0.38644133236760531 0 -0.4540003998136638 -0.37455519391687309 0 -0.45645674801697989 -0.38644133236760531 0 -0.46202672064839212 -0.40007602488395211 0 -0.44257020456291563 -0.38918913383950271 0 -0.46202672064839212 -0.40007602488395211 0 -0.44257020456291563 -0.38918913383950271 0 -0.44727608925983742 -0.41095911152778891 0 -0.46202672064839212 -0.40007602488395211 0 -0.44257020456291563 -0.38918913383950271 0 -0.44257020456291563 -0.38918913383950271 0 -0.44727608925983742 -0.41095911152778891 0 -0.43479358559901082 -0.4041454901736512 0 -0.44257020456291563 -0.38918913383950271 0 -0.4540003998136638 -0.37455519391687309 0 -0.44172858264042247 -0.37082207246888088 0 -0.45645674801697989 -0.38644133236760531 0 -0.44257020456291563 -0.38918913383950271 0 -0.4540003998136638 -0.37455519391687309 0 -0.46202672064839212 -0.40007602488395211 0 -0.45555437223955858 -0.42914059360647611 0 -0.44727608925983742 -0.41095911152778891 0 -0.46202672064839212 -0.40007602488395211 0 -0.45555437223955858 -0.42914059360647611 0 -0.48101336032419229 -0.41069999664450008 0 -0.46202672064839212 -0.40007602488395211 0 -0.45555437223955858 -0.42914059360647611 0 -0.44727608925983742 -0.41095911152778891 0 -0.43867285131603428 -0.4271457417558665 0 -0.43676601469929588 -0.41441201227470881 0 -0.44727608925983742 -0.41095911152778891 0 -0.43676601469929588 -0.41441201227470881 0 -0.43479358559901082 -0.4041454901736512 0 -0.45555437223955858 -0.42914059360647611 0 -0.44727608925983742 -0.41095911152778891 0 -0.43867285131603428 -0.4271457417558665 0 -0.43867285131603428 -0.4271457417558665 0 -0.42681803064840879 -0.42717069814352421 0 -0.4263356171060747 -0.44269880333887462 0 -0.42681803064840879 -0.42717069814352421 0 -0.41531815884496182 -0.42985383783075998 0 -0.4263356171060747 -0.44269880333887462 0 -0.42681803064840879 -0.42717069814352421 0 -0.42624289495594048 -0.42089725947505818 0 -0.42083332353326591 -0.42146747131641099 0 -0.42681803064840879 -0.42717069814352421 0 -0.43096994786351572 -0.41951492446283251 0 -0.42624289495594048 -0.42089725947505818 0 -0.43867285131603428 -0.4271457417558665 0 -0.42681803064840879 -0.42717069814352421 0 -0.43096994786351572 -0.41951492446283251 0 -0.43867285131603428 -0.4271457417558665 0 -0.43676601469929588 -0.41441201227470881 0 -0.43096994786351572 -0.41951492446283251 0 -0.43676601469929588 -0.41441201227470881 0 -0.43096994786351572 -0.41951492446283251 0 -0.42907264086257813 -0.41311715872526122 0 -0.43676601469929588 -0.41441201227470881 0 -0.42907264086257813 -0.41311715872526122 0 -0.43479358559901082 -0.4041454901736512 0 -0.42907264086257813 -0.41311715872526122 0 -0.43479358559901082 -0.4041454901736512 0 -0.42460885511582858 -0.40417321677700252 0 -0.42907264086257813 -0.41311715872526122 0 -0.41997834854398469 -0.41180534796019508 0 -0.42907264086257813 -0.41311715872526122 0 -0.42635027777857132 -0.41543594397746519 0 -0.41997834854398469 -0.41180534796019508 0 -0.42907264086257813 -0.41311715872526122 0 -0.41997834854398469 -0.41180534796019508 0 -0.42460885511582858 -0.40417321677700252 0 -0.42635027777857132 -0.41543594397746519 0 -0.41997834854398469 -0.41180534796019508 0 -0.42635027777857132 -0.41543594397746519 0 -0.42083332353326591 -0.42146747131641099 0 -0.41997834854398469 -0.41180534796019508 0 -0.43096994786351572 -0.41951492446283251 0 -0.42624289495594048 -0.42089725947505818 0 -0.42635027777857132 -0.41543594397746519 0 -0.43096994786351572 -0.41951492446283251 0 -0.42907264086257813 -0.41311715872526122 0 -0.42635027777857132 -0.41543594397746519 0 -0.42624289495594048 -0.42089725947505818 0 -0.42635027777857132 -0.41543594397746519 0 -0.42083332353326591 -0.42146747131641099 0 -0.42083332353326591 -0.42146747131641099 0 -0.41997834854398469 -0.41180534796019508 0 -0.40992282953163789 -0.42011435591993562 0 -0.41997834854398469 -0.41180534796019508 0 -0.39756877647335259 -0.40857286797681719 0 -0.41997834854398469 -0.41180534796019508 0 -0.40992282953163789 -0.42011435591993562 0 -0.39756877647335259 -0.40857286797681719 0 -0.40992282953163789 -0.42011435591993562 0 -0.41531815884496182 -0.42985383783075998 0 -0.39591554026262499 -0.42887225451549271 0 -0.41531815884496182 -0.42985383783075998 0 -0.39591554026262499 -0.42887225451549271 0 -0.41160927495564159 -0.44339431233754628 0 -0.42083332353326591 -0.42146747131641099 0 -0.40992282953163789 -0.42011435591993562 0 -0.41531815884496182 -0.42985383783075998 0 -0.42681803064840879 -0.42717069814352421 0 -0.42083332353326591 -0.42146747131641099 0 -0.41531815884496182 -0.42985383783075998 0 -0.44257020456291563 -0.38918913383950271 0 -0.42311368847744002 -0.37830224279505142 0 -0.42594061475171041 -0.39368797999533162 0 -0.44257020456291563 -0.38918913383950271 0 -0.42311368847744002 -0.37830224279505142 0 -0.44172858264042247 -0.37082207246888088 0 -0.44257020456291563 -0.38918913383950271 0 -0.42311368847744002 -0.37830224279505142 0 -0.42311368847744002 -0.37830224279505142 0 -0.42594061475171041 -0.39368797999533162 0 -0.416587075656149 -0.38785930376960043 0 -0.44257020456291563 -0.38918913383950271 0 -0.42594061475171041 -0.39368797999533162 0 -0.43479358559901082 -0.4041454901736512 0 -0.42594061475171041 -0.39368797999533162 0 -0.43479358559901082 -0.4041454901736512 0 -0.42460885511582858 -0.40417321677700252 0 -0.41997834854398469 -0.41180534796019508 0 -0.41325908582185972 -0.39811010703057192 0 -0.39770572831670092 -0.39911486077581648 0 -0.41997834854398469 -0.41180534796019508 0 -0.39770572831670092 -0.39911486077581648 0 -0.42594061475171041 -0.39368797999533162 0 -0.42460885511582858 -0.40417321677700252 0 -0.41325908582185972 -0.39811010703057192 0 -0.41997834854398469 -0.41180534796019508 0 -0.42460885511582858 -0.40417321677700252 0 -0.41325908582185972 -0.39811010703057192 0 -0.42594061475171041 -0.39368797999533162 0 -0.41325908582185972 -0.39811010703057192 0 -0.416587075656149 -0.38785930376960043 0 -0.41325908582185972 -0.39811010703057192 0 -0.416587075656149 -0.38785930376960043 0 -0.40403491357358612 -0.38133688525744702 0 -0.42311368847744002 -0.37830224279505142 0 -0.40403491357358612 -0.38133688525744702 0 -0.40365717239196519 -0.36741535175059892 0 -0.42311368847744002 -0.37830224279505142 0 -0.416587075656149 -0.38785930376960043 0 -0.40403491357358612 -0.38133688525744702 0 -0.40403491357358612 -0.38133688525744702 0 -0.39190790742475001 -0.38540387676521748 0 -0.39770572831670092 -0.39911486077581648 0 -0.40403491357358612 -0.38133688525744702 0 -0.39190790742475001 -0.38540387676521748 0 -0.3904578797192948 -0.37473938743617019 0 -0.41325908582185972 -0.39811010703057192 0 -0.40403491357358612 -0.38133688525744702 0 -0.39770572831670092 -0.39911486077581648 0 -0.39770572831670092 -0.39911486077581648 0 -0.37543310808941849 -0.38642437359143528 0 -0.39770572831670092 -0.39911486077581648 0 -0.37515920440272033 -0.40534038799344108 0 -0.37543310808941849 -0.38642437359143528 0 -0.39770572831670092 -0.39911486077581648 0 -0.37515920440272033 -0.40534038799344108 0 -0.39756877647335259 -0.40857286797681719
[...]
<PointData Scalars="" Vectors="displacement," Tensors="">
<DataArray type="Float64" Name="displacement" NumberOfComponents="3" format="ascii">
-0.034997426016886754 -0.034998012806472759 0 -0.032620504939313448 -0.034360723552526354 0 -0.029503326311211601 -0.034995329897742122 0 -0.034997426016886754 -0.034998012806472759 0 -0.034425689352141707 -0.033706572033831192 0 -0.032620504939313448 -0.034360723552526354 0 -0.034997426016886754 -0.034998012806472759 0 -0.034425689352141707 -0.033706572033831192 0 -0.034998039961288141 -0.031405241764737246 0 -0.034425689352141707 -0.033706572033831192 0 -0.034998039961288141 -0.031405241764737246 0 -0.034611416951397612 -0.033167185291363109 0 -0.034998039961288141 -0.031405241764737246 0 -0.034611416951397612 -0.033167185291363109 0 -0.035092371459997947 -0.030769225806800214 0 -0.034188997539466852 -0.033445935515710505 0 -0.034841058103774282 -0.034093736324464656 0 -0.034611416951397612 -0.033167185291363109 0 -0.037285147657592742 -0.033265442089498172 0 -0.037504120310852596 -0.031989485374012264 0 -0.034611416951397612 -0.033167185291363109 0 -0.037504120310852596 -0.031989485374012264 0 -0.036422050089069215 -0.030947549854545373 0 -0.034425689352141707 -0.033706572033831192 0 -0.034611416951397612 -0.033167185291363109 0 -0.032620504939313448 -0.034360723552526354 0 -0.034611416951397612 -0.033167185291363109 0 -0.032620504939313448 -0.034360723552526354 0 -0.031862836471450176 -0.034933912312445109 0 -0.032620504939313448 -0.034360723552526354 0 -0.030391612581712159 -0.034612270055009525 0 -0.031862836471450176 -0.034933912312445109 0 -0.032620504939313448 -0.034360723552526354 0 -0.029503326311211601 -0.034995329897742122 0 -0.030391612581712159 -0.034612270055009525 0 -0.02949266381904091 -0.034999993429117651 0 -0.028749714521557317 -0.036315360709206788 0 -0.027572047752015345 -0.034999990988956717 0 -0.029493010824251351 -0.035000143208010613 0 -0.029621138718274081 -0.035696856963064398 0 -0.027572047752015345 -0.034999990988956717 0 -0.027290736495725169 -0.03648670092089866 0 -0.02599428868318324 -0.036093386739443664 0 -0.027572047752015345 -0.034999990988956717 0 -0.025651400651413185 -0.034999989834781829 0 -0.02599428868318324 -0.036093386739443664 0 -0.028749714521557317 -0.036315360709206788 0 -0.027572047752015345 -0.034999990988956717 0 -0.027290736495725169 -0.03648670092089866 0 -0.028749714521557317 -0.036315360709206788 0 -0.027290736495725169 -0.03648670092089866 0 -0.028017092854660489 -0.03762748441403857 0 -0.029621138718274081 -0.035696856963064398 0 -0.031335785981221081 -0.035122328249539335 0 -0.027290736495725169 -0.03648670092089866 0 -0.02636816228409064 -0.037273550029560801 0 -0.028017092854660489 -0.03762748441403857 0 -0.027290736495725169 -0.03648670092089866 0 -0.02636816228409064 -0.037273550029560801 0 -0.02599428868318324 -0.036093386739443664 0 -0.025738042444290291 -0.036613180097521854 0 -0.031335785981221081 -0.035122328249539335 0 -0.025738494096638902 -0.03697728815302323 0 -0.025730379306571478 -0.037037092450779463 0 -0.025788660918767019 -0.037017056441775442 0 -0.025738494096638902 -0.03697728815302323 0 -0.025730379306571478 -0.037037092450779463 0 -0.02563933300922526 -0.037082408108926497 0 -0.025730379306571478 -0.037037092450779463 0 -0.025788660918767019 -0.037017056441775442 0 -0.025701354746681747 -0.03706888970446294 0 -0.038893127611892654 -0.033259018457143526 0 -0.039265985562231931 -0.032186149644141217 0 -0.038368179219658072 -0.03251890748372456 0 -0.031335785981221081 -0.035122328249539335 0 -0.03233393682270639 -0.034533462712679583 0 -0.039265985562231931 -0.032186149644141217 0 -0.038368179219658072 -0.03251890748372456 0 -0.038669959227829287 -0.031826519628754824 0 -0.025701354746681747 -0.03706888970446294 0 -0.02563933300922526 -0.037082408108926497 0 -0.025615939141138164 -0.037072495037788172 0 -0.025730379306571478 -0.037037092450779463 0 -0.025701354746681747 -0.03706888970446294 0 -0.02563933300922526 -0.037082408108926497 0 -0.038893127611892654 -0.033259018457143526 0 -0.037285147657592742 -0.033265442089498172 0 -0.038368179219658072 -0.03251890748372456 0 -0.031335785981221081 -0.035122328249539335 0 -0.034841058103774282 -0.034093736324464656 0 -0.030391612581712159 -0.034612270055009525 0 -0.030259537142665809 -0.035114515644450076 0 -0.031862836471450176 -0.034933912312445109 0 -0.038368179219658072 -0.03251890748372456 0 -0.037504120310852596 -0.031989485374012264 0 -0.038225067470022737 -0.031899327583164043 0 -0.038368179219658072 -0.03251890748372456 0 -0.038225067470022737 -0.031899327583164043 0 -0.038669959227829287 -0.031826519628754824 0 -0.037285147657592742 -0.033265442089498172 0 -0.038368179219658072 -0.03251890748372456 0 -0.037504120310852596 -0.031989485374012264 0 -0.037504120310852596 -0.031989485374012264 0 -0.037468362587772273 -0.031132194086108424 0 -0.036422050089069215 -0.030947549854545373 0 -0.037468362587772273 -0.031132194086108424 0 -0.037288885106555605 -0.030299764191336787 0 -0.036422050089069215 -0.030947549854545373 0 -0.037468362587772273 -0.031132194086108424 0 -0.03786997556028017 -0.031149247154573935 0 -0.037833399710407646 -0.030736222576256841 0 -0.037468362587772273 -0.031132194086108424 0 -0.037957576315384552 -0.031510291941030666 0 -0.03786997556028017 -0.031149247154573935 0 -0.037504120310852596 -0.031989485374012264 0 -0.037468362587772273 -0.031132194086108424 0 -0.037957576315384552 -0.031510291941030666 0 -0.037504120310852596 -0.031989485374012264 0 -0.038225067470022737 -0.031899327583164043 0 -0.037957576315384552 -0.031510291941030666 0 -0.038225067470022737 -0.031899327583164043 0 -0.037957576315384552 -0.031510291941030666 0 -0.038362197448935272 -0.031478719245657892 0 -0.038225067470022737 -0.031899327583164043 0 -0.038362197448935272 -0.031478719245657892 0 -0.038669959227829287 -0.031826519628754824 0 -0.038362197448935272 -0.031478719245657892 0 -0.038669959227829287 -0.031826519628754824 0 -0.038657499491538468 -0.031434218015534726 0 -0.038150275550138682 -0.03098297512028236 0 -0.038130498648613217 -0.030639680989409331 0 -0.038362197448935272 -0.031478719245657892 0 -0.038220643795492719 -0.031214968532537059 0 -0.038549309969292456 -0.030664639374120096 0 -0.038362197448935272 -0.031478719245657892 0 -0.03844982596749405 -0.031294101308356068 0 -0.038657499491538468 -0.031434218015534726 0 -0.038119832567404283 -0.030749101461044884 0 -0.038130498648613217 -0.030639680989409331 0 -0.038220643795492719 -0.031214968532537059 0 -0.037833399710407646 -0.030736222576256841 0 -0.038517095952039171 -0.030677423459096013 0 -0.037957576315384552 -0.031510291941030666 0 -0.03786997556028017 -0.031149247154573935 0 -0.038220643795492719 -0.031214968532537059 0 -0.037957576315384552 -0.031510291941030666 0 -0.038362197448935272 -0.031478719245657892 0 -0.038220643795492719 -0.031214968532537059 0 -0.03786997556028017 -0.031149247154573935 0 -0.038220643795492719 -0.031214968532537059 0 -0.037833399710407646 -0.030736222576256841 0 -0.037833399710407646 -0.030736222576256841 0 -0.038517095952039171 -0.030677423459096013 0 -0.037938705312620238 -0.029958922639104279 0 -0.038130498648613217 -0.030639680989409331 0 -0.038254132521946628 -0.02905442112108569 0 -0.038517095952039171 -0.030677423459096013 0 -0.037938705312620238 -0.029958922639104279 0 -0.038712602772509666 -0.029120543184911082 0 -0.037938705312620238 -0.029958922639104279 0 -0.037288885106555605 -0.030299764191336787 0 -0.03737134454378703 -0.029014105674396086 0 -0.037288885106555605 -0.030299764191336787 0 -0.03737134454378703 -0.029014105674396086 0 -0.036446027541771814 -0.030005123174410574 0 -0.037833399710407646 -0.030736222576256841 0 -0.037938705312620238 -0.029958922639104279 0 -0.037288885106555605 -0.030299764191336787 0 -0.037468362587772273 -0.031132194086108424 0 -0.037833399710407646 -0.030736222576256841 0 -0.037288885106555605 -0.030299764191336787 0 -0.039265985562231931 -0.032186149644141217 0 -0.0393874102205529 -0.031422981789709745 0 -0.038993314280713516 -0.031512123551744847 0 -0.025701354746681747 -0.03706888970446294 0 -0.025623862173252972 -0.037015338586472192 0 -0.025615939141138164 -0.037072495037788172 0 -0.03233393682270639 -0.034533462712679583 0 -0.032330961751721309 -0.034279707216583959 0 -0.0393874102205529 -0.031422981789709745 0 -0.038993314280713516 -0.031512123551744847 0 -0.039108699137249278 -0.031235798530869305 0 -0.039265985562231931 -0.032186149644141217 0 -0.038993314280713516 -0.031512123551744847 0 -0.038669959227829287 -0.031826519628754824 0 -0.038993314280713516 -0.031512123551744847 0 -0.038669959227829287 -0.031826519628754824 0 -0.038657499491538468 -0.031434218015534726 0 -0.03844982596749405 -0.031294101308356068 0 -0.03883780590115192 -0.031133121472203807 0 -0.038831990821418146 -0.030759928950058135 0 -0.038130498648613217 -0.030639680989409331 0 -0.038319536554094258 -0.029816051802517434 0 -0.038993314280713516 -0.031512123551744847 0 -0.038657499491538468 -0.031434218015534726 0 -0.03883780590115192 -0.031133121472203807 0 -0.03844982596749405 -0.031294101308356068 0 -0.038657499491538468 -0.031434218015534726 0 -0.03883780590115192 -0.031133121472203807 0 -0.038993314280713516 -0.031512123551744847 0 -0.03883780590115192 -0.031133121472203807 0 -0.039108699137249278 -0.031235798530869305 0 -0.03883780590115192 -0.031133121472203807 0 -0.039108699137249278 -0.031235798530869305 0 -0.03921095679770692 -0.030890600429758608 0 -0.0393874102205529 -0.031422981789709745 0 -0.03921095679770692 -0.030890600429758608 0 -0.039565747155156553 -0.030888930616450379 0 -0.0393874102205529 -0.031422981789709745 0 -0.039108699137249278 -0.031235798530869305 0 -0.03921095679770692 -0.030890600429758608 0 -0.03921095679770692 -0.030890600429758608 0 -0.039095825506285951 -0.030672261860215579 0 -0.038831990821418146 -0.030759928950058135 0 -0.03921095679770692 -0.030890600429758608 0 -0.039095825506285951 -0.030672261860215579 0 -0.039249214037260879 -0.030654054539570295 0 -0.03883780590115192 -0.031133121472203807 0 -0.03921095679770692 -0.030890600429758608 0 -0.038831990821418146 -0.030759928950058135 0 -0.038319536554094258 -0.029816051802517434 0 -0.037830944025490969 -0.026529379706470277 0 -0.038430832032398193 -0.028791915999412498 0 -0.037984713899323973 -0.027175093139287808 0 -0.039329149784446155 -0.027193957642792383 0 -0.038430832032398193 -0.028791915999412498 0 -0.037984713899323973 -0.027175093139287808 0 -0.037755609442777942 -0.028782774268721809 0 -0.03870681410457194 -0.026199629997113092 0 -0.037830944025490969 -0.026529379706470277 0 -0.039077665112267609 -0.030410305922507333 0 -0.039249214037260879 -0.030654054539570295 0 -0.039303684616290316 -0.030443477470390629 0 -0.039095825506285951 -0.030672261860215579 0 -0.039077665112267609 -0.030410305922507333 0 -0.039249214037260879 -0.030654054539570295 0 -0.037830944025490969 -0.026529379706470277 0 -0.037173188431628472 -0.027003722882245805 0 -0.039095825506285951 -0.030672261860215579 0 -0.038831990821418146 -0.030759928950058135 0 -0.039077665112267609 -0.030410305922507333 0 -0.037531143360869337 -0.030395291300179313 0 -0.038430832032398193 -0.028791915999412498 0 -0.037755609442777942 -0.028782774268721809 0 -0.037938705312620238 -0.029958922639104279 0 -0.03737134454378703 -0.029014105674396086 0 -0.038712602772509666 -0.029120543184911082 0 -0.038917232665887196 -0.027649736362327003 0 -0.03737134454378703 -0.029014105674396086 0 -0.038712602772509666 -0.029120543184911082 0 -0.03870681410457194 -0.026199629997113092 0 -0.038254132521946628 -0.02905442112108569 0 -0.038917232665887196 -0.027649736362327003 0 -0.03737134454378703 -0.029014105674396086 0 -0.036954549462304476 -0.027639070747856452 0 -0.03737134454378703 -0.029014105674396086 0 -0.036246990521958816 -0.028817741799397126 0 -0.036954549462304476 -0.027639070747856452 0 -0.036246990521958816 -0.028817741799397126 0 -0.035042543976813507 -0.027615502265638719 0 -0.036954549462304476 -0.027639070747856452 0 -0.03737134454378703 -0.029014105674396086 0 -0.036246990521958816 -0.028817741799397126 0 -0.036446027541771814 -0.030005123174410574 0 -0.036246990521958816 -0.028817741799397126 0 -0.035551111186452218 -0.029512637021422875 0 -0.036446027541771814 -0.030005123174410574 0 -0.035953247529770867 -0.029432921421100884 0 -0.035576879659990457 -0.028216164034416964 0 -0.03553370712613399 -0.02968851022143737 0 -0.03786755911328752 -0.028199653751118665 0 -0.037603551876915983 -0.027207305750988356 0 -0.036452907937081933 -0.027433699800168278 0 -0.036591500597518548 -0.02869962670183418 0 -0.035926326730212003 -0.027758392286217532 0 -0.036591500597518548 -0.02869962670183418 0 -0.036587866520096643 -0.028741594905769902 0 -0.036591500597518548 -0.02869962670183418 0 -0.036537575387248271 -0.027838751800567295 0 -0.036246990521958816 -0.028817741799397126 0 -0.035551111186452218 -0.029512637021422875 0 -0.035296362851278379 -0.028565257722564897 0 -0.036246990521958816 -0.028817741799397126 0 -0.035296362851278379 -0.028565257722564897 0 -0.035042543976813507 -0.027615502265638719 0 -0.036537575387248271 -0.027838751800567295 0 -0.036494430290168828 -0.026473522572813633 0 -0.037603551876915983 -0.027207305750988356 0 -0.036934653404012419 -0.026846003654115096 0 -0.037337667451328993 -0.026207181901895606 0 -0.036934653404012419 -0.026846003654115096 0 -0.036452907937081933 -0.027433699800168278 0 -0.036553469816376444 -0.026187724871814116 0 -0.036452907937081933 -0.027433699800168278 0 -0.035704801585647553 -0.026068211125639007 0 -0.036553469816376444 -0.026187724871814116 0 -0.036934653404012419 -0.026846003654115096 0 -0.036553469816376444 -0.026187724871814116 0 -0.037337667451328993 -0.026207181901895606 0 -0.037603551876915983 -0.027207305750988356 0 -0.036934653404012419 -0.026846003654115096 0 -0.036452907937081933 -0.027433699800168278 0 -0.035000112130648485 -0.026666854146876858 0 -0.035926326730212003 -0.027758392286217532 0 -0.034999998277000337 -0.026666248295236911 0 -0.036452907937081933 -0.027433699800168278 0 -0.035704801585647553 -0.026068211125639007 0 -0.034999874172512088 -0.026667527136650073 0 -0.035576879659990457 -0.028216164034416964 0 -0.034999123949368632 -0.028699159392332415 0 -0.035576879659990457 -0.028216164034416964 0 -0.03553370712613399 -0.02968851022143737 0 -0.034999123949368632 -0.028699159392332415 0 -0.03553370712613399 -0.02968851022143737 0 -0.034999123949368632 -0.028699159392332415 0 -0.035092371459997947 -0.030769225806800214 0 -0.034998039961288141 -0.031405241764737246 0 -0.034999123949368632 -0.028699159392332415 0 -0.035092371459997947 -0.030769225806800214 0 -0.03553370712613399 -0.02968851022143737 0 -0.035092371459997947 -0.030769225806800214 0 -0.035439259846603122 -0.030874861132368536 0 -0.034611416951397612 -0.033167185291363109 0 -0.035092371459997947 -0.030769225806800214 0 -0.035439259846603122 -0.030874861132368536 0 -0.034611416951397612 -0.033167185291363109 0 -0.035439259846603122 -0.030874861132368536 0 -0.036422050089069215 -0.030947549854545373 0 -0.035439259846603122 -0.030874861132368536 0 -0.036422050089069215 -0.030947549854545373 0 -0.035928510369998189 -0.030199765092823589 0 -0.036422050089069215 -0.030947549854545373 0 -0.036446027541771814 -0.030005123174410574 0 -0.035928510369998189 -0.030199765092823589 0 -0.037288885106555605 -0.030299764191336787 0 -0.036422050089069215 -0.030947549854545373 0 -0.036446027541771814 -0.030005123174410574 0 -0.035917958382548694 -0.029450890073377207 0 -0.036446027541771814 -0.030005123174410574 0 -0.035939418157325279 -0.029582927387764642 0 -0.036446027541771814 -0.030005123174410574 0 -0.035939418157325279 -0.029582927387764642 0 -0.035928510369998189 -0.030199765092823589 0 -0.036591500597518548 -0.02869962670183418 0 -0.036477705356682447 -0.0292414451183024 0 -0.03553370712613399 -0.02968851022143737 0 -0.035939418157325279 -0.029582927387764642 0 -0.035928510369998189 -0.030199765092823589 0 -0.035953247529770867 -0.029432921421100884 0 -0.03553370712613399 -0.02968851022143737 0 -0.035939418157325279 -0.029582927387764642 0 -0.03553370712613399 -0.02968851022143737 0 -0.035439259846603122 -0.030874861132368536 0 -0.035928510369998189 -0.030199765092823589 0 -0.016831634224498026 -0.037860679657209434 0 -0.012932358738093577 -0.036137559033334932 0 -0.017467095060171998 -0.037546077412193672 0 -0.017362266160575023 -0.039547095241960345 0 -0.016298457763757063 -0.037995837859586899 0 -0.019193043214361907 -0.038330756294232285 0 -0.017814904553958021 -0.037870680539132638 0 -0.017684231739139192 -0.039424524437411693 0 -0.019193043214361907 -0.038330756294232285 0 -0.019111836137740354 -0.039684286764662201 0 -0.017684231739139192 -0.039424524437411693 0 -0.019193043214361907 -0.038330756294232285 0 -0.020447330274452315 -0.038929849021065437 0 -0.019111836137740354 -0.039684286764662201 0 -0.019193043214361907 -0.038330756294232285 0 -0.018681355893621354 -0.03712359033344332 0 -0.019765438894478467 -0.036990958850556525 0 -0.019193043214361907 -0.038330756294232285 0 -0.018681355893621354 -0.03712359033344332 0 -0.017814904553958021 -0.037870680539132638 0 -0.016831634224498026 -0.037860679657209434 0 -0.017534288146032573 -0.036465953929984432 0 -0.018681355893621354 -0.03712359033344332 0 -0.017814904553958021 -0.037870680539132638 0 -0.017871709442760633 -0.036224572550127898 0 -0.017467095060171998 -0.037546077412193672 0 -0.017871709442760633 -0.036224572550127898 0 -0.016115336987670582 -0.036505566185269185 0 -0.017871709442760633 -0.036224572550127898 0 -0.017968530515001781 -0.03499964271782894 0 -0.019125827641640048 -0.035987901582190257 0 -0.017871709442760633 -0.036224572550127898 0 -0.017968530515001781 -0.03499964271782894 0 -0.016772788490145497 -0.035638373347779619 0 -0.017968530515001781 -0.03499964271782894 0 -0.019125827641640048 -0.035987901582190257 0 -0.019889433418612081 -0.034999918585395147 0 -0.018681355893621354 -0.03712359033344332 0 -0.017871709442760633 -0.036224572550127898 0 -0.019125827641640048 -0.035987901582190257 0 -0.018681355893621354 -0.03712359033344332 0 -0.019125827641640048 -0.035987901582190257 0 -0.019765438894478467 -0.036990958850556525 0 -0.019765438894478467 -0.036990958850556525 0 -0.020413921869208432 -0.035885300646669734 0 -0.020874081933094972 -0.036815836638574469 0 -0.019125827641640048 -0.035987901582190257 0 -0.019765438894478467 -0.036990958850556525 0 -0.020413921869208432 -0.035885300646669734 0 -0.019889433418612081 -0.034999918585395147 0 -0.020413921869208432 -0.035885300646669734 0 -0.021810059715041612 -0.034999919705633237 0 -0.019125827641640048 -0.035987901582190257 0 -0.019889433418612081 -0.034999918585395147 0 -0.020413921869208432 -0.035885300646669734 0 -0.020413921869208432 -0.035885300646669734 0 -0.021810059715041612 -0.034999919705633237 0 -0.021414375890869263 -0.036077276776954964 0 -0.021414375890869263 -0.036077276776954964 0 -0.020874081933094972 -0.036815836638574469 0 -0.02206764568993537 -0.036752765660438488 0 -0.020413921869208432 -0.035885300646669734 0 -0.021414375890869263 -0.036077276776954964 0 -0.020874081933094972 -0.036815836638574469 0 -0.020874081933094972 -0.036815836638574469 0 -0.021468268448547954 -0.03753542579001759 0 -0.02206764568993537 -0.036752765660438488 0 -0.021468268448547954 -0.03753542579001759 0 -0.021240697926199627 -0.038496237154219431 0 -0.022005339537711877 -0.038133416029156868 0 -0.021468268448547954 -0.03753542579001759 0 -0.02047154340064631 -0.037841187403764749 0 -0.021240697926199627 -0.038496237154219431 0 -0.020874081933094972 -0.036815836638574469 0 -0.021468268448547954 -0.03753542579001759 0 -0.02047154340064631 -0.037841187403764749 0 -0.019193043214361907 -0.038330756294232285 0 -0.019765438894478467 -0.036990958850556525 0 -0.02047154340064631 -0.037841187403764749 0 -0.019765438894478467 -0.036990958850556525 0 