<?xml version="1.0"?>
<VTKFile type="UnstructuredGrid" version="0.1" byte_order="LittleEndian">
<UnstructuredGrid>
<Piece NumberOfPoints="31898" NumberOfCells="11152">
<Points>
<DataArray type="Float64" NumberOfComponents="3" format="ascii">
-0.5 -0.5 0 -0.47620991077874902 -0.44978878706170539 0 -0.49999999999999473 -0.42132396840504388 0 -0.5 -0.5 0 -0.47160970827802529 -0.4793630013852106 0 -0.47620991077874902 -0.44978878706170539 0 -0.5 -0.5 0 -0.47160970827802529 -0.4793630013852106 0 -0.44860394795025399 -0.5 0 -0.47160970827802529 -0.4793630013852106 0 -0.44860394795025399 -0.5 0 -0.4490820238307246 -0.45820516232899983 0 -0.44860394795025399 -0.5 0 -0.4490820238307246 -0.45820516232899983 0 -0.42881687682924802 -0.47781464288736519 0 -0.4490820238307246 -0.45820516232899983 0 -0.45555437223955858 -0.42914059360647611 0 -0.4490820238307246 -0.45820516232899983 0 -0.45555437223955858 -0.42914059360647611 0 -0.43867285131603428 -0.4271457417558665 0 -0.4490820238307246 -0.45820516232899983 0 -0.43867285131603428 -0.4271457417558665 0 -0.4263356171060747 -0.44269880333887462 0 -0.47160970827802529 -0.4793630013852106 0 -0.4490820238307246 -0.45820516232899983 0 -0.47620991077874902 -0.44978878706170539 0 -0.4490820238307246 -0.45820516232899983 0 -0.47620991077874902 -0.44978878706170539 0 -0.45555437223955858 -0.42914059360647611 0 -0.47620991077874902 -0.44978878706170539 0 -0.48101336032419229 -0.41069999664450008 0 -0.45555437223955858 -0.42914059360647611 0 -0.47620991077874902 -0.44978878706170539 0 -0.49999999999999473 -0.42132396840504388 0 -0.48101336032419229 -0.41069999664450008 0 -0.49999999999999473 -0.42132396840504388 0 -0.48101336032419229 -0.41069999664450008 0 -0.5 -0.393886241813306 0 -0.49999999999999473 -0.42132396840504388 0 -0.48101336032419229 -0.41069999664450008 0 -0.5 -0.393886241813306 0 -0.47854472220918332 -0.38978458738689759 0 -0.48422759779560409 -0.37130120630367158 0 -0.5 -0.393886241813306 0 -0.5 -0.36644851522156802 0 -0.48422759779560409 -0.37130120630367158 0 -0.48101336032419229 -0.41069999664450008 0 -0.5 -0.393886241813306 0 -0.47854472220918332 -0.38978458738689759 0 -0.48101336032419229 -0.41069999664450008 0 -0.47854472220918332 -0.38978458738689759 0 -0.46202672064839212 -0.40007602488395211 0 -0.48101336032419229 -0.41069999664450008 0 -0.46202672064839212 -0.40007602488395211 0 -0.47854472220918332 -0.38978458738689759 0 -0.46725442735267431 -0.37660061361585562 0 -0.46202672064839212 -0.40007602488395211 0 -0.47854472220918332 -0.38978458738689759 0 -0.46725442735267431 -0.37660061361585562 0 -0.48422759779560409 -0.37130120630367158 0 -0.46725442735267431 -0.37660061361585562 0 -0.46202672064839212 -0.40007602488395211 0 -0.46725442735267431 -0.37660061361585562 0 -0.45645674801697989 -0.38644133236760531 0 -0.46202672064839212 -0.40007602488395211 0 -0.46725442735267431 -0.37660061361585562 0 -0.45645674801697989 -0.38644133236760531 0 -0.4540003998136638 -0.37455519391687309 0 -0.45645674801697989 -0.38644133236760531 0 -0.46202672064839212 -0.40007602488395211 0 -0.44257020456291563 -0.38918913383950271 0 -0.46202672064839212 -0.40007602488395211 0 -0.44257020456291563 -0.38918913383950271 0 -0.44727608925983742 -0.41095911152778891 0 -0.46202672064839212 -0.40007602488395211 0 -0.44257020456291563 -0.38918913383950271 0 -0.44257020456291563 -0.38918913383950271 0 -0.44727608925983742 -0.41095911152778891 0 -0.43479358559901082 -0.4041454901736512 0 -0.44257020456291563 -0.38918913383950271 0 -0.4540003998136638 -0.37455519391687309 0 -0.44172858264042247 -0.37082207246888088 0 -0.45645674801697989 -0.38644133236760531 0 -0.44257020456291563 -0.38918913383950271 0 -0.4540003998136638 -0.37455519391687309 0 -0.46202672064839212 -0.40007602488395211 0 -0.45555437223955858 -0.42914059360647611 0 -0.44727608925983742 -0.41095911152778891 0 -0.46202672064839212 -0.40007602488395211 0 -0.45555437223955858 -0.42914059360647611 0 -0.48101336032419229 -0.41069999664450008 0 -0.46202672064839212 -0.40007602488395211 0 -0.45555437223955858 -0.42914059360647611 0 -0.44727608925983742 -0.41095911152778891 0 -0.43867285131603428 -0.4271457417558665 0 -0.43676601469929588 -0.41441201227470881 0 -0.44727608925983742 -0.41095911152778891 0 -0.43676601469929588 -0.41441201227470881 0 -0.43479358559901082 -0.4041454901736512 0 -0.45555437223955858 -0.42914059360647611 0 -0.44727608925983742 -0.41095911152778891 0 -0.43867285131603428 -0.4271457417558665 0 -0.43867285131603428 -0.4271457417558665 0 -0.42681803064840879 -0.42717069814352421 0 -0.4263356171060747 -0.44269880333887462 0 -0.42681803064840879 -0.42717069814352421 0 -0.41531815884496182 -0.42985383783075998 0 -0.4263356171060747 -0.44269880333887462 0 -0.42681803064840879 -0.42717069814352421 0 -0.42624289495594048 -0.42089725947505818 0 -0.42083332353326591 -0.42146747131641099 0 -0.42681803064840879 -0.42717069814352421 0 -0.43096994786351572 -0.41951492446283251 0 -0.42624289495594048 -0.42089725947505818 0 -0.43867285131603428 -0.4271457417558665 0 -0.42681803064840879 -0.42717069814352421 0 -0.43096994786351572 -0.41951492446283251 0 -0.43867285131603428 -0.4271457417558665 0 -0.43676601469929588 -0.41441201227470881 0 -0.43096994786351572 -0.41951492446283251 0 -0.43676601469929588 -0.41441201227470881 0 -0.43096994786351572 -0.41951492446283251 0 -0.42907264086257813 -0.41311715872526122 0 -0.43676601469929588 -0.41441201227470881 0 -0.42907264086257813 -0.41311715872526122 0 -0.43479358559901082 -0.4041454901736512 0 -0.42907264086257813 -0.41311715872526122 0 -0.43479358559901082 -0.4041454901736512 0 -0.42460885511582858 -0.40417321677700252 0 -0.42907264086257813 -0.41311715872526122 0 -0.41997834854398469 -0.41180534796019508 0 -0.42907264086257813 -0.41311715872526122 0 -0.42635027777857132 -0.41543594397746519 0 -0.41997834854398469 -0.41180534796019508 0 -0.42907264086257813 -0.41311715872526122 0 -0.41997834854398469 -0.41180534796019508 0 -0.42460885511582858 -0.40417321677700252 0 -0.42635027777857132 -0.41543594397746519 0 -0.41997834854398469 -0.41180534796019508 0 -0.42635027777857132 -0.41543594397746519 0 -0.42083332353326591 -0.42146747131641099 0 -0.41997834854398469 -0.41180534796019508 0 -0.43096994786351572 -0.41951492446283251 0 -0.42624289495594048 -0.42089725947505818 0 -0.42635027777857132 -0.41543594397746519 0 -0.43096994786351572 -0.41951492446283251 0 -0.42907264086257813 -0.41311715872526122 0 -0.42635027777857132 -0.41543594397746519 0 -0.42624289495594048 -0.42089725947505818 0 -0.42635027777857132 -0.41543594397746519 0 -0.42083332353326591 -0.42146747131641099 0 -0.42083332353326591 -0.42146747131641099 0 -0.41997834854398469 -0.41180534796019508 0 -0.40992282953163789 -0.42011435591993562 0 -0.41997834854398469 -0.41180534796019508 0 -0.39756877647335259 -0.40857286797681719 0 -0.41997834854398469 -0.41180534796019508 0 -0.40992282953163789 -0.42011435591993562 0 -0.39756877647335259 -0.40857286797681719 0 -0.40992282953163789 -0.42011435591993562 0 -0.41531815884496182 -0.42985383783075998 0 -0.39591554026262499 -0.42887225451549271 0 -0.41531815884496182 -0.42985383783075998 0 -0.39591554026262499 -0.42887225451549271 0 -0.41160927495564159 -0.44339431233754628 0 -0.42083332353326591 -0.42146747131641099 0 -0.40992282953163789 -0.42011435591993562 0 -0.41531815884496182 -0.42985383783075998 0 -0.42681803064840879 -0.42717069814352421 0 -0.42083332353326591 -0.42146747131641099 0 -0.41531815884496182 -0.42985383783075998 0 -0.44257020456291563 -0.38918913383950271 0 -0.42311368847744002 -0.37830224279505142 0 -0.42594061475171041 -0.39368797999533162 0 -0.44257020456291563 -0.38918913383950271 0 -0.42311368847744002 -0.37830224279505142 0 -0.44172858264042247 -0.37082207246888088 0 -0.44257020456291563 -0.38918913383950271 0 -0.42311368847744002 -0.37830224279505142 0 -0.42311368847744002 -0.37830224279505142 0 -0.42594061475171041 -0.39368797999533162 0 -0.416587075656149 -0.38785930376960043 0 -0.44257020456291563 -0.38918913383950271 0 -0.42594061475171041 -0.39368797999533162 0 -0.43479358559901082 -0.4041454901736512 0 -0.42594061475171041 -0.39368797999533162 0 -0.43479358559901082 -0.4041454901736512 0 -0.42460885511582858 -0.40417321677700252 0 -0.41997834854398469 -0.41180534796019508 0 -0.41325908582185972 -0.39811010703057192 0 -0.39770572831670092 -0.39911486077581648 0 -0.41997834854398469 -0.41180534796019508 0 -0.39770572831670092 -0.39911486077581648 0 -0.42594061475171041 -0.39368797999533162 0 -0.42460885511582858 -0.40417321677700252 0 -0.41325908582185972 -0.39811010703057192 0 -0.41997834854398469 -0.41180534796019508 0 -0.42460885511582858 -0.40417321677700252 0 -0.41325908582185972 -0.39811010703057192 0 -0.42594061475171041 -0.39368797999533162 0 -0.41325908582185972 -0.39811010703057192 0 -0.416587075656149 -0.38785930376960043 0 -0.41325908582185972 -0.39811010703057192 0 -0.416587075656149 -0.38785930376960043 0 -0.40403491357358612 -0.38133688525744702 0 -0.42311368847744002 -0.37830224279505142 0 -0.40403491357358612 -0.38133688525744702 0 -0.40365717239196519 -0.36741535175059892 0 -0.42311368847744002 -0.37830224279505142 0 -0.416587075656149 -0.38785930376960043 0 -0.40403491357358612 -0.38133688525744702 0 -0.40403491357358612 -0.38133688525744702 0 -0.39190790742475001 -0.38540387676521748 0 -0.39770572831670092 -0.39911486077581648 0 -0.40403491357358612 -0.38133688525744702 0 -0.39190790742475001 -0.38540387676521748 0 -0.3904578797192948 -0.37473938743617019 0 -0.41325908582185972 -0.39811010703057192 0 -0.40403491357358612 -0.38133688525744702 0 -0.39770572831670092 -0.39911486077581648 0 -0.39770572831670092 -0.39911486077581648 0 -0.37543310808941849 -0.38642437359143528 0 -0.39770572831670092 -0.39911486077581648 0 -0.37515920440272033 -0.40534038799344108 0 -0.37543310808941849 -0.38642437359143528 0 -0.39770572831670092 -0.39911486077581648 0 -0.37515920440272033 -0.40534038799344108 0 -0.39756877647335259 -0.40857286797681719
[...]
<PointData Scalars="" Vectors="displacement," Tensors="">
<DataArray type="Float64" Name="displacement" NumberOfComponents="3" format="ascii">
-0.034997104193828392 -2.6021338369474284e-07 0 -0.034103864072300608 -0.00017004855066081071 0 -0.034997627606954913 -7.2807326372214076e-07 0 -0.034997104193828392 -2.6021338369474284e-07 0 -0.033456322695000845 -0.00010893682211756149 0 -0.034103864072300608 -0.00017004855066081071 0 -0.034997104193828392 -2.6021338369474284e-07 0 -0.033456322695000845 -0.00010893682211756149 0 -0.031404196409515021 -2.271819594980466e-07 0 -0.033456322695000845 -0.00010893682211756149 0 -0.031404196409515021 -2.271819594980466e-07 0 -0.032809208950489631 0.00011228603981645459 0 -0.031404196409515021 -2.271819594980466e-07 0 -0.032809208950489631 0.00011228603981645459 0 -0.031188266141719514 -6.5413064279833957e-05 0 -0.032949063959070719 0.00021637644582440103 0 -0.033191052088708525 0.00031542456424669447 0 -0.032809208950489631 0.00011228603981645459 0 -0.032094848184295026 0.00043486635903624529 0 -0.032030022686951265 0.00014202723839490584 0 -0.032809208950489631 0.00011228603981645459 0 -0.032030022686951265 0.00014202723839490584 0 -0.0321286693285057 7.8947789860881194e-06 0 -0.033456322695000845 -0.00010893682211756149 0 -0.032809208950489631 0.00011228603981645459 0 -0.034103864072300608 -0.00017004855066081071 0 -0.032809208950489631 0.00011228603981645459 0 -0.034103864072300608 -0.00017004855066081071 0 -0.034436438076925889 0.00028972504529087869 0 -0.034103864072300608 -0.00017004855066081071 0 -0.034884645979476013 -2.0437486984119169e-05 0 -0.034436438076925889 0.00028972504529087869 0 -0.034103864072300608 -0.00017004855066081071 0 -0.034997627606954913 -7.2807326372214076e-07 0 -0.034884645979476013 -2.0437486984119169e-05 0 -0.034999998162645644 2.5867371915066209e-10 0 -0.03499682795127184 -1.0405811566443587e-08 0 -0.034999994918862527 -2.1924088980366922e-10 0 -0.034999839643992184 2.4664270903713631e-08 0 -0.034799388836381992 0.00013692549735827024 0 -0.034999994918862527 -2.1924088980366922e-10 0 -0.03499599760947892 -3.907786051527629e-07 0 -0.03499803703561187 -1.1961150220505938e-06 0 -0.034999994918862527 -2.1924088980366922e-10 0 -0.03499999499735354 -2.164490683439417e-09 0 -0.03499803703561187 -1.1961150220505938e-06 0 -0.03499682795127184 -1.0405811566443587e-08 0 -0.034999994918862527 -2.1924088980366922e-10 0 -0.03499599760947892 -3.907786051527629e-07 0 -0.03499682795127184 -1.0405811566443587e-08 0 -0.03499599760947892 -3.907786051527629e-07 0 -0.034991643221967954 4.3864839027749743e-07 0 -0.034799388836381992 0.00013692549735827024 0 -0.03363821721211771 0.00015774729666579021 0 -0.03499599760947892 -3.907786051527629e-07 0 -0.034995022990682086 1.7997972689548028e-07 0 -0.034991643221967954 4.3864839027749743e-07 0 -0.03499599760947892 -3.907786051527629e-07 0 -0.034995022990682086 1.7997972689548028e-07 0 -0.03499803703561187 -1.1961150220505938e-06 0 -0.034285777997049197 5.034578629883072e-05 0 -0.03363821721211771 0.00015774729666579021 0 -0.033472026965393281 0.00014260907940623894 0 -0.033345547478484568 0.0003052766814183131 0 -0.033159712728201889 0.00022995082418682291 0 -0.033472026965393281 0.00014260907940623894 0 -0.033345547478484568 0.0003052766814183131 0 -0.033518400257620172 0.00034770833350196244 0 -0.033345547478484568 0.0003052766814183131 0 -0.033159712728201889 0.00022995082418682291 0 -0.033314272565642511 0.00049688458463262818 0 -0.031680533419996236 0.00052547485353525935 0 -0.03151232640980433 0.00026292740008381773 0 -0.031832630243932118 0.00031057001286218682 0 -0.03363821721211771 0.00015774729666579021 0 -0.032541881782301364 0.00026219244632128496 0 -0.03151232640980433 0.00026292740008381773 0 -0.031832630243932118 0.00031057001286218682 0 -0.031737341688392637 0.00014797939517386863 0 -0.033314272565642511 0.00049688458463262818 0 -0.033518400257620172 0.00034770833350196244 0 -0.033568393989021152 0.00051043969182835785 0 -0.033345547478484568 0.0003052766814183131 0 -0.033314272565642511 0.00049688458463262818 0 -0.033518400257620172 0.00034770833350196244 0 -0.031680533419996236 0.00052547485353525935 0 -0.032094848184295026 0.00043486635903624529 0 -0.031832630243932118 0.00031057001286218682 0 -0.03363821721211771 0.00015774729666579021 0 -0.033191052088708525 0.00031542456424669447 0 -0.034884645979476013 -2.0437486984119169e-05 0 -0.035005210927970674 0.0002554139553048996 0 -0.034436438076925889 0.00028972504529087869 0 -0.031832630243932118 0.00031057001286218682 0 -0.032030022686951265 0.00014202723839490584 0 -0.031892450141204856 0.00016324502100338814 0 -0.031832630243932118 0.00031057001286218682 0 -0.031892450141204856 0.00016324502100338814 0 -0.031737341688392637 0.00014797939517386863 0 -0.032094848184295026 0.00043486635903624529 0 -0.031832630243932118 0.00031057001286218682 0 -0.032030022686951265 0.00014202723839490584 0 -0.032030022686951265 0.00014202723839490584 0 -0.032024124550916473 6.5580988411607788e-05 0 -0.0321286693285057 7.8947789860881194e-06 0 -0.032024124550916473 6.5580988411607788e-05 0 -0.032030024349720639 8.2368447747110745e-05 0 -0.0321286693285057 7.8947789860881194e-06 0 -0.032024124550916473 6.5580988411607788e-05 0 -0.03198056013507436 6.8545693784998366e-05 0 -0.031990290530371487 6.7793829646201965e-05 0 -0.032024124550916473 6.5580988411607788e-05 0 -0.031963852042607627 9.5555001128691273e-05 0 -0.03198056013507436 6.8545693784998366e-05 0 -0.032030022686951265 0.00014202723839490584 0 -0.032024124550916473 6.5580988411607788e-05 0 -0.031963852042607627 9.5555001128691273e-05 0 -0.032030022686951265 0.00014202723839490584 0 -0.031892450141204856 0.00016324502100338814 0 -0.031963852042607627 9.5555001128691273e-05 0 -0.031892450141204856 0.00016324502100338814 0 -0.031963852042607627 9.5555001128691273e-05 0 -0.031894474377719258 7.6911395157889289e-05 0 -0.031892450141204856 0.00016324502100338814 0 -0.031894474377719258 7.6911395157889289e-05 0 -0.031737341688392637 0.00014797939517386863 0 -0.031894474377719258 7.6911395157889289e-05 0 -0.031737341688392637 0.00014797939517386863 0 -0.031734514569280753 -3.6876595041290598e-06 0 -0.030964425807721498 0.00024853558209641196 0 -0.030763629312854316 0.00036181021789985453 0 -0.031894474377719258 7.6911395157889289e-05 0 -0.031942293050008841 5.5180587427993533e-05 0 -0.031900299484983248 -1.9641849761235455e-05 0 -0.031894474377719258 7.6911395157889289e-05 0 -0.031861847548335633 -7.7545294805432647e-05 0 -0.031734514569280753 -3.6876595041290598e-06 0 -0.030952073702973107 0.00039842865246875745 0 -0.030763629312854316 0.00036181021789985453 0 -0.031942293050008841 5.5180587427993533e-05 0 -0.031990290530371487 6.7793829646201965e-05 0 -0.031978720855311615 7.0815490184750001e-05 0 -0.031963852042607627 9.5555001128691273e-05 0 -0.03198056013507436 6.8545693784998366e-05 0 -0.031942293050008841 5.5180587427993533e-05 0 -0.031963852042607627 9.5555001128691273e-05 0 -0.031894474377719258 7.6911395157889289e-05 0 -0.031942293050008841 5.5180587427993533e-05 0 -0.03198056013507436 6.8545693784998366e-05 0 -0.031942293050008841 5.5180587427993533e-05 0 -0.031990290530371487 6.7793829646201965e-05 0 -0.031990290530371487 6.7793829646201965e-05 0 -0.031978720855311615 7.0815490184750001e-05 0 -0.031992644264028626 8.1884223088122429e-05 0 -0.030763629312854316 0.00036181021789985453 0 -0.030007656280064993 0.00035448069891436405 0 -0.031978720855311615 7.0815490184750001e-05 0 -0.031992644264028626 8.1884223088122429e-05 0 -0.031982621430754823 9.7206872188398589e-05 0 -0.031992644264028626 8.1884223088122429e-05 0 -0.032030024349720639 8.2368447747110745e-05 0 -0.031987796838728599 0.00010464306543718835 0 -0.032030024349720639 8.2368447747110745e-05 0 -0.031987796838728599 0.00010464306543718835 0 -0.032035406742223792 0.00014058315557893949 0 -0.031990290530371487 6.7793829646201965e-05 0 -0.031992644264028626 8.1884223088122429e-05 0 -0.032030024349720639 8.2368447747110745e-05 0 -0.032024124550916473 6.5580988411607788e-05 0 -0.031990290530371487 6.7793829646201965e-05 0 -0.032030024349720639 8.2368447747110745e-05 0 -0.03151232640980433 0.00026292740008381773 0 -0.031304292809067637 -2.6241646520212209e-05 0 -0.031562820624333958 1.6289804125721965e-05 0 -0.033314272565642511 0.00049688458463262818 0 -0.033466600534079606 0.00074205084465989851 0 -0.033568393989021152 0.00051043969182835785 0 -0.032541881782301364 0.00026219244632128496 0 -0.032302610322034769 0.00041439255742642449 0 -0.031304292809067637 -2.6241646520212209e-05 0 -0.031562820624333958 1.6289804125721965e-05 0 -0.031454026299756632 -0.00012970979322776452 0 -0.03151232640980433 0.00026292740008381773 0 -0.031562820624333958 1.6289804125721965e-05 0 -0.031737341688392637 0.00014797939517386863 0 -0.031562820624333958 1.6289804125721965e-05 0 -0.031737341688392637 0.00014797939517386863 0 -0.031734514569280753 -3.6876595041290598e-06 0 -0.031861847548335633 -7.7545294805432647e-05 0 -0.031627477406056946 -0.00018572402693331613 0 -0.031641168262520822 -0.00044897676798159034 0 -0.030763629312854316 0.00036181021789985453 0 -0.029950785652653387 0.00017090391390130806 0 -0.031562820624333958 1.6289804125721965e-05 0 -0.031734514569280753 -3.6876595041290598e-06 0 -0.031627477406056946 -0.00018572402693331613 0 -0.031861847548335633 -7.7545294805432647e-05 0 -0.031734514569280753 -3.6876595041290598e-06 0 -0.031627477406056946 -0.00018572402693331613 0 -0.031562820624333958 1.6289804125721965e-05 0 -0.031627477406056946 -0.00018572402693331613 0 -0.031454026299756632 -0.00012970979322776452 0 -0.031627477406056946 -0.00018572402693331613 0 -0.031454026299756632 -0.00012970979322776452 0 -0.031323325089539944 -0.00032606180200993968 0 -0.031304292809067637 -2.6241646520212209e-05 0 -0.031323325089539944 -0.00032606180200993968 0 -0.03111583025213539 -0.00032801808148483588 0 -0.031304292809067637 -2.6241646520212209e-05 0 -0.031454026299756632 -0.00012970979322776452 0 -0.031323325089539944 -0.00032606180200993968 0 -0.031323325089539944 -0.00032606180200993968 0 -0.031379484245978244 -0.00056460069363803 0 -0.031641168262520822 -0.00044897676798159034 0 -0.031323325089539944 -0.00032606180200993968 0 -0.031379484245978244 -0.00056460069363803 0 -0.031160876258083454 -0.00059464616072650166 0 -0.031627477406056946 -0.00018572402693331613 0 -0.031323325089539944 -0.00032606180200993968 0 -0.031641168262520822 -0.00044897676798159034 0 -0.029950785652653387 0.00017090391390130806 0 -0.0268415498525514 0.00038697537157700366 0 -0.028721969615358122 0.00038442889115747466 0 -0.028903155433762432 -0.00031347171702011419 0 -0.028313233944460205 -0.00030425852151809316 0 -0.028721969615358122 0.00038442889115747466 0 -0.028903155433762432 -0.00031347171702011419 0 -0.029016325239506612 0.00037953169678584371 0 -0.026932073667203689 -2.3791680561281707e-06 0 -0.0268415498525514 0.00038697537157700366 0 -0.031387377554589535 -0.00089506510469634524 0 -0.031160876258083454 -0.00059464616072650166 0 -0.0310311736013359 -0.00090000911067868812 0 -0.031379484245978244 -0.00056460069363803 0 -0.031387377554589535 -0.00089506510469634524 0 -0.031160876258083454 -0.00059464616072650166 0 -0.0268415498525514 0.00038697537157700366 0 -0.028268323570640786 -1.1396788222010852e-05 0 -0.031379484245978244 -0.00056460069363803 0 -0.031641168262520822 -0.00044897676798159034 0 -0.031387377554589535 -0.00089506510469634524 0 -0.029135061711554156 0.0010641227702553422 0 -0.028721969615358122 0.00038442889115747466 0 -0.029016325239506612 0.00037953169678584371 0 -0.031992644264028626 8.1884223088122429e-05 0 -0.031987796838728599 0.00010464306543718835 0 -0.031982621430754823 9.7206872188398589e-05 0 -0.031959293189224157 0.00010364262223363558 0 -0.031987796838728599 0.00010464306543718835 0 -0.031982621430754823 9.7206872188398589e-05 0 -0.026932073667203689 -2.3791680561281707e-06 0 -0.030007656280064993 0.00035448069891436405 0 -0.031959293189224157 0.00010364262223363558 0 -0.031987796838728599 0.00010464306543718835 0 -0.031971481557715495 0.00011649875905884935 0 -0.031987796838728599 0.00010464306543718835 0 -0.031986724271988051 0.00011711836231754272 0 -0.031971481557715495 0.00011649875905884935 0 -0.031986724271988051 0.00011711836231754272 0 -0.031935349958053603 0.00013814097655876758 0 -0.031971481557715495 0.00011649875905884935 0 -0.031987796838728599 0.00010464306543718835 0 -0.031986724271988051 0.00011711836231754272 0 -0.032035406742223792 0.00014058315557893949 0 -0.031986724271988051 0.00011711836231754272 0 -0.031983420927131592 0.00012057424410614647 0 -0.032035406742223792 0.00014058315557893949 0 -0.031620737964749089 0.00058086780748151296 0 -0.029679809691836534 0.00071490465178064588 0 -0.031029848379806029 0.00019553602550717393 0 -0.024003400190954198 0.0014488993481012215 0 -0.024167802800261678 0.00077056609411351904 0 -0.024978789684311144 0.00095863131859069261 0 -0.029069100495081143 -7.8902309819206624e-05 0 -0.027257535484016538 0.00063062061036877812 0 -0.029069100495081143 -7.8902309819206624e-05 0 -0.029115650007503893 -7.7421936080761329e-05 0 -0.029069100495081143 -7.8902309819206624e-05 0 -0.027858612833604975 0.00038359804435596212 0 -0.031986724271988051 0.00011711836231754272 0 -0.031983420927131592 0.00012057424410614647 0 -0.031956680656880516 0.00012290600359566675 0 -0.031986724271988051 0.00011711836231754272 0 -0.031956680656880516 0.00012290600359566675 0 -0.031935349958053603 0.00013814097655876758 0 -0.027858612833604975 0.00038359804435596212 0 -0.026370180282832688 0.0006724782539234785 0 -0.024167802800261678 0.00077056609411351904 0 -0.024628711992845664 0.00051035299518347452 0 -0.02433781653395806 4.4437041328267192e-05 0 -0.024628711992845664 0.00051035299518347452 0 -0.024978789684311144 0.00095863131859069261 0 -0.024891136124301508 8.9486551593214186e-06 0 -0.024978789684311144 0.00095863131859069261 0 -0.025545475126520813 -0.00012379503997673108 0 -0.024891136124301508 8.9486551593214186e-06 0 -0.024628711992845664 0.00051035299518347452 0 -0.024891136124301508 8.9486551593214186e-06 0 -0.02433781653395806 4.4437041328267192e-05 0 -0.024167802800261678 0.00077056609411351904 0 -0.024628711992845664 0.00051035299518347452 0 -0.024978789684311144 0.00095863131859069261 0 -0.026667167494987976 4.1507283156275543e-07 0 -0.027257535484016538 0.00063062061036877812 0 -0.026663322381051756 1.7020094357064907e-06 0 -0.024978789684311144 0.00095863131859069261 0 -0.025545475126520813 -0.00012379503997673108 0 -0.026669724689291876 2.7999650120047709e-06 0 -0.029679809691836534 0.00071490465178064588 0 -0.028698728113423676 -5.2764579721575575e-07 0 -0.029679809691836534 0.00071490465178064588 0 -0.031029848379806029 0.00019553602550717393 0 -0.028698728113423676 -5.2764579721575575e-07 0 -0.031029848379806029 0.00019553602550717393 0 -0.028698728113423676 -5.2764579721575575e-07 0 -0.031188266141719514 -6.5413064279833957e-05 0 -0.031404196409515021 -2.271819594980466e-07 0 -0.028698728113423676 -5.2764579721575575e-07 0 -0.031188266141719514 -6.5413064279833957e-05 0 -0.031029848379806029 0.00019553602550717393 0 -0.031188266141719514 -6.5413064279833957e-05 0 -0.03188226507483094 2.355675372286862e-05 0 -0.032809208950489631 0.00011228603981645459 0 -0.031188266141719514 -6.5413064279833957e-05 0 -0.03188226507483094 2.355675372286862e-05 0 -0.032809208950489631 0.00011228603981645459 0 -0.03188226507483094 2.355675372286862e-05 0 -0.0321286693285057 7.8947789860881194e-06 0 -0.03188226507483094 2.355675372286862e-05 0 -0.0321286693285057 7.8947789860881194e-06 0 -0.031865030133532722 0.00012242891284074207 0 -0.0321286693285057 7.8947789860881194e-06 0 -0.032035406742223792 0.00014058315557893949 0 -0.031865030133532722 0.00012242891284074207 0 -0.032030024349720639 8.2368447747110745e-05 0 -0.0321286693285057 7.8947789860881194e-06 0 -0.032035406742223792 0.00014058315557893949 0 -0.031662139759946917 0.00054274308727807283 0 -0.032035406742223792 0.00014058315557893949 0 -0.031678448225766168 0.00044917586381157561 0 -0.032035406742223792 0.00014058315557893949 0 -0.031678448225766168 0.00044917586381157561 0 -0.031865030133532722 0.00012242891284074207 0 -0.029069100495081143 -7.8902309819206624e-05 0 -0.03140098394402057 -0.00050714141267917665 0 -0.031029848379806029 0.00019553602550717393 0 -0.031678448225766168 0.00044917586381157561 0 -0.031865030133532722 0.00012242891284074207 0 -0.031620737964749089 0.00058086780748151296 0 -0.031029848379806029 0.00019553602550717393 0 -0.031678448225766168 0.00044917586381157561 0 -0.031029848379806029 0.00019553602550717393 0 -0.03188226507483094 2.355675372286862e-05 0 -0.031865030133532722 0.00012242891284074207 0 -0.034159455903241133 -0.00022266871125767581 0 -0.030915828539031742 0.00057577061594927062 0 -0.034727853704702709 -0.00038095738589833544 0 -0.034778371619738797 -0.0016972240494648593 0 -0.03408163245237357 -0.00063256314210765523 0 -0.03490974550478413 0.00010393004211708975 0 -0.034926028406562053 7.9167719817511311e-05 0 -0.03492192961034761 0.00013154392981413486 0 -0.03490974550478413 0.00010393004211708975 0 -0.034897210596462315 0.00014794628583723115 0 -0.03492192961034761 0.00013154392981413486 0 -0.03490974550478413 0.00010393004211708975 0 -0.034880067697734093 0.00014854759653499218 0 -0.034897210596462315 0.00014794628583723115 0 -0.03490974550478413 0.00010393004211708975 0 -0.034917568981118773 6.0336683116937535e-05 0 -0.034928264028985731 5.4808016736323361e-05 0 -0.03490974550478413 0.00010393004211708975 0 -0.034917568981118773 6.0336683116937535e-05 0 -0.034926028406562053 7.9167719817511311e-05 0 -0.034159455903241133 -0.00022266871125767581 0 -0.034641631227476467 7.4064388381331139e-05 0 -0.034917568981118773 6.0336683116937535e-05 0 -0.034926028406562053 7.9167719817511311e-05 0 -0.034866437386034677 6.7865939457099233e-05 0 -0.034727853704702709 -0.00038095738589833544 0 -0.034866437386034677 6.7865939457099233e-05 0 -0.034167080649734172 6.7995458686790348e-05 0 -0.034866437386034677 6.7865939457099233e-05 0 -0.034999876305252864 1.3167000502923762e-07 0 -0.034946476087302371 4.0878929889269126e-05 0 -0.034866437386034677 6.7865939457099233e-05 0 -0.034999876305252864 1.3167000502923762e-07 0 -0.03468050482695087 8.3012268406944305e-05 0 -0.034999876305252864 1.3167000502923762e-07 0 -0.034946476087302371 4.0878929889269126e-05 0 -0.034999910994426203 -4.8056166113533992e-09 0 -0.034917568981118773 6.0336683116937535e-05 0 -0.034866437386034677 6.7865939457099233e-05 0 -0.034946476087302371 4.0878929889269126e-05 0 -0.034917568981118773 6.0336683116937535e-05 0 -0.034946476087302371 4.0878929889269126e-05 0 -0.034928264028985731 5.4808016736323361e-05 0 -0.034928264028985731 5.4808016736323361e-05 0 -0.034955922384598978 1.0280412606180306e-05 0 -0.034916847949756247 3.8736242738838846e-05 0 -0.034946476087302371 4.0878929889269126e-05 0 -0.034928264028985731 5.4808016736323361e-05 0 -0.034955922384598978 1.0280412606180306e-05 0 -0.034999910994426203 -4.8056166113533992e-09 0 -0.034955922384598978 1.0280412606180306e-05 0 -0.034999916580849715 1.0109500317686017e-08 0 -0.034946476087302371 4.0878929889269126e-05 0 -0.034999910994426203 -4.8056166113533992e-09 0 -0.034955922384598978 1.0280412606180306e-05 0 -0.034955922384598978 1.0280412606180306e-05 0 -0.034999916580849715 1.0109500317686017e-08 0 -0.034938228117019458 -1.3606488268210385e-05 0 -0.034938228117019458 -1.3606488268210385e-05 0 -0.034916847949756247 3.8736242738838846e-05 0 -0.034824704924756061 2.8540923883345503e-05 0 -0.034955922384598978 1.0280412606180306e-05 0 -0.034938228117019458 -1.3606488268210385e-05 0 -0.034916847949756247 3.8736242738838846e-05 0 -0.034916847949756247 3.8736242738838846e-05 0 -0.034850310978545428 9.2305094849127648e-05 0 -0.034824704924756061 2.8540923883345503e-05 0 -0.034850310978545428 9.2305094849127648e-05 0 -0.034