<?xml version="1.0"?>
<VTKFile type="UnstructuredGrid" version="0.1" byte_order="LittleEndian">
<UnstructuredGrid>
<Piece NumberOfPoints="31898" NumberOfCells="11152">
<Points>
<DataArray type="Float64" NumberOfComponents="3" format="ascii">
-0.5 -0.5 0 -0.47620991077874902 -0.44978878706170539 0 -0.49999999999999473 -0.42132396840504388 0 -0.5 -0.5 0 -0.47160970827802529 -0.4793630013852106 0 -0.47620991077874902 -0.44978878706170539 0 -0.5 -0.5 0 -0.47160970827802529 -0.4793630013852106 0 -0.44860394795025399 -0.5 0 -0.47160970827802529 -0.4793630013852106 0 -0.44860394795025399 -0.5 0 -0.4490820238307246 -0.45820516232899983 0 -0.44860394795025399 -0.5 0 -0.4490820238307246 -0.45820516232899983 0 -0.42881687682924802 -0.47781464288736519 0 -0.4490820238307246 -0.45820516232899983 0 -0.45555437223955858 -0.42914059360647611 0 -0.4490820238307246 -0.45820516232899983 0 -0.45555437223955858 -0.42914059360647611 0 -0.43867285131603428 -0.4271457417558665 0 -0.4490820238307246 -0.45820516232899983 0 -0.43867285131603428 -0.4271457417558665 0 -0.4263356171060747 -0.44269880333887462 0 -0.47160970827802529 -0.4793630013852106 0 -0.4490820238307246 -0.45820516232899983 0 -0.47620991077874902 -0.44978878706170539 0 -0.4490820238307246 -0.45820516232899983 0 -0.47620991077874902 -0.44978878706170539 0 -0.45555437223955858 -0.42914059360647611 0 -0.47620991077874902 -0.44978878706170539 0 -0.48101336032419229 -0.41069999664450008 0 -0.45555437223955858 -0.42914059360647611 0 -0.47620991077874902 -0.44978878706170539 0 -0.49999999999999473 -0.42132396840504388 0 -0.48101336032419229 -0.41069999664450008 0 -0.49999999999999473 -0.42132396840504388 0 -0.48101336032419229 -0.41069999664450008 0 -0.5 -0.393886241813306 0 -0.49999999999999473 -0.42132396840504388 0 -0.48101336032419229 -0.41069999664450008 0 -0.5 -0.393886241813306 0 -0.47854472220918332 -0.38978458738689759 0 -0.48422759779560409 -0.37130120630367158 0 -0.5 -0.393886241813306 0 -0.5 -0.36644851522156802 0 -0.48422759779560409 -0.37130120630367158 0 -0.48101336032419229 -0.41069999664450008 0 -0.5 -0.393886241813306 0 -0.47854472220918332 -0.38978458738689759 0 -0.48101336032419229 -0.41069999664450008 0 -0.47854472220918332 -0.38978458738689759 0 -0.46202672064839212 -0.40007602488395211 0 -0.48101336032419229 -0.41069999664450008 0 -0.46202672064839212 -0.40007602488395211 0 -0.47854472220918332 -0.38978458738689759 0 -0.46725442735267431 -0.37660061361585562 0 -0.46202672064839212 -0.40007602488395211 0 -0.47854472220918332 -0.38978458738689759 0 -0.46725442735267431 -0.37660061361585562 0 -0.48422759779560409 -0.37130120630367158 0 -0.46725442735267431 -0.37660061361585562 0 -0.46202672064839212 -0.40007602488395211 0 -0.46725442735267431 -0.37660061361585562 0 -0.45645674801697989 -0.38644133236760531 0 -0.46202672064839212 -0.40007602488395211 0 -0.46725442735267431 -0.37660061361585562 0 -0.45645674801697989 -0.38644133236760531 0 -0.4540003998136638 -0.37455519391687309 0 -0.45645674801697989 -0.38644133236760531 0 -0.46202672064839212 -0.40007602488395211 0 -0.44257020456291563 -0.38918913383950271 0 -0.46202672064839212 -0.40007602488395211 0 -0.44257020456291563 -0.38918913383950271 0 -0.44727608925983742 -0.41095911152778891 0 -0.46202672064839212 -0.40007602488395211 0 -0.44257020456291563 -0.38918913383950271 0 -0.44257020456291563 -0.38918913383950271 0 -0.44727608925983742 -0.41095911152778891 0 -0.43479358559901082 -0.4041454901736512 0 -0.44257020456291563 -0.38918913383950271 0 -0.4540003998136638 -0.37455519391687309 0 -0.44172858264042247 -0.37082207246888088 0 -0.45645674801697989 -0.38644133236760531 0 -0.44257020456291563 -0.38918913383950271 0 -0.4540003998136638 -0.37455519391687309 0 -0.46202672064839212 -0.40007602488395211 0 -0.45555437223955858 -0.42914059360647611 0 -0.44727608925983742 -0.41095911152778891 0 -0.46202672064839212 -0.40007602488395211 0 -0.45555437223955858 -0.42914059360647611 0 -0.48101336032419229 -0.41069999664450008 0 -0.46202672064839212 -0.40007602488395211 0 -0.45555437223955858 -0.42914059360647611 0 -0.44727608925983742 -0.41095911152778891 0 -0.43867285131603428 -0.4271457417558665 0 -0.43676601469929588 -0.41441201227470881 0 -0.44727608925983742 -0.41095911152778891 0 -0.43676601469929588 -0.41441201227470881 0 -0.43479358559901082 -0.4041454901736512 0 -0.45555437223955858 -0.42914059360647611 0 -0.44727608925983742 -0.41095911152778891 0 -0.43867285131603428 -0.4271457417558665 0 -0.43867285131603428 -0.4271457417558665 0 -0.42681803064840879 -0.42717069814352421 0 -0.4263356171060747 -0.44269880333887462 0 -0.42681803064840879 -0.42717069814352421 0 -0.41531815884496182 -0.42985383783075998 0 -0.4263356171060747 -0.44269880333887462 0 -0.42681803064840879 -0.42717069814352421 0 -0.42624289495594048 -0.42089725947505818 0 -0.42083332353326591 -0.42146747131641099 0 -0.42681803064840879 -0.42717069814352421 0 -0.43096994786351572 -0.41951492446283251 0 -0.42624289495594048 -0.42089725947505818 0 -0.43867285131603428 -0.4271457417558665 0 -0.42681803064840879 -0.42717069814352421 0 -0.43096994786351572 -0.41951492446283251 0 -0.43867285131603428 -0.4271457417558665 0 -0.43676601469929588 -0.41441201227470881 0 -0.43096994786351572 -0.41951492446283251 0 -0.43676601469929588 -0.41441201227470881 0 -0.43096994786351572 -0.41951492446283251 0 -0.42907264086257813 -0.41311715872526122 0 -0.43676601469929588 -0.41441201227470881 0 -0.42907264086257813 -0.41311715872526122 0 -0.43479358559901082 -0.4041454901736512 0 -0.42907264086257813 -0.41311715872526122 0 -0.43479358559901082 -0.4041454901736512 0 -0.42460885511582858 -0.40417321677700252 0 -0.42907264086257813 -0.41311715872526122 0 -0.41997834854398469 -0.41180534796019508 0 -0.42907264086257813 -0.41311715872526122 0 -0.42635027777857132 -0.41543594397746519 0 -0.41997834854398469 -0.41180534796019508 0 -0.42907264086257813 -0.41311715872526122 0 -0.41997834854398469 -0.41180534796019508 0 -0.42460885511582858 -0.40417321677700252 0 -0.42635027777857132 -0.41543594397746519 0 -0.41997834854398469 -0.41180534796019508 0 -0.42635027777857132 -0.41543594397746519 0 -0.42083332353326591 -0.42146747131641099 0 -0.41997834854398469 -0.41180534796019508 0 -0.43096994786351572 -0.41951492446283251 0 -0.42624289495594048 -0.42089725947505818 0 -0.42635027777857132 -0.41543594397746519 0 -0.43096994786351572 -0.41951492446283251 0 -0.42907264086257813 -0.41311715872526122 0 -0.42635027777857132 -0.41543594397746519 0 -0.42624289495594048 -0.42089725947505818 0 -0.42635027777857132 -0.41543594397746519 0 -0.42083332353326591 -0.42146747131641099 0 -0.42083332353326591 -0.42146747131641099 0 -0.41997834854398469 -0.41180534796019508 0 -0.40992282953163789 -0.42011435591993562 0 -0.41997834854398469 -0.41180534796019508 0 -0.39756877647335259 -0.40857286797681719 0 -0.41997834854398469 -0.41180534796019508 0 -0.40992282953163789 -0.42011435591993562 0 -0.39756877647335259 -0.40857286797681719 0 -0.40992282953163789 -0.42011435591993562 0 -0.41531815884496182 -0.42985383783075998 0 -0.39591554026262499 -0.42887225451549271 0 -0.41531815884496182 -0.42985383783075998 0 -0.39591554026262499 -0.42887225451549271 0 -0.41160927495564159 -0.44339431233754628 0 -0.42083332353326591 -0.42146747131641099 0 -0.40992282953163789 -0.42011435591993562 0 -0.41531815884496182 -0.42985383783075998 0 -0.42681803064840879 -0.42717069814352421 0 -0.42083332353326591 -0.42146747131641099 0 -0.41531815884496182 -0.42985383783075998 0 -0.44257020456291563 -0.38918913383950271 0 -0.42311368847744002 -0.37830224279505142 0 -0.42594061475171041 -0.39368797999533162 0 -0.44257020456291563 -0.38918913383950271 0 -0.42311368847744002 -0.37830224279505142 0 -0.44172858264042247 -0.37082207246888088 0 -0.44257020456291563 -0.38918913383950271 0 -0.42311368847744002 -0.37830224279505142 0 -0.42311368847744002 -0.37830224279505142 0 -0.42594061475171041 -0.39368797999533162 0 -0.416587075656149 -0.38785930376960043 0 -0.44257020456291563 -0.38918913383950271 0 -0.42594061475171041 -0.39368797999533162 0 -0.43479358559901082 -0.4041454901736512 0 -0.42594061475171041 -0.39368797999533162 0 -0.43479358559901082 -0.4041454901736512 0 -0.42460885511582858 -0.40417321677700252 0 -0.41997834854398469 -0.41180534796019508 0 -0.41325908582185972 -0.39811010703057192 0 -0.39770572831670092 -0.39911486077581648 0 -0.41997834854398469 -0.41180534796019508 0 -0.39770572831670092 -0.39911486077581648 0 -0.42594061475171041 -0.39368797999533162 0 -0.42460885511582858 -0.40417321677700252 0 -0.41325908582185972 -0.39811010703057192 0 -0.41997834854398469 -0.41180534796019508 0 -0.42460885511582858 -0.40417321677700252 0 -0.41325908582185972 -0.39811010703057192 0 -0.42594061475171041 -0.39368797999533162 0 -0.41325908582185972 -0.39811010703057192 0 -0.416587075656149 -0.38785930376960043 0 -0.41325908582185972 -0.39811010703057192 0 -0.416587075656149 -0.38785930376960043 0 -0.40403491357358612 -0.38133688525744702 0 -0.42311368847744002 -0.37830224279505142 0 -0.40403491357358612 -0.38133688525744702 0 -0.40365717239196519 -0.36741535175059892 0 -0.42311368847744002 -0.37830224279505142 0 -0.416587075656149 -0.38785930376960043 0 -0.40403491357358612 -0.38133688525744702 0 -0.40403491357358612 -0.38133688525744702 0 -0.39190790742475001 -0.38540387676521748 0 -0.39770572831670092 -0.39911486077581648 0 -0.40403491357358612 -0.38133688525744702 0 -0.39190790742475001 -0.38540387676521748 0 -0.3904578797192948 -0.37473938743617019 0 -0.41325908582185972 -0.39811010703057192 0 -0.40403491357358612 -0.38133688525744702 0 -0.39770572831670092 -0.39911486077581648 0 -0.39770572831670092 -0.39911486077581648 0 -0.37543310808941849 -0.38642437359143528 0 -0.39770572831670092 -0.39911486077581648 0 -0.37515920440272033 -0.40534038799344108 0 -0.37543310808941849 -0.38642437359143528 0 -0.39770572831670092 -0.39911486077581648 0 -0.37515920440272033 -0.40534038799344108 0 -0.39756877647335259 -0.40857286797681719
[...]
<PointData Scalars="" Vectors="displacement," Tensors="">
<DataArray type="Float64" Name="displacement" NumberOfComponents="3" format="ascii">
-1.6870621706412892e-06 -0.034996802565246711 0 -0.00017138625423451074 -0.032716338483534661 0 3.5529590769307282e-06 -0.029500819170124818 0 -1.6870621706412892e-06 -0.034996802565246711 0 -0.00015715421230769444 -0.034197623562205667 0 -0.00017138625423451074 -0.032716338483534661 0 -1.6870621706412892e-06 -0.034996802565246711 0 -0.00015715421230769444 -0.034197623562205667 0 6.7708283304388872e-09 -0.034999128140038249 0 -0.00015715421230769444 -0.034197623562205667 0 6.7708283304388872e-09 -0.034999128140038249 0 -9.0065745131638614e-05 -0.034188174843644413 0 6.7708283304388872e-09 -0.034999128140038249 0 -9.0065745131638614e-05 -0.034188174843644413 0 -6.9797071207788414e-05 -0.034751552595577585 0 -6.8292868548672982e-05 -0.034035641484419898 0 0.00030668674049942499 -0.033552187017272035 0 -9.0065745131638614e-05 -0.034188174843644413 0 0.00035781365218305638 -0.034154969617625396 0 0.00038516836038206406 -0.034315711387948929 0 -9.0065745131638614e-05 -0.034188174843644413 0 0.00038516836038206406 -0.034315711387948929 0 0.00018471308914378595 -0.034540468212129652 0 -0.00015715421230769444 -0.034197623562205667 0 -9.0065745131638614e-05 -0.034188174843644413 0 -0.00017138625423451074 -0.032716338483534661 0 -9.0065745131638614e-05 -0.034188174843644413 0 -0.00017138625423451074 -0.032716338483534661 0 0.0006146382332051526 -0.0333613081449343 0 -0.00017138625423451074 -0.032716338483534661 0 0.0013103455342351863 -0.031612511701565135 0 0.0006146382332051526 -0.0333613081449343 0 -0.00017138625423451074 -0.032716338483534661 0 3.5529590769307282e-06 -0.029500819170124818 0 0.0013103455342351863 -0.031612511701565135 0 1.9769308346947808e-06 -0.029489659173773487 0 0.00030252047785195589 -0.027199323853921875 0 -8.2981556620641527e-07 -0.027572048352463088 0 4.5655608100641689e-07 -0.029492236494965064 0 0.00068281725221898729 -0.029449127208894213 0 -8.2981556620641527e-07 -0.027572048352463088 0 -7.7280023045855662e-05 -0.026490647513471976 0 -0.00016594811430888369 -0.025780909196153192 0 -8.2981556620641527e-07 -0.027572048352463088 0 -2.5195546275130403e-07 -0.025651172690747726 0 -0.00016594811430888369 -0.025780909196153192 0 0.00030252047785195589 -0.027199323853921875 0 -8.2981556620641527e-07 -0.027572048352463088 0 -7.7280023045855662e-05 -0.026490647513471976 0 0.00030252047785195589 -0.027199323853921875 0 -7.7280023045855662e-05 -0.026490647513471976 0 0.00013468693457487535 -0.026237390083395696 0 0.00068281725221898729 -0.029449127208894213 0 0.00058365594340572396 -0.028298580197439391 0 -7.7280023045855662e-05 -0.026490647513471976 0 -0.00020383736433838301 -0.026001179476169114 0 0.00013468693457487535 -0.026237390083395696 0 -7.7280023045855662e-05 -0.026490647513471976 0 -0.00020383736433838301 -0.026001179476169114 0 -0.00016594811430888369 -0.025780909196153192 0 -6.3371644921244677e-05 -0.023874960038664475 0 0.00058365594340572396 -0.028298580197439391 0 -3.3608885592000192e-05 -0.020594421010061967 0 -0.00060394779364885721 -0.021194751522693098 0 -0.0013531344562878909 -0.020909786076827506 0 -3.3608885592000192e-05 -0.020594421010061967 0 -0.00060394779364885721 -0.021194751522693098 0 2.3762100715475877e-05 -0.021296447550668045 0 -0.00060394779364885721 -0.021194751522693098 0 -0.0013531344562878909 -0.020909786076827506 0 -0.00077442703579970885 -0.021964010981493885 0 0.00042948189200595744 -0.034251833138059726 0 0.00029397921296750803 -0.034268469403302033 0 0.00044528756080131998 -0.034253546386180812 0 0.00058365594340572396 -0.028298580197439391 0 -0.00022432769959801677 -0.027974140758022473 0 0.00029397921296750803 -0.034268469403302033 0 0.00044528756080131998 -0.034253546386180812 0 0.00042786457978588019 -0.03423481395737641 0 -0.00077442703579970885 -0.021964010981493885 0 2.3762100715475877e-05 -0.021296447550668045 0 0.00021894391013014693 -0.021992366603768191 0 -0.00060394779364885721 -0.021194751522693098 0 -0.00077442703579970885 -0.021964010981493885 0 2.3762100715475877e-05 -0.021296447550668045 0 0.00042948189200595744 -0.034251833138059726 0 0.00035781365218305638 -0.034154969617625396 0 0.00044528756080131998 -0.034253546386180812 0 0.00058365594340572396 -0.028298580197439391 0 0.00030668674049942499 -0.033552187017272035 0 0.0013103455342351863 -0.031612511701565135 0 0.0020175436926624891 -0.032768665899112967 0 0.0006146382332051526 -0.0333613081449343 0 0.00044528756080131998 -0.034253546386180812 0 0.00038516836038206406 -0.034315711387948929 0 0.00046897957012200013 -0.034280895993395191 0 0.00044528756080131998 -0.034253546386180812 0 0.00046897957012200013 -0.034280895993395191 0 0.00042786457978588019 -0.03423481395737641 0 0.00035781365218305638 -0.034154969617625396 0 0.00044528756080131998 -0.034253546386180812 0 0.00038516836038206406 -0.034315711387948929 0 0.00038516836038206406 -0.034315711387948929 0 0.00036363136965395182 -0.034452632735977567 0 0.00018471308914378595 -0.034540468212129652 0 0.00036363136965395182 -0.034452632735977567 0 0.00032655543405812453 -0.034623053712770892 0 0.00018471308914378595 -0.034540468212129652 0 0.00036363136965395182 -0.034452632735977567 0 0.00043226474389778779 -0.034422003999938527 0 0.00042289158932393926 -0.034517745160375229 0 0.00036363136965395182 -0.034452632735977567 0 0.00044805404163446224 -0.034340513501646873 0 0.00043226474389778779 -0.034422003999938527 0 0.00038516836038206406 -0.034315711387948929 0 0.00036363136965395182 -0.034452632735977567 0 0.00044805404163446224 -0.034340513501646873 0 0.00038516836038206406 -0.034315711387948929 0 0.00046897957012200013 -0.034280895993395191 0 0.00044805404163446224 -0.034340513501646873 0 0.00046897957012200013 -0.034280895993395191 0 0.00044805404163446224 -0.034340513501646873 0 0.00053850609203522721 -0.034272528220612504 0 0.00046897957012200013 -0.034280895993395191 0 0.00053850609203522721 -0.034272528220612504 0 0.00042786457978588019 -0.03423481395737641 0 0.00053850609203522721 -0.034272528220612504 0 0.00042786457978588019 -0.03423481395737641 0 0.00043890864379189388 -0.034096540417820773 0 0.00069826840640009396 -0.034223919253149312 0 0.0007263617145634064 -0.034194007470379352 0 0.00053850609203522721 -0.034272528220612504 0 0.0004969523083452359 -0.034380631714741143 0 0.00062779564268146209 -0.034590509722719792 0 0.00053850609203522721 -0.034272528220612504 0 0.00060069606961456223 -0.034005004512459268 0 0.00043890864379189388 -0.034096540417820773 0 0.00071625729614973959 -0.034249156054775541 0 0.0007263617145634064 -0.034194007470379352 0 0.0004969523083452359 -0.034380631714741143 0 0.00042289158932393926 -0.034517745160375229 0 0.00056420425649359818 -0.034526747301097442 0 0.00044805404163446224 -0.034340513501646873 0 0.00043226474389778779 -0.034422003999938527 0 0.0004969523083452359 -0.034380631714741143 0 0.00044805404163446224 -0.034340513501646873 0 0.00053850609203522721 -0.034272528220612504 0 0.0004969523083452359 -0.034380631714741143 0 0.00043226474389778779 -0.034422003999938527 0 0.0004969523083452359 -0.034380631714741143 0 0.00042289158932393926 -0.034517745160375229 0 0.00042289158932393926 -0.034517745160375229 0 0.00056420425649359818 -0.034526747301097442 0 0.00044368497881305504 -0.034674613060756955 0 0.0007263617145634064 -0.034194007470379352 0 0.00074737385322650146 -0.03423183943681251 0 0.00056420425649359818 -0.034526747301097442 0 0.00044368497881305504 -0.034674613060756955 0 0.00058053699950736987 -0.034826097402240574 0 0.00044368497881305504 -0.034674613060756955 0 0.00032655543405812453 -0.034623053712770892 0 0.00034087325585974751 -0.034848205982882387 0 0.00032655543405812453 -0.034623053712770892 0 0.00034087325585974751 -0.034848205982882387 0 0.00017993580786710697 -0.034703801299393398 0 0.00042289158932393926 -0.034517745160375229 0 0.00044368497881305504 -0.034674613060756955 0 0.00032655543405812453 -0.034623053712770892 0 0.00036363136965395182 -0.034452632735977567 0 0.00042289158932393926 -0.034517745160375229 0 0.00032655543405812453 -0.034623053712770892 0 0.00029397921296750803 -0.034268469403302033 0 -2.7777245302662347e-05 -0.034004675094815154 0 0.00028181860710348975 -0.034078569079475075 0 -0.00077442703579970885 -0.021964010981493885 0 -0.00020381228766114891 -0.023068051881431011 0 0.00021894391013014693 -0.021992366603768191 0 -0.00022432769959801677 -0.027974140758022473 0 -0.00012403171925892581 -0.028508200998324944 0 -2.7777245302662347e-05 -0.034004675094815154 0 0.00028181860710348975 -0.034078569079475075 0 0.00015430449219916572 -0.033872306589157047 0 0.00029397921296750803 -0.034268469403302033 0 0.00028181860710348975 -0.034078569079475075 0 0.00042786457978588019 -0.03423481395737641 0 0.00028181860710348975 -0.034078569079475075 0 0.00042786457978588019 -0.03423481395737641 0 0.00043890864379189388 -0.034096540417820773 0 0.00060069606961456223 -0.034005004512459268 0 0.00035788538244540158 -0.033819744959013479 0 0.00041556356062249204 -0.033433748581701096 0 0.0007263617145634064 -0.034194007470379352 0 0.00065902213423750088 -0.033503426945800427 0 0.00028181860710348975 -0.034078569079475075 0 0.00043890864379189388 -0.034096540417820773 0 0.00035788538244540158 -0.033819744959013479 0 0.00060069606961456223 -0.034005004512459268 0 0.00043890864379189388 -0.034096540417820773 0 0.00035788538244540158 -0.033819744959013479 0 0.00028181860710348975 -0.034078569079475075 0 0.00035788538244540158 -0.033819744959013479 0 0.00015430449219916572 -0.033872306589157047 0 0.00035788538244540158 -0.033819744959013479 0 0.00015430449219916572 -0.033872306589157047 0 -8.3972144547331826e-07 -0.033575627095651928 0 -2.7777245302662347e-05 -0.034004675094815154 0 -8.3972144547331826e-07 -0.033575627095651928 0 -0.00031369694233972928 -0.033550353558524849 0 -2.7777245302662347e-05 -0.034004675094815154 0 0.00015430449219916572 -0.033872306589157047 0 -8.3972144547331826e-07 -0.033575627095651928 0 -8.3972144547331826e-07 -0.033575627095651928 0 9.0657433211021536e-05 -0.033261275680337439 0 0.00041556356062249204 -0.033433748581701096 0 -8.3972144547331826e-07 -0.033575627095651928 0 9.0657433211021536e-05 -0.033261275680337439 0 -0.00018348883499007379 -0.033209085571735582 0 0.00035788538244540158 -0.033819744959013479 0 -8.3972144547331826e-07 -0.033575627095651928 0 0.00041556356062249204 -0.033433748581701096 0 0.00065902213423750088 -0.033503426945800427 0 0.00076446308123737496 -0.031730544121716081 0 0.00068741128991869948 -0.033554514241400497 0 0.00086489229461878675 -0.032911392370724643 0 0.00032732537883510532 -0.032915168868510716 0 0.00068741128991869948 -0.033554514241400497 0 0.00086489229461878675 -0.032911392370724643 0 0.00095625772828739129 -0.0335516754590688 0 0.00054714065866815723 -0.03363296130959828 0 0.00076446308123737496 -0.031730544121716081 0 0.00012620525846670898 -0.032817331712111909 0 -0.00018348883499007379 -0.033209085571735582 0 -0.00032873399617692946 -0.032804678481646483 0 9.0657433211021536e-05 -0.033261275680337439 0 0.00012620525846670898 -0.032817331712111909 0 -0.00018348883499007379 -0.033209085571735582 0 0.00076446308123737496 -0.031730544121716081 0 0.00027541599763271357 -0.030419767156750318 0 9.0657433211021536e-05 -0.033261275680337439 0 0.00041556356062249204 -0.033433748581701096 0 0.00012620525846670898 -0.032817331712111909 0 0.0010464479742970918 -0.034190387871825247 0 0.00068741128991869948 -0.033554514241400497 0 0.00095625772828739129 -0.0335516754590688 0 0.00044368497881305504 -0.034674613060756955 0 0.00034087325585974751 -0.034848205982882387 0 0.00058053699950736987 -0.034826097402240574 0 0.00061062997726135443 -0.035072952757272194 0 0.00034087325585974751 -0.034848205982882387 0 0.00058053699950736987 -0.034826097402240574 0 0.00054714065866815723 -0.03363296130959828 0 0.00074737385322650146 -0.03423183943681251 0 0.00061062997726135443 -0.035072952757272194 0 0.00034087325585974751 -0.034848205982882387 0 0.00027066392703993156 -0.035076695907272457 0 0.00034087325585974751 -0.034848205982882387 0 0.00015385922327431742 -0.034883809068570269 0 0.00027066392703993156 -0.035076695907272457 0 0.00015385922327431742 -0.034883809068570269 0 -4.162997865865431e-05 -0.035077655678726234 0 0.00027066392703993156 -0.035076695907272457 0 0.00034087325585974751 -0.034848205982882387 0 0.00015385922327431742 -0.034883809068570269 0 0.00017993580786710697 -0.034703801299393398 0 0.00015385922327431742 -0.034883809068570269 0 4.3788044835396743e-05 -0.034776571681252304 0 0.00017993580786710697 -0.034703801299393398 0 3.9354962272807704e-05 -0.034838628120491218 0 -2.4542883275313896e-05 -0.034941317492443412 0 -2.7244635304700884e-05 -0.034815566614519386 0 5.1929873098311702e-06 -0.034993303774897747 0 4.0663637994262755e-06 -0.034997201277170965 0 5.1132145373236986e-07 -0.034997292436007382 0 5.3856386557665896e-05 -0.034873382557000253 0 -1.9097026506986954e-05 -0.034970438883873654 0 5.3856386557665896e-05 -0.034873382557000253 0 5.4326267033179817e-05 -0.034870228183029504 0 5.3856386557665896e-05 -0.034873382557000253 0 2.0547992804682762e-05 -0.034960978153955831 0 0.00015385922327431742 -0.034883809068570269 0 4.3788044835396743e-05 -0.034776571681252304 0 7.8557869714590615e-07 -0.034924646428894063 0 0.00015385922327431742 -0.034883809068570269 0 7.8557869714590615e-07 -0.034924646428894063 0 -4.162997865865431e-05 -0.035077655678726234 0 2.0547992804682762e-05 -0.034960978153955831 0 4.2513982117824672e-05 -0.034942536118689055 0 4.0663637994262755e-06 -0.034997201277170965 0 1.8272416331493753e-06 -0.034998346738374209 0 2.9979476886510603e-06 -0.03499993838023821 0 1.8272416331493753e-06 -0.034998346738374209 0 5.1132145373236986e-07 -0.034997292436007382 0 5.5526941218251729e-07 -0.03499974091801656 0 5.1132145373236986e-07 -0.034997292436007382 0 1.4589226440985357e-07 -0.034999836311688647 0 5.5526941218251729e-07 -0.03499974091801656 0 1.8272416331493753e-06 -0.034998346738374209 0 5.5526941218251729e-07 -0.03499974091801656 0 2.9979476886510603e-06 -0.03499993838023821 0 4.0663637994262755e-06 -0.034997201277170965 0 1.8272416331493753e-06 -0.034998346738374209 0 5.1132145373236986e-07 -0.034997292436007382 0 -2.2930950600153216e-08 -0.034999980529160625 0 -1.9097026506986954e-05 -0.034970438883873654 0 -1.8537685002920637e-09 -0.034999997799699541 0 5.1132145373236986e-07 -0.034997292436007382 0 1.4589226440985357e-07 -0.034999836311688647 0 5.6780525676755424e-08 -0.034999981855420755 0 -2.4542883275313896e-05 -0.034941317492443412 0 -1.4446158977080353e-07 -0.034999854402411955 0 -2.4542883275313896e-05 -0.034941317492443412 0 -2.7244635304700884e-05 -0.034815566614519386 0 -1.4446158977080353e-07 -0.034999854402411955 0 -2.7244635304700884e-05 -0.034815566614519386 0 -1.4446158977080353e-07 -0.034999854402411955 0 -6.9797071207788414e-05 -0.034751552595577585 0 6.7708283304388872e-09 -0.034999128140038249 0 -1.4446158977080353e-07 -0.034999854402411955 0 -6.9797071207788414e-05 -0.034751552595577585 0 -2.7244635304700884e-05 -0.034815566614519386 0 -6.9797071207788414e-05 -0.034751552595577585 0 -5.7259130341258794e-06 -0.034625958161364878 0 -9.0065745131638614e-05 -0.034188174843644413 0 -6.9797071207788414e-05 -0.034751552595577585 0 -5.7259130341258794e-06 -0.034625958161364878 0 -9.0065745131638614e-05 -0.034188174843644413 0 -5.7259130341258794e-06 -0.034625958161364878 0 0.00018471308914378595 -0.034540468212129652 0 -5.7259130341258794e-06 -0.034625958161364878 0 0.00018471308914378595 -0.034540468212129652 0 6.7893620230851442e-05 -0.034701919504145279 0 0.00018471308914378595 -0.034540468212129652 0 0.00017993580786710697 -0.034703801299393398 0 6.7893620230851442e-05 -0.034701919504145279 0 0.00032655543405812453 -0.034623053712770892 0 0.00018471308914378595 -0.034540468212129652 0 0.00017993580786710697 -0.034703801299393398 0 4.0648748819565397e-05 -0.034850566975586299 0 0.00017993580786710697 -0.034703801299393398 0 4.6367495244765077e-05 -0.03481577071907322 0 0.00017993580786710697 -0.034703801299393398 0 4.6367495244765077e-05 -0.03481577071907322 0 6.7893620230851442e-05 -0.034701919504145279 0 5.3856386557665896e-05 -0.034873382557000253 0 0.00014029834538268712 -0.034786173510268421 0 -2.7244635304700884e-05 -0.034815566614519386 0 4.6367495244765077e-05 -0.03481577071907322 0 6.7893620230851442e-05 -0.034701919504145279 0 3.9354962272807704e-05 -0.034838628120491218 0 -2.7244635304700884e-05 -0.034815566614519386 0 4.6367495244765077e-05 -0.03481577071907322 0 -2.7244635304700884e-05 -0.034815566614519386 0 -5.7259130341258794e-06 -0.034625958161364878 0 6.7893620230851442e-05 -0.034701919504145279 0 0.00054141385228061113 -0.018516273396157443 0 0.0014921006257817887 -0.017138971584689848 0 0.00054839372318372286 -0.017473706824720287 0 0.00063985802755695735 -0.01686707854848447 0 0.00035318342225176824 -0.017269025705425496 0 -0.00010155053213755768 -0.019632249165380106 0 0.00018363658479827549 -0.019579286364404234 0 0.00011751834999437514 -0.019721621072717497 0 -0.00010155053213755768 -0.019632249165380106 0 -4.8911694474982024e-05 -0.019674715980586593 0 0.00011751834999437514 -0.019721621072717497 0 -0.00010155053213755768 -0.019632249165380106 0 -5.9682491524238556e-05 -0.019580507770740722 0 -4.8911694474982024e-05 -0.019674715980586593 0 -0.00010155053213755768 -0.019632249165380106 0 -9.1049630497950915e-05 -0.019334921874127328 0 -0.00016891499499999032 -0.019684850029115797 0 -0.00010155053213755768 -0.019632249165380106 0 -9.1049630497950915e-05 -0.019334921874127328 0 0.00018363658479827549 -0.019579286364404234 0 0.00054141385228061113 -0.018516273396157443 0 0.00032717221017458187 -0.018424235746053085 0 -9.1049630497950915e-05 -0.019334921874127328 0 0.00018363658479827549 -0.019579286364404234 0 0.00017003187729706441 -0.018495731755168065 0 0.00054839372318372286 -0.017473706824720287 0 0.00017003187729706441 -0.018495731755168065 0 5.6674085285088643e-05 -0.017768160711189935 0 0.00017003187729706441 -0.018495731755168065 0 -3.5590842194631416e-07 -0.017968582122416966 0 -0.00010986093165954194 -0.019268209403474068 0 0.00017003187729706441 -0.018495731755168065 0 -3.5590842194631416e-07 -0.017968582122416966 0 -1.6742482475914706e-05 -0.017555629844320186 0 -3.5590842194631416e-07 -0.017968582122416966 0 -0.00010986093165954194 -0.019268209403474068 0 -3.4883508466605901e-07 -0.019889479272534507 0 -9.1049630497950915e-05 -0.019334921874127328 0 0.00017003187729706441 -0.018495731755168065 0 -0.00010986093165954194 -0.019268209403474068 0 -9.1049630497950915e-05 -0.019334921874127328 0 -0.00010986093165954194 -0.019268209403474068 0 -0.00016891499499999032 -0.019684850029115797 0 -0.00016891499499999032 -0.019684850029115797 0 -7.0600106195437625e-05 -0.020280682826637642 0 -1.6927158054160406e-05 -0.02018232535326514 0 -0.00010986093165954194 -0.019268209403474068 0 -0.00016891499499999032 -0.019684850029115797 0 -7.0600106195437625e-05 -0.020280682826637642 0 -3.4883508466605901e-07 -0.019889479272534507 0 -7.0600106195437625e-05 -0.020280682826637642 0 4.5655774183052731e-07 -0.021809988638588757 0 -0.00010986093165954194 -0.019268209403474068 0 -3.4883508466605901e-07 -0.019889479272534507 0 -7.0600106195437625e-05 -0.020280682826637642 0 -7.0600106195437625e-05 -0.020280682826637642 0 4.5655774183052731e-07 -0.021809988638588757 0 0.00015061623908436982 -0.021064570115727259 0 0.00015061623908436982 -0.021064570115727259 0 -1.6927158054160406e-05 -0.02018232535326514 0 0.00054911772326688866 -0.020438870979366662 0 -7.0600106195437625e-05 -0.020280682826637642 0 0.00015061623908436982 -0.021064570115727259 0 -1.6927158054160406e-05 -0.02018232535326514 0 -1.6927158054160406e-05 -0.02018232535326514 0 0.00025877212537373938 -0.01997470233029891 0 0.00054911772326688866 -0.020438870