<?xml version="1.0"?>
<VTKFile type="UnstructuredGrid" version="0.1" byte_order="LittleEndian">
<UnstructuredGrid>
<Piece NumberOfPoints="30764" NumberOfCells="10808">
<Points>
<DataArray type="Float64" NumberOfComponents="3" format="ascii">
-0.5 -0.5 0 -0.47741545559698201 -0.48541822105459048 0 -0.50000000000000311 -0.46832531175734698 0 -0.5 -0.5 0 -0.47741545559698201 -0.48541822105459048 0 -0.45466277028236202 -0.5 0 -0.47741545559698201 -0.48541822105459048 0 -0.47165900317253118 -0.4644023661114427 0 -0.50000000000000311 -0.46832531175734698 0 -0.47741545559698201 -0.48541822105459048 0 -0.46392713918164868 -0.48157456664783621 0 -0.47165900317253118 -0.4644023661114427 0 -0.45466277028236202 -0.5 0 -0.45197132767471959 -0.47674145452665972 0 -0.45466277028236202 -0.5 0 -0.46392713918164868 -0.48157456664783621 0 -0.45197132767471959 -0.47674145452665972 0 -0.47741545559698201 -0.48541822105459048 0 -0.45466277028236202 -0.5 0 -0.46392713918164868 -0.48157456664783621 0 -0.46392713918164868 -0.48157456664783621 0 -0.45197132767471959 -0.47674145452665972 0 -0.47165900317253118 -0.4644023661114427 0 -0.45197132767471959 -0.47674145452665972 0 -0.4324199765543455 -0.48310328480227188 0 -0.43589785420521449 -0.46709784163550888 0 -0.45466277028236202 -0.5 0 -0.45197132767471959 -0.47674145452665972 0 -0.44724630732056547 -0.5 0 -0.45197132767471959 -0.47674145452665972 0 -0.44724630732056547 -0.5 0 -0.4324199765543455 -0.48310328480227188 0 -0.44927988506707722 -0.4537466841546674 0 -0.44658844245943491 -0.43075191378267519 0 -0.42506956946829477 -0.45053023696915762 0 -0.44927988506707722 -0.4537466841546674 0 -0.44658844245943491 -0.43075191378267519 0 -0.45197132767471959 -0.47674145452665972 0 -0.44927988506707722 -0.4537466841546674 0 -0.45197132767471959 -0.47674145452665972 0 -0.44927988506707722 -0.4537466841546674 0 -0.43589785420521449 -0.46709784163550888 0 -0.45197132767471959 -0.47674145452665972 0 -0.44927988506707722 -0.4537466841546674 0 -0.47165900317253118 -0.4644023661114427 0 -0.44927988506707722 -0.4537466841546674 0 -0.47165900317253118 -0.4644023661114427 0 -0.4679202154936758 -0.43474425601905131 0 -0.44927988506707722 -0.4537466841546674 0 -0.4679202154936758 -0.43474425601905131 0 -0.44658844245943491 -0.43075191378267519 0 -0.50000000000000311 -0.46832531175734698 0 -0.49405233013181671 -0.44469108207904318 0 -0.50000000000000744 -0.4240283157930349 0 -0.47165900317253118 -0.4644023661114427 0 -0.49405233013181671 -0.44469108207904318 0 -0.4679202154936758 -0.43474425601905131 0 -0.50000000000000311 -0.46832531175734698 0 -0.49405233013181671 -0.44469108207904318 0 -0.47165900317253118 -0.4644023661114427 0 -0.50000000000000311 -0.46832531175734698 0 -0.49405233013181671 -0.44469108207904318 0 -0.49405233013181671 -0.44469108207904318 0 -0.48975439462991471 -0.42105685240073948 0 -0.49405233013181671 -0.44469108207904318 0 -0.50000000000000744 -0.4240283157930349 0 -0.48975439462991471 -0.42105685240073948 0 -0.50000000000000744 -0.4240283157930349 0 -0.48975439462991471 -0.42105685240073948 0 -0.50000000000000744 -0.4240283157930349 0 -0.49999999999999989 -0.42225375571543711 0 -0.48975439462991471 -0.42105685240073948 0 -0.49999999999999989 -0.42225375571543711 0 -0.48802442216744579 -0.41154378118385032 0 -0.5 -0.39878990198068998 0 -0.49999999999999989 -0.42225375571543711 0 -0.48802442216744579 -0.41154378118385032 0 -0.48975439462991471 -0.42105685240073948 0 -0.49999999999999989 -0.42225375571543711 0 -0.48802442216744579 -0.41154378118385032 0 -0.48802442216744579 -0.41154378118385032 0 -0.48975439462991471 -0.42105685240073948 0 -0.48802442216744579 -0.41154378118385032 0 -0.48975439462991471 -0.42105685240073948 0 -0.46682569724085199 -0.41440699790571162 0 -0.48802442216744579 -0.41154378118385032 0 -0.47176058081062028 -0.39699873549561449 0 -0.46682569724085199 -0.41440699790571162 0 -0.48975439462991471 -0.42105685240073948 0 -0.46682569724085199 -0.41440699790571162 0 -0.49405233013181671 -0.44469108207904318 0 -0.48975439462991471 -0.42105685240073948 0 -0.4679202154936758 -0.43474425601905131 0 -0.48975439462991471 -0.42105685240073948 0 -0.4679202154936758 -0.43474425601905131 0 -0.46682569724085199 -0.41440699790571162 0 -0.5 -0.37532604824594279 0 -0.48381937757876958 -0.38842035609470721 0 -0.4796143329900977 -0.36529693100556332 0 -0.5 -0.37532604824594279 0 -0.5 -0.39878990198068998 0 -0.48381937757876958 -0.38842035609470721 0 -0.48802442216744579 -0.41154378118385032 0 -0.5 -0.39878990198068998 0 -0.48381937757876958 -0.38842035609470721 0 -0.48802442216744579 -0.41154378118385032 0 -0.48381937757876958 -0.38842035609470721 0 -0.48802442216744579 -0.41154378118385032 0 -0.47176058081062028 -0.39699873549561449 0 -0.48802442216744579 -0.41154378118385032 0 -0.47176058081062028 -0.39699873549561449 0 -0.48381937757876958 -0.38842035609470721 0 -0.48381937757876958 -0.38842035609470721 0 -0.4796143329900977 -0.36529693100556332 0 -0.47176058081062028 -0.39699873549561449 0 -0.48381937757876958 -0.38842035609470721 0 -0.47016699862208988 -0.38055241315860222 0 -0.48381937757876958 -0.38842035609470721 0 -0.47016699862208988 -0.38055241315860222 0 -0.4796143329900977 -0.36529693100556332 0 -0.47176058081062028 -0.39699873549561449 0 -0.4554967394537921 -0.38245368980738159 0 -0.47176058081062028 -0.39699873549561449 0 -0.47016699862208988 -0.38055241315860222 0 -0.4554967394537921 -0.38245368980738159 0 -0.47016699862208988 -0.38055241315860222 0 -0.4554967394537921 -0.38245368980738159 0 -0.46273095934536512 -0.36986343114412362 0 -0.47176058081062028 -0.39699873549561449 0 -0.4554967394537921 -0.38245368980738159 0 -0.45988810339353031 -0.39919714096399328 0 -0.4554967394537921 -0.38245368980738159 0 -0.45988810339353031 -0.39919714096399328 0 -0.45075589884428557 -0.39569278410200159 0 -0.47176058081062028 -0.39699873549561449 0 -0.45988810339353031 -0.39919714096399328 0 -0.46682569724085199 -0.41440699790571162 0 -0.45988810339353031 -0.39919714096399328 0 -0.45075589884428557 -0.39569278410200159 0 -0.4546016006181014 -0.40643349750925739 0 -0.44367469871223991 -0.40585787807137108 0 -0.45075589884428557 -0.39569278410200159 0 -0.44145379840460303 -0.38688326109525961 0 -0.44367469871223991 -0.40585787807137108 0 -0.44145379840460303 -0.38688326109525961 0 -0.43489324199914298 -0.39573359169425693 0 -0.44367469871223991 -0.40585787807137108 0 -0.44145379840460303 -0.38688326109525961 0 -0.44367469871223991 -0.40585787807137108 0 -0.4546016006181014 -0.40643349750925739 0 -0.44367469871223991 -0.40585787807137108 0 -0.45075589884428557 -0.39569278410200159 0 -0.4546016006181014 -0.40643349750925739 0 -0.44367469871223991 -0.40585787807137108 0 -0.43489324199914298 -0.39573359169425693 0 -0.43594418086259018 -0.40545064129213421 0 -0.44367469871223991 -0.40585787807137108 0 -0.43594418086259018 -0.40545064129213421 0 -0.4554967394537921 -0.38245368980738159 0 -0.44145379840460303 -0.38688326109525961 0 -0.43923289809696459 -0.36790864411914809 0 -0.4554967394537921 -0.38245368980738159 0 -0.43923289809696459 -0.36790864411914809 0 -0.44145379840460303 -0.38688326109525961 0 -0.43923289809696459 -0.36790864411914809 0 -0.4554967394537921 -0.38245368980738159 0 -0.45075589884428557 -0.39569278410200159 0 -0.44145379840460303 -0.38688326109525961 0 -0.45630783876143788 -0.42191507777953058 0 -0.4679202154936758 -0.43474425601905131 0 -0.44658844245943491 -0.43075191378267519 0 -0.45630783876143788 -0.42191507777953058 0 -0.4679202154936758 -0.43474425601905131 0 -0.46682569724085199 -0.41440699790571162 0 -0.46682569724085199 -0.41440699790571162 0 -0.4546016006181014 -0.40643349750925739 0 -0.44389699985178938 -0.40775714341068331 0 -0.46682569724085199 -0.41440699790571162 0 -0.44389699985178938 -0.40775714341068331 0 -0.45630783876143788 -0.42191507777953058 0 -0.46682569724085199 -0.41440699790571162 0 -0.44389699985178938 -0.40775714341068331 0 -0.45988810339353031 -0.39919714096399328 0 -0.46682569724085199 -0.41440699790571162 0 -0.4546016006181014 -0.40643349750925739 0 -0.44389699985178938 -0.40775714341068331 0 -0.44658844245943491 -0.43075191378267519 0 -0.45630783876143788 -0.42191507777953058 0 -0.44389699985178938 -0.40775714341068331 0 -0.44658844245943491 -0.43075191378267519 0 -0.44389699985178938 -0.40775714341068331 0 -0.44658844245943491 -0.43075191378267519 0 -0.43456298822951123 -0.41704730838285098 0 -0.44367469871223991 -0.40585787807137108 0 -0.4546016006181014 -0.40643349750925739 0 -0.44389699985178938 -0.40775714341068331 0 -0.44367469871223991 -0.40585787807137108 0 -0.44389699985178938 -0.40775714341068331 0 -0.43594418086259018 -0.40545064129213421 0 -0.44389699985178938 -0.40775714341068331 0 -0.43594418086259018 -0.40545064129213421 0 -0.44389699985178938 -0.40775714341068331 0 -0.43456298822951123 -0.41704730838285098 0 -0.43594418086259018 -0.40545064129213421 0 -0.44367469871223991 -0.40585787807137108 0 -0.44389699985178938 -0.40775714341068331 0 -0.44658844245943491 -0.43075191378267519 0 -0.4218595462338342 -0.42698148727542168 0 -0.42506956946829477 -0.45053023696915762 0 -0.44658844245943491 -0.43075191378267519 0 -0.43456298822951123 -0.41704730838285098 0 -0.4218595462338342 -0.42698148727542168 0 -0.42452577173990758 -0.41429535615333929 0 -0.43594418086259018 -0.40545064129213421 0 -0.41467361085218712 -0.40433012665235818 0 -0.43456298822951123 -0.41704730838285098 0 -0.42452577173990758 -0.41429535615333929 0 -0.43594418086259018 -0.40545064129213421 0 -0.43456298822951123 -0.41704730838285098 0 -0.42452577173990758 -0.41429535615333929 0 -0.4218595462338342 -0.42698148727542168 0 -0.42452577173990758 -0.41429535615333929 0 -0.41312238762021158 -0.41567774201887719 0 -0.4218595462338342 -0.42698148727542168 0 -0.42452577173990758 -0.41429535615333929 0 -0.41312238762021158 -0.41567774201887719 0 -0.41467361085218712 -0.40433012665235818 0 -0.41312238762021158 -0.41567774201887719 0 -0.41467361085218712 -0.404330
[...]
<PointData Scalars="" Vectors="displacement," Tensors="">
<DataArray type="Float64" Name="displacement" NumberOfComponents="3" format="ascii">
-0.034998310894830166 -7.9760897539294456e-07 0 -0.034044813352528402 -0.00011778489123421693 0 -0.034998427446277583 -6.8458737541815957e-08 0 -0.034998310894830166 -7.9760897539294456e-07 0 -0.034044813352528402 -0.00011778489123421693 0 -0.03183113713653328 1.6387140342379963e-06 0 -0.034044813352528402 -0.00011778489123421693 0 -0.034511473260346669 2.3130830396384142e-05 0 -0.034998427446277583 -6.8458737541815957e-08 0 -0.034044813352528402 -0.00011778489123421693 0 -0.03379538182266089 7.9034060709713206e-05 0 -0.034511473260346669 2.3130830396384142e-05 0 -0.031792518043123087 0.00013796196692681935 0 -0.031795623997280975 0.00047201945666085649 0 -0.03183113713653328 1.6387140342379963e-06 0 -0.03379538182266089 7.9034060709713206e-05 0 -0.034060442018853096 0.0006370689434445836 0 -0.034044813352528402 -0.00011778489123421693 0 -0.03183113713653328 1.6387140342379963e-06 0 -0.03379538182266089 7.9034060709713206e-05 0 -0.03379538182266089 7.9034060709713206e-05 0 -0.034060442018853096 0.0006370689434445836 0 -0.034511473260346669 2.3130830396384142e-05 0 -0.029545599245541052 0.00050417156281393194 0 -0.029577045152160565 -0.00016325228414367261 0 -0.029064658008928608 1.0057807113246929e-05 0 -0.031823477836932894 1.9783974343722657e-06 0 -0.029545599245541052 0.00050417156281393194 0 -0.031307606025100597 -5.2351240243238421e-07 0 -0.029545599245541052 0.00050417156281393194 0 -0.031307606025100597 -5.2351240243238421e-07 0 -0.029577045152160565 -0.00016325228414367261 0 -0.028806327607597697 0.00026844358529024438 0 -0.028601351435562805 0.00014209690829610153 0 -0.028719173398438817 -8.6297360478937638e-05 0 -0.031695447957328947 0.00036723229107806817 0 -0.031739079145232052 0.00031491994753858772 0 -0.031795623997280975 0.00047201945666085649 0 -0.031695447957328947 0.00036723229107806817 0 -0.029545599245541052 0.00050417156281393194 0 -0.028806327607597697 0.00026844358529024438 0 -0.029064658008928608 1.0057807113246929e-05 0 -0.034060442018853096 0.0006370689434445836 0 -0.034606362556825698 0.00043993277269343623 0 -0.034511473260346669 2.3130830396384142e-05 0 -0.034606362556825698 0.00043993277269343623 0 -0.034511473260346669 2.3130830396384142e-05 0 -0.034776010417038726 0.00016483047463236036 0 -0.034606362556825698 0.00043993277269343623 0 -0.034776010417038726 0.00016483047463236036 0 -0.034774521896503083 0.00035495906880071162 0 -0.035000001987195058 -2.4059209651383091e-09 0 -0.034999630918704852 1.6712661074723783e-07 0 -0.034999990589620285 5.352292217192965e-09 0 -0.034511473260346669 2.3130830396384142e-05 0 -0.034722055468703571 -1.9654349840515425e-05 0 -0.034776010417038726 0.00016483047463236036 0 -0.034948382812751082 2.3095579932730151e-06 0 -0.034960415688722442 -3.5675100295530697e-05 0 -0.034511473260346669 2.3130830396384142e-05 0 -0.034998427446277583 -6.8458737541815957e-08 0 -0.034722055468703571 -1.9654349840515425e-05 0 -0.034960415688722442 -3.5675100295530697e-05 0 -0.034478994437387445 0.00036258699503775448 0 -0.034999630918704852 1.6712661074723783e-07 0 -0.034999990589620285 5.352292217192965e-09 0 -0.034998113025956269 1.6243495052231423e-06 0 -0.034999647455357899 4.219227527950952e-08 0 -0.034478994437387445 0.00036258699503775448 0 -0.035000046411179243 2.309880570130674e-09 0 -0.034999945561837907 5.6804795530003527e-10 0 -0.034989290795654146 -2.3944821516913768e-05 0 -0.03499999183014231 2.012186538501335e-09 0 -0.034996809273031552 -2.6314806442717268e-07 0 -0.035000002497803939 -3.5458109982756515e-09 0 -0.034999945561837907 5.6804795530003527e-10 0 -0.034956108254713653 -2.6618857103745611e-05 0 -0.034989290795654146 -2.3944821516913768e-05 0 -0.035000082532196948 2.0812833084648823e-07 0 -0.034164291503235959 0.00032108795234756763 0 -0.034164291503235959 0.00032108795234756763 0 -0.034478994437387445 0.00036258699503775448 0 -0.032821607207239284 0.0011279109812670604 0 -0.033289298523484626 0.00120985600211543 0 -0.032946058681742399 0.00010333232279695627 0 -0.032821607207239284 0.0011279109812670604 0 -0.03209840285184213 0.00034356194245540369 0 -0.032946058681742399 0.00010333232279695627 0 -0.034478994437387445 0.00036258699503775448 0 -0.034117085958365802 0.00027304424268634634 0 -0.034722055468703571 -1.9654349840515425e-05 0 -0.034860826679549463 2.5675393319524971e-05 0 -0.034776010417038726 0.00016483047463236036 0 -0.034860826679549463 2.5675393319524971e-05 0 -0.034776010417038726 0.00016483047463236036 0 -0.034890499695350199 0.00018699333157289101 0 -0.034999957219191351 5.910062758827285e-09 0 -0.034994159455907135 -3.5547775271719085e-06 0 -0.034974500280279777 -9.2258599381465505e-06 0 -0.034999957219191351 5.910062758827285e-09 0 -0.035000002497803939 -3.5458109982756515e-09 0 -0.034994159455907135 -3.5547775271719085e-06 0 -0.034996809273031552 -2.6314806442717268e-07 0 -0.035000002497803939 -3.5458109982756515e-09 0 -0.034994159455907135 -3.5547775271719085e-06 0 -0.034164291503235959 0.00032108795234756763 0 -0.034039711022529145 0.00017443236094276843 0 -0.034164291503235959 0.00032108795234756763 0 -0.03261883923696586 0.00015550900467362286 0 -0.03381783748042879 0.00050707527813929855 0 -0.033320456067879291 -4.0334479041166866e-05 0 -0.033035548977592644 0.00036503805141579901 0 -0.034039711022529145 0.00017443236094276843 0 -0.033725157946534967 0.00013365106696676735 0 -0.033320456067879291 -4.0334479041166866e-05 0 -0.033035548977592644 0.00036503805141579901 0 -0.032765654576960339 -9.3052827801458216e-05 0 -0.033035548977592644 0.00036503805141579901 0 -0.032765654576960339 -9.3052827801458216e-05 0 -0.032261257896842782 0.00022210131539547115 0 -0.03261883923696586 0.00015550900467362286 0 -0.032198108585074506 -0.00046387530115765625 0 -0.033320456067879291 -4.0334479041166866e-05 0 -0.032765654576960339 -9.3052827801458216e-05 0 -0.032820599556335255 -0.00058286877100081934 0 -0.032765654576960339 -9.3052827801458216e-05 0 -0.032820599556335255 -0.00058286877100081934 0 -0.032404572634920026 -0.0003421430152371794 0 -0.03209840285184213 0.00034356194245540369 0 -0.031383687016368525 -0.000442572350721694 0 -0.032198078702623215 -0.0002303305088916946 0 -0.031383687016368525 -0.000442572350721694 0 -0.032198078702623215 -0.0002303305088916946 0 -0.032022316566897815 -0.00067099299310657671 0 -0.03209840285184213 0.00034356194245540369 0 -0.032198078702623215 -0.0002303305088916946 0 -0.032946058681742399 0.00010333232279695627 0 -0.032198078702623215 -0.0002303305088916946 0 -0.032022316566897815 -0.00067099299310657671 0 -0.032544895892529374 -0.00048387115056359255 0 -0.032507728540636029 -0.0010112584213610948 0 -0.032022316566897815 -0.00067099299310657671 0 -0.031591362232919425 -0.0011202101901863651 0 -0.028567228924797822 -0.0011968015885215416 0 -0.028718370656916715 -0.0011879073817915758 0 -0.028639903130011829 -0.0011288006704258304 0 -0.030977627623342392 -0.00063767345908398605 0 -0.029882048511736134 -0.0011958654357461379 0 -0.030977627623342392 -0.00063767345908398605 0 -0.032014097335029253 -0.00062337154386099742 0 -0.032507728540636029 -0.0010112584213610948 0 -0.032022316566897815 -0.00067099299310657671 0 -0.032544895892529374 -0.00048387115056359255 0 -0.028567228924797822 -0.0011968015885215416 0 -0.028639903130011829 -0.0011288006704258304 0 -0.028563977579303908 -0.0011368076648037774 0 -0.030977627623342392 -0.00063767345908398605 0 -0.029410735695243339 -0.00069212855491934254 0 -0.031383687016368525 -0.000442572350721694 0 -0.031591362232919425 -0.0011202101901863651 0 -0.030679301168615919 -0.0012282102941935783 0 -0.032198108585074506 -0.00046387530115765625 0 -0.030839973957508926 -0.0011851140808693014 0 -0.029882048511736134 -0.0011958654357461379 0 -0.030839973957508926 -0.0011851140808693014 0 -0.031383687016368525 -0.000442572350721694 0 -0.032022316566897815 -0.00067099299310657671 0 -0.031591362232919425 -0.0011202101901863651 0 -0.034838866339926555 0.00026356317255646166 0 -0.034776010417038726 0.00016483047463236036 0 -0.034774521896503083 0.00035495906880071162 0 -0.034838866339926555 0.00026356317255646166 0 -0.034776010417038726 0.00016483047463236036 0 -0.034890499695350199 0.00018699333157289101 0 -0.032946058681742399 0.00010333232279695627 0 -0.032544895892529374 -0.00048387115056359255 0 -0.032596815471029113 -0.00099615373579158375 0 -0.034117085958365802 0.00027304424268634634 0 -0.031492679897869476 -0.00045236134951192534 0 -0.034838866339926555 0.00026356317255646166 0 -0.034890499695350199 0.00018699333157289101 0 -0.034895875078502878 0.00033293723002887177 0 -0.032198078702623215 -0.0002303305088916946 0 -0.032946058681742399 0.00010333232279695627 0 -0.032544895892529374 -0.00048387115056359255 0 -0.031492679897869476 -0.00045236134951192534 0 -0.031739079145232052 0.00031491994753858772 0 -0.034838866339926555 0.00026356317255646166 0 -0.034895875078502878 0.00033293723002887177 0 -0.034774521896503083 0.00035495906880071162 0 -0.02848971010870727 8.3404925581370435e-05 0 -0.028601351435562805 0.00014209690829610153 0 -0.028528117411215415 3.479773408760769e-05 0 -0.032504936557591124 -0.0010065945010403333 0 -0.032544895892529374 -0.00048387115056359255 0 -0.032596815471029113 -0.00099615373579158375 0 -0.030362421047567183 -0.00058878802412072649 0 -0.030396381675346668 -0.00058485406802404017 0 -0.03034801813315896 -0.00072385674118718155 0 -0.031492679897869476 -0.00045236134951192534 0 -0.029410735695243339 -0.00069212855491934254 0 -0.02848971010870727 8.3404925581370435e-05 0 -0.028528117411215415 3.479773408760769e-05 0 -0.028470210868030334 3.5790052532704303e-05 0 -0.030977627623342392 -0.00063767345908398605 0 -0.031492679897869476 -0.00045236134951192534 0 -0.028601351435562805 0.00014209690829610153 0 -0.028579359447390113 -6.3429423927290562e-05 0 -0.028719173398438817 -8.6297360478937638e-05 0 -0.028601351435562805 0.00014209690829610153 0 -0.028528117411215415 3.479773408760769e-05 0 -0.028579359447390113 -6.3429423927290562e-05 0 -0.028515231519093569 -3.3707187519779972e-05 0 -0.028470210868030334 3.5790052532704303e-05 0 -0.028468957993652295 -8.8942734295179907e-05 0 -0.028528117411215415 3.479773408760769e-05 0 -0.028515231519093569 -3.3707187519779972e-05 0 -0.028470210868030334 3.5790052532704303e-05 0 -0.028528117411215415 3.479773408760769e-05 0 -0.028515231519093569 -3.3707187519779972e-05 0 -0.028579359447390113 -6.3429423927290562e-05 0 -0.028515231519093569 -3.3707187519779972e-05 0 -0.028525128228083899 -9.6134392735831715e-05 0 -0.028579359447390113 -6.3429423927290562e-05 0 -0.028515231519093569 -3.3707187519779972e-05 0 -0.028525128228083899 -9.6134392735831715e-05 0 -0.028468957993652295 -8.8942734295179907e-05 0 -0.028525128228083899 -9.6134392735831715e-05 0 -0.028468957993652295 -8.8942734295179907e-05 0 -0.028512758578316665 -0.00014652964746827659 0 -0.028579359447390113 -6.3429423927290562e-05 0 -0.028551833555229795 -0.0001424146238803697 0 -0.028605504371850408 -0.00012204239906126784 0 -0.028525128228083899 -9.6134392735831715e-05 0 -0.028579359447390113 -6.3429423927290562e-05 0 -0.028551833555229795 -0.0001424146238803697 0 -0.028718370656916715 -0.0011879073817915758 0 -0.028744439455760506 -0.0010706174100769698 0 -0.028894770509799834 -0.0011780127544160253 0 -0.028744439455760506 -0.0010706174100769698 0 -0.028774835305474526 -0.00097911074940660171 0 -0.028875241360585006 -0.0010245133452135924 0 -0.028718370656916715 -0.0011879073817915758 0 -0.028744439455760506 -0.0010706174100769698 0 -0.028639903130011829 -0.0011288006704258304 0 -0.028744439455760506 -0.0010706174100769698 0 -0.028638213787186124 -0.0010351733622981614 0 -0.028681661825378107 -0.00095124109803069795 0 -0.029410735695243339 -0.00069212855491934254 0 -0.028454194306417175 -0.00019688170195394892 0 -0.028638213787186124 -0.0010351733622981614 0 -0.028563977579303908 -0.0011368076648037774 0 -0.028589118944619747 -0.000883217723280446 0 -0.029410735695243339 -0.00069212855491934254 0 -0.028451404600011828 -0.00071530056059386222 0 -0.028744439455760506 -0.0010706174100769698 0 -0.028638213787186124 -0.0010351733622981614 0 -0.028639903130011829 -0.0011288006704258304 0 -0.028638213787186124 -0.0010351733622981614 0 -0.028639903130011829 -0.0011288006704258304 0 -0.028563977579303908 -0.0011368076648037774 0 -0.028560766655614231 -0.0005631167166317018 0 -0.028545828634966769 -0.00046818634483308206 0 -0.028569866979977276 -0.00043904427135986902 0 -0.028638213787186124 -0.0010351733622981614 0 -0.028589118944619747 -0.000883217723280446 0 -0.028681661825378107 -0.00095124109803069795 0 -0.028589118944619747 -0.000883217723280446 0 -0.028681661825378107 -0.00095124109803069795 0 -0.028690541783522053 -0.00085627572008984548 0 -0.028744439455760506 -0.0010706174100769698 0 -0.028681661825378107 -0.00095124109803069795 0 -0.028774835305474526 -0.00097911074940660171 0 -0.028681661825378107 -0.00095124109803069795 0 -0.028753705353241506 -0.00089546928781874537 0 -0.028690541783522053 -0.00085627572008984548 0 -0.028753705353241506 -0.00089546928781874537 0 -0.028840054189163019 -0.00093242666457601009 0 -0.028814466415903569 -0.00085892446084434397 0 -0.028753705353241506 -0.00089546928781874537 0 -0.028774835305474526 -0.00097911074940660171 0 -0.028840054189163019 -0.00093242666457601009 0 -0.028681661825378107 -0.00095124109803069795 0 -0.028753705353241506 -0.00089546928781874537 0 -0.028774835305474526 -0.00097911074940660171 0 -0.028755657608638727 -0.00079891008809129154 0 -0.028676365096202534 -0.00075253196137607149 0 -0.028771510340516122 -0.00067708991027472817 0 -0.028755657608638727 -0.00079891008809129154 0 -0.028771510340516122 -0.00067708991027472817 0 -0.028837244844765301 -0.0007953457184736942 0 -0.028753705353241506 -0.00089546928781874537 0 -0.028755657608638727 -0.00079891008809129154 0 -0.028814466415903569 -0.00085892446084434397 0 -0.028753705353241506 -0.00089546928781874537 0 -0.028755657608638727 -0.00079891008809129154 0 -0.028690541783522053 -0.00085627572008984548 0 -0.028589118944619747 -0.000883217723280446 0 -0.028690541783522053 -0.00085627572008984548 0 -0.028676365096202534 -0.00075253196137607149 0 -0.028755657608638727 -0.00079891008809129154 0 -0.028690541783522053 -0.00085627572008984548 0 -0.028676365096202534 -0.00075253196137607149 0 -0.028451404600011828 -0.00071530056059386222 0 -0.028633945661363503 -0.00042589938465441182 0 -0.028589118944619747 -0.000883217723280446 0 -0.028676365096202534 -0.00075253196137607149 0 -0.028623069522605467 -0.00057652954691782114 0 -0.028569866979977276 -0.00043904427135986902 0 -0.028538413786307722 -0.00037368322936331651 0 -0.02859452745836872 -0.00031430115988383714 0 -0.028545828634966769 -0.00046818634483308206 0 -0.028569866979977276 -0.00043904427135986902 0 -0.028538413786307722 -0.00037368322936331651 0 -0.028454194306417175 -0.00019688170195394892 0 -0.028517380614610361 -0.00029304347247053871 0 -0.028517380614610361 -0.00029304347247053871 0 -0.028531258969064541 -0.00026681590582559975 0 -0.028538413786307722 -0.00037368322936331651 0 -0.02859452745836872 -0.00031430115988383714 0 -0.028538383769430659 -0.00027715894396276001 0 -0.028676365096202534 -0.00075253196137607149 0 -0.028623069522605467 -0.00057652954691782114 0 -0.028771510340516122 -0.00067708991027472817 0 -0.028623069522605467 -0.00057652954691782114 0 -0.028771510340516122 -0.00067708991027472817 0 -0.028839882995814501 -0.00053174291322835522 0 -0.028551833555229795 -0.0001424146238803697 0 -0.02856649268891236 -0.00023409598950832947 0 -0.028605504371850408 -0.00012204239906126784 0 -0.028525128228083899 -9.6134392735831715e-05 0 -0.028551833555229795 -0.0001424146238803697 0 -0.028512758578316665 -0.00014652964746827659 0 -0.028483600340357962 -0.00018573497823936135 0 -0.028512758578316665 -0.00014652964746827659 0 -0.028526932400235384 -0.00021561360756548712 0 -0.028551833555229795 -0.0001424146238803697 0 -0.028512758578316665 -0.00014652964746827659 0 -0.028526932400235384 -0.00021561360756548712 0 -0.028468957993652295 -8.8942734295179907e-05 0 -0.028483600340357962 -0.00018573497823936135 0 -0.028512758578316665 -0.00014652964746827659 0 -0.028483600340357962 -0.00018573497823936135 0 -0.028526932400235384 -0.00021561360756548712 0 -0.028538383769430659 -0.00027715894396276001 0 -0.028526932400235384 -0.00021561360756548712 0 -0.028525423759691183 -0.0002555236230110637 0 -0.028538383769430659 -0.00027715894396276001 0 -0.028526932400235384 -0.00021561360756548712 0 -0.02856649268891236 -0.00023409598950832947 0 -0.028525423759691183 -0.0002555236230110637 0 -0.028551833555229795 -0.0001424146238803697 0 -0.028526932400235384 -0.00021561360756548712 0 -0.02856649268891236 -0.00023409598950832947 0 -0.028421837900584578 0.00021151975909898787 0 -0.028605504371850408 -0.00012204239906126784 0 -0.028366409920297916 0.0001714173647026566 0 -0.028487163210521027 -3.2047915505898298e-05 0 -0.028576702976059482 -0.00011969407707359056 0 -0.028577451898307425 -0.00016546378226494713 0 -0.028366409920297916 0.0001714173647026566 0 -0.028220251042673491 -0.00015510239712307656 0 -0.028605504371850408 -0.00012204239906126784 0 -0.028577451898307425 -0.00016546378226494713 0 -0.028366409920297916 0.0001714173647026566 0 -0.028366409920297916 0.0001714173647026566 0 -0.027878798336346215 0.00012876632725992331 0 -0.028220251042673491 -0.00015510239712307656 0 -0.028366409920297916 0.0001714173647026566 0 -0.027878798336346215 0.00012876632725992331 0 -0.027999926751631373 0.00054823862872906853 0 -0.027878798336346215 0.00012876632725992331 0 -0.026480187134657555 1.2359203385447603e-06 0 -0.028220251042673491 -0.00015510239712307656 0 -0.027878798336346215 0.00012876632725992331 0 -0.026480187134657555 1.2359203385447603e-06 0 -0.027999926751631373 0.00054823862872906853 0 -0.026480187134657555 1.2359203385447603e-06 0 -0.028220251042673491 -0.00015510239712307656 0 -0.028542836911464187 -1.0859118911633976e-06 0 -0.028577451898307425 -0.00016546378226494713 0 -0.028220251042673491 -0.00015510239712307656 0 -0.028906800524586759 -0.00018947339128123466 0 -0.031307606025100597 -5.2351240243238421e-07 0 -0.028542836911464187 -1.0859118911633976e-06 0 -0.029577045152160565 -0.00016325228414367261 0 -0.028220251042673491 -0.00015510239712307656 0 -0.028906800524586759 -0.00018947339128123466 0 -0.028542836911464187 -1.0859118911633976e-06 0 -0.028906800524586759 -0.00018947339128123466 0 -0.028542836911464187 -1.0859118911633976e-06 0 -0.029577045152160565 -0.00016325228414367261 0 -0.028906800524586759 -0.00018947339128123466 0 -0.029577045152160565 -0.00016325228414367261 0 -0.029064658008928608 1.0057807113246929e-05 0 -0.028806327607597697 0.00026844358529024438 0 -0.029064658008928608 1.0057807113246929e-05 0 -0.028719173398438817 -8.6297360478937638e-05 0 -0.028906800524586759 -0.00018947339128123466 0 -0.029064658008928608 1.0057807113246929e-05 0 -0.028719173398438817 -8.6297360478937638e-05 0 -0.028579359447390113 -6.3429423927290562e-05 0 -0.028605504371850408 -0.00012204239906126784 0 -0.028719173398438817 -8.6297360478937638e-05 0 -0.028605504371850408 -0.00012204239906126784 0 -0.028577451898307425 -0.00016546378226494713 0 -0.028719173398438817 -8.6297360478937638e-05 0 -0.028577451898307425 -0.00016546378226494713 0 -0.028906800524586759 -0.00018947339128123466 0 -0.028719173398438817 -8.6297360478937638e-05 0 -0.033303894198655336 -0.00069182287182462815 0 -0.033033264324445227 -0.00079739075545725137 0 -0.033231968781762281 -0.00096137910849578543 0 -0.033303894198655336 -0.00069182287182462815 0 -0.033033264324445227 -0.00079739075545725137 0 -0.033007972909767626 -0.00052243573754648344 0 -0.034216315548791003 -0.00042250002443762274 0 -0.034336682035817787 -0.00047796843407554336 0 -0.032825946882726886 -0.00076988611865826118 