<?xml version="1.0"?>
<VTKFile type="UnstructuredGrid" version="0.1" byte_order="LittleEndian">
<UnstructuredGrid>
<Piece NumberOfPoints="30764" NumberOfCells="10808">
<Points>
<DataArray type="Float64" NumberOfComponents="3" format="ascii">
-0.5 -0.5 0 -0.47741545559698201 -0.48541822105459048 0 -0.50000000000000311 -0.46832531175734698 0 -0.5 -0.5 0 -0.47741545559698201 -0.48541822105459048 0 -0.45466277028236202 -0.5 0 -0.47741545559698201 -0.48541822105459048 0 -0.47165900317253118 -0.4644023661114427 0 -0.50000000000000311 -0.46832531175734698 0 -0.47741545559698201 -0.48541822105459048 0 -0.46392713918164868 -0.48157456664783621 0 -0.47165900317253118 -0.4644023661114427 0 -0.45466277028236202 -0.5 0 -0.45197132767471959 -0.47674145452665972 0 -0.45466277028236202 -0.5 0 -0.46392713918164868 -0.48157456664783621 0 -0.45197132767471959 -0.47674145452665972 0 -0.47741545559698201 -0.48541822105459048 0 -0.45466277028236202 -0.5 0 -0.46392713918164868 -0.48157456664783621 0 -0.46392713918164868 -0.48157456664783621 0 -0.45197132767471959 -0.47674145452665972 0 -0.47165900317253118 -0.4644023661114427 0 -0.45197132767471959 -0.47674145452665972 0 -0.4324199765543455 -0.48310328480227188 0 -0.43589785420521449 -0.46709784163550888 0 -0.45466277028236202 -0.5 0 -0.45197132767471959 -0.47674145452665972 0 -0.44724630732056547 -0.5 0 -0.45197132767471959 -0.47674145452665972 0 -0.44724630732056547 -0.5 0 -0.4324199765543455 -0.48310328480227188 0 -0.44927988506707722 -0.4537466841546674 0 -0.44658844245943491 -0.43075191378267519 0 -0.42506956946829477 -0.45053023696915762 0 -0.44927988506707722 -0.4537466841546674 0 -0.44658844245943491 -0.43075191378267519 0 -0.45197132767471959 -0.47674145452665972 0 -0.44927988506707722 -0.4537466841546674 0 -0.45197132767471959 -0.47674145452665972 0 -0.44927988506707722 -0.4537466841546674 0 -0.43589785420521449 -0.46709784163550888 0 -0.45197132767471959 -0.47674145452665972 0 -0.44927988506707722 -0.4537466841546674 0 -0.47165900317253118 -0.4644023661114427 0 -0.44927988506707722 -0.4537466841546674 0 -0.47165900317253118 -0.4644023661114427 0 -0.4679202154936758 -0.43474425601905131 0 -0.44927988506707722 -0.4537466841546674 0 -0.4679202154936758 -0.43474425601905131 0 -0.44658844245943491 -0.43075191378267519 0 -0.50000000000000311 -0.46832531175734698 0 -0.49405233013181671 -0.44469108207904318 0 -0.50000000000000744 -0.4240283157930349 0 -0.47165900317253118 -0.4644023661114427 0 -0.49405233013181671 -0.44469108207904318 0 -0.4679202154936758 -0.43474425601905131 0 -0.50000000000000311 -0.46832531175734698 0 -0.49405233013181671 -0.44469108207904318 0 -0.47165900317253118 -0.4644023661114427 0 -0.50000000000000311 -0.46832531175734698 0 -0.49405233013181671 -0.44469108207904318 0 -0.49405233013181671 -0.44469108207904318 0 -0.48975439462991471 -0.42105685240073948 0 -0.49405233013181671 -0.44469108207904318 0 -0.50000000000000744 -0.4240283157930349 0 -0.48975439462991471 -0.42105685240073948 0 -0.50000000000000744 -0.4240283157930349 0 -0.48975439462991471 -0.42105685240073948 0 -0.50000000000000744 -0.4240283157930349 0 -0.49999999999999989 -0.42225375571543711 0 -0.48975439462991471 -0.42105685240073948 0 -0.49999999999999989 -0.42225375571543711 0 -0.48802442216744579 -0.41154378118385032 0 -0.5 -0.39878990198068998 0 -0.49999999999999989 -0.42225375571543711 0 -0.48802442216744579 -0.41154378118385032 0 -0.48975439462991471 -0.42105685240073948 0 -0.49999999999999989 -0.42225375571543711 0 -0.48802442216744579 -0.41154378118385032 0 -0.48802442216744579 -0.41154378118385032 0 -0.48975439462991471 -0.42105685240073948 0 -0.48802442216744579 -0.41154378118385032 0 -0.48975439462991471 -0.42105685240073948 0 -0.46682569724085199 -0.41440699790571162 0 -0.48802442216744579 -0.41154378118385032 0 -0.47176058081062028 -0.39699873549561449 0 -0.46682569724085199 -0.41440699790571162 0 -0.48975439462991471 -0.42105685240073948 0 -0.46682569724085199 -0.41440699790571162 0 -0.49405233013181671 -0.44469108207904318 0 -0.48975439462991471 -0.42105685240073948 0 -0.4679202154936758 -0.43474425601905131 0 -0.48975439462991471 -0.42105685240073948 0 -0.4679202154936758 -0.43474425601905131 0 -0.46682569724085199 -0.41440699790571162 0 -0.5 -0.37532604824594279 0 -0.48381937757876958 -0.38842035609470721 0 -0.4796143329900977 -0.36529693100556332 0 -0.5 -0.37532604824594279 0 -0.5 -0.39878990198068998 0 -0.48381937757876958 -0.38842035609470721 0 -0.48802442216744579 -0.41154378118385032 0 -0.5 -0.39878990198068998 0 -0.48381937757876958 -0.38842035609470721 0 -0.48802442216744579 -0.41154378118385032 0 -0.48381937757876958 -0.38842035609470721 0 -0.48802442216744579 -0.41154378118385032 0 -0.47176058081062028 -0.39699873549561449 0 -0.48802442216744579 -0.41154378118385032 0 -0.47176058081062028 -0.39699873549561449 0 -0.48381937757876958 -0.38842035609470721 0 -0.48381937757876958 -0.38842035609470721 0 -0.4796143329900977 -0.36529693100556332 0 -0.47176058081062028 -0.39699873549561449 0 -0.48381937757876958 -0.38842035609470721 0 -0.47016699862208988 -0.38055241315860222 0 -0.48381937757876958 -0.38842035609470721 0 -0.47016699862208988 -0.38055241315860222 0 -0.4796143329900977 -0.36529693100556332 0 -0.47176058081062028 -0.39699873549561449 0 -0.4554967394537921 -0.38245368980738159 0 -0.47176058081062028 -0.39699873549561449 0 -0.47016699862208988 -0.38055241315860222 0 -0.4554967394537921 -0.38245368980738159 0 -0.47016699862208988 -0.38055241315860222 0 -0.4554967394537921 -0.38245368980738159 0 -0.46273095934536512 -0.36986343114412362 0 -0.47176058081062028 -0.39699873549561449 0 -0.4554967394537921 -0.38245368980738159 0 -0.45988810339353031 -0.39919714096399328 0 -0.4554967394537921 -0.38245368980738159 0 -0.45988810339353031 -0.39919714096399328 0 -0.45075589884428557 -0.39569278410200159 0 -0.47176058081062028 -0.39699873549561449 0 -0.45988810339353031 -0.39919714096399328 0 -0.46682569724085199 -0.41440699790571162 0 -0.45988810339353031 -0.39919714096399328 0 -0.45075589884428557 -0.39569278410200159 0 -0.4546016006181014 -0.40643349750925739 0 -0.44367469871223991 -0.40585787807137108 0 -0.45075589884428557 -0.39569278410200159 0 -0.44145379840460303 -0.38688326109525961 0 -0.44367469871223991 -0.40585787807137108 0 -0.44145379840460303 -0.38688326109525961 0 -0.43489324199914298 -0.39573359169425693 0 -0.44367469871223991 -0.40585787807137108 0 -0.44145379840460303 -0.38688326109525961 0 -0.44367469871223991 -0.40585787807137108 0 -0.4546016006181014 -0.40643349750925739 0 -0.44367469871223991 -0.40585787807137108 0 -0.45075589884428557 -0.39569278410200159 0 -0.4546016006181014 -0.40643349750925739 0 -0.44367469871223991 -0.40585787807137108 0 -0.43489324199914298 -0.39573359169425693 0 -0.43594418086259018 -0.40545064129213421 0 -0.44367469871223991 -0.40585787807137108 0 -0.43594418086259018 -0.40545064129213421 0 -0.4554967394537921 -0.38245368980738159 0 -0.44145379840460303 -0.38688326109525961 0 -0.43923289809696459 -0.36790864411914809 0 -0.4554967394537921 -0.38245368980738159 0 -0.43923289809696459 -0.36790864411914809 0 -0.44145379840460303 -0.38688326109525961 0 -0.43923289809696459 -0.36790864411914809 0 -0.4554967394537921 -0.38245368980738159 0 -0.45075589884428557 -0.39569278410200159 0 -0.44145379840460303 -0.38688326109525961 0 -0.45630783876143788 -0.42191507777953058 0 -0.4679202154936758 -0.43474425601905131 0 -0.44658844245943491 -0.43075191378267519 0 -0.45630783876143788 -0.42191507777953058 0 -0.4679202154936758 -0.43474425601905131 0 -0.46682569724085199 -0.41440699790571162 0 -0.46682569724085199 -0.41440699790571162 0 -0.4546016006181014 -0.40643349750925739 0 -0.44389699985178938 -0.40775714341068331 0 -0.46682569724085199 -0.41440699790571162 0 -0.44389699985178938 -0.40775714341068331 0 -0.45630783876143788 -0.42191507777953058 0 -0.46682569724085199 -0.41440699790571162 0 -0.44389699985178938 -0.40775714341068331 0 -0.45988810339353031 -0.39919714096399328 0 -0.46682569724085199 -0.41440699790571162 0 -0.4546016006181014 -0.40643349750925739 0 -0.44389699985178938 -0.40775714341068331 0 -0.44658844245943491 -0.43075191378267519 0 -0.45630783876143788 -0.42191507777953058 0 -0.44389699985178938 -0.40775714341068331 0 -0.44658844245943491 -0.43075191378267519 0 -0.44389699985178938 -0.40775714341068331 0 -0.44658844245943491 -0.43075191378267519 0 -0.43456298822951123 -0.41704730838285098 0 -0.44367469871223991 -0.40585787807137108 0 -0.4546016006181014 -0.40643349750925739 0 -0.44389699985178938 -0.40775714341068331 0 -0.44367469871223991 -0.40585787807137108 0 -0.44389699985178938 -0.40775714341068331 0 -0.43594418086259018 -0.40545064129213421 0 -0.44389699985178938 -0.40775714341068331 0 -0.43594418086259018 -0.40545064129213421 0 -0.44389699985178938 -0.40775714341068331 0 -0.43456298822951123 -0.41704730838285098 0 -0.43594418086259018 -0.40545064129213421 0 -0.44367469871223991 -0.40585787807137108 0 -0.44389699985178938 -0.40775714341068331 0 -0.44658844245943491 -0.43075191378267519 0 -0.4218595462338342 -0.42698148727542168 0 -0.42506956946829477 -0.45053023696915762 0 -0.44658844245943491 -0.43075191378267519 0 -0.43456298822951123 -0.41704730838285098 0 -0.4218595462338342 -0.42698148727542168 0 -0.42452577173990758 -0.41429535615333929 0 -0.43594418086259018 -0.40545064129213421 0 -0.41467361085218712 -0.40433012665235818 0 -0.43456298822951123 -0.41704730838285098 0 -0.42452577173990758 -0.41429535615333929 0 -0.43594418086259018 -0.40545064129213421 0 -0.43456298822951123 -0.41704730838285098 0 -0.42452577173990758 -0.41429535615333929 0 -0.4218595462338342 -0.42698148727542168 0 -0.42452577173990758 -0.41429535615333929 0 -0.41312238762021158 -0.41567774201887719 0 -0.4218595462338342 -0.42698148727542168 0 -0.42452577173990758 -0.41429535615333929 0 -0.41312238762021158 -0.41567774201887719 0 -0.41467361085218712 -0.40433012665235818 0 -0.41312238762021158 -0.41567774201887719 0 -0.41467361085218712 -0.404330
[...]
<PointData Scalars="" Vectors="displacement," Tensors="">
<DataArray type="Float64" Name="displacement" NumberOfComponents="3" format="ascii">
-0.034996808146119614 -0.034998257985861717 0 -0.03451606331693962 -0.03381404294169256 0 -0.032790471400551031 -0.034998248433564055 0 -0.034996808146119614 -0.034998257985861717 0 -0.03451606331693962 -0.03381404294169256 0 -0.034998637060884748 -0.031831573809647976 0 -0.03451606331693962 -0.03381404294169256 0 -0.034194621815622724 -0.033561462717554509 0 -0.032790471400551031 -0.034998248433564055 0 -0.03451606331693962 -0.03381404294169256 0 -0.034602698400418457 -0.033136916169697932 0 -0.034194621815622724 -0.033561462717554509 0 -0.034903654697687497 -0.031922061407205514 0 -0.035286106357623581 -0.032039570698632273 0 -0.034998637060884748 -0.031831573809647976 0 -0.034602698400418457 -0.033136916169697932 0 -0.034475744646453116 -0.033186305288661358 0 -0.03451606331693962 -0.03381404294169256 0 -0.034998637060884748 -0.031831573809647976 0 -0.034602698400418457 -0.033136916169697932 0 -0.034602698400418457 -0.033136916169697932 0 -0.034475744646453116 -0.033186305288661358 0 -0.034194621815622724 -0.033561462717554509 0 -0.036213455494007771 -0.031030835510004032 0 -0.035901133162882425 -0.030072101208457058 0 -0.036594579250697472 -0.030046499190208215 0 -0.03499999407464336 -0.031826115942153572 0 -0.036213455494007771 -0.031030835510004032 0 -0.034999873038744592 -0.031306810228279656 0 -0.036213455494007771 -0.031030835510004032 0 -0.034999873038744592 -0.031306810228279656 0 -0.035901133162882425 -0.030072101208457058 0 -0.037050102813422525 -0.030373451076400812 0 -0.037585162195382528 -0.029946245982749104 0 -0.037176727468009575 -0.029423153455032089 0 -0.035702854182021827 -0.031771815166163335 0 -0.03663934116104977 -0.03150597816260705 0 -0.035286106357623581 -0.032039570698632273 0 -0.035702854182021827 -0.031771815166163335 0 -0.036213455494007771 -0.031030835510004032 0 -0.037050102813422525 -0.030373451076400812 0 -0.036594579250697472 -0.030046499190208215 0 -0.034475744646453116 -0.033186305288661358 0 -0.034500468402943088 -0.033131174701627603 0 -0.034194621815622724 -0.033561462717554509 0 -0.034500468402943088 -0.033131174701627603 0 -0.034194621815622724 -0.033561462717554509 0 -0.034970723115491369 -0.033590923567874069 0 -0.034500468402943088 -0.033131174701627603 0 -0.034970723115491369 -0.033590923567874069 0 -0.035105117664317162 -0.033000839783384785 0 -0.032782754623628355 -0.035000008565539101 0 -0.031131275584119853 -0.035413640710579466 0 -0.029682059903438515 -0.034999965425073984 0 -0.034194621815622724 -0.033561462717554509 0 -0.034616234482383615 -0.034523801978323783 0 -0.034970723115491369 -0.033590923567874069 0 -0.032749757336083728 -0.034988682944861259 0 -0.032984453103172141 -0.035032031410115981 0 -0.034194621815622724 -0.033561462717554509 0 -0.032790471400551031 -0.034998248433564055 0 -0.034616234482383615 -0.034523801978323783 0 -0.032984453103172141 -0.035032031410115981 0 -0.0316802219909956 -0.03429111294383478 0 -0.031131275584119853 -0.035413640710579466 0 -0.029682059903438515 -0.034999965425073984 0 -0.029487846795912924 -0.035702441295480662 0 -0.02968274001128611 -0.035000958905101048 0 -0.0316802219909956 -0.03429111294383478 0 -0.029681536708169493 -0.035000062993321847 0 -0.029558227251888523 -0.03499991570785109 0 -0.029518420730727388 -0.035431463746929209 0 -0.029557770416110563 -0.034999996053983386 0 -0.028806736448189391 -0.035824688836595599 0 -0.027915258700150943 -0.034999978751138645 0 -0.029558227251888523 -0.03499991570785109 0 -0.029129078008321565 -0.035496867748552222 0 -0.029518420730727388 -0.035431463746929209 0 -0.029556954956592406 -0.035000826976472332 0 -0.029303496705481286 -0.03439289942979841 0 -0.029303496705481286 -0.03439289942979841 0 -0.0316802219909956 -0.03429111294383478 0 -0.03171618764678967 -0.033625316260317686 0 -0.031141171805100246 -0.033734231396076987 0 -0.031561306354575408 -0.032334324307165506 0 -0.03171618764678967 -0.033625316260317686 0 -0.032593309979651215 -0.032622836578849977 0 -0.031561306354575408 -0.032334324307165506 0 -0.0316802219909956 -0.03429111294383478 0 -0.033556349628302937 -0.033120105877338636 0 -0.034616234482383615 -0.034523801978323783 0 -0.035386705498662137 -0.034334550740542362 0 -0.034970723115491369 -0.033590923567874069 0 -0.035386705498662137 -0.034334550740542362 0 -0.034970723115491369 -0.033590923567874069 0 -0.03558287976428124 -0.033572596820777935 0 -0.026272944118406666 -0.034999990014942715 0 -0.02719183384539731 -0.036102578967088371 0 -0.025637062180420476 -0.036362511455025469 0 -0.026272944118406666 -0.034999990014942715 0 -0.027915258700150943 -0.034999978751138645 0 -0.02719183384539731 -0.036102578967088371 0 -0.028806736448189391 -0.035824688836595599 0 -0.027915258700150943 -0.034999978751138645 0 -0.02719183384539731 -0.036102578967088371 0 -0.029303496705481286 -0.03439289942979841 0 -0.027938382887602798 -0.034666717698063398 0 -0.029303496705481286 -0.03439289942979841 0 -0.030741827481232484 -0.032438970975812852 0 -0.027925758281101967 -0.033423722503958593 0 -0.028586557177020577 -0.032645301925016704 0 -0.028985716370207464 -0.033222433734871132 0 -0.027938382887602798 -0.034666717698063398 0 -0.027724738650343639 -0.035055135155379377 0 -0.028586557177020577 -0.032645301925016704 0 -0.028985716370207464 -0.033222433734871132 0 -0.029368323772717989 -0.032556460792395298 0 -0.028985716370207464 -0.033222433734871132 0 -0.029368323772717989 -0.032556460792395298 0 -0.030110122161455803 -0.033034856106438332 0 -0.030741827481232484 -0.032438970975812852 0 -0.031176340338144298 -0.03194191933509833 0 -0.028586557177020577 -0.032645301925016704 0 -0.029368323772717989 -0.032556460792395298 0 -0.029272048188814289 -0.031817629927464092 0 -0.029368323772717989 -0.032556460792395298 0 -0.029272048188814289 -0.031817629927464092 0 -0.029897161398372889 -0.032179280001667671 0 -0.032593309979651215 -0.032622836578849977 0 -0.033416480556013428 -0.031646643370574178 0 -0.032468074037647961 -0.031914039830415575 0 -0.033416480556013428 -0.031646643370574178 0 -0.032468074037647961 -0.031914039830415575 0 -0.032670762743277855 -0.031380928483111713 0 -0.032593309979651215 -0.032622836578849977 0 -0.032468074037647961 -0.031914039830415575 0 -0.031561306354575408 -0.032334324307165506 0 -0.032468074037647961 -0.031914039830415575 0 -0.032670762743277855 -0.031380928483111713 0 -0.03205476218464489 -0.031600841865546729 0 -0.0321005435308582 -0.030974396461641143 0 -0.032670762743277855 -0.031380928483111713 0 -0.033170588452013934 -0.030851597139012182 0 -0.035933401625435214 -0.02656108964418398 0 -0.035310254300199115 -0.026606164032267367 0 -0.035609016942391318 -0.026828135645887659 0 -0.034269752119566788 -0.030188936441588536 0 -0.034541047790649627 -0.028616654965534411 0 -0.034269752119566788 -0.030188936441588536 0 -0.032773418988049204 -0.031609402560762341 0 -0.0321005435308582 -0.030974396461641143 0 -0.032670762743277855 -0.031380928483111713 0 -0.03205476218464489 -0.031600841865546729 0 -0.035933401625435214 -0.02656108964418398 0 -0.035609016942391318 -0.026828135645887659 0 -0.035923401802363725 -0.026798818863996501 0 -0.034269752119566788 -0.030188936441588536 0 -0.036297541040142926 -0.027865525137296794 0 -0.033416480556013428 -0.031646643370574178 0 -0.033170588452013934 -0.030851597139012182 0 -0.034206791965016997 -0.03072106375642553 0 -0.031176340338144298 -0.03194191933509833 0 -0.032713349574278815 -0.029862789335001028 0 -0.034541047790649627 -0.028616654965534411 0 -0.032713349574278815 -0.029862789335001028 0 -0.033416480556013428 -0.031646643370574178 0 -0.032670762743277855 -0.031380928483111713 0 -0.033170588452013934 -0.030851597139012182 0 -0.035354638726659754 -0.033262862014747277 0 -0.034970723115491369 -0.033590923567874069 0 -0.035105117664317162 -0.033000839783384785 0 -0.035354638726659754 -0.033262862014747277 0 -0.034970723115491369 -0.033590923567874069 0 -0.03558287976428124 -0.033572596820777935 0 -0.031561306354575408 -0.032334324307165506 0 -0.03205476218464489 -0.031600841865546729 0 -0.031995301907642243 -0.030956535362594007 0 -0.033556349628302937 -0.033120105877338636 0 -0.035376072255697083 -0.030821198487049842 0 -0.035354638726659754 -0.033262862014747277 0 -0.03558287976428124 -0.033572596820777935 0 -0.035765242868478223 -0.032884043437282504 0 -0.032468074037647961 -0.031914039830415575 0 -0.031561306354575408 -0.032334324307165506 0 -0.03205476218464489 -0.031600841865546729 0 -0.035376072255697083 -0.030821198487049842 0 -0.03663934116104977 -0.03150597816260705 0 -0.035354638726659754 -0.033262862014747277 0 -0.035765242868478223 -0.032884043437282504 0 -0.035105117664317162 -0.033000839783384785 0 -0.03801848558123281 -0.029717706924759283 0 -0.037585162195382528 -0.029946245982749104 0 -0.037823007222814307 -0.029510947103728747 0 -0.032110683649343469 -0.030942436932874143 0 -0.03205476218464489 -0.031600841865546729 0 -0.031995301907642243 -0.030956535362594007 0 -0.035776330489630283 -0.030802398027154579 0 -0.035095843234138578 -0.03088260265659688 0 -0.035925279672773459 -0.028026312432404808 0 -0.035376072255697083 -0.030821198487049842 0 -0.036297541040142926 -0.027865525137296794 0 -0.03801848558123281 -0.029717706924759283 0 -0.037823007222814307 -0.029510947103728747 0 -0.038065372035117444 -0.029520494714927303 0 -0.034269752119566788 -0.030188936441588536 0 -0.035376072255697083 -0.030821198487049842 0 -0.037585162195382528 -0.029946245982749104 0 -0.037637364368687767 -0.029164583820272802 0 -0.037176727468009575 -0.029423153455032089 0 -0.037585162195382528 -0.029946245982749104 0 -0.037823007222814307 -0.029510947103728747 0 -0.037637364368687767 -0.029164583820272802 0 -0.037816601811760726 -0.029216540566186878 0 -0.038065372035117444 -0.029520494714927303 0 -0.037911809090008325 -0.028927158141368977 0 -0.037823007222814307 -0.029510947103728747 0 -0.037816601811760726 -0.029216540566186878 0 -0.038065372035117444 -0.029520494714927303 0 -0.037823007222814307 -0.029510947103728747 0 -0.037816601811760726 -0.029216540566186878 0 -0.037637364368687767 -0.029164583820272802 0 -0.037816601811760726 -0.029216540566186878 0 -0.037708862059637673 -0.028914013055876042 0 -0.037637364368687767 -0.029164583820272802 0 -0.037816601811760726 -0.029216540566186878 0 -0.037708862059637673 -0.028914013055876042 0 -0.037911809090008325 -0.028927158141368977 0 -0.037708862059637673 -0.028914013055876042 0 -0.037911809090008325 -0.028927158141368977 0 -0.037580211139375222 -0.028681878534447442 0 -0.037637364368687767 -0.029164583820272802 0 -0.037564503030159353 -0.028621746333732025 0 -0.037546427750500322 -0.028482811081752466 0 -0.037708862059637673 -0.028914013055876042 0 -0.037637364368687767 -0.029164583820272802 0 -0.037564503030159353 -0.028621746333732025 0 -0.035310254300199115 -0.026606164032267367 0 -0.035184558648398062 -0.027048433139813251 0 -0.034644596241180339 -0.026659398896638407 0 -0.035184558648398062 -0.027048433139813251 0 -0.03504875751991151 -0.027382348937012271 0 -0.034687354697106543 -0.027225802907613318 0 -0.035310254300199115 -0.026606164032267367 0 -0.035184558648398062 -0.027048433139813251 0 -0.035609016942391318 -0.026828135645887659 0 -0.035184558648398062 -0.027048433139813251 0 -0.035581679961123665 -0.027173103660218138 0 -0.035386652179116206 -0.027479136817116449 0 -0.036297541040142926 -0.027865525137296794 0 -0.037347876551855189 -0.028243318382782517 0 -0.035581679961123665 -0.027173103660218138 0 -0.035923401802363725 -0.026798818863996501 0 -0.03570220074875146 -0.027721651774411955 0 -0.036297541040142926 -0.027865525137296794 0 -0.036129677829038379 -0.027415280079909645 0 -0.035184558648398062 -0.027048433139813251 0 -0.035581679961123665 -0.027173103660218138 0 -0.035609016942391318 -0.026828135645887659 0 -0.035581679961123665 -0.027173103660218138 0 -0.035609016942391318 -0.026828135645887659 0 -0.035923401802363725 -0.026798818863996501 0 -0.03671836993691157 -0.02689143387938827 0 -0.036683499883399563 -0.027391833642628701 0 -0.036503630188103778 -0.027556924874068012 0 -0.035581679961123665 -0.027173103660218138 0 -0.03570220074875146 -0.027721651774411955 0 -0.035386652179116206 -0.027479136817116449 0 -0.03570220074875146 -0.027721651774411955 0 -0.035386652179116206 -0.027479136817116449 0 -0.035329035688646329 -0.027808451418135583 0 -0.035184558648398062 -0.027048433139813251 0 -0.035386652179116206 -0.027479136817116449 0 -0.03504875751991151 -0.027382348937012271 0 -0.035386652179116206 -0.027479136817116449 0 -0.035106793801567462 -0.027676176716011219 0 -0.035329035688646329 -0.027808451418135583 0 -0.035106793801567462 -0.027676176716011219 0 -0.034797450200269774 -0.027553933146846673 0 -0.034875628664854823 -0.027805863826401642 0 -0.035106793801567462 -0.027676176716011219 0 -0.03504875751991151 -0.027382348937012271 0 -0.034797450200269774 -0.027553933146846673 0 -0.035386652179116206 -0.027479136817116449 0 -0.035106793801567462 -0.027676176716011219 0 -0.03504875751991151 -0.027382348937012271 0 -0.035078633698106883 -0.028003446136128367 0 -0.035356031685832387 -0.028151502419953473 0 -0.034999131824532022 -0.028402663614493069 0 -0.035078633698106883 -0.028003446136128367 0 -0.034999131824532022 -0.028402663614493069 0 -0.034778943713841208 -0.028022350120345259 0 -0.035106793801567462 -0.027676176716011219 0 -0.035078633698106883 -0.028003446136128367 0 -0.034875628664854823 -0.027805863826401642 0 -0.035106793801567462 -0.027676176716011219 0 -0.035078633698106883 -0.028003446136128367 0 -0.035329035688646329 -0.027808451418135583 0 -0.03570220074875146 -0.027721651774411955 0 -0.035329035688646329 -0.027808451418135583 0 -0.035356031685832387 -0.028151502419953473 0 -0.035078633698106883 -0.028003446136128367 0 -0.035329035688646329 -0.027808451418135583 0 -0.035356031685832387 -0.028151502419953473 0 -0.036129677829038379 -0.027415280079909645 0 -0.035804324123168613 -0.02867684190652341 0 -0.03570220074875146 -0.027721651774411955 0 -0.035356031685832387 -0.028151502419953473 0 -0.035505787359381896 -0.028723446519367174 0 -0.036503630188103778 -0.027556924874068012 0 -0.036686376471909511 -0.028006528642672054 0 -0.036149369901230063 -0.028467375905151953 0 -0.036683499883399563 -0.027391833642628701 0 -0.036503630188103778 -0.027556924874068012 0 -0.036686376471909511 -0.028006528642672054 0 -0.037347876551855189 -0.028243318382782517 0 -0.037040009160147283 -0.028356239629928379 0 -0.037040009160147283 -0.028356239629928379 0 -0.036820592386700379 -0.028834412103227743 0 -0.036686376471909511 -0.028006528642672054 0 -0.036149369901230063 -0.028467375905151953 0 -0.036749845720662866 -0.028829193950919135 0 -0.035356031685832387 -0.028151502419953473 0 -0.035505787359381896 -0.028723446519367174 0 -0.034999131824532022 -0.028402663614493069 0 -0.035505787359381896 -0.028723446519367174 0 -0.034999131824532022 -0.028402663614493069 0 -0.034749248141191687 -0.028857716762746091 0 -0.037564503030159353 -0.028621746333732025 0 -0.037621201242215949 -0.028731055512014297 0 -0.037546427750500322 -0.028482811081752466 0 -0.037708862059637673 -0.028914013055876042 0 -0.037564503030159353 -0.028621746333732025 0 -0.037580211139375222 -0.028681878534447442 0 -0.037426239632757909 -0.028603952022006395 0 -0.037580211139375222 -0.028681878534447442 0 -0.037373301340614146 -0.028650156068385137 0 -0.037564503030159353 -0.028621746333732025 0 -0.037580211139375222 -0.028681878534447442 0 -0.037373301340614146 -0.028650156068385137 0 -0.037911809090008325 -0.028927158141368977 0 -0.037426239632757909 -0.028603952022006395 0 -0.037580211139375222 -0.028681878534447442 0 -0.037426239632757909 -0.028603952022006395 0 -0.037373301340614146 -0.028650156068385137 0 -0.036749845720662866 -0.028829193950919135 0 -0.037373301340614146 -0.028650156068385137 0 -0.03722683844672782 -0.029012603054813763 0 -0.036749845720662866 -0.028829193950919135 0 -0.037373301340614146 -0.028650156068385137 0 -0.037621201242215949 -0.028731055512014297 0 -0.03722683844672782 -0.029012603054813763 0 -0.037564503030159353 -0.028621746333732025 0 -0.037373301340614146 -0.028650156068385137 0 -0.037621201242215949 -0.028731055512014297 0 -0.038085897161223757 -0.027002694426678537 0 -0.037546427750500322 -0.028482811081752466 0 -0.036772472511195947 -0.02710576000526254 0 -0.037836178354134761 -0.027889992919011852 0 -0.037577270106927338 -0.028450410324027099 0 -0.036777448051974901 -0.02836499200052349 0 -0.036772472511195947 -0.02710576000526254 0 -0.035993602554094672 -0.027782585523421246 0 -0.037546427750500322 -0.028482811081752466 0 -0.036777448051974901 -0.02836499200052349 0 -0.036772472511195947 -0.02710576000526254 0 -0.036772472511195947 -0.02710576000526254 0 -0.035869082870258695 -0.026927390365710104 0 -0.035993602554094672 -0.027782585523421246 0 -0.036772472511195947 -0.02710576000526254 0 -0.035869082870258695 -0.026927390365710104 0 -0.03594902828487679 -0.026409012888514001 0 -0.035869082870258695 -0.026927390365710104 0 -0.034999821345831066 -0.026477650792703863 0 -0.035993602554094672 -0.027782585523421246 0 -0.035869082870258695 -0.026927390365710104 0 -0.034999821345831066 -0.026477650792703863 0 -0.03594902828487679 -0.026409012888514001 0 -0.034999821345831066 -0.026477650792703863 0 -0.035993602554094672 -0.027782585523421246 0 -0.034999722923043486 -0.028543660396488455 0 -0.036777448051974901 -0.02836499200052349 0 -0.035993602554094672 -0.027782585523421246 0 -0.036386767589210597 -0.029151519792499071 0 -0.034999873038744592 -0.031306810228279656 0 -0.034999722923043486 -0.028543660396488455 0 -0.035901133162882425 -0.030072101208457058 0 -0.035993602554094672 -0.027782585523421246 0 -0.036386767589210597 -0.029151519792499071 0 -0.034999722923043486 -0.028543660396488455 0 -0.036386767589210597 -0.029151519792499071 0 -0.034999722923043486 -0.028543660396488455 0 -0.035901133162882425 -0.030072101208457058 0 -0.036386767589210597 -0.029151519792499071 0 -0.035901133162882425 -0.030072101208457058 0 -0.036594579250697472 -0.030046499190208215 0 -0.037050102813422525 -0.030373451076400812 0 -0.036594579250697472 -0.030046499190208215 0 -0.037176727468009575 -0.029423153455032089 0 -0.036386767589210597 -0.029151519792499071 0 -0.036594579250697472 -0.030046499190208215 0 -0.037176727468009575 -0.029423153455032089 0 -0.037637364368687767 -0.029164583820272802 0 -0.037546427750500322 -0.028482811081752466 0 -0.037176727468009575 -0.029423153455032089 0 -0.037546427750500322 -0.028482811081752466 0 -0.036777448051974901 -0.02836499200052349 0 -0.037176727468009575 -0.029423153455032089 0 -0.036777448051974901 -0.02836499200052349 0 -0.036386767589210597 -0.029151519792499071 0 -0.037176727468009575 -0.029423153455032089 0 -0.019937010765288619 -0.03383354912546703 0 -0.021575325375857383 -0.033195636510471291 0 -0.020400771549482822 -0.032209128652761314 0 -0.019937010765288619 -0.03383354912546703 0 -0.021575325375857383 -0.033195636510471291 0 -0.021704237563471979 -0.034852858226251469 0 -0.016350627850861926 -0.035195641733754515 0 -0.017563980163827392 -0.035022476360073156 0 -0.022810486794916502 -0.033358613920623899 0 -0.023944980696992316 -0.034236929204663945 0 -0.021704237563471979 -0.034852858226251469 0 -0.021575325375857383 -0.033195636510471291 0 -0.022810486794916502 -0.033358613920623899 0 -0.021704237563471979 -0.034852858226251469 0 -0.021575325375857383 -0.033195636510471291 0 -0.020400771549482822 -0.032209128652761314 0 -0.023026636776801467 -0.031725838896266428 0 -0.021575325375857383 -0.033195636510471291 0 -0.022810486794916502 -0.033358613920623899 0 -0.023026636776801467 -0.031725838896266428 0 -0.017563980163827392 -0.035022476360073156 0 -0.021959436516149136 -0.034141105670888267 0 -0.017143827382947622 -0.036953751932085332 0 -0.017335976494735884 -0.0