<?xml version="1.0"?>
<VTKFile type="UnstructuredGrid" version="0.1" byte_order="LittleEndian">
<UnstructuredGrid>
<Piece NumberOfPoints="30764" NumberOfCells="10808">
<Points>
<DataArray type="Float64" NumberOfComponents="3" format="ascii">
-0.5 -0.5 0 -0.47741545559698201 -0.48541822105459048 0 -0.50000000000000311 -0.46832531175734698 0 -0.5 -0.5 0 -0.47741545559698201 -0.48541822105459048 0 -0.45466277028236202 -0.5 0 -0.47741545559698201 -0.48541822105459048 0 -0.47165900317253118 -0.4644023661114427 0 -0.50000000000000311 -0.46832531175734698 0 -0.47741545559698201 -0.48541822105459048 0 -0.46392713918164868 -0.48157456664783621 0 -0.47165900317253118 -0.4644023661114427 0 -0.45466277028236202 -0.5 0 -0.45197132767471959 -0.47674145452665972 0 -0.45466277028236202 -0.5 0 -0.46392713918164868 -0.48157456664783621 0 -0.45197132767471959 -0.47674145452665972 0 -0.47741545559698201 -0.48541822105459048 0 -0.45466277028236202 -0.5 0 -0.46392713918164868 -0.48157456664783621 0 -0.46392713918164868 -0.48157456664783621 0 -0.45197132767471959 -0.47674145452665972 0 -0.47165900317253118 -0.4644023661114427 0 -0.45197132767471959 -0.47674145452665972 0 -0.4324199765543455 -0.48310328480227188 0 -0.43589785420521449 -0.46709784163550888 0 -0.45466277028236202 -0.5 0 -0.45197132767471959 -0.47674145452665972 0 -0.44724630732056547 -0.5 0 -0.45197132767471959 -0.47674145452665972 0 -0.44724630732056547 -0.5 0 -0.4324199765543455 -0.48310328480227188 0 -0.44927988506707722 -0.4537466841546674 0 -0.44658844245943491 -0.43075191378267519 0 -0.42506956946829477 -0.45053023696915762 0 -0.44927988506707722 -0.4537466841546674 0 -0.44658844245943491 -0.43075191378267519 0 -0.45197132767471959 -0.47674145452665972 0 -0.44927988506707722 -0.4537466841546674 0 -0.45197132767471959 -0.47674145452665972 0 -0.44927988506707722 -0.4537466841546674 0 -0.43589785420521449 -0.46709784163550888 0 -0.45197132767471959 -0.47674145452665972 0 -0.44927988506707722 -0.4537466841546674 0 -0.47165900317253118 -0.4644023661114427 0 -0.44927988506707722 -0.4537466841546674 0 -0.47165900317253118 -0.4644023661114427 0 -0.4679202154936758 -0.43474425601905131 0 -0.44927988506707722 -0.4537466841546674 0 -0.4679202154936758 -0.43474425601905131 0 -0.44658844245943491 -0.43075191378267519 0 -0.50000000000000311 -0.46832531175734698 0 -0.49405233013181671 -0.44469108207904318 0 -0.50000000000000744 -0.4240283157930349 0 -0.47165900317253118 -0.4644023661114427 0 -0.49405233013181671 -0.44469108207904318 0 -0.4679202154936758 -0.43474425601905131 0 -0.50000000000000311 -0.46832531175734698 0 -0.49405233013181671 -0.44469108207904318 0 -0.47165900317253118 -0.4644023661114427 0 -0.50000000000000311 -0.46832531175734698 0 -0.49405233013181671 -0.44469108207904318 0 -0.49405233013181671 -0.44469108207904318 0 -0.48975439462991471 -0.42105685240073948 0 -0.49405233013181671 -0.44469108207904318 0 -0.50000000000000744 -0.4240283157930349 0 -0.48975439462991471 -0.42105685240073948 0 -0.50000000000000744 -0.4240283157930349 0 -0.48975439462991471 -0.42105685240073948 0 -0.50000000000000744 -0.4240283157930349 0 -0.49999999999999989 -0.42225375571543711 0 -0.48975439462991471 -0.42105685240073948 0 -0.49999999999999989 -0.42225375571543711 0 -0.48802442216744579 -0.41154378118385032 0 -0.5 -0.39878990198068998 0 -0.49999999999999989 -0.42225375571543711 0 -0.48802442216744579 -0.41154378118385032 0 -0.48975439462991471 -0.42105685240073948 0 -0.49999999999999989 -0.42225375571543711 0 -0.48802442216744579 -0.41154378118385032 0 -0.48802442216744579 -0.41154378118385032 0 -0.48975439462991471 -0.42105685240073948 0 -0.48802442216744579 -0.41154378118385032 0 -0.48975439462991471 -0.42105685240073948 0 -0.46682569724085199 -0.41440699790571162 0 -0.48802442216744579 -0.41154378118385032 0 -0.47176058081062028 -0.39699873549561449 0 -0.46682569724085199 -0.41440699790571162 0 -0.48975439462991471 -0.42105685240073948 0 -0.46682569724085199 -0.41440699790571162 0 -0.49405233013181671 -0.44469108207904318 0 -0.48975439462991471 -0.42105685240073948 0 -0.4679202154936758 -0.43474425601905131 0 -0.48975439462991471 -0.42105685240073948 0 -0.4679202154936758 -0.43474425601905131 0 -0.46682569724085199 -0.41440699790571162 0 -0.5 -0.37532604824594279 0 -0.48381937757876958 -0.38842035609470721 0 -0.4796143329900977 -0.36529693100556332 0 -0.5 -0.37532604824594279 0 -0.5 -0.39878990198068998 0 -0.48381937757876958 -0.38842035609470721 0 -0.48802442216744579 -0.41154378118385032 0 -0.5 -0.39878990198068998 0 -0.48381937757876958 -0.38842035609470721 0 -0.48802442216744579 -0.41154378118385032 0 -0.48381937757876958 -0.38842035609470721 0 -0.48802442216744579 -0.41154378118385032 0 -0.47176058081062028 -0.39699873549561449 0 -0.48802442216744579 -0.41154378118385032 0 -0.47176058081062028 -0.39699873549561449 0 -0.48381937757876958 -0.38842035609470721 0 -0.48381937757876958 -0.38842035609470721 0 -0.4796143329900977 -0.36529693100556332 0 -0.47176058081062028 -0.39699873549561449 0 -0.48381937757876958 -0.38842035609470721 0 -0.47016699862208988 -0.38055241315860222 0 -0.48381937757876958 -0.38842035609470721 0 -0.47016699862208988 -0.38055241315860222 0 -0.4796143329900977 -0.36529693100556332 0 -0.47176058081062028 -0.39699873549561449 0 -0.4554967394537921 -0.38245368980738159 0 -0.47176058081062028 -0.39699873549561449 0 -0.47016699862208988 -0.38055241315860222 0 -0.4554967394537921 -0.38245368980738159 0 -0.47016699862208988 -0.38055241315860222 0 -0.4554967394537921 -0.38245368980738159 0 -0.46273095934536512 -0.36986343114412362 0 -0.47176058081062028 -0.39699873549561449 0 -0.4554967394537921 -0.38245368980738159 0 -0.45988810339353031 -0.39919714096399328 0 -0.4554967394537921 -0.38245368980738159 0 -0.45988810339353031 -0.39919714096399328 0 -0.45075589884428557 -0.39569278410200159 0 -0.47176058081062028 -0.39699873549561449 0 -0.45988810339353031 -0.39919714096399328 0 -0.46682569724085199 -0.41440699790571162 0 -0.45988810339353031 -0.39919714096399328 0 -0.45075589884428557 -0.39569278410200159 0 -0.4546016006181014 -0.40643349750925739 0 -0.44367469871223991 -0.40585787807137108 0 -0.45075589884428557 -0.39569278410200159 0 -0.44145379840460303 -0.38688326109525961 0 -0.44367469871223991 -0.40585787807137108 0 -0.44145379840460303 -0.38688326109525961 0 -0.43489324199914298 -0.39573359169425693 0 -0.44367469871223991 -0.40585787807137108 0 -0.44145379840460303 -0.38688326109525961 0 -0.44367469871223991 -0.40585787807137108 0 -0.4546016006181014 -0.40643349750925739 0 -0.44367469871223991 -0.40585787807137108 0 -0.45075589884428557 -0.39569278410200159 0 -0.4546016006181014 -0.40643349750925739 0 -0.44367469871223991 -0.40585787807137108 0 -0.43489324199914298 -0.39573359169425693 0 -0.43594418086259018 -0.40545064129213421 0 -0.44367469871223991 -0.40585787807137108 0 -0.43594418086259018 -0.40545064129213421 0 -0.4554967394537921 -0.38245368980738159 0 -0.44145379840460303 -0.38688326109525961 0 -0.43923289809696459 -0.36790864411914809 0 -0.4554967394537921 -0.38245368980738159 0 -0.43923289809696459 -0.36790864411914809 0 -0.44145379840460303 -0.38688326109525961 0 -0.43923289809696459 -0.36790864411914809 0 -0.4554967394537921 -0.38245368980738159 0 -0.45075589884428557 -0.39569278410200159 0 -0.44145379840460303 -0.38688326109525961 0 -0.45630783876143788 -0.42191507777953058 0 -0.4679202154936758 -0.43474425601905131 0 -0.44658844245943491 -0.43075191378267519 0 -0.45630783876143788 -0.42191507777953058 0 -0.4679202154936758 -0.43474425601905131 0 -0.46682569724085199 -0.41440699790571162 0 -0.46682569724085199 -0.41440699790571162 0 -0.4546016006181014 -0.40643349750925739 0 -0.44389699985178938 -0.40775714341068331 0 -0.46682569724085199 -0.41440699790571162 0 -0.44389699985178938 -0.40775714341068331 0 -0.45630783876143788 -0.42191507777953058 0 -0.46682569724085199 -0.41440699790571162 0 -0.44389699985178938 -0.40775714341068331 0 -0.45988810339353031 -0.39919714096399328 0 -0.46682569724085199 -0.41440699790571162 0 -0.4546016006181014 -0.40643349750925739 0 -0.44389699985178938 -0.40775714341068331 0 -0.44658844245943491 -0.43075191378267519 0 -0.45630783876143788 -0.42191507777953058 0 -0.44389699985178938 -0.40775714341068331 0 -0.44658844245943491 -0.43075191378267519 0 -0.44389699985178938 -0.40775714341068331 0 -0.44658844245943491 -0.43075191378267519 0 -0.43456298822951123 -0.41704730838285098 0 -0.44367469871223991 -0.40585787807137108 0 -0.4546016006181014 -0.40643349750925739 0 -0.44389699985178938 -0.40775714341068331 0 -0.44367469871223991 -0.40585787807137108 0 -0.44389699985178938 -0.40775714341068331 0 -0.43594418086259018 -0.40545064129213421 0 -0.44389699985178938 -0.40775714341068331 0 -0.43594418086259018 -0.40545064129213421 0 -0.44389699985178938 -0.40775714341068331 0 -0.43456298822951123 -0.41704730838285098 0 -0.43594418086259018 -0.40545064129213421 0 -0.44367469871223991 -0.40585787807137108 0 -0.44389699985178938 -0.40775714341068331 0 -0.44658844245943491 -0.43075191378267519 0 -0.4218595462338342 -0.42698148727542168 0 -0.42506956946829477 -0.45053023696915762 0 -0.44658844245943491 -0.43075191378267519 0 -0.43456298822951123 -0.41704730838285098 0 -0.4218595462338342 -0.42698148727542168 0 -0.42452577173990758 -0.41429535615333929 0 -0.43594418086259018 -0.40545064129213421 0 -0.41467361085218712 -0.40433012665235818 0 -0.43456298822951123 -0.41704730838285098 0 -0.42452577173990758 -0.41429535615333929 0 -0.43594418086259018 -0.40545064129213421 0 -0.43456298822951123 -0.41704730838285098 0 -0.42452577173990758 -0.41429535615333929 0 -0.4218595462338342 -0.42698148727542168 0 -0.42452577173990758 -0.41429535615333929 0 -0.41312238762021158 -0.41567774201887719 0 -0.4218595462338342 -0.42698148727542168 0 -0.42452577173990758 -0.41429535615333929 0 -0.41312238762021158 -0.41567774201887719 0 -0.41467361085218712 -0.40433012665235818 0 -0.41312238762021158 -0.41567774201887719 0 -0.41467361085218712 -0.404330
[...]
<PointData Scalars="" Vectors="displacement," Tensors="">
<DataArray type="Float64" Name="displacement" NumberOfComponents="3" format="ascii">
-6.9240602778388027e-07 -0.034997212127366346 0 -0.00012354862123615474 -0.034603254423389393 0 1.3914675924360851e-06 -0.032787974915201266 0 -6.9240602778388027e-07 -0.034997212127366346 0 -0.00012354862123615474 -0.034603254423389393 0 -1.2533195705360311e-07 -0.035000263347071556 0 -0.00012354862123615474 -0.034603254423389393 0 0.00045005530397457054 -0.034490134333926038 0 1.3914675924360851e-06 -0.032787974915201266 0 -0.00012354862123615474 -0.034603254423389393 0 3.5355864574976684e-05 -0.034816530117191657 0 0.00045005530397457054 -0.034490134333926038 0 -2.2185355979013153e-06 -0.035004714538757906 0 8.0104592213752136e-05 -0.035041930079944196 0 -1.2533195705360311e-07 -0.035000263347071556 0 3.5355864574976684e-05 -0.034816530117191657 0 0.0001175862349320412 -0.035053956802189472 0 -0.00012354862123615474 -0.034603254423389393 0 -1.2533195705360311e-07 -0.035000263347071556 0 3.5355864574976684e-05 -0.034816530117191657 0 3.5355864574976684e-05 -0.034816530117191657 0 0.0001175862349320412 -0.035053956802189472 0 0.00045005530397457054 -0.034490134333926038 0 5.6664127985784876e-06 -0.035014648451641484 0 7.3829844896050384e-06 -0.034980803282612521 0 -1.1411838159784428e-05 -0.034981839185880943 0 -7.7992740869120776e-09 -0.035000000246032045 0 5.6664127985784876e-06 -0.035014648451641484 0 1.8210678749581797e-08 -0.035000000407005884 0 5.6664127985784876e-06 -0.035014648451641484 0 1.8210678749581797e-08 -0.035000000407005884 0 7.3829844896050384e-06 -0.034980803282612521 0 -5.8715423862940538e-05 -0.035065835985136594 0 -0.00025069111617424317 -0.035103454346042826 0 -6.0425543840692577e-05 -0.034910489876216644 0 0.000362605367556117 -0.035112150365963289 0 0.00092243197807538612 -0.035400177227612892 0 8.0104592213752136e-05 -0.035041930079944196 0 0.000362605367556117 -0.035112150365963289 0 5.6664127985784876e-06 -0.035014648451641484 0 -5.8715423862940538e-05 -0.035065835985136594 0 -1.1411838159784428e-05 -0.034981839185880943 0 0.0001175862349320412 -0.035053956802189472 0 0.00086134643531317714 -0.035210148152692425 0 0.00045005530397457054 -0.034490134333926038 0 0.00086134643531317714 -0.035210148152692425 0 0.00045005530397457054 -0.034490134333926038 0 0.0016429912777230682 -0.034480659889379872 0 0.00086134643531317714 -0.035210148152692425 0 0.0016429912777230682 -0.034480659889379872 0 0.001786969133223186 -0.035293747565865022 0 -1.3026180210872358e-08 -0.032780695662695383 0 -2.2006947795214371e-05 -0.030974045902709149 0 3.4348721737039723e-08 -0.029684085499963712 0 0.00045005530397457054 -0.034490134333926038 0 0.0012874845516623328 -0.033302437067343406 0 0.0016429912777230682 -0.034480659889379872 0 -5.4231787250053385e-05 -0.032592016802924388 0 0.00058145126414293504 -0.032207120681718063 0 0.00045005530397457054 -0.034490134333926038 0 1.3914675924360851e-06 -0.032787974915201266 0 0.0012874845516623328 -0.033302437067343406 0 0.00058145126414293504 -0.032207120681718063 0 0.00085247168996914295 -0.031385151802984082 0 -2.2006947795214371e-05 -0.030974045902709149 0 3.4348721737039723e-08 -0.029684085499963712 0 5.7915683821327353e-05 -0.029875996740861419 0 8.2564247595401038e-08 -0.029681528179748062 0 0.00085247168996914295 -0.031385151802984082 0 -1.9568807929255075e-07 -0.029679875919800081 0 2.0460680883426209e-07 -0.029559880712717642 0 1.1105601736614192e-05 -0.029608853229297672 0 9.9919989057243516e-07 -0.029556317435147347 0 4.4066719115657478e-05 -0.028232426589239981 0 -9.9612538024240393e-07 -0.02791476054481128 0 2.0460680883426209e-07 -0.029559880712717642 0 5.9010608065253056e-05 -0.029618487041540728 0 1.1105601736614192e-05 -0.029608853229297672 0 -2.3211610243548114e-07 -0.029557130887795696 0 -4.123636575004216e-05 -0.029474224207090394 0 -4.123636575004216e-05 -0.029474224207090394 0 0.00085247168996914295 -0.031385151802984082 0 0.00015656611674724527 -0.031570735230640003 0 0.00028205372889145651 -0.031593767693324809 0 0.00019497096128388763 -0.031307173465084832 0 0.00015656611674724527 -0.031570735230640003 0 -4.214757745481098e-05 -0.031369067710049194 0 0.00019497096128388763 -0.031307173465084832 0 0.00085247168996914295 -0.031385151802984082 0 0.0014922780664807793 -0.0332001911595158 0 0.0012874845516623328 -0.033302437067343406 0 0.002213032819615299 -0.03352727864910332 0 0.0016429912777230682 -0.034480659889379872 0 0.002213032819615299 -0.03352727864910332 0 0.0016429912777230682 -0.034480659889379872 0 0.0024366351216087117 -0.034500168633104657 0 9.8416061845822165e-07 -0.026275345615431302 0 -0.00021637668154351618 -0.027354982356424522 0 0.00063821300317561038 -0.027368906560843533 0 9.8416061845822165e-07 -0.026275345615431302 0 -9.9612538024240393e-07 -0.02791476054481128 0 -0.00021637668154351618 -0.027354982356424522 0 4.4066719115657478e-05 -0.028232426589239981 0 -9.9612538024240393e-07 -0.02791476054481128 0 -0.00021637668154351618 -0.027354982356424522 0 -4.123636575004216e-05 -0.029474224207090394 0 -0.00013085468000028461 -0.027952133075699565 0 -4.123636575004216e-05 -0.029474224207090394 0 -6.5478111151061566e-05 -0.030030570081644902 0 -0.00018962962328061481 -0.028499681380414383 0 -0.00016513661105955788 -0.028525183704531817 0 -0.00014407375593727853 -0.028487693421002387 0 -0.00013085468000028461 -0.027952133075699565 0 -9.7101774803485982e-05 -0.026908526529849878 0 -0.00016513661105955788 -0.028525183704531817 0 -0.00014407375593727853 -0.028487693421002387 0 -0.00011848536763555377 -0.028524341765535473 0 -0.00014407375593727853 -0.028487693421002387 0 -0.00011848536763555377 -0.028524341765535473 0 -5.798209068080812e-05 -0.028473013793835555 0 -6.5478111151061566e-05 -0.030030570081644902 0 -0.00021088731898290681 -0.029843508374307579 0 -0.00016513661105955788 -0.028525183704531817 0 -0.00011848536763555377 -0.028524341765535473 0 -0.00013489473237289788 -0.028586817161408349 0 -0.00011848536763555377 -0.028524341765535473 0 -0.00013489473237289788 -0.028586817161408349 0 -7.3504925195471538e-05 -0.028548026613596136 0 -4.214757745481098e-05 -0.031369067710049194 0 -0.00027451374900722706 -0.031139644816596507 0 -1.4100549387669169e-05 -0.031209966563609436 0 -0.00027451374900722706 -0.031139644816596507 0 -1.4100549387669169e-05 -0.031209966563609436 0 -7.0255235143954544e-05 -0.031073367622494432 0 -4.214757745481098e-05 -0.031369067710049194 0 -1.4100549387669169e-05 -0.031209966563609436 0 0.00019497096128388763 -0.031307173465084832 0 -1.4100549387669169e-05 -0.031209966563609436 0 -7.0255235143954544e-05 -0.031073367622494432 0 9.0643189072929384e-05 -0.031147158272614769 0 8.5375783086030714e-05 -0.030970741378519361 0 -7.0255235143954544e-05 -0.031073367622494432 0 -0.00020817275247487303 -0.030918523965812426 0 -0.0014937259576875389 -0.030355618550675447 0 -0.0010302650133348038 -0.03038487896163547 0 -0.0012524481560025704 -0.030557372261363711 0 -0.00018624327839300391 -0.032061664695988888 0 -0.00075106704900794246 -0.030619496240184608 0 -0.00018624327839300391 -0.032061664695988888 0 -2.7132492657200375e-05 -0.030966667004739989 0 8.5375783086030714e-05 -0.030970741378519361 0 -7.0255235143954544e-05 -0.031073367622494432 0 9.0643189072929384e-05 -0.031147158272614769 0 -0.0014937259576875389 -0.030355618550675447 0 -0.0012524481560025704 -0.030557372261363711 0 -0.0014866112263650869 -0.030538440466982932 0 -0.00018624327839300391 -0.032061664695988888 0 -0.00065216229504528765 -0.032813035856418052 0 -0.00027451374900722706 -0.031139644816596507 0 -0.00020817275247487303 -0.030918523965812426 0 -0.00051458104648815931 -0.030868392924887519 0 -0.00021088731898290681 -0.029843508374307579 0 -0.00035627912479763391 -0.029865599915944278 0 -0.00075106704900794246 -0.030619496240184608 0 -0.00035627912479763391 -0.029865599915944278 0 -0.00027451374900722706 -0.031139644816596507 0 -7.0255235143954544e-05 -0.031073367622494432 0 -0.00020817275247487303 -0.030918523965812426 0 0.0021316189355865744 -0.034912357561241558 0 0.0016429912777230682 -0.034480659889379872 0 0.001786969133223186 -0.035293747565865022 0 0.0021316189355865744 -0.034912357561241558 0 0.0016429912777230682 -0.034480659889379872 0 0.0024366351216087117 -0.034500168633104657 0 0.00019497096128388763 -0.031307173465084832 0 9.0643189072929384e-05 -0.031147158272614769 0 0.0001059247617298566 -0.031021180539009305 0 0.0014922780664807793 -0.0332001911595158 0 0.00042557671174406494 -0.033025987252332439 0 0.0021316189355865744 -0.034912357561241558 0 0.0024366351216087117 -0.034500168633104657 0 0.0026461686664345373 -0.035363004860539664 0 -1.4100549387669169e-05 -0.031209966563609436 0 0.00019497096128388763 -0.031307173465084832 0 9.0643189072929384e-05 -0.031147158272614769 0 0.00042557671174406494 -0.033025987252332439 0 0.00092243197807538612 -0.035400177227612892 0 0.0021316189355865744 -0.034912357561241558 0 0.0026461686664345373 -0.035363004860539664 0 0.001786969133223186 -0.035293747565865022 0 -0.00054066742846589741 -0.035102927332712128 0 -0.00025069111617424317 -0.035103454346042826 0 -0.0004302879723068152 -0.034997409770460154 0 8.3114834678500623e-05 -0.031019259436370777 0 9.0643189072929384e-05 -0.031147158272614769 0 0.0001059247617298566 -0.031021180539009305 0 -0.00040835345365530405 -0.032433049593798675 0 -0.00050628834288961192 -0.032421726439237596 0 -0.00039176917544664179 -0.032835143946272037 0 0.00042557671174406494 -0.033025987252332439 0 -0.00065216229504528765 -0.032813035856418052 0 -0.00054066742846589741 -0.035102927332712128 0 -0.0004302879723068152 -0.034997409770460154 0 -0.00058028271559839087 -0.035013335507191323 0 -0.00018624327839300391 -0.032061664695988888 0 0.00042557671174406494 -0.033025987252332439 0 -0.00025069111617424317 -0.035103454346042826 0 -0.00029374583232646197 -0.034868327421837257 0 -6.0425543840692577e-05 -0.034910489876216644 0 -0.00025069111617424317 -0.035103454346042826 0 -0.0004302879723068152 -0.034997409770460154 0 -0.00029374583232646197 -0.034868327421837257 0 -0.00048784226305765622 -0.034885125000052655 0 -0.00058028271559839087 -0.035013335507191323 0 -0.00067995674793932626 -0.034757869781566683 0 -0.0004302879723068152 -0.034997409770460154 0 -0.00048784226305765622 -0.034885125000052655 0 -0.00058028271559839087 -0.035013335507191323 0 -0.0004302879723068152 -0.034997409770460154 0 -0.00048784226305765622 -0.034885125000052655 0 -0.00029374583232646197 -0.034868327421837257 0 -0.00048784226305765622 -0.034885125000052655 0 -0.00048581270903850322 -0.034726292424617881 0 -0.00029374583232646197 -0.034868327421837257 0 -0.00048784226305765622 -0.034885125000052655 0 -0.00048581270903850322 -0.034726292424617881 0 -0.00067995674793932626 -0.034757869781566683 0 -0.00048581270903850322 -0.034726292424617881 0 -0.00067995674793932626 -0.034757869781566683 0 -0.00058161930313146645 -0.034500671818565684 0 -0.00029374583232646197 -0.034868327421837257 0 -0.00035689031273382924 -0.034536813242490021 0 -3.1692945422209379e-05 -0.034679695151751094 0 -0.00048581270903850322 -0.034726292424617881 0 -0.00029374583232646197 -0.034868327421837257 0 -0.00035689031273382924 -0.034536813242490021 0 -0.0010302650133348038 -0.03038487896163547 0 -0.00093341293434721559 -0.030722401870738346 0 -0.00053613754457959974 -0.030417914302786564 0 -0.00093341293434721559 -0.030722401870738346 0 -0.0008256604830031457 -0.030978474317171503 0 -0.00055947627303930096 -0.030858739530265133 0 -0.0010302650133348038 -0.03038487896163547 0 -0.00093341293434721559 -0.030722401870738346 0 -0.0012524481560025704 -0.030557372261363711 0 -0.00093341293434721559 -0.030722401870738346 0 -0.0012322323365697957 -0.0308211465370428 0 -0.0010821441435509946 -0.031054366133645862 0 -0.00065216229504528765 -0.032813035856418052 0 -0.00075784219063537456 -0.034378125038408106 0 -0.0012322323365697957 -0.0308211465370428 0 -0.0014866112263650869 -0.030538440466982932 0 -0.0013288561033202393 -0.031244208244240713 0 -0.00065216229504528765 -0.032813035856418052 0 -0.0011693213223401694 -0.032171278968437009 0 -0.00093341293434721559 -0.030722401870738346 0 -0.0012322323365697957 -0.0308211465370428 0 -0.0012524481560025704 -0.030557372261363711 0 -0.0012322323365697957 -0.0308211465370428 0 -0.0012524481560025704 -0.030557372261363711 0 -0.0014866112263650869 -0.030538440466982932 0 -0.00083475475095752918 -0.033339215701744723 0 -0.00084373221118394276 -0.033473425337545784 0 -0.00081081709837950617 -0.033509363407156142 0 -0.0012322323365697957 -0.0308211465370428 0 -0.0013288561033202393 -0.031244208244240713 0 -0.0010821441435509946 -0.031054366133645862 0 -0.0013288561033202393 -0.031244208244240713 0 -0.0010821441435509946 -0.031054366133645862 0 -0.0010315816112555936 -0.031312164728968549 0 -0.00093341293434721559 -0.030722401870738346 0 -0.0010821441435509946 -0.031054366133645862 0 -0.0008256604830031457 -0.030978474317171503 0 -0.0010821441435509946 -0.031054366133645862 0 -0.00086294731711401731 -0.031205558860429226 0 -0.0010315816112555936 -0.031312164728968549 0 -0.00086294731711401731 -0.031205558860429226 0 -0.00063321723437807244 -0.031108696098132622 0 -0.00068429646136305728 -0.031302512314848104 0 -0.00086294731711401731 -0.031205558860429226 0 -0.0008256604830031457 -0.030978474317171503 0 -0.00063321723437807244 -0.031108696098132622 0 -0.0010821441435509946 -0.031054366133645862 0 -0.00086294731711401731 -0.031205558860429226 0 -0.0008256604830031457 -0.030978474317171503 0 -0.00083227023975659573 -0.031462494106608375 0 -0.0010456563096492612 -0.03159173625118894 0 -0.00075535682371543754 -0.031783590823505598 0 -0.00083227023975659573 -0.031462494106608375 0 -0.00075535682371543754 -0.031783590823505598 0 -0.00060487411731725989 -0.03146676903456086 0 -0.00086294731711401731 -0.031205558860429226 0 -0.00083227023975659573 -0.031462494106608375 0 -0.00068429646136305728 -0.031302512314848104 0 -0.00086294731711401731 -0.031205558860429226 0 -0.00083227023975659573 -0.031462494106608375 0 -0.0010315816112555936 -0.031312164728968549 0 -0.0013288561033202393 -0.031244208244240713 0 -0.0010315816112555936 -0.031312164728968549 0 -0.0010456563096492612 -0.03159173625118894 0 -0.00083227023975659573 -0.031462494106608375 0 -0.0010315816112555936 -0.031312164728968549 0 -0.0010456563096492612 -0.03159173625118894 0 -0.0011693213223401694 -0.032171278968437009 0 -0.00096001563616868602 -0.032870703011702605 0 -0.0013288561033202393 -0.031244208244240713 0 -0.0010456563096492612 -0.03159173625118894 0 -0.0011558463931607053 -0.032074314637342123 0 -0.00081081709837950617 -0.033509363407156142 0 -0.00082862516222838181 -0.03355685643883987 0 -0.00084013486336639051 -0.033571838950822629 0 -0.00084373221118394276 -0.033473425337545784 0 -0.00081081709837950617 -0.033509363407156142 0 -0.00082862516222838181 -0.03355685643883987 0 -0.00075784219063537456 -0.034378125038408106 0 -0.0008124357757497648 -0.033845876222017755 0 -0.0008124357757497648 -0.033845876222017755 0 -0.00078567584297616999 -0.033607472630441011 0 -0.00082862516222838181 -0.03355685643883987 0 -0.00084013486336639051 -0.033571838950822629 0 -0.00076635007832653933 -0.033547541587458242 0 -0.0010456563096492612 -0.03159173625118894 0 -0.0011558463931607053 -0.032074314637342123 0 -0.00075535682371543754 -0.031783590823505598 0 -0.0011558463931607053 -0.032074314637342123 0 -0.00075535682371543754 -0.031783590823505598 0 -0.00050710533431363362 -0.032188671765020035 0 -0.00035689031273382924 -0.034536813242490021 0 -0.00010307908849158622 -0.033858567520096187 0 -3.1692945422209379e-05 -0.034679695151751094 0 -0.00048581270903850322 -0.034726292424617881 0 -0.00035689031273382924 -0.034536813242490021 0 -0.00058161930313146645 -0.034500671818565684 0 -0.0008264772055992562 -0.034281107704539175 0 -0.00058161930313146645 -0.034500671818565684 0 -0.00053497482417079142 -0.034047940828510939 0 -0.00035689031273382924 -0.034536813242490021 0 -0.00058161930313146645 -0.034500671818565684 0 -0.00053497482417079142 -0.034047940828510939 0 -0.00067995674793932626 -0.034757869781566683 0 -0.0008264772055992562 -0.034281107704539175 0 -0.00058161930313146645 -0.034500671818565684 0 -0.0008264772055992562 -0.034281107704539175 0 -0.00053497482417079142 -0.034047940828510939 0 -0.00076635007832653933 -0.033547541587458242 0 -0.00053497482417079142 -0.034047940828510939 0 -0.00052026623951204705 -0.033537814890109888 0 -0.00076635007832653933 -0.033547541587458242 0 -0.00053497482417079142 -0.034047940828510939 0 -0.00010307908849158622 -0.033858567520096187 0 -0.00052026623951204705 -0.033537814890109888 0 -0.00035689031273382924 -0.034536813242490021 0 -0.00053497482417079142 -0.034047940828510939 0 -0.00010307908849158622 -0.033858567520096187 0 -1.6919178881342341e-05 -0.034838743859310406 0 -3.1692945422209379e-05 -0.034679695151751094 0 -5.5985663427650964e-05 -0.034860025558894323 0 -7.79054518028882e-05 -0.034350730793847602 0 -2.4253437287373259e-05 -0.034640586494096882 0 -2.8031495818954293e-05 -0.034824145315245171 0 -5.5985663427650964e-05 -0.034860025558894323 0 -1.8910583659982006e-05 -0.034916073166862474 0 -3.1692945422209379e-05 -0.034679695151751094 0 -2.8031495818954293e-05 -0.034824145315245171 0 -5.5985663427650964e-05 -0.034860025558894323 0 -5.5985663427650964e-05 -0.034860025558894323 0 -2.3344758069077511e-05 -0.034919967159512087 0 -1.8910583659982006e-05 -0.034916073166862474 0 -5.5985663427650964e-05 -0.034860025558894323 0 -2.3344758069077511e-05 -0.034919967159512087 0 -3.2652821582800339e-05 -0.034882054784681621 0 -2.3344758069077511e-05 -0.034919967159512087 0 -1.8048562350319474e-08 -0.034999770700554933 0 -1.8910583659982006e-05 -0.034916073166862474 0 -2.3344758069077511e-05 -0.034919967159512087 0 -1.8048562350319474e-08 -0.034999770700554933 0 -3.2652821582800339e-05 -0.034882054784681621 0 -1.8048562350319474e-08 -0.034999770700554933 0 -1.8910583659982006e-05 -0.034916073166862474 0 1.1408082210971072e-08 -0.034999915934294558 0 -2.8031495818954293e-05 -0.034824145315245171 0 -1.8910583659982006e-05 -0.034916073166862474 0 -4.799736388396659e-06 -0.034924830567924753 0 1.8210678749581797e-08 -0.035000000407005884 0 1.1408082210971072e-08 -0.034999915934294558 0 7.3829844896050384e-06 -0.034980803282612521 0 -1.8910583659982006e-05 -0.034916073166862474 0 -4.799736388396659e-06 -0.034924830567924753 0 1.1408082210971072e-08 -0.034999915934294558 0 -4.799736388396659e-06 -0.034924830567924753 0 1.1408082210971072e-08 -0.034999915934294558 0 7.3829844896050384e-06 -0.034980803282612521 0 -4.799736388396659e-06 -0.034924830567924753 0 7.3829844896050384e-06 -0.034980803282612521 0 -1.1411838159784428e-05 -0.034981839185880943 0 -5.8715423862940538e-05 -0.035065835985136594 0 -1.1411838159784428e-05 -0.034981839185880943 0 -6.0425543840692577e-05 -0.034910489876216644 0 -4.799736388396659e-06 -0.034924830567924753 0 -1.1411838159784428e-05 -0.034981839185880943 0 -6.0425543840692577e-05 -0.034910489876216644 0 -0.00029374583232646197 -0.034868327421837257 0 -3.1692945422209379e-05 -0.034679695151751094 0 -6.0425543840692577e-05 -0.034910489876216644 0 -3.1692945422209379e-05 -0.034679695151751094 0 -2.8031495818954293e-05 -0.034824145315245171 0 -6.0425543840692577e-05 -0.034910489876216644 0 -2.8031495818954293e-05 -0.034824145315245171 0 -4.799736388396659e-06 -0.034924830567924753 0 -6.0425543840692577e-05 -0.034910489876216644 0 0.0012485846221827739 -0.018897056757891294 0 0.0014970993335055749 -0.019010878150577049 0 0.0013199438471229741 -0.019146256309302303 0 0.0012485846221827739 -0.018897056757891294 0 0.0014970993335055749 -0.019010878150577049 0 0.0015200867128781783 -0.018760476247948861 0 0.001143856416893058 -0.016029704778412975 0 0.0011391646592675264 -0.01626277859898892 0 0.00168221438849676 -0.018999962255737197 0 0.0018516596762415403 -