<?xml version="1.0"?>
<VTKFile type="UnstructuredGrid" version="0.1" byte_order="LittleEndian">
<UnstructuredGrid>
<Piece NumberOfPoints="30578" NumberOfCells="10723">
<Points>
<DataArray type="Float64" NumberOfComponents="3" format="ascii">
-0.5 -0.5 0 -0.47439485679867832 -0.48072581506667478 0 -0.5 -0.44765434486020428 0 -0.5 -0.5 0 -0.47439485679867832 -0.48072581506667478 0 -0.43702443379937372 -0.49999999999999922 0 -0.47439485679867832 -0.48072581506667478 0 -0.45530669598391149 -0.47718009944797551 0 -0.43702443379937372 -0.49999999999999922 0 -0.47439485679867832 -0.48072581506667478 0 -0.45530669598391149 -0.47718009944797551 0 -0.4597353119515426 -0.45943449384344293 0 -0.45530669598391149 -0.47718009944797551 0 -0.44381084376742141 -0.47114793899167112 0 -0.4597353119515426 -0.45943449384344293 0 -0.45530669598391149 -0.47718009944797551 0 -0.44381084376742141 -0.47114793899167112 0 -0.43702443379937372 -0.49999999999999922 0 -0.44381084376742141 -0.47114793899167112 0 -0.43702443379937372 -0.49999999999999922 0 -0.45059725373546922 -0.44229587798334291 0 -0.4339166039271336 -0.43498117536117131 0 -0.43309128002320102 -0.45351235807576151 0 -0.44381084376742141 -0.47114793899167112 0 -0.45059725373546922 -0.44229587798334291 0 -0.4597353119515426 -0.45943449384344293 0 -0.44381084376742141 -0.47114793899167112 0 -0.45059725373546922 -0.44229587798334291 0 -0.43309128002320102 -0.45351235807576151 0 -0.44381084376742141 -0.47114793899167112 0 -0.45059725373546922 -0.44229587798334291 0 -0.4597353119515426 -0.45943449384344293 0 -0.47505511338101108 -0.44868394208069429 0 -0.46517432262153441 -0.43649963461163338 0 -0.45059725373546922 -0.44229587798334291 0 -0.4597353119515426 -0.45943449384344293 0 -0.46517432262153441 -0.43649963461163338 0 -0.47505511338101108 -0.44868394208069429 0 -0.47820614292347569 -0.42776699273468149 0 -0.46517432262153441 -0.43649963461163338 0 -0.47505511338101108 -0.44868394208069429 0 -0.47820614292347569 -0.42776699273468149 0 -0.47439485679867832 -0.48072581506667478 0 -0.47505511338101108 -0.44868394208069429 0 -0.5 -0.44765434486020428 0 -0.47439485679867832 -0.48072581506667478 0 -0.4597353119515426 -0.45943449384344293 0 -0.47505511338101108 -0.44868394208069429 0 -0.47505511338101108 -0.44868394208069429 0 -0.5 -0.44765434486020428 0 -0.47820614292347569 -0.42776699273468149 0 -0.5 -0.44765434486020428 0 -0.49656450065014057 -0.42151023988558672 0 -0.47820614292347569 -0.42776699273468149 0 -0.5 -0.44765434486020428 0 -0.49656450065014057 -0.42151023988558672 0 -0.50000000000000089 -0.37904661106745707 0 -0.49656450065014057 -0.42151023988558672 0 -0.48135717246594062 -0.40685004338866881 0 -0.47820614292347569 -0.42776699273468149 0 -0.49656450065014057 -0.42151023988558672 0 -0.48135717246594062 -0.40685004338866881 0 -0.48135717246594062 -0.40685004338866881 0 -0.47820614292347569 -0.42776699273468149 0 -0.48135717246594062 -0.40685004338866881 0 -0.47820614292347569 -0.42776699273468149 0 -0.45738366370351707 -0.41344381697501481 0 -0.49656450065014057 -0.42151023988558672 0 -0.48135717246594062 -0.40685004338866881 0 -0.50000000000000089 -0.37904661106745707 0 -0.50000000000000089 -0.37904661106745707 0 -0.48466894952205442 -0.38486603086372417 0 -0.48717439863114548 -0.36823452950912272 0 -0.48135717246594062 -0.40685004338866881 0 -0.50000000000000089 -0.37904661106745707 0 -0.48466894952205442 -0.38486603086372417 0 -0.48466894952205442 -0.38486603086372417 0 -0.48717439863114548 -0.36823452950912272 0 -0.50000000000000089 -0.37904661106745707 0 -0.48466894952205442 -0.38486603086372417 0 -0.48135717246594062 -0.40685004338866881 0 -0.48466894952205442 -0.38486603086372417 0 -0.46593083509403682 -0.39197871725165279 0 -0.48135717246594062 -0.40685004338866881 0 -0.48466894952205442 -0.38486603086372417 0 -0.48135717246594062 -0.40685004338866881 0 -0.46593083509403682 -0.39197871725165279 0 -0.48466894952205442 -0.38486603086372417 0 -0.47195833844942919 -0.37959069520904498 0 -0.46593083509403682 -0.39197871725165279 0 -0.48466894952205442 -0.38486603086372417 0 -0.46593083509403682 -0.39197871725165279 0 -0.48466894952205442 -0.38486603086372417 0 -0.47195833844942919 -0.37959069520904498 0 -0.48717439863114548 -0.36823452950912272 0 -0.46593083509403682 -0.39197871725165279 0 -0.44890944387521442 -0.39029302340116001 0 -0.45132291774153199 -0.37789636588759368 0 -0.47195833844942919 -0.37959069520904498 0 -0.46593083509403682 -0.39197871725165279 0 -0.45132291774153199 -0.37789636588759368 0 -0.46593083509403682 -0.39197871725165279 0 -0.45132291774153199 -0.37789636588759368 0 -0.48135717246594062 -0.40685004338866881 0 -0.46593083509403682 -0.39197871725165279 0 -0.45738366370351707 -0.41344381697501481 0 -0.46593083509403682 -0.39197871725165279 0 -0.44275815558040038 -0.40077469311046232 0 -0.45738366370351707 -0.41344381697501481 0 -0.46593083509403682 -0.39197871725165279 0 -0.44275815558040038 -0.40077469311046232 0 -0.46593083509403682 -0.39197871725165279 0 -0.44275815558040038 -0.40077469311046232 0 -0.44890944387521442 -0.39029302340116001 0 -0.44275815558040038 -0.40077469311046232 0 -0.44064580868350911 -0.39542861624611658 0 -0.44890944387521442 -0.39029302340116001 0 -0.44225344557501872 -0.38376649822575309 0 -0.45132291774153199 -0.37789636588759368 0 -0.43671500038902772 -0.36381401452353412 0 -0.44890944387521442 -0.39029302340116001 0 -0.44225344557501872 -0.38376649822575309 0 -0.45132291774153199 -0.37789636588759368 0 -0.44064580868350911 -0.39542861624611658 0 -0.44225344557501872 -0.38376649822575309 0 -0.43040194378266172 -0.3881600185019185 0 -0.44064580868350911 -0.39542861624611658 0 -0.44890944387521442 -0.39029302340116001 0 -0.44225344557501872 -0.38376649822575309 0 -0.47820614292347569 -0.42776699273468149 0 -0.46517432262153441 -0.43649963461163338 0 -0.45738366370351707 -0.41344381697501481 0 -0.45059725373546922 -0.44229587798334291 0 -0.45738366370351707 -0.41344381697501481 0 -0.45059725373546922 -0.44229587798334291 0 -0.46517432262153441 -0.43649963461163338 0 -0.45738366370351707 -0.41344381697501481 0 -0.44275815558040038 -0.40077469311046232 0 -0.45738366370351707 -0.41344381697501481 0 -0.44164244492799948 -0.42121090558557039 0 -0.45059725373546922 -0.44229587798334291 0 -0.45738366370351707 -0.41344381697501481 0 -0.44164244492799948 -0.42121090558557039 0 -0.45059725373546922 -0.44229587798334291 0 -0.44164244492799948 -0.42121090558557039 0 -0.4339166039271336 -0.43498117536117131 0 -0.4339166039271336 -0.43498117536117131 0 -0.42355654769347711 -0.414558964497861 0 -0.41671115160429401 -0.44095791049380378 0 -0.44164244492799948 -0.42121090558557039 0 -0.4339166039271336 -0.43498117536117131 0 -0.42355654769347711 -0.414558964497861 0 -0.44275815558040038 -0.40077469311046232 0 -0.44164244492799948 -0.42121090558557039 0 -0.42355654769347711 -0.414558964497861 0 -0.42355654769347711 -0.414558964497861 0 -0.41056920252370888 -0.3963363404412637 0 -0.40050668374064252 -0.41734442193795029 0 -0.42355654769347711 -0.414558964497861 0 -0.41671115160429401 -0.44095791049380378 0 -0.42355654769347711 -0.414558964497861 0 -0.40050668374064252 -0.41734442193795029 0 -0.41671115160429401 -0.44095791049380378 0 -0.44225344557501872 -0.38376649822575309 0 -0.43040194378266172 -0.3881600185019185 0 -0.43671500038902772 -0.36381401452353412 0 -0.43040194378266172 -0.3881600185019185 0 -0.43671500038902772 -0.36381401452353412 0 -0.44064580868350911 -0.39542861624611658 0 -0.42355654769347711 -0.414558964497861 0 -0.43040194378266172 -0.3881600185019185 0 -0.42355654769347711 -0.414558964497861 0 -0.43040194378266172 -0.3881600185019185 0 -0.44275815558040038 -0.40077469311046232 0 -0.44064580868350911 -0.39542861624611658 0 -0.42355654769347711 -0.414558964497861 0 -0.44064580868350911 -0.39542861624611658 0 -0.43040194378266172 -0.3881600185019185 0 -0.42355654769347711 -0.414558964497861 0 -0.43040194378266172 -0.3881600185019185 0 -0.41056920252370888 -0.3963363404412637 0 -0.43040194378266172 -0.3881600185019185 0 -0.4079689369259607 -0.37224253963894771 0 -0.43040194378266172 -0.3881600185019185 0 -0.41056920252370888 -0.3963363404412637 0 -0.4079689369259607 -0.37224253963894771 0 -0.41056920252370888 -0.3963363404412637 0 -0.39195929229331972 -0.37982250283040359 0 -0.4079689369259607 -0.37224253963894771 0 -0.41056920252370888 -0.3963363404412637 0 -0.39195929229331972 -0.37982250283040359 0 -0.39357845321732049 -0.39746174547711199 0 -0.41056920252370888 -0.3963363404412637 0 -0.39357845321732049 -0.39746174547711199 0 -0.40050668374064252 -0.41734442193795029 0 -0.39357845321732049 -0.39746174547711199 0 -0.38114412328536468 -0.40833987260765031 0 -0.36544727141479139 -0.39026932065168712 0 -0.39195929229331972 -0.37982250283040359 0 -0.37549160074202448 -0.3732971907138336 0 -0.36544727141479139 -0.39026932065168712 0 -0.39195929229331972 -0.37982250283040359 0 -0.39357845321732049 -0.39746174547711199 0 -0.36544727141479139 -0.39026932065168712 0 -0.40050668374064252 -0.41734442193795029 0 -0.3944977858259317 -0.43926335073686201 0 -0.41671115160429401 -0.44095791049380378 0 -0.40050668374064252 -0.41734442193795029 0 -0.38028594703985957 -0.42392304976487449 0 -0.3944977858259317 -0.43926335073686201 0 -0.39357845321732049 -0.39746174547711199 0 -0.40050668374064252 -0.41734442193795029 0 -0.38114412328536468 -0.40833987260765031 0 -0.40050668374064252 -0.41734442193795029 0 -0.38114412328536468 -0.40833987260765031 0 -0.38028594703985957 -0.42392304976487449 0 -0.38114412328536468 -0.40833987260765031 0 -0.38028594703985957 -0.42392304976487449 0 -0.36590226101420908 -0.41270082520662749 0 -0.38028594703985957 -0.42392304976487449 0 -0.3944977858259317 -0.43926335073686201 0 -0.3723601590800425 -0.44005613486137668 0 -0.3944977858259317 -0.43926335073686201 0 -0.38265619596279349 -0.45813348326120767 0 -0.3723601590800425 -0.44005613486137668 0 -0.40093272222703252 -0.45142790024540502 0 -0.3944977858
[...]
<PointData Scalars="" Vectors="displacement," Tensors="">
<DataArray type="Float64" Name="displacement" NumberOfComponents="3" format="ascii">
9.3029903272476172e-07 0.054996628593781814 0 0.00033797170721161062 0.053816201076036567 0 -5.3693520115686097e-07 0.04924476844200313 0 9.3029903272476172e-07 0.054996628593781814 0 0.00033797170721161062 0.053816201076036567 0 5.1021214028883082e-07 0.054997706931934551 0 0.00033797170721161062 0.053816201076036567 0 0.00022541249587177195 0.054054829882083974 0 5.1021214028883082e-07 0.054997706931934551 0 0.00033797170721161062 0.053816201076036567 0 0.00022541249587177195 0.054054829882083974 0 -2.9037210954910634e-05 0.053299251077156745 0 0.00022541249587177195 0.054054829882083974 0 0.00021945459232292227 0.054173327216747169 0 -2.9037210954910634e-05 0.053299251077156745 0 0.00022541249587177195 0.054054829882083974 0 0.00021945459232292227 0.054173327216747169 0 5.1021214028883082e-07 0.054997706931934551 0 -0.00033656977892199439 0.054842200794511228 0 -9.4785670846247897e-07 0.054999221290858109 0 -0.0015404714418622597 0.053827844985438543 0 -0.0019504671928297359 0.054665015348247421 0 -0.0010316920228911647 0.054751799355548622 0 0.00021945459232292227 0.054173327216747169 0 -0.00094379511704600026 0.053668312774269811 0 -2.9037210954910634e-05 0.053299251077156745 0 -0.00030424644958586451 0.054482619792756634 0 -0.0015404714418622597 0.053827844985438543 0 -0.0010316920228911647 0.054751799355548622 0 -0.00033656977892199439 0.054842200794511228 0 -0.00069615205887917661 0.054702683993273084 0 -2.9037210954910634e-05 0.053299251077156745 0 -0.00029623975682840166 0.051524439370031906 0 -0.0013669764392049599 0.052558327420923701 0 -0.00094379511704600026 0.053668312774269811 0 -2.9037210954910634e-05 0.053299251077156745 0 -0.0013669764392049599 0.052558327420923701 0 -0.00029623975682840166 0.051524439370031906 0 -0.0020706500881012401 0.051518105059850008 0 -0.0013669764392049599 0.052558327420923701 0 0.00018686242773529848 0.043732583290925685 0 5.6019946195160628e-05 0.043628119141715056 0 0.00033797170721161062 0.053816201076036567 0 -0.00029623975682840166 0.051524439370031906 0 -5.3693520115686097e-07 0.04924476844200313 0 0.00033797170721161062 0.053816201076036567 0 -2.9037210954910634e-05 0.053299251077156745 0 -0.00029623975682840166 0.051524439370031906 0 -0.00029623975682840166 0.051524439370031906 0 -5.3693520115686097e-07 0.04924476844200313 0 -0.00013906994100661128 0.049389490698931497 0 -5.3693520115686097e-07 0.04924476844200313 0 -9.9494562706483182e-05 0.046542093430262242 0 -0.00013906994100661128 0.049389490698931497 0 -5.3693520115686097e-07 0.04924476844200313 0 -9.9494562706483182e-05 0.046542093430262242 0 -1.2584241356905263e-06 0.04169867299434684 0 -9.9494562706483182e-05 0.046542093430262242 0 -0.0025742721166539043 0.048795203346442766 0 -0.00013906994100661128 0.049389490698931497 0 -0.00019331161495086206 0.043410489451997242 0 -0.00016580009428856938 0.04334949309012312 0 -0.00016580009428856938 0.04334949309012312 0 5.6019946195160628e-05 0.043628119141715056 0 -0.0036324200043026012 0.051349978363745268 0 -0.0020706500881012401 0.051518105059850008 0 -0.0031575056832224744 0.05317406394502603 0 -9.9494562706483182e-05 0.046542093430262242 0 8.8109052834981269e-05 0.044682091053444319 0 -1.2584241356905263e-06 0.04169867299434684 0 -4.0263901747788682e-06 0.041690145502705847 0 -0.0014257056899235102 0.039172689621847431 0 -7.5688161216919369e-05 0.038850286806539791 0 8.8109052834981269e-05 0.044682091053444319 0 -1.2584241356905263e-06 0.04169867299434684 0 -0.00023925394411447034 0.043298775167933679 0 -9.0916010125444925e-05 0.042803980816219118 0 -8.9310885137624922e-05 0.04277684638765878 0 -3.2355022650726393e-06 0.041702860261722978 0 -9.0916010125444925e-05 0.042803980816219118 0 -0.00047831436708306417 0.04313029332498293 0 0.00097309446114902498 0.043348657223682925 0 0.00050357776811503204 0.042112086420952689 0 -0.00016580009428856938 0.04334949309012312 0 -9.0916010125444925e-05 0.042803980816219118 0 -0.00016580009428856938 0.04334949309012312 0 -0.00020561533752408773 0.043560397961947536 0 -0.0015833033059337732 0.038497715855504433 0 -0.001140997843229883 0.037395096037405567 0 -0.0019952874078190976 0.036986722686121784 0 -9.0916010125444925e-05 0.042803980816219118 0 -0.00020561533752408773 0.043560397961947536 0 -0.0015833033059337732 0.038497715855504433 0 -0.001140997843229883 0.037395096037405567 0 -7.5688161216919369e-05 0.038850286806539791 0 -0.0044526550545586048 0.052850270223739775 0 -0.0045469428586334057 0.053781850383391207 0 -0.005210245937886133 0.05365166117827954 0 -0.001140997843229883 0.037395096037405567 0 -0.0019952874078190976 0.036986722686121784 0 -0.00090096533638771216 0.036149261577579229 0 -0.00020561533752408773 0.043560397961947536 0 -0.00076568327889960488 0.044165800748515636 0 -0.0036324200043026012 0.051349978363745268 0 -0.0046778007613585502 0.052530867875163194 0 -0.0031575056832224744 0.05317406394502603 0 -0.0046778007613585502 0.052530867875163194 0 -0.0039738261854710888 0.054120082017936146 0 -0.0031575056832224744 0.05317406394502603 0 -0.00020561533752408773 0.043560397961947536 0 -0.00014325662266909055 0.044036791140249228 0 -0.0044526550545586048 0.052850270223739775 0 -0.0039738261854710888 0.054120082017936146 0 -0.0045469428586334057 0.053781850383391207 0 -0.0039738261854710888 0.054120082017936146 0 -0.0042773200489127248 0.054234379478871823 0 -0.0045469428586334057 0.053781850383391207 0 -0.0048961772359257657 0.054138614743631332 0 -0.005210245937886133 0.05365166117827954 0 -0.0059520451745084515 0.054427411014057701 0 -0.0045469428586334057 0.053781850383391207 0 -0.0048961772359257657 0.054138614743631332 0 -0.005210245937886133 0.05365166117827954 0 -0.0042773200489127248 0.054234379478871823 0 -0.0048961772359257657 0.054138614743631332 0 -0.004662627294795804 0.054766421220554147 0 -0.0042773200489127248 0.054234379478871823 0 -0.0045469428586334057 0.053781850383391207 0 -0.0048961772359257657 0.054138614743631332 0 -0.0020706500881012401 0.051518105059850008 0 -0.0013669764392049599 0.052558327420923701 0 -0.0031575056832224744 0.05317406394502603 0 -0.00069615205887917661 0.054702683993273084 0 -0.00087974527581457433 0.054639835121033743 0 -0.00094379511704600026 0.053668312774269811 0 -0.0013669764392049599 0.052558327420923701 0 -0.0031575056832224744 0.05317406394502603 0 -0.0039738261854710888 0.054120082017936146 0 -0.0031575056832224744 0.05317406394502603 0 -0.0027141403253059058 0.054202859959021375 0 -0.0015404714418622597 0.053827844985438543 0 -0.0031575056832224744 0.05317406394502603 0 -0.0027141403253059058 0.054202859959021375 0 -0.0015404714418622597 0.053827844985438543 0 -0.0027141403253059058 0.054202859959021375 0 -0.0019504671928297359 0.054665015348247421 0 -0.0019504671928297359 0.054665015348247421 0 -0.0031021066088696421 0.055246625121779448 0 -0.001636758603859634 0.055527145058371037 0 -0.0027141403253059058 0.054202859959021375 0 -0.0019504671928297359 0.054665015348247421 0 -0.0031021066088696421 0.055246625121779448 0 -0.0039738261854710888 0.054120082017936146 0 -0.0027141403253059058 0.054202859959021375 0 -0.0031021066088696421 0.055246625121779448 0 -1.7687502379024081e-05 0.054087955035830637 0 -0.00010539687796550687 0.054151784539943876 0 -4.0921557207935291e-06 0.054208465206821599 0 -0.001538280773414158 0.048318007571021962 0 -0.00097274814024624285 0.05066151658064158 0 -1.7687502379024081e-05 0.054087955035830637 0 -4.0921557207935291e-06 0.054208465206821599 0 0.00011787484310703402 0.054122609064072839 0 -0.0048961772359257657 0.054138614743631332 0 -0.004662627294795804 0.054766421220554147 0 -0.0059520451745084515 0.054427411014057701 0 -0.0022683316840287769 0.045694301213881863 0 -0.0011660101612404367 0.044639195395427031 0 -0.0042773200489127248 0.054234379478871823 0 -0.0031021066088696421 0.055246625121779448 0 -0.0047131396201283331 0.054847810617592321 0 -0.001538280773414158 0.048318007571021962 0 -0.0022683316840287769 0.045694301213881863 0 -0.0039738261854710888 0.054120082017936146 0 -0.0042773200489127248 0.054234379478871823 0 -0.0031021066088696421 0.055246625121779448 0 -0.0023331824689054913 0.045808147335170815 0 -0.0022683316840287769 0.045694301213881863 0 -1.7687502379024081e-05 0.054087955035830637 0 -0.00014680382978524302 0.054050880945471946 0 -0.00010539687796550687 0.054151784539943876 0 -0.0022683316840287769 0.045694301213881863 0 -0.0020364313114873758 0.043749242730165214 0 -0.00014680382978524302 0.054050880945471946 0 -0.00010539687796550687 0.054151784539943876 0 -0.00022039472712190994 0.054158083293718032 0 -0.00010539687796550687 0.054151784539943876 0 -0.00018111524022700439 0.054238589114798647 0 -0.00022039472712190994 0.054158083293718032 0 -0.00010539687796550687 0.054151784539943876 0 -0.00018111524022700439 0.054238589114798647 0 -9.7257549803022602e-05 0.054238898928068595 0 -0.00010539687796550687 0.054151784539943876 0 -9.7257549803022602e-05 0.054238898928068595 0 -4.0921557207935291e-06 0.054208465206821599 0 -9.7257549803022602e-05 0.054238898928068595 0 -4.5100144378213959e-05 0.054307211517420455 0 -0.00011441717817597359 0.054367987115439095 0 -0.00018111524022700439 0.054238589114798647 0 -0.00021148080350153194 0.054316799822236576 0 -0.00011441717817597359 0.054367987115439095 0 -0.00018111524022700439 0.054238589114798647 0 -9.7257549803022602e-05 0.054238898928068595 0 -0.00011441717817597359 0.054367987115439095 0 -4.0921557207935291e-06 0.054208465206821599 0 0.0001073663964542643 0.054242979778495508 0 0.00011787484310703402 0.054122609064072839 0 -4.0921557207935291e-06 0.054208465206821599 0 2.5093856803359115e-05 0.054321588799014255 0 0.0001073663964542643 0.054242979778495508 0 -9.7257549803022602e-05 0.054238898928068595 0 -4.0921557207935291e-06 0.054208465206821599 0 -4.5100144378213959e-05 0.054307211517420455 0 -4.0921557207935291e-06 0.054208465206821599 0 -4.5100144378213959e-05 0.054307211517420455 0 2.5093856803359115e-05 0.054321588799014255 0 -4.5100144378213959e-05 0.054307211517420455 0 2.5093856803359115e-05 0.054321588799014255 0 -2.308490881472658e-05 0.054386185491138841 0 2.5093856803359115e-05 0.054321588799014255 0 0.0001073663964542643 0.054242979778495508 0 0.00010156889711562346 0.054379243123480581 0 0.0001073663964542643 0.054242979778495508 0 0.00021965356073717178 0.054311263434687722 0 0.00010156889711562346 0.054379243123480581 0 0.00017720393004609373 0.054207601883289935 0 0.0001073663964542643 0.054242979778495508 0 0.00021965356073717178 0.054311263434687722 0 0.00017720393004609373 0.054207601883289935 0 0.0001073663964542643 0.054242979778495508 0 0.00011787484310703402 0.054122609064072839 0 -0.00056716462620237836 0.053120234047809647 0 -0.00053983441700181177 0.052816859757064905 0 0.0001144538797273354 0.054907341498643042 0 6.2822811574399016e-06 0.05497712655076209 0 3.5057369381857749e-05 0.055046249305847235 0 0.00017720393004609373 0.054207601883289935 0 0.00021965356073717178 0.054311263434687722 0 0.00026537312065879633 0.054157373185944588 0 0.0001144538797273354 0.054907341498643042 0 -7.8513816689732018e-06 0.054932404516737081 0 6.2822811574399016e-06 0.05497712655076209 0 -7.8513816689732018e-06 0.054932404516737081 0 -6.6992989211794263e-06 0.054976812307557556 0 2.8284322905418939e-06 0.054985484176508143 0 -7.8513816689732018e-06 0.054932404516737081 0 -6.6992989211794263e-06 0.054976812307557556 0 6.2822811574399016e-06 0.05497712655076209 0 1.2554059578043472e-08 0.054999959734085134 0 -6.6992989211794263e-06 0.054976812307557556 0 -3.9273716420295763e-08 0.054999974640447313 0 1.2554059578043472e-08 0.054999959734085134 0 -6.6992989211794263e-06 0.054976812307557556 0 2.8284322905418939e-06 0.054985484176508143 0 -6.6992989211794263e-06 0.054976812307557556 0 -3.9273716420295763e-08 0.054999974640447313 0 -8.4162655579686513e-06 0.0550051712825885 0 -8.6495990040029691e-08 0.054988051214920224 0 -0.00025989060752808647 0.053912631042610598 0 -8.4162655579686513e-06 0.0550051712825885 0 6.2822811574399016e-06 0.05497712655076209 0 3.5057369381857749e-05 0.055046249305847235 0 -6.6992989211794263e-06 0.054976812307557556 0 -8.4162655579686513e-06 0.0550051712825885 0 6.2822811574399016e-06 0.05497712655076209 0 -0.00025989060752808647 0.053912631042610598 0 -0.00053983441700181177 0.052816859757064905 0 -0.0005553920444121707 0.052891119009882512 0 -0.00053983441700181177 0.052816859757064905 0 -0.00010198661266501306 0.054996081393045994 0 -0.00022838517899103809 0.05493030054056193 0 -0.00022859601879826551 0.05505133832388872 0 -9.9309747809999926e-05 0.055055217014257758 0 -0.00010198661266501306 0.054996081393045994 0 -0.00022859601879826551 0.05505133832388872 0 -9.9309747809999926e-05 0.055055217014257758 0 -0.00010198661266501306 0.054996081393045994 0 -1.4116677421836852e-07 0.055000105338459497 0 8.5633492888716836e-09 0.055000089731768384 0 -9.9309747809999926e-05 0.055055217014257758 0 -1.4116677421836852e-07 0.055000105338459497 0 -0.00010198661266501306 0.054996081393045994 0 -1.4116677421836852e-07 0.055000105338459497 0 2.7209989945347011e-07 0.054999526418772655 0 -0.00010198661266501306 0.054996081393045994 0 2.7209989945347011e-07 0.054999526418772655 0 -0.00022838517899103809 0.05493030054056193 0 -0.00030424644958586451 0.054482619792756634 0 2.7209989945347011e-07 0.054999526418772655 0 -0.00022838517899103809 0.05493030054056193 0 -0.00022838517899103809 0.05493030054056193 0 -0.00082485167044130418 0.055233996622103196 0 -0.0010316920228911647 0.054751799355548622 0 -0.00030424644958586451 0.054482619792756634 0 -0.00022838517899103809 0.05493030054056193 0 -0.0010316920228911647 0.054751799355548622 0 -0.0019504671928297359 0.054665015348247421 0 -0.0010316920228911647 0.054751799355548622 0 -0.001636758603859634 0.055527145058371037 0 -0.00082485167044130418 0.055233996622103196 0 -0.0010316920228911647 0.054751799355548622 0 -0.001636758603859634 0.055527145058371037 0 -0.00082485167044130418 0.055233996622103196 0 -0.001636758603859634 0.055527145058371037 0 -0.00045101047459704385 0.0557552438559668 0 -0.00097274814024624285 0.05066151658064158 0 -0.00053983441700181177 0.052816859757064905 0 0.00017720393004609373 0.054207601883289935 0 0.00011787484310703402 0.054122609064072839 0 0.00026537312065879633 0.054157373185944588 0 -0.00022838517899103809 0.05493030054056193 0 -0.00082485167044130418 0.055233996622103196 0 -0.00045101047459704385 0.0557552438559668 0 0.00047592572362405232 0.026922298137225402 0 0.00036836772624395953 0.027257439583761731 0 0.0001927123176274494 0.02695773607190783 0 0.00065330254933955824 0.027199376867034507 0 0.00047592572362405232 0.026922298137225402 0 0.00036836772624395953 0.027257439583761731 0 0.00044410793320763384 0.032601697908754744 0 0.00048505427957355128 0.032370539945488969 0 -0.00011120381615262248 0.032059773254644507 0 -0.0031003857737883114 0.025720688276871361 0 -0.0023578324356264006 0.026594115373465468 0 0.00048505427957355128 0.032370539945488969 0 0.00030352315188838868 0.030905158389352143 0 0.000531642310264303 0.032422464918130542 0 0.00048505427957355128 0.032370539945488969 0 -0.00011120381615262248 0.032059773254644507 0 0.00030352315188838868 0.030905158389352143 0 -0.0023578324356264006 0.026594115373465468 0 -0.0019228895509147967 0.027079139606447769 0 -0.00011120381615262248 0.032059773254644507 0 0.00030352315188838868 0.030905158389352143 0 -0.00071335197908244065 0.030018936384229256 0 2.8082410838597124e-05 0.029304304927820976 0 0.00030352315188838868 0.030905158389352143 0 -0.00071335197908244065 0.030018936384229256 0 2.8082410838597124e-05 0.029304304927820976 0 -2.3219504533465626e-07 0.027507542531958737 0 8.6772844475447683e-07 0.030345265975132547 0 2.8082410838597124e-05 0.029304304927820976 0 -2.3219504533465626e-07 0.027507542531958737 0 -0.00020870795992998962 0.028021661859474498 0 2.8082410838597124e-05 0.029304304927820976 0 8.6772844475447683e-07 0.030345265975132547 0 0.00030352315188838868 0.030905158389352143 0 8.6772844475447683e-07 0.030345265975132547 0 0.00030352315188838868 0.030905158389352143 0 0.00031287304226815732 0.032059062422143153 0 0.00030352315188838868 0.030905158389352143 0 0.000531642310264303 0.032422464918130542 0 0.00031287304226815732 0.032059062422143153 0 0.000531642310264303 0.032422464918130542 0 0.00031287304226815732 0.032059062422143153 0 0.00029922616141034688 0.033539471892240429 0 8.6772844475447683e-07 0.030345265975132547 0 0.00031287304226815732 0.032059062422143153 0 6.3896185458383858e-07 0.033182553600971131 0 0.00031287304226815732 0.032059062422143153 0 6.3896185458383858e-07 0.033182553600971131 0 0.00029922616141034688 0.033539471892240429 0 6.3896185458383858e-07 0.033182553600971131 0 0.00029922616141034688 0.033539471892240429 0 3.9274025086505671e-08 0.036019209047559723 0 0.000531642310264303 0.032422464918130542 0 0.00029922616141034688 0.033539471892240429 0 0.00050922142427474177 0.032906551370510878 0 0.00029922616141034688 0.033539471892240429 0 0.00050922142427474177 0.032906551370510878 0 1.0037770507919006e-05 0.034902044310886025 0 0.00048505427957355128 0.032370539945488969 0 0.000531642310264303 0.032422464918130542 0 0.00050922142427474177 0.032906551370510878 0 0.00048505427957355128 0.032370539945488969 0 0.00050922142427474177 0.032906551370510878 0 0.00047265898490936548 0.032572876885406866 0 0.00044410793320763384 0.032601697908754744 0 0.00048505427957355128 0.032370539945488969 0 0.00047265898490936548 0.032572876885406866 0 0.00050922142427474177 0.032906551370510878 0 0.00047265898490936548 0.032572876885406866 0 0.00018597348853685572 0.032572327222598577 0 0.00018597348853685572 0.032572327222598577 0 -0.00023002340457012281 0.032867255293191205 0 -5.0366897243480101e-05 0.032368789336623453 0 0.00050922142427474177 0.032906551370510878 0 0.00018597348853685572 0.032572327222598577 0 -0.00023002340457012281 0.032867255293191205 0 -0.00041164109257193322 0.038992795315357799 0 -0.00040628763205455748 0.039773297642978468 0 6.7539441020747284e-05 0.036214586467262028 0 0.00018317826067676475 0.036148038001114977 0 0.0003471395287823076 0.03612411252449773 0 0.00018317826067676475 0.036148038001114977 0 0.0003471395287823076 0.03612411252449773 0 0.00020093222028291693 0.036179470259913193 0 6.7539441020747284e-05 0.036214586467262028 0 0.00018317826067676475 0.036148038001114977 0 0.00020080360960078651 0.036083769799468104 0 0.00050922142427474177 0.032906551370510878 0 -0.00023002340457012281 0.032867255293191205 0 1.0037770507919006e-05 0.034902044310886025 0 6.7539441020747284e-05 0.036214586467262028 0 0.0003471395287823076 0.03612411252449773 0 1.0037770507919006e-05 0.034902044310886025 0 -0.00041164109257193322 0.038992795315357799 0 -0.00041286677929763723 0.038746867720787351 0 0.00029922616141034688 0.033539471892240429 0 1.0037770507919006e-05 0.034902044310886025 0 3.9274025086505671e-08 0.036019209047559723 0 1.0037770507919006e-05 0.034902044310886025 0 3.9274025086505671e-08 0.036019209047559723 0 0.00025926359288910497 0.036541602946241952 0 3.9274025086505671e-08 0.036019209047559723 0 0.00025926359288910497 0.036541602946241952 0 1.6235452973461801e-06 0.038857235836319746 0 0.0003471395287823076 0.03612411252449773 0 0.00025926359288910497 0.036541602946241952 0 0.0002005585870677583 0.036593640456716085 0 0.0003471395287823076 0.03612411252449773 0 1.0037770507919006e-05 0.034902044310886025 0 0.00025926359288910497 0.036541602946241952 0 0.00025926359288910497 0.036541602946241952 0 0.00010659822690250083 0.037541740351233609 0 0.0002005585870677583 0.036593640456716085 0 0.00010659822690250083 0.037541740351233609 0 -0.00029324406459845762 0.03696136468561665 0 0.0002005585870677583 0.036593640456716085 0 0.00010659822690250083 0.037541740351233609 0 1.62354529