<?xml version="1.0"?>
<VTKFile type="UnstructuredGrid" version="0.1" byte_order="LittleEndian">
<UnstructuredGrid>
<Piece NumberOfPoints="30578" NumberOfCells="10723">
<Points>
<DataArray type="Float64" NumberOfComponents="3" format="ascii">
-0.5 -0.5 0 -0.47439485679867832 -0.48072581506667478 0 -0.5 -0.44765434486020428 0 -0.5 -0.5 0 -0.47439485679867832 -0.48072581506667478 0 -0.43702443379937372 -0.49999999999999922 0 -0.47439485679867832 -0.48072581506667478 0 -0.45530669598391149 -0.47718009944797551 0 -0.43702443379937372 -0.49999999999999922 0 -0.47439485679867832 -0.48072581506667478 0 -0.45530669598391149 -0.47718009944797551 0 -0.4597353119515426 -0.45943449384344293 0 -0.45530669598391149 -0.47718009944797551 0 -0.44381084376742141 -0.47114793899167112 0 -0.4597353119515426 -0.45943449384344293 0 -0.45530669598391149 -0.47718009944797551 0 -0.44381084376742141 -0.47114793899167112 0 -0.43702443379937372 -0.49999999999999922 0 -0.44381084376742141 -0.47114793899167112 0 -0.43702443379937372 -0.49999999999999922 0 -0.45059725373546922 -0.44229587798334291 0 -0.4339166039271336 -0.43498117536117131 0 -0.43309128002320102 -0.45351235807576151 0 -0.44381084376742141 -0.47114793899167112 0 -0.45059725373546922 -0.44229587798334291 0 -0.4597353119515426 -0.45943449384344293 0 -0.44381084376742141 -0.47114793899167112 0 -0.45059725373546922 -0.44229587798334291 0 -0.43309128002320102 -0.45351235807576151 0 -0.44381084376742141 -0.47114793899167112 0 -0.45059725373546922 -0.44229587798334291 0 -0.4597353119515426 -0.45943449384344293 0 -0.47505511338101108 -0.44868394208069429 0 -0.46517432262153441 -0.43649963461163338 0 -0.45059725373546922 -0.44229587798334291 0 -0.4597353119515426 -0.45943449384344293 0 -0.46517432262153441 -0.43649963461163338 0 -0.47505511338101108 -0.44868394208069429 0 -0.47820614292347569 -0.42776699273468149 0 -0.46517432262153441 -0.43649963461163338 0 -0.47505511338101108 -0.44868394208069429 0 -0.47820614292347569 -0.42776699273468149 0 -0.47439485679867832 -0.48072581506667478 0 -0.47505511338101108 -0.44868394208069429 0 -0.5 -0.44765434486020428 0 -0.47439485679867832 -0.48072581506667478 0 -0.4597353119515426 -0.45943449384344293 0 -0.47505511338101108 -0.44868394208069429 0 -0.47505511338101108 -0.44868394208069429 0 -0.5 -0.44765434486020428 0 -0.47820614292347569 -0.42776699273468149 0 -0.5 -0.44765434486020428 0 -0.49656450065014057 -0.42151023988558672 0 -0.47820614292347569 -0.42776699273468149 0 -0.5 -0.44765434486020428 0 -0.49656450065014057 -0.42151023988558672 0 -0.50000000000000089 -0.37904661106745707 0 -0.49656450065014057 -0.42151023988558672 0 -0.48135717246594062 -0.40685004338866881 0 -0.47820614292347569 -0.42776699273468149 0 -0.49656450065014057 -0.42151023988558672 0 -0.48135717246594062 -0.40685004338866881 0 -0.48135717246594062 -0.40685004338866881 0 -0.47820614292347569 -0.42776699273468149 0 -0.48135717246594062 -0.40685004338866881 0 -0.47820614292347569 -0.42776699273468149 0 -0.45738366370351707 -0.41344381697501481 0 -0.49656450065014057 -0.42151023988558672 0 -0.48135717246594062 -0.40685004338866881 0 -0.50000000000000089 -0.37904661106745707 0 -0.50000000000000089 -0.37904661106745707 0 -0.48466894952205442 -0.38486603086372417 0 -0.48717439863114548 -0.36823452950912272 0 -0.48135717246594062 -0.40685004338866881 0 -0.50000000000000089 -0.37904661106745707 0 -0.48466894952205442 -0.38486603086372417 0 -0.48466894952205442 -0.38486603086372417 0 -0.48717439863114548 -0.36823452950912272 0 -0.50000000000000089 -0.37904661106745707 0 -0.48466894952205442 -0.38486603086372417 0 -0.48135717246594062 -0.40685004338866881 0 -0.48466894952205442 -0.38486603086372417 0 -0.46593083509403682 -0.39197871725165279 0 -0.48135717246594062 -0.40685004338866881 0 -0.48466894952205442 -0.38486603086372417 0 -0.48135717246594062 -0.40685004338866881 0 -0.46593083509403682 -0.39197871725165279 0 -0.48466894952205442 -0.38486603086372417 0 -0.47195833844942919 -0.37959069520904498 0 -0.46593083509403682 -0.39197871725165279 0 -0.48466894952205442 -0.38486603086372417 0 -0.46593083509403682 -0.39197871725165279 0 -0.48466894952205442 -0.38486603086372417 0 -0.47195833844942919 -0.37959069520904498 0 -0.48717439863114548 -0.36823452950912272 0 -0.46593083509403682 -0.39197871725165279 0 -0.44890944387521442 -0.39029302340116001 0 -0.45132291774153199 -0.37789636588759368 0 -0.47195833844942919 -0.37959069520904498 0 -0.46593083509403682 -0.39197871725165279 0 -0.45132291774153199 -0.37789636588759368 0 -0.46593083509403682 -0.39197871725165279 0 -0.45132291774153199 -0.37789636588759368 0 -0.48135717246594062 -0.40685004338866881 0 -0.46593083509403682 -0.39197871725165279 0 -0.45738366370351707 -0.41344381697501481 0 -0.46593083509403682 -0.39197871725165279 0 -0.44275815558040038 -0.40077469311046232 0 -0.45738366370351707 -0.41344381697501481 0 -0.46593083509403682 -0.39197871725165279 0 -0.44275815558040038 -0.40077469311046232 0 -0.46593083509403682 -0.39197871725165279 0 -0.44275815558040038 -0.40077469311046232 0 -0.44890944387521442 -0.39029302340116001 0 -0.44275815558040038 -0.40077469311046232 0 -0.44064580868350911 -0.39542861624611658 0 -0.44890944387521442 -0.39029302340116001 0 -0.44225344557501872 -0.38376649822575309 0 -0.45132291774153199 -0.37789636588759368 0 -0.43671500038902772 -0.36381401452353412 0 -0.44890944387521442 -0.39029302340116001 0 -0.44225344557501872 -0.38376649822575309 0 -0.45132291774153199 -0.37789636588759368 0 -0.44064580868350911 -0.39542861624611658 0 -0.44225344557501872 -0.38376649822575309 0 -0.43040194378266172 -0.3881600185019185 0 -0.44064580868350911 -0.39542861624611658 0 -0.44890944387521442 -0.39029302340116001 0 -0.44225344557501872 -0.38376649822575309 0 -0.47820614292347569 -0.42776699273468149 0 -0.46517432262153441 -0.43649963461163338 0 -0.45738366370351707 -0.41344381697501481 0 -0.45059725373546922 -0.44229587798334291 0 -0.45738366370351707 -0.41344381697501481 0 -0.45059725373546922 -0.44229587798334291 0 -0.46517432262153441 -0.43649963461163338 0 -0.45738366370351707 -0.41344381697501481 0 -0.44275815558040038 -0.40077469311046232 0 -0.45738366370351707 -0.41344381697501481 0 -0.44164244492799948 -0.42121090558557039 0 -0.45059725373546922 -0.44229587798334291 0 -0.45738366370351707 -0.41344381697501481 0 -0.44164244492799948 -0.42121090558557039 0 -0.45059725373546922 -0.44229587798334291 0 -0.44164244492799948 -0.42121090558557039 0 -0.4339166039271336 -0.43498117536117131 0 -0.4339166039271336 -0.43498117536117131 0 -0.42355654769347711 -0.414558964497861 0 -0.41671115160429401 -0.44095791049380378 0 -0.44164244492799948 -0.42121090558557039 0 -0.4339166039271336 -0.43498117536117131 0 -0.42355654769347711 -0.414558964497861 0 -0.44275815558040038 -0.40077469311046232 0 -0.44164244492799948 -0.42121090558557039 0 -0.42355654769347711 -0.414558964497861 0 -0.42355654769347711 -0.414558964497861 0 -0.41056920252370888 -0.3963363404412637 0 -0.40050668374064252 -0.41734442193795029 0 -0.42355654769347711 -0.414558964497861 0 -0.41671115160429401 -0.44095791049380378 0 -0.42355654769347711 -0.414558964497861 0 -0.40050668374064252 -0.41734442193795029 0 -0.41671115160429401 -0.44095791049380378 0 -0.44225344557501872 -0.38376649822575309 0 -0.43040194378266172 -0.3881600185019185 0 -0.43671500038902772 -0.36381401452353412 0 -0.43040194378266172 -0.3881600185019185 0 -0.43671500038902772 -0.36381401452353412 0 -0.44064580868350911 -0.39542861624611658 0 -0.42355654769347711 -0.414558964497861 0 -0.43040194378266172 -0.3881600185019185 0 -0.42355654769347711 -0.414558964497861 0 -0.43040194378266172 -0.3881600185019185 0 -0.44275815558040038 -0.40077469311046232 0 -0.44064580868350911 -0.39542861624611658 0 -0.42355654769347711 -0.414558964497861 0 -0.44064580868350911 -0.39542861624611658 0 -0.43040194378266172 -0.3881600185019185 0 -0.42355654769347711 -0.414558964497861 0 -0.43040194378266172 -0.3881600185019185 0 -0.41056920252370888 -0.3963363404412637 0 -0.43040194378266172 -0.3881600185019185 0 -0.4079689369259607 -0.37224253963894771 0 -0.43040194378266172 -0.3881600185019185 0 -0.41056920252370888 -0.3963363404412637 0 -0.4079689369259607 -0.37224253963894771 0 -0.41056920252370888 -0.3963363404412637 0 -0.39195929229331972 -0.37982250283040359 0 -0.4079689369259607 -0.37224253963894771 0 -0.41056920252370888 -0.3963363404412637 0 -0.39195929229331972 -0.37982250283040359 0 -0.39357845321732049 -0.39746174547711199 0 -0.41056920252370888 -0.3963363404412637 0 -0.39357845321732049 -0.39746174547711199 0 -0.40050668374064252 -0.41734442193795029 0 -0.39357845321732049 -0.39746174547711199 0 -0.38114412328536468 -0.40833987260765031 0 -0.36544727141479139 -0.39026932065168712 0 -0.39195929229331972 -0.37982250283040359 0 -0.37549160074202448 -0.3732971907138336 0 -0.36544727141479139 -0.39026932065168712 0 -0.39195929229331972 -0.37982250283040359 0 -0.39357845321732049 -0.39746174547711199 0 -0.36544727141479139 -0.39026932065168712 0 -0.40050668374064252 -0.41734442193795029 0 -0.3944977858259317 -0.43926335073686201 0 -0.41671115160429401 -0.44095791049380378 0 -0.40050668374064252 -0.41734442193795029 0 -0.38028594703985957 -0.42392304976487449 0 -0.3944977858259317 -0.43926335073686201 0 -0.39357845321732049 -0.39746174547711199 0 -0.40050668374064252 -0.41734442193795029 0 -0.38114412328536468 -0.40833987260765031 0 -0.40050668374064252 -0.41734442193795029 0 -0.38114412328536468 -0.40833987260765031 0 -0.38028594703985957 -0.42392304976487449 0 -0.38114412328536468 -0.40833987260765031 0 -0.38028594703985957 -0.42392304976487449 0 -0.36590226101420908 -0.41270082520662749 0 -0.38028594703985957 -0.42392304976487449 0 -0.3944977858259317 -0.43926335073686201 0 -0.3723601590800425 -0.44005613486137668 0 -0.3944977858259317 -0.43926335073686201 0 -0.38265619596279349 -0.45813348326120767 0 -0.3723601590800425 -0.44005613486137668 0 -0.40093272222703252 -0.45142790024540502 0 -0.3944977858
[...]
<PointData Scalars="" Vectors="displacement," Tensors="">
<DataArray type="Float64" Name="displacement" NumberOfComponents="3" format="ascii">
0.054995721501847554 1.7971627831016881e-06 0 0.053423819952189845 0.00027950698491653841 0 0.054998714946919852 8.1235588932207683e-08 0 0.054995721501847554 1.7971627831016881e-06 0 0.053423819952189845 0.00027950698491653841 0 0.048082662574199755 -3.2470518138918848e-06 0 0.053423819952189845 0.00027950698491653841 0 0.052525546661890417 -4.2937117922271881e-05 0 0.048082662574199755 -3.2470518138918848e-06 0 0.053423819952189845 0.00027950698491653841 0 0.052525546661890417 -4.2937117922271881e-05 0 0.053741268654264963 3.5162467629775133e-05 0 0.052525546661890417 -4.2937117922271881e-05 0 0.053075494488143207 -0.00093430837324093015 0 0.053741268654264963 3.5162467629775133e-05 0 0.052525546661890417 -4.2937117922271881e-05 0 0.053075494488143207 -0.00093430837324093015 0 0.048082662574199755 -3.2470518138918848e-06 0 0.048830564724866049 0.00012860500459505319 0 0.048075999210611904 4.0674525681233584e-07 0 0.049992928095785399 0.00094944213036327681 0 0.050596505131043308 -0.00038609340132952891 0 0.048894724662557683 -0.00033455701090321038 0 0.053075494488143207 -0.00093430837324093015 0 0.053991128305336686 0.00019136582765648546 0 0.053741268654264963 3.5162467629775133e-05 0 0.047363354689147943 0.00024989463889944313 0 0.049992928095785399 0.00094944213036327681 0 0.048894724662557683 -0.00033455701090321038 0 0.048830564724866049 0.00012860500459505319 0 0.049240058335299944 0.0002010400003818304 0 0.053741268654264963 3.5162467629775133e-05 0 0.054265531535370275 -5.9525428047984085e-05 0 0.053807603128068371 0.00011296160078180701 0 0.053991128305336686 0.00019136582765648546 0 0.053741268654264963 3.5162467629775133e-05 0 0.053807603128068371 0.00011296160078180701 0 0.054265531535370275 -5.9525428047984085e-05 0 0.053372414697827796 -0.00029773322428442345 0 0.053807603128068371 0.00011296160078180701 0 0.053505383260422271 -0.00034585181119368882 0 0.053473096455819324 -0.00035228386017683823 0 0.053423819952189845 0.00027950698491653841 0 0.054265531535370275 -5.9525428047984085e-05 0 0.054998714946919852 8.1235588932207683e-08 0 0.053423819952189845 0.00027950698491653841 0 0.053741268654264963 3.5162467629775133e-05 0 0.054265531535370275 -5.9525428047984085e-05 0 0.054265531535370275 -5.9525428047984085e-05 0 0.054998714946919852 8.1235588932207683e-08 0 0.054869967830991601 -5.7676952282046385e-05 0 0.054998714946919852 8.1235588932207683e-08 0 0.054989946366869928 -4.2916566236601031e-07 0 0.054869967830991601 -5.7676952282046385e-05 0 0.054998714946919852 8.1235588932207683e-08 0 0.054989946366869928 -4.2916566236601031e-07 0 0.055000531009390501 -4.1275696052892517e-08 0 0.054989946366869928 -4.2916566236601031e-07 0 0.055013335583745028 -5.7793012064127909e-05 0 0.054869967830991601 -5.7676952282046385e-05 0 0.053405770883018421 -0.00038736735544386651 0 0.053369166882382246 -0.00037206636717965257 0 0.053369166882382246 -0.00037206636717965257 0 0.053473096455819324 -0.00035228386017683823 0 0.052536595887061208 -0.00015131124175516019 0 0.053372414697827796 -0.00029773322428442345 0 0.052553633773837614 0.00061473911377058106 0 0.054989946366869928 -4.2916566236601031e-07 0 0.054993086324007574 -3.7553840267355138e-06 0 0.055000531009390501 -4.1275696052892517e-08 0 0.055000001579662901 7.0590842633609615e-10 0 0.055000603537391224 1.7894761655163932e-06 0 0.054998009081964172 1.6006079474974247e-06 0 0.054993086324007574 -3.7553840267355138e-06 0 0.055000531009390501 -4.1275696052892517e-08 0 0.05499830094745204 -2.9941445909393058e-06 0 0.053977138624010032 -0.00019616379753906204 0 0.054005612310480823 -0.00019156417166579703 0 0.054988869844110326 7.145900759761051e-07 0 0.053977138624010032 -0.00019616379753906204 0 0.053505666862611115 -0.001205205354612985 0 0.052195058952848386 -0.0014022312714135545 0 0.052618656888519404 -0.00028497943935723742 0 0.053369166882382246 -0.00037206636717965257 0 0.053977138624010032 -0.00019616379753906204 0 0.053369166882382246 -0.00037206636717965257 0 0.052903570432259843 -0.00037239256291496229 0 0.055002831316930643 3.1024899648425017e-06 0 0.055000617439837689 8.231992931230365e-06 0 0.055005083379431136 1.0572353613390605e-05 0 0.053977138624010032 -0.00019616379753906204 0 0.052903570432259843 -0.00037239256291496229 0 0.055002831316930643 3.1024899648425017e-06 0 0.055000617439837689 8.231992931230365e-06 0 0.054998009081964172 1.6006079474974247e-06 0 0.053280241721677724 0.0014681247272246534 0 0.053371666283059845 0.00052219696114166035 0 0.054053762912568262 0.00065416117192382901 0 0.055000617439837689 8.231992931230365e-06 0 0.055005083379431136 1.0572353613390605e-05 0 0.05499864378269044 1.9655125973681608e-05 0 0.052903570432259843 -0.00037239256291496229 0 0.050973452550822571 0.00028476937811034526 0 0.052536595887061208 -0.00015131124175516019 0 0.052422240890228115 0.00038909859143742166 0 0.052553633773837614 0.00061473911377058106 0 0.052422240890228115 0.00038909859143742166 0 0.052777271283224805 0.00018376739214686822 0 0.052553633773837614 0.00061473911377058106 0 0.052903570432259843 -0.00037239256291496229 0 0.05290430201834951 -0.0003541644583979746 0 0.053280241721677724 0.0014681247272246534 0 0.052777271283224805 0.00018376739214686822 0 0.053371666283059845 0.00052219696114166035 0 0.052777271283224805 0.00018376739214686822 0 0.053093154052333565 5.4691950533805023e-05 0 0.053371666283059845 0.00052219696114166035 0 0.053730249274956898 0.00015381057846633993 0 0.054053762912568262 0.00065416117192382901 0 0.05481746870976318 -0.00014331250389786694 0 0.053371666283059845 0.00052219696114166035 0 0.053730249274956898 0.00015381057846633993 0 0.054053762912568262 0.00065416117192382901 0 0.053093154052333565 5.4691950533805023e-05 0 0.053730249274956898 0.00015381057846633993 0 0.053488344126374432 -0.00049282986354942941 0 0.053093154052333565 5.4691950533805023e-05 0 0.053371666283059845 0.00052219696114166035 0 0.053730249274956898 0.00015381057846633993 0 0.053372414697827796 -0.00029773322428442345 0 0.053807603128068371 0.00011296160078180701 0 0.052553633773837614 0.00061473911377058106 0 0.049240058335299944 0.0002010400003818304 0 0.049382252864745721 0.00022720360549586673 0 0.053991128305336686 0.00019136582765648546 0 0.053807603128068371 0.00011296160078180701 0 0.052553633773837614 0.00061473911377058106 0 0.052777271283224805 0.00018376739214686822 0 0.052553633773837614 0.00061473911377058106 0 0.051761449212671076 4.0591268821715164e-05 0 0.049992928095785399 0.00094944213036327681 0 0.052553633773837614 0.00061473911377058106 0 0.051761449212671076 4.0591268821715164e-05 0 0.049992928095785399 0.00094944213036327681 0 0.051761449212671076 4.0591268821715164e-05 0 0.050596505131043308 -0.00038609340132952891 0 0.050596505131043308 -0.00038609340132952891 0 0.052086274322239424 -0.001048395254150466 0 0.05007150450222761 -0.0016507053411932264 0 0.051761449212671076 4.0591268821715164e-05 0 0.050596505131043308 -0.00038609340132952891 0 0.052086274322239424 -0.001048395254150466 0 0.052777271283224805 0.00018376739214686822 0 0.051761449212671076 4.0591268821715164e-05 0 0.052086274322239424 -0.001048395254150466 0 0.035567913429977151 0.0037316780023476416 0 0.036000481048716365 0.0034247127060902565 0 0.035495947655249223 0.0031823654173151711 0 0.04499302076211513 0.00053936064308448542 0 0.044453254586118623 0.00044422847148741846 0 0.035567913429977151 0.0037316780023476416 0 0.035495947655249223 0.0031823654173151711 0 0.034935649122562258 0.0035649587291057411 0 0.053730249274956898 0.00015381057846633993 0 0.053488344126374432 -0.00049282986354942941 0 0.05481746870976318 -0.00014331250389786694 0 0.045701082677835139 0.00063663905209132457 0 0.048864759582603084 0.0010499548427207947 0 0.053093154052333565 5.4691950533805023e-05 0 0.052086274322239424 -0.001048395254150466 0 0.053515618356295452 -0.00054258578368630221 0 0.04499302076211513 0.00053936064308448542 0 0.045701082677835139 0.00063663905209132457 0 0.052777271283224805 0.00018376739214686822 0 0.053093154052333565 5.4691950533805023e-05 0 0.052086274322239424 -0.001048395254150466 0 0.045764282488414215 0.0005862679646820864 0 0.045701082677835139 0.00063663905209132457 0 0.035567913429977151 0.0037316780023476416 0 0.036198677518637409 0.0038937186846960642 0 0.036000481048716365 0.0034247127060902565 0 0.045701082677835139 0.00063663905209132457 0 0.044826959457309822 0.00053852713354600641 0 0.036198677518637409 0.0038937186846960642 0 0.036000481048716365 0.0034247127060902565 0 0.036572803275747717 0.0033636012517567985 0 0.036000481048716365 0.0034247127060902565 0 0.036391272557099938 0.002987801523914257 0 0.036572803275747717 0.0033636012517567985 0 0.036000481048716365 0.0034247127060902565 0 0.036391272557099938 0.002987801523914257 0 0.035970147546472611 0.0030251535696497476 0 0.036000481048716365 0.0034247127060902565 0 0.035970147546472611 0.0030251535696497476 0 0.035495947655249223 0.0031823654173151711 0 0.035970147546472611 0.0030251535696497476 0 0.035702524649693063 0.0027325789097250768 0 0.036148443498647022 0.0023771434702168238 0 0.036391272557099938 0.002987801523914257 0 0.036546013428410233 0.0026049417555207731 0 0.036148443498647022 0.0023771434702168238 0 0.036391272557099938 0.002987801523914257 0 0.035970147546472611 0.0030251535696497476 0 0.036148443498647022 0.0023771434702168238 0 0.035495947655249223 0.0031823654173151711 0 0.034972460731337154 0.0030306866761662752 0 0.034935649122562258 0.0035649587291057411 0 0.035495947655249223 0.0031823654173151711 0 0.035328191837961591 0.0026972235787679649 0 0.034972460731337154 0.0030306866761662752 0 0.035970147546472611 0.0030251535696497476 0 0.035495947655249223 0.0031823654173151711 0 0.035702524649693063 0.0027325789097250768 0 0.035495947655249223 0.0031823654173151711 0 0.035702524649693063 0.0027325789097250768 0 0.035328191837961591 0.0026972235787679649 0 0.035702524649693063 0.0027325789097250768 0 0.035328191837961591 0.0026972235787679649 0 0.035584167710183266 0.0023836628621681862 0 0.035328191837961591 0.0026972235787679649 0 0.034972460731337154 0.0030306866761662752 0 0.034955757994136277 0.0024776820045789546 0 0.034972460731337154 0.0030306866761662752 0 0.034511258304419749 0.0027365314992160283 0 0.034955757994136277 0.0024776820045789546 0 0.034679952672788526 0.003183671453275967 0 0.034972460731337154 0.0030306866761662752 0 0.034511258304419749 0.0027365314992160283 0 0.034679952672788526 0.003183671453275967 0 0.034972460731337154 0.0030306866761662752 0 0.034935649122562258 0.0035649587291057411 0 0.043449805236898217 0.0011006479762596228 0 0.044186910072273516 0.00038139514747795094 0 0.036520289451046781 0.00014567473970205432 0 0.038762411887526153 -0.0010396110948613908 0 0.038052731201282879 -0.0030265434346736873 0 0.034679952672788526 0.003183671453275967 0 0.034511258304419749 0.0027365314992160283 0 0.034298376097333487 0.0033986089073538952 0 0.036520289451046781 0.00014567473970205432 0 0.038406197864550781 5.428175389733672e-05 0 0.038762411887526153 -0.0010396110948613908 0 0.038406197864550781 5.428175389733672e-05 0 0.04059609573857044 -0.00014277591651845823 0 0.038952807887121056 0.0002885156632137105 0 0.038406197864550781 5.428175389733672e-05 0 0.04059609573857044 -0.00014277591651845823 0 0.038762411887526153 -0.0010396110948613908 0 0.041249915217358657 2.063049968676208e-06 0 0.04059609573857044 -0.00014277591651845823 0 0.044148899605798715 -5.9383051498877264e-06 0 0.041249915217358657 2.063049968676208e-06 0 0.04059609573857044 -0.00014277591651845823 0 0.038952807887121056 0.0002885156632137105 0 0.04059609573857044 -0.00014277591651845823 0 0.044148899605798715 -5.9383051498877264e-06 0 0.040396895800097178 -0.0023006539676157312 0 0.044153596279557991 1.9309446745735739e-06 0 0.044132909772914668 0.00017411884398586678 0 0.040396895800097178 -0.0023006539676157312 0 0.038762411887526153 -0.0010396110948613908 0 0.038052731201282879 -0.0030265434346736873 0 0.04059609573857044 -0.00014277591651845823 0 0.040396895800097178 -0.0023006539676157312 0 0.038762411887526153 -0.0010396110948613908 0 0.044132909772914668 0.00017411884398586678 0 0.044186910072273516 0.00038139514747795094 0 0.044230165791603673 0.00032728479803895643 0 0.044186910072273516 0.00038139514747795094 0 0.046885258425767455 1.2302972700479116e-05 0 0.047132967118792564 -0.00018896909994329839 0 0.046976953211357586 -0.00016792833787403395 0 0.046500896094406351 -0.00024827348731496315 0 0.046885258425767455 1.2302972700479116e-05 0 0.046976953211357586 -0.00016792833787403395 0 0.046500896094406351 -0.00024827348731496315 0 0.046885258425767455 1.2302972700479116e-05 0 0.046114240878903381 9.9019083773506193e-07 0 0.044157576342799265 -2.2096971750191343e-06 0 0.046500896094406351 -0.00024827348731496315 0 0.046114240878903381 9.9019083773506193e-07 0 0.046885258425767455 1.2302972700479116e-05 0 0.046114240878903381 9.9019083773506193e-07 0 0.048068148127845316 -2.2077824656417494e-07 0 0.046885258425767455 1.2302972700479116e-05 0 0.048068148127845316 -2.2077824656417494e-07 0 0.047132967118792564 -0.00018896909994329839 0 0.047363354689147943 0.00024989463889944313 0 0.048068148127845316 -2.2077824656417494e-07 0 0.047132967118792564 -0.00018896909994329839 0 0.047132967118792564 -0.00018896909994329839 0 0.048471682931953954 -0.0010910335483543779 0 0.048894724662557683 -0.00033455701090321038 0 0.047363354689147943 0.00024989463889944313 0 0.047132967118792564 -0.00018896909994329839 0 0.048894724662557683 -0.00033455701090321038 0 0.050596505131043308 -0.00038609340132952891 0 0.048894724662557683 -0.00033455701090321038 0 0.05007150450222761 -0.0016507053411932264 0 0.048471682931953954 -0.0010910335483543779 0 0.048894724662557683 -0.00033455701090321038 0 0.05007150450222761 -0.0016507053411932264 0 0.048471682931953954 -0.0010910335483543779 0 0.05007150450222761 -0.0016507053411932264 0 0.047679834799155357 -0.002195276728002459 0 0.044453254586118623 0.00044422847148741846 0 0.044186910072273516 0.00038139514747795094 0 0.034679952672788526 0.003183671453275967 0 0.034935649122562258 0.0035649587291057411 0 0.034298376097333487 0.0033986089073538952 0 0.047132967118792564 -0.00018896909994329839 0 0.048471682931953954 -0.0010910335483543779 0 0.047679834799155357 -0.002195276728002459 0 0.054150262945705928 -0.00086509706620229365 0 0.054354497950945983 -0.0016522867132986584 0 0.054674511137392509 -0.00091796659643125463 0 0.053621559242405629 -0.0015266045598725012 0 0.054150262945705928 -0.00086509706620229365 0 0.054354497950945983 -0.0016522867132986584 0 0.054990471119217045 -5.6139019810815856e-05 0 0.054985455233221771 -2.3165725699962663e-05 0 0.055001840495512808 -1.8534200655449991e-05 0 0.049422458582632625 -0.00013246223013936356 0 0.050055345718968101 0.00021017135046547789 0 0.054985455233221771 -2.3165725699962663e-05 0 0.054996670914356227 -3.4202535006499766e-06 0 0.054978729158337958 -7.6115886448247433e-06 0 0.054985455233221771 -2.3165725699962663e-05 0 0.055001840495512808 -1.8534200655449991e-05 0 0.054996670914356227 -3.4202535006499766e-06 0 0.050055345718968101 0.00021017135046547789 0 0.05043037985264788 0.00041448211361797097 0 0.055001840495512808 -1.8534200655449991e-05 0 0.054996670914356227 -3.4202535006499766e-06 0 0.055000407687911319 -1.1085840343809981e-06 0 0.05499905564665724 -2.1618964022840219e-06 0 0.054996670914356227 -3.4202535006499766e-06 0 0.055000407687911319 -1.1085840343809981e-06 0 0.05499905564665724 -2.1618964022840219e-06 0 0.054999941750653668 -4.9282180588892101e-08 0 0.055000006880454283 1.467211709645854e-08 0 0.05499905564665724 -2.1618964022840219e-06 0 0.054999941750653668 -4.9282180588892101e-08 0 0.05499750771883833 -4.6106998050355786e-06 0 0.05499905564665724 -2.1618964022840219e-06 0 0.055000006880454283 1.467211709645854e-08 0 0.054996670914356227 -3.4202535006499766e-06 0 0.055000006880454283 1.467211709645854e-08 0 0.054996670914356227 -3.4202535006499766e-06 0 0.054990600051449824 -1.2853412808986939e-07 0 0.054996670914356227 -3.4202535006499766e-06 0 0.054978729158337958 -7.6115886448247433e-06 0 0.054990600051449824 -1.2853412808986939e-07 0 0.054978729158337958 -7.6115886448247433e-06 0 0.054990600051449824 -1.2853412808986939e-07 0 0.054977896900106252 -9.0691251718723032e-08 0 0.055000006880454283 1.467211709645854e-08 0 0.054990600051449824 -1.2853412808986939e-07 0 0.054999966345074605 -6.9348927862563109e-10 0 0.054990600051449824 -1.2853412808986939e-07 0 0.054999966345074605 -6.9348927862563109e-10 0 0.054977896900106252 -9.0691251718723032e-08 0 0.054999966345074605 -6.9348927862563109e-10 0 0.054977896900106252 -9.0691251718723032e-08 0 0.054999965428195449 -2.9238412946306186e-09 0 0.054978729158337958 -7.6115886448247433e-06 0 0.054977896900106252 -9.0691251718723032e-08 0 0.054948719186482621 -1.8514525388104688e-05 0 0.054977896900106252 -9.0691251718723032e-08 0 0.054948719186482621 -1.8514525388104688e-05 0 0.054966122886517671 1.432748881296977e-06 0 0.054985455233221771 -2.3165725699962663e-05 0 0.054978729158337958 -7.6115886448247433e-06 0 0.054948719186482621 -1.8514525388104688e-05 0 0.054985455233221771 -2.3165725699962663e-05 0 0.054948719186482621 -1.8514525388104688e-05 0 0.054946139271577925 -5.6502740271048652e-05 0 0.054990471119217045 -5.6139019810815856e-05 0 0.054985455233221771 -2.3165725699962663e-05 0 0.054946139271577925 -5.6502740271048652e-05 0 0.054948719186482621 -1.8514525388104688e-05 0 0.054946139271577925 -5.6502740271048652e-05 0 0.054902814751086597 -5.7579488834835084e-05 0 0.054902814751086597 -5.7579488834835084e-05 0 0.054902266031175144 -2.9678696598508663e-05 0 0.054842509262864159 -9.2052146220075902e-05 0 0.054948719186482621 -1.8514525388104688e-05 0 0.054902814751086597 -5.7579488834835084e-05 0 0.054902266031175144 -2.9678696598508663e-05 0 0.049358679653337532 0.0006560446984877667 0 0.049116827617000168 0.00075371692301388546 0 0.054957864821946652 2.3185501202308967e-05 0 0.054969075163863387 3.2323861207756661e-05 0 0.054975465726236891 1.5065714780521801e-05 0 0.054969075163863387 3.2323861207756661e-05 0 0.054975465726236891 1.5065714780521801e-05 0 0.054981362420393774 2.3193708459933466e-05 0 0.054957864821946652 2.3185501202308967e-05 0 0.054969075163863387 3.2323861207756661e-05 0 0.054949002318563062 4.7836940318646055e-05 0 0.054948719186482621 -1.8514525388104688e-05 0 0.054902266031175144 -2.9678696598508663e-05 0 0.054966122886517671 1.432748881296977e-06 0 0.054957864821946652 2.3185501202308967e-05 0 0.054975465726236891 1.5065714780521801e-05 0 0.054966122886517671 1.432748881296977e-06 0 0.049358679653337532 0.0006560446984877667 0 0.049438779763483348 0.0006247605522114784 0 0.054977896900106252 -9.0691251718723032e-08 0 0.054966122886517671 1.432748881296977e-06 0 0.054999965428195449 -2.9238412946306186e-09 0 0.054966122886517671 1.432748881296977e-06 0 0.054999965428195449 -2.9238412946306186e-09 0 0.054987486134929327 1.531389410861121e-06 0 0.054999965428195449 -2.9238412946306186e-09 0 0.054987486134929327 1.531389410861121e-06 0 0.054999992377509868 -2.6062495740163673e-10 0 0.054975465726236891 1.5065714780521801e-05 0 0.054987486134929327 1.531389410861121e-06 0 0.054987156082732941 1.1901017009754043e-05 0 0.054975465726236891 1.5065714780521801e-05 0 0.054966122886517671 1.432748881296977e-06 0 0.054987486134929327 1.531389410861121e-06 0 0.054987486134929327 1.531389410861121e-06 0 0.054993452968198103 3.6016496885337703e-06 0 0.054987156082732941 1.1901017009754043e-05 0 0.054993452968198103 3.6016496885337703e-06 0 0.054995153841556586 1.0541110450408664e-05 0 0.054987156082732941 1.1901017009754043e-05 0 0.054993452968198103 3.6016496885337703e-06 0 0.054999992377509868 -2.6062495740163673e-10 0 0.054