<?xml version="1.0"?>
<VTKFile type="UnstructuredGrid" version="0.1" byte_order="LittleEndian">
<UnstructuredGrid>
<Piece NumberOfPoints="30578" NumberOfCells="10723">
<Points>
<DataArray type="Float64" NumberOfComponents="3" format="ascii">
-0.5 -0.5 0 -0.47439485679867832 -0.48072581506667478 0 -0.5 -0.44765434486020428 0 -0.5 -0.5 0 -0.47439485679867832 -0.48072581506667478 0 -0.43702443379937372 -0.49999999999999922 0 -0.47439485679867832 -0.48072581506667478 0 -0.45530669598391149 -0.47718009944797551 0 -0.43702443379937372 -0.49999999999999922 0 -0.47439485679867832 -0.48072581506667478 0 -0.45530669598391149 -0.47718009944797551 0 -0.4597353119515426 -0.45943449384344293 0 -0.45530669598391149 -0.47718009944797551 0 -0.44381084376742141 -0.47114793899167112 0 -0.4597353119515426 -0.45943449384344293 0 -0.45530669598391149 -0.47718009944797551 0 -0.44381084376742141 -0.47114793899167112 0 -0.43702443379937372 -0.49999999999999922 0 -0.44381084376742141 -0.47114793899167112 0 -0.43702443379937372 -0.49999999999999922 0 -0.45059725373546922 -0.44229587798334291 0 -0.4339166039271336 -0.43498117536117131 0 -0.43309128002320102 -0.45351235807576151 0 -0.44381084376742141 -0.47114793899167112 0 -0.45059725373546922 -0.44229587798334291 0 -0.4597353119515426 -0.45943449384344293 0 -0.44381084376742141 -0.47114793899167112 0 -0.45059725373546922 -0.44229587798334291 0 -0.43309128002320102 -0.45351235807576151 0 -0.44381084376742141 -0.47114793899167112 0 -0.45059725373546922 -0.44229587798334291 0 -0.4597353119515426 -0.45943449384344293 0 -0.47505511338101108 -0.44868394208069429 0 -0.46517432262153441 -0.43649963461163338 0 -0.45059725373546922 -0.44229587798334291 0 -0.4597353119515426 -0.45943449384344293 0 -0.46517432262153441 -0.43649963461163338 0 -0.47505511338101108 -0.44868394208069429 0 -0.47820614292347569 -0.42776699273468149 0 -0.46517432262153441 -0.43649963461163338 0 -0.47505511338101108 -0.44868394208069429 0 -0.47820614292347569 -0.42776699273468149 0 -0.47439485679867832 -0.48072581506667478 0 -0.47505511338101108 -0.44868394208069429 0 -0.5 -0.44765434486020428 0 -0.47439485679867832 -0.48072581506667478 0 -0.4597353119515426 -0.45943449384344293 0 -0.47505511338101108 -0.44868394208069429 0 -0.47505511338101108 -0.44868394208069429 0 -0.5 -0.44765434486020428 0 -0.47820614292347569 -0.42776699273468149 0 -0.5 -0.44765434486020428 0 -0.49656450065014057 -0.42151023988558672 0 -0.47820614292347569 -0.42776699273468149 0 -0.5 -0.44765434486020428 0 -0.49656450065014057 -0.42151023988558672 0 -0.50000000000000089 -0.37904661106745707 0 -0.49656450065014057 -0.42151023988558672 0 -0.48135717246594062 -0.40685004338866881 0 -0.47820614292347569 -0.42776699273468149 0 -0.49656450065014057 -0.42151023988558672 0 -0.48135717246594062 -0.40685004338866881 0 -0.48135717246594062 -0.40685004338866881 0 -0.47820614292347569 -0.42776699273468149 0 -0.48135717246594062 -0.40685004338866881 0 -0.47820614292347569 -0.42776699273468149 0 -0.45738366370351707 -0.41344381697501481 0 -0.49656450065014057 -0.42151023988558672 0 -0.48135717246594062 -0.40685004338866881 0 -0.50000000000000089 -0.37904661106745707 0 -0.50000000000000089 -0.37904661106745707 0 -0.48466894952205442 -0.38486603086372417 0 -0.48717439863114548 -0.36823452950912272 0 -0.48135717246594062 -0.40685004338866881 0 -0.50000000000000089 -0.37904661106745707 0 -0.48466894952205442 -0.38486603086372417 0 -0.48466894952205442 -0.38486603086372417 0 -0.48717439863114548 -0.36823452950912272 0 -0.50000000000000089 -0.37904661106745707 0 -0.48466894952205442 -0.38486603086372417 0 -0.48135717246594062 -0.40685004338866881 0 -0.48466894952205442 -0.38486603086372417 0 -0.46593083509403682 -0.39197871725165279 0 -0.48135717246594062 -0.40685004338866881 0 -0.48466894952205442 -0.38486603086372417 0 -0.48135717246594062 -0.40685004338866881 0 -0.46593083509403682 -0.39197871725165279 0 -0.48466894952205442 -0.38486603086372417 0 -0.47195833844942919 -0.37959069520904498 0 -0.46593083509403682 -0.39197871725165279 0 -0.48466894952205442 -0.38486603086372417 0 -0.46593083509403682 -0.39197871725165279 0 -0.48466894952205442 -0.38486603086372417 0 -0.47195833844942919 -0.37959069520904498 0 -0.48717439863114548 -0.36823452950912272 0 -0.46593083509403682 -0.39197871725165279 0 -0.44890944387521442 -0.39029302340116001 0 -0.45132291774153199 -0.37789636588759368 0 -0.47195833844942919 -0.37959069520904498 0 -0.46593083509403682 -0.39197871725165279 0 -0.45132291774153199 -0.37789636588759368 0 -0.46593083509403682 -0.39197871725165279 0 -0.45132291774153199 -0.37789636588759368 0 -0.48135717246594062 -0.40685004338866881 0 -0.46593083509403682 -0.39197871725165279 0 -0.45738366370351707 -0.41344381697501481 0 -0.46593083509403682 -0.39197871725165279 0 -0.44275815558040038 -0.40077469311046232 0 -0.45738366370351707 -0.41344381697501481 0 -0.46593083509403682 -0.39197871725165279 0 -0.44275815558040038 -0.40077469311046232 0 -0.46593083509403682 -0.39197871725165279 0 -0.44275815558040038 -0.40077469311046232 0 -0.44890944387521442 -0.39029302340116001 0 -0.44275815558040038 -0.40077469311046232 0 -0.44064580868350911 -0.39542861624611658 0 -0.44890944387521442 -0.39029302340116001 0 -0.44225344557501872 -0.38376649822575309 0 -0.45132291774153199 -0.37789636588759368 0 -0.43671500038902772 -0.36381401452353412 0 -0.44890944387521442 -0.39029302340116001 0 -0.44225344557501872 -0.38376649822575309 0 -0.45132291774153199 -0.37789636588759368 0 -0.44064580868350911 -0.39542861624611658 0 -0.44225344557501872 -0.38376649822575309 0 -0.43040194378266172 -0.3881600185019185 0 -0.44064580868350911 -0.39542861624611658 0 -0.44890944387521442 -0.39029302340116001 0 -0.44225344557501872 -0.38376649822575309 0 -0.47820614292347569 -0.42776699273468149 0 -0.46517432262153441 -0.43649963461163338 0 -0.45738366370351707 -0.41344381697501481 0 -0.45059725373546922 -0.44229587798334291 0 -0.45738366370351707 -0.41344381697501481 0 -0.45059725373546922 -0.44229587798334291 0 -0.46517432262153441 -0.43649963461163338 0 -0.45738366370351707 -0.41344381697501481 0 -0.44275815558040038 -0.40077469311046232 0 -0.45738366370351707 -0.41344381697501481 0 -0.44164244492799948 -0.42121090558557039 0 -0.45059725373546922 -0.44229587798334291 0 -0.45738366370351707 -0.41344381697501481 0 -0.44164244492799948 -0.42121090558557039 0 -0.45059725373546922 -0.44229587798334291 0 -0.44164244492799948 -0.42121090558557039 0 -0.4339166039271336 -0.43498117536117131 0 -0.4339166039271336 -0.43498117536117131 0 -0.42355654769347711 -0.414558964497861 0 -0.41671115160429401 -0.44095791049380378 0 -0.44164244492799948 -0.42121090558557039 0 -0.4339166039271336 -0.43498117536117131 0 -0.42355654769347711 -0.414558964497861 0 -0.44275815558040038 -0.40077469311046232 0 -0.44164244492799948 -0.42121090558557039 0 -0.42355654769347711 -0.414558964497861 0 -0.42355654769347711 -0.414558964497861 0 -0.41056920252370888 -0.3963363404412637 0 -0.40050668374064252 -0.41734442193795029 0 -0.42355654769347711 -0.414558964497861 0 -0.41671115160429401 -0.44095791049380378 0 -0.42355654769347711 -0.414558964497861 0 -0.40050668374064252 -0.41734442193795029 0 -0.41671115160429401 -0.44095791049380378 0 -0.44225344557501872 -0.38376649822575309 0 -0.43040194378266172 -0.3881600185019185 0 -0.43671500038902772 -0.36381401452353412 0 -0.43040194378266172 -0.3881600185019185 0 -0.43671500038902772 -0.36381401452353412 0 -0.44064580868350911 -0.39542861624611658 0 -0.42355654769347711 -0.414558964497861 0 -0.43040194378266172 -0.3881600185019185 0 -0.42355654769347711 -0.414558964497861 0 -0.43040194378266172 -0.3881600185019185 0 -0.44275815558040038 -0.40077469311046232 0 -0.44064580868350911 -0.39542861624611658 0 -0.42355654769347711 -0.414558964497861 0 -0.44064580868350911 -0.39542861624611658 0 -0.43040194378266172 -0.3881600185019185 0 -0.42355654769347711 -0.414558964497861 0 -0.43040194378266172 -0.3881600185019185 0 -0.41056920252370888 -0.3963363404412637 0 -0.43040194378266172 -0.3881600185019185 0 -0.4079689369259607 -0.37224253963894771 0 -0.43040194378266172 -0.3881600185019185 0 -0.41056920252370888 -0.3963363404412637 0 -0.4079689369259607 -0.37224253963894771 0 -0.41056920252370888 -0.3963363404412637 0 -0.39195929229331972 -0.37982250283040359 0 -0.4079689369259607 -0.37224253963894771 0 -0.41056920252370888 -0.3963363404412637 0 -0.39195929229331972 -0.37982250283040359 0 -0.39357845321732049 -0.39746174547711199 0 -0.41056920252370888 -0.3963363404412637 0 -0.39357845321732049 -0.39746174547711199 0 -0.40050668374064252 -0.41734442193795029 0 -0.39357845321732049 -0.39746174547711199 0 -0.38114412328536468 -0.40833987260765031 0 -0.36544727141479139 -0.39026932065168712 0 -0.39195929229331972 -0.37982250283040359 0 -0.37549160074202448 -0.3732971907138336 0 -0.36544727141479139 -0.39026932065168712 0 -0.39195929229331972 -0.37982250283040359 0 -0.39357845321732049 -0.39746174547711199 0 -0.36544727141479139 -0.39026932065168712 0 -0.40050668374064252 -0.41734442193795029 0 -0.3944977858259317 -0.43926335073686201 0 -0.41671115160429401 -0.44095791049380378 0 -0.40050668374064252 -0.41734442193795029 0 -0.38028594703985957 -0.42392304976487449 0 -0.3944977858259317 -0.43926335073686201 0 -0.39357845321732049 -0.39746174547711199 0 -0.40050668374064252 -0.41734442193795029 0 -0.38114412328536468 -0.40833987260765031 0 -0.40050668374064252 -0.41734442193795029 0 -0.38114412328536468 -0.40833987260765031 0 -0.38028594703985957 -0.42392304976487449 0 -0.38114412328536468 -0.40833987260765031 0 -0.38028594703985957 -0.42392304976487449 0 -0.36590226101420908 -0.41270082520662749 0 -0.38028594703985957 -0.42392304976487449 0 -0.3944977858259317 -0.43926335073686201 0 -0.3723601590800425 -0.44005613486137668 0 -0.3944977858259317 -0.43926335073686201 0 -0.38265619596279349 -0.45813348326120767 0 -0.3723601590800425 -0.44005613486137668 0 -0.40093272222703252 -0.45142790024540502 0 -0.3944977858
[...]
<PointData Scalars="" Vectors="displacement," Tensors="">
<DataArray type="Float64" Name="displacement" NumberOfComponents="3" format="ascii">
0.054996151183890944 0.054996191989915448 0 0.053871288731659799 0.053383333692266485 0 0.049249398039441096 0.054996669692940738 0 0.054996151183890944 0.054996191989915448 0 0.053871288731659799 0.053383333692266485 0 0.054995756188015173 0.048084783518955343 0 0.053871288731659799 0.053383333692266485 0 0.053862259988908083 0.051813933147370095 0 0.054995756188015173 0.048084783518955343 0 0.053871288731659799 0.053383333692266485 0 0.053862259988908083 0.051813933147370095 0 0.052632352798952439 0.052828962467623877 0 0.053862259988908083 0.051813933147370095 0 0.053495429043201238 0.05193993335649448 0 0.052632352798952439 0.052828962467623877 0 0.053862259988908083 0.051813933147370095 0 0.053495429043201238 0.05193993335649448 0 0.054995756188015173 0.048084783518955343 0 0.055330010033377341 0.04836934926395562 0 0.054999939146361594 0.048074233680598433 0 0.056617785969073332 0.04923511944174596 0 0.056872407485309459 0.048827600646772627 0 0.056728946690926305 0.048482740065053938 0 0.053495429043201238 0.05193993335649448 0 0.053012487858801922 0.052075647183802899 0 0.052632352798952439 0.052828962467623877 0 0.056813373390761562 0.04845430314442932 0 0.056617785969073332 0.04923511944174596 0 0.056728946690926305 0.048482740065053938 0 0.055330010033377341 0.04836934926395562 0 0.055923487399159241 0.048655103411569693 0 0.052632352798952439 0.052828962467623877 0 0.051342258904148216 0.054727339210152583 0 0.053470923672858321 0.053221596309655846 0 0.053012487858801922 0.052075647183802899 0 0.052632352798952439 0.052828962467623877 0 0.053470923672858321 0.053221596309655846 0 0.051342258904148216 0.054727339210152583 0 0.054908510133899024 0.055174706022143818 0 0.053470923672858321 0.053221596309655846 0 0.045315404008143705 0.053818266215292829 0 0.04513480589226547 0.053788003511856197 0 0.053871288731659799 0.053383333692266485 0 0.051342258904148216 0.054727339210152583 0 0.049249398039441096 0.054996669692940738 0 0.053871288731659799 0.053383333692266485 0 0.052632352798952439 0.052828962467623877 0 0.051342258904148216 0.054727339210152583 0 0.051342258904148216 0.054727339210152583 0 0.049249398039441096 0.054996669692940738 0 0.047813076519447301 0.055911943135713425 0 0.049249398039441096 0.054996669692940738 0 0.046491464971806735 0.055264978002429743 0 0.047813076519447301 0.055911943135713425 0 0.049249398039441096 0.054996669692940738 0 0.046491464971806735 0.055264978002429743 0 0.041692898209379596 0.05500093638079407 0 0.046491464971806735 0.055264978002429743 0 0.046196278492450636 0.055910453763878883 0 0.047813076519447301 0.055911943135713425 0 0.0445106740627325 0.053693469368342323 0 0.044490844703868049 0.053672731472782093 0 0.044490844703868049 0.053672731472782093 0 0.04513480589226547 0.053788003511856197 0 0.058430772840389368 0.055406495776465878 0 0.054908510133899024 0.055174706022143818 0 0.057444208547584703 0.051326171936434073 0 0.046491464971806735 0.055264978002429743 0 0.044830706045053577 0.057027453517627599 0 0.041692898209379596 0.05500093638079407 0 0.041695078200206785 0.054999977397816778 0 0.04232927274725639 0.056680962954801205 0 0.040489818080638701 0.056399541479959195 0 0.044830706045053577 0.057027453517627599 0 0.041692898209379596 0.05500093638079407 0 0.042356744913437265 0.056688937064514548 0 0.043061001050904324 0.054075051083467225 0 0.043014831338304228 0.054087189833573489 0 0.041712391773749628 0.05499110466705813 0 0.043061001050904324 0.054075051083467225 0 0.042505661586713796 0.055350718571450359 0 0.044239355674266546 0.055612101403016444 0 0.043678573334213287 0.054132976278663494 0 0.044490844703868049 0.053672731472782093 0 0.043061001050904324 0.054075051083467225 0 0.044490844703868049 0.053672731472782093 0 0.044090549940494085 0.053508532787847438 0 0.042277286465466593 0.05666932422749156 0 0.041705760122701947 0.058042965311825824 0 0.043048631545549707 0.058695105164246447 0 0.043061001050904324 0.054075051083467225 0 0.044090549940494085 0.053508532787847438 0 0.042277286465466593 0.05666932422749156 0 0.041705760122701947 0.058042965311825824 0 0.040489818080638701 0.056399541479959195 0 0.059418165132796713 0.050678378967540329 0 0.059500594269448363 0.049872447556921086 0 0.060064089964453837 0.049977143105448638 0 0.041705760122701947 0.058042965311825824 0 0.043048631545549707 0.058695105164246447 0 0.041517312637737364 0.060280399979115884 0 0.044090549940494085 0.053508532787847438 0 0.044985693411180291 0.051855017918379452 0 0.058430772840389368 0.055406495776465878 0 0.060598804908256226 0.052735041795552273 0 0.057444208547584703 0.051326171936434073 0 0.060598804908256226 0.052735041795552273 0 0.058970798848770517 0.049590966227108631 0 0.057444208547584703 0.051326171936434073 0 0.044090549940494085 0.053508532787847438 0 0.044367250309213548 0.053578823845550586 0 0.059418165132796713 0.050678378967540329 0 0.058970798848770517 0.049590966227108631 0 0.059500594269448363 0.049872447556921086 0 0.058970798848770517 0.049590966227108631 0 0.059287451189719079 0.049472275772171538 0 0.059500594269448363 0.049872447556921086 0 0.059798159306981596 0.049560500177965233 0 0.060064089964453837 0.049977143105448638 0 0.060682738980327909 0.049311974304057621 0 0.059500594269448363 0.049872447556921086 0 0.059798159306981596 0.049560500177965233 0 0.060064089964453837 0.049977143105448638 0 0.059287451189719079 0.049472275772171538 0 0.059798159306981596 0.049560500177965233 0 0.059601427357941099 0.049030742430815281 0 0.059287451189719079 0.049472275772171538 0 0.059500594269448363 0.049872447556921086 0 0.059798159306981596 0.049560500177965233 0 0.054908510133899024 0.055174706022143818 0 0.053470923672858321 0.053221596309655846 0 0.057444208547584703 0.051326171936434073 0 0.055923487399159241 0.048655103411569693 0 0.056253012090709015 0.048782308330264861 0 0.053012487858801922 0.052075647183802899 0 0.053470923672858321 0.053221596309655846 0 0.057444208547584703 0.051326171936434073 0 0.058970798848770517 0.049590966227108631 0 0.057444208547584703 0.051326171936434073 0 0.057299322710086642 0.0494885134047666 0 0.056617785969073332 0.04923511944174596 0 0.057444208547584703 0.051326171936434073 0 0.057299322710086642 0.0494885134047666 0 0.056617785969073332 0.04923511944174596 0 0.057299322710086642 0.0494885134047666 0 0.056872407485309459 0.048827600646772627 0 0.056872407485309459 0.048827600646772627 0 0.057800490885907378 0.048319331822873582 0 0.056749692769806438 0.048220611919876838 0 0.057299322710086642 0.0494885134047666 0 0.056872407485309459 0.048827600646772627 0 0.057800490885907378 0.048319331822873582 0 0.058970798848770517 0.049590966227108631 0 0.057299322710086642 0.0494885134047666 0 0.057800490885907378 0.048319331822873582 0 0.063579781740426278 0.04497637370820512 0 0.065276007904004743 0.043769143276535014 0 0.06332731349789851 0.04283504695837119 0 0.052113281212009435 0.047503375472666358 0 0.053814161754212324 0.046419915258554156 0 0.063579781740426278 0.04497637370820512 0 0.06332731349789851 0.04283504695837119 0 0.061138084635333677 0.044338065370947338 0 0.059798159306981596 0.049560500177965233 0 0.059601427357941099 0.049030742430815281 0 0.060682738980327909 0.049311974304057621 0 0.049158203312766192 0.04837665851261836 0 0.045689074126646148 0.050208429324007507 0 0.059287451189719079 0.049472275772171538 0 0.057800490885907378 0.048319331822873582 0 0.05981116214739822 0.048727340086575796 0 0.052113281212009435 0.047503375472666358 0 0.049158203312766192 0.04837665851261836 0 0.058970798848770517 0.049590966227108631 0 0.059287451189719079 0.049472275772171538 0 0.057800490885907378 0.048319331822873582 0 0.049233730275584635 0.048330680244473748 0 0.049158203312766192 0.04837665851261836 0 0.063579781740426278 0.04497637370820512 0 0.066030649239326084 0.04561882916448258 0 0.065276007904004743 0.043769143276535014 0 0.049158203312766192 0.04837665851261836 0 0.047042007843386593 0.048386360877702636 0 0.066030649239326084 0.04561882916448258 0 0.065276007904004743 0.043769143276535014 0 0.067519652040949646 0.043526842966122525 0 0.065276007904004743 0.043769143276535014 0 0.066818776585423539 0.042029755188640223 0 0.067519652040949646 0.043526842966122525 0 0.065276007904004743 0.043769143276535014 0 0.066818776585423539 0.042029755188640223 0 0.065177215749734327 0.042184324630444435 0 0.065276007904004743 0.043769143276535014 0 0.065177215749734327 0.042184324630444435 0 0.06332731349789851 0.04283504695837119 0 0.065177215749734327 0.042184324630444435 0 0.064173344591631543 0.04102469523245262 0 0.065857011793173895 0.039524218115922709 0 0.066818776585423539 0.042029755188640223 0 0.067426395884344723 0.040484169740937818 0 0.065857011793173895 0.039524218115922709 0 0.066818776585423539 0.042029755188640223 0 0.065177215749734327 0.042184324630444435 0 0.065857011793173895 0.039524218115922709 0 0.06332731349789851 0.04283504695837119 0 0.061298105455268356 0.04228239887783642 0 0.061138084635333677 0.044338065370947338 0 0.06332731349789851 0.04283504695837119 0 0.062723860065176149 0.040962492005563671 0 0.061298105455268356 0.04228239887783642 0 0.065177215749734327 0.042184324630444435 0 0.06332731349789851 0.04283504695837119 0 0.064173344591631543 0.04102469523245262 0 0.06332731349789851 0.04283504695837119 0 0.064173344591631543 0.04102469523245262 0 0.062723860065176149 0.040962492005563671 0 0.064173344591631543 0.04102469523245262 0 0.062723860065176149 0.040962492005563671 0 0.063786127042720048 0.039604914853271563 0 0.062723860065176149 0.040962492005563671 0 0.061298105455268356 0.04228239887783642 0 0.061221727622714973 0.040250849870229186 0 0.061298105455268356 0.04228239887783642 0 0.059564883035147564 0.041193178045272658 0 0.061221727622714973 0.040250849870229186 0 0.060175726576377847 0.042878466110443936 0 0.061298105455268356 0.04228239887783642 0 0.059564883035147564 0.041193178045272658 0 0.060175726576377847 0.042878466110443936 0 0.061298105455268356 0.04228239887783642 0 0.061138084635333677 0.044338065370947338 0 0.055279737495775111 0.04422841443721251 0 0.054746819015984501 0.045192751780801739 0 0.059505471094842097 0.04198962799179249 0 0.057812099400716396 0.043259956344804756 0 0.058497513571343862 0.04502087208643165 0 0.060175726576377847 0.042878466110443936 0 0.059564883035147564 0.041193178045272658 0 0.058703597755879966 0.043704092629109917 0 0.059505471094842097 0.04198962799179249 0 0.057916020944096432 0.042024718698086161 0 0.057812099400716396 0.043259956344804756 0 0.057916020944096432 0.042024718698086161 0 0.056473709334575371 0.042707032417293275 0 0.056634990177238984 0.040303834308455848 0 0.057916020944096432 0.042024718698086161 0 0.056473709334575371 0.042707032417293275 0 0.057812099400716396 0.043259956344804756 0 0.054999972661915628 0.04125052582334586 0 0.056473709334575371 0.042707032417293275 0 0.054999941301602052 0.044153939985431608 0 0.054999972661915628 0.04125052582334586 0 0.056473709334575371 0.042707032417293275 0 0.056634990177238984 0.040303834308455848 0 0.056473709334575371 0.042707032417293275 0 0.054999941301602052 0.044153939985431608 0 0.05672856700433522 0.044553097790642135 0 0.054998605134068235 0.044160243008047627 0 0.054903463174675218 0.044682020567309723 0 0.05672856700433522 0.044553097790642135 0 0.057812099400716396 0.043259956344804756 0 0.058497513571343862 0.04502087208643165 0 0.056473709334575371 0.042707032417293275 0 0.05672856700433522 0.044553097790642135 0 0.057812099400716396 0.043259956344804756 0 0.054903463174675218 0.044682020567309723 0 0.054746819015984501 0.045192751780801739 0 0.054757600447344033 0.045243745045215437 0 0.054746819015984501 0.045192751780801739 0 0.0560735514134666 0.046536316371423102 0 0.056901238787502022 0.04769726002530373 0 0.057816979229108514 0.045571654716860754 0 0.056319950388746196 0.04501066105090399 0 0.0560735514134666 0.046536316371423102 0 0.057816979229108514 0.045571654716860754 0 0.056319950388746196 0.04501066105090399 0 0.0560735514134666 0.046536316371423102 0 0.054999449790371364 0.046114129392835559 0 0.054999977425461352 0.044154616614135583 0 0.056319950388746196 0.04501066105090399 0 0.054999449790371364 0.046114129392835559 0 0.0560735514134666 0.046536316371423102 0 0.054999449790371364 0.046114129392835559 0 0.055000345196221628 0.048071977486805702 0 0.0560735514134666 0.046536316371423102 0 0.055000345196221628 0.048071977486805702 0 0.056901238787502022 0.04769726002530373 0 0.056813373390761562 0.04845430314442932 0 0.055000345196221628 0.048071977486805702 0 0.056901238787502022 0.04769726002530373 0 0.056901238787502022 0.04769726002530373 0 0.056725315221392215 0.048177508801712593 0 0.056728946690926305 0.048482740065053938 0 0.056813373390761562 0.04845430314442932 0 0.056901238787502022 0.04769726002530373 0 0.056728946690926305 0.048482740065053938 0 0.056872407485309459 0.048827600646772627 0 0.056728946690926305 0.048482740065053938 0 0.056749692769806438 0.048220611919876838 0 0.056725315221392215 0.048177508801712593 0 0.056728946690926305 0.048482740065053938 0 0.056749692769806438 0.048220611919876838 0 0.056725315221392215 0.048177508801712593 0 0.056749692769806438 0.048220611919876838 0 0.056786575903113604 0.04825203992679173 0 0.053814161754212324 0.046419915258554156 0 0.054746819015984501 0.045192751780801739 0 0.060175726576377847 0.042878466110443936 0 0.061138084635333677 0.044338065370947338 0 0.058703597755879966 0.043704092629109917 0 0.056901238787502022 0.04769726002530373 0 0.056725315221392215 0.048177508801712593 0 0.056786575903113604 0.04825203992679173 0 0.026465657913138717 0.057164989500904387 0 0.026316303027806406 0.057631808696599007 0 0.026067930068696808 0.057216099358893581 0 0.02671520534771055 0.05754962683637934 0 0.026465657913138717 0.057164989500904387 0 0.026316303027806406 0.057631808696599007 0 0.0304310880891638 0.061363239078536656 0 0.030702157913298139 0.059589131746463124 0 0.02876098241748053 0.059429495174278264 0 0.024179882826615155 0.052742075061705161 0 0.024808912755048967 0.053642487039561482 0 0.030702157913298139 0.059589131746463124 0 0.029577855095220221 0.057284212520516943 0 0.03185565697682613 0.058101841532932498 0 0.030702157913298139 0.059589131746463124 0 0.02876098241748053 0.059429495174278264 0 0.029577855095220221 0.057284212520516943 0 0.024808912755048967 0.053642487039561482 0 0.025066176792534752 0.054023359670590992 0 0.02876098241748053 0.059429495174278264 0 0.029577855095220221 0.057284212520516943 0 0.027049157169854472 0.057386289212729057 0 0.028192368275482806 0.056371294880291849 0 0.029577855095220221 0.057284212520516943 0 0.027049157169854472 0.057386289212729057 0 0.028192368275482806 0.056371294880291849 0 0.027506898440161798 0.054999835058516564 0 0.030344713188052971 0.055000014039283444 0 0.028192368275482806 0.056371294880291849 0 0.027506898440161798 0.054999835058516564 0 0.02702191783136278 0.055993485739991376 0 0.028192368275482806 0.056371294880291849 0 0.030344713188052971 0.055000014039283444 0 0.029577855095220221 0.057284212520516943 0 0.030344713188052971 0.055000014039283444 0 0.029577855095220221 0.057284212520516943 0 0.031708142049427249 0.056377495131702211 0 0.029577855095220221 0.057284212520516943 0 0.03185565697682613 0.058101841532932498 0 0.031708142049427249 0.056377495131702211 0 0.03185565697682613 0.058101841532932498 0 0.031708142049427249 0.056377495131702211 0 0.033483738545086711 0.056982874588056086 0 0.030344713188052971 0.055000014039283444 0 0.031708142049427249 0.056377495131702211 0 0.033182202455055342 0.054999972108988708 0 0.031708142049427249 0.056377495131702211 0 0.033182202455055342 0.054999972108988708 0 0.033483738545086711 0.056982874588056086 0 0.033182202455055342 0.054999972108988708 0 0.033483738545086711 0.056982874588056086 0 0.036019803674129797 0.05499996940827722 0 0.03185565697682613 0.058101841532932498 0 0.033483738545086711 0.056982874588056086 0 0.03333372713553414 0.059362774998614969 0 0.033483738545086711 0.056982874588056086 0 0.03333372713553414 0.059362774998614969 0 0.035414172844974882 0.057555642113649767 0 0.030702157913298139 0.059589131746463124 0 0.03185565697682613 0.058101841532932498 0 0.03333372713553414 0.059362774998614969 0 0.030702157913298139 0.059589131746463124 0 0.03333372713553414 0.059362774998614969 0 0.032479404175489598 0.061282142119421651 0 0.0304310880891638 0.061363239078536656 0 0.030702157913298139 0.059589131746463124 0 0.032479404175489598 0.061282142119421651 0 0.03333372713553414 0.059362774998614969 0 0.032479404175489598 0.061282142119421651 0 0.034075492232872186 0.061197339315016162 0 0.034075492232872186 0.061197339315016162 0 0.035292382143517938 0.060033832820536023 0 0.035061269493435 0.062262747601199347 0 0.03333372713553414 0.059362774998614969 0 0.034075492232872186 0.061197339315016162 0 0.035292382143517938 0.060033832820536023 0 0.041894615610729102 0.054345658443629707 0 0.042155785160564979 0.053522486869794925 0 0.035588453560133584 0.060190283769190743 0 0.037156452902393618 0.06127875199671836 0 0.037114035244586854 0.059198497551629599 0 0.037156452902393618 0.06127875199671836 0 0.037114035244586854 0.059198497551629599 0 0.038327214453442372 0.06029883014905181 0 0.035588453560133584 0.060190283769190743 0 0.037156452902393618 0.06127875199671836 0 0.035724358557051986 0.062766317238892505 0 0.03333372713553414 0.059362774998614969 0 0.035292382143517938 0.060033832820536023 0 0.035414172844974882 0.057555642113649767 0 0.035588453560133584 0.060190283769190743 0 0.037114035244586854 0.059198497551629599 0 0.035414172844974882 0.057555642113649767 0 0.041894615610729102 0.054345658443629707 0 0.041806334094715202 0.054546882191189965 0 0.033483738545086711 0.056982874588056086 0 0.035414172844974882 0.057555642113649767 0 0.036019803674129797 0.05499996940827722 0 0.035414172844974882 0.057555642113649767 0 0.036019803674129797 0.05499996940827722 0 0.037525406975656456 0.057055262211842261 0 0.036019803674129797 0.05499996940827722 0 0.037525406975656456 0.057055262211842261 0 0.038857489040577273 0.05499999081992811 0 0.037114035244586854 0.059198497551629599 0 0.037525406975656456 0.057055262211842261 0 0.038646819619428521 0.0587494983213806 0 0.037114035244586854 0.059198497551629599 0 0.035414172844974882 0.057555642113649767 0 0.037525406975656456 0.057055262211842261 0 0.037525406975656456 0.057055262211842261 0 0.039162523076748078 0.057145647222956147 0 0.038646819619428521 0.0587494983213806 0 0.039162523076748078 0.057145647222956147 0 0.040284476399944154 0.058519365470189953 0 0.038646819619428521 0.0587494983213806 0 0.039162523076748078 0.057145647222956147 0 0.038857489040577273 0.05499999081992811 0 0.040489818080638701 0.056399541479959195 0 0.037525406975656456 0.057055262211842261 0 0.039162523076748078 0.057145647222956147 0 0.038857489040577273 0.05499999081992811 0 0.041695078200206785 0.054999977397816778 0 0.038857489040577273 0.05499999081992811 0 0.040489818080638701 0.056399541479959195 0 0.041705760122701947 0.058042965311825824 0 0.040489818080638701 0.056399541479959195 0 0.040284476399944154 0.058519365470189953 0 0.039162523076748078 0.057145647222956147 0 0.040489818080638701 0.056399541479959195 0 0.040284476399944154 0.058519365470189953 0 0.041517312637737364 0.060280399979115884 0 0.040284476399944154 0.058519365470189953 0 0.039816792321979169 0.060189228664430723 0 0.041705760122701947 0.058042965311825824 0 0.041517312637737364 0.060280399979115884 0 0.040284476399944154 0.058519365470189953 0 0.040284476399944154 0.058519365470189953 0 0.038646819619428521 0.0587494983213806 0 0.039816792321979169 0.060189228664430723 0 0.037114035244586854 0.059198497551629599 0 0.038646819619428521 0.0