<?xml version="1.0"?>
<VTKFile type="UnstructuredGrid" version="0.1" byte_order="LittleEndian">
<UnstructuredGrid>
<Piece NumberOfPoints="31898" NumberOfCells="11152">
<Points>
<DataArray type="Float64" NumberOfComponents="3" format="ascii">
-0.5 -0.5 0 -0.47620991077874902 -0.44978878706170539 0 -0.49999999999999473 -0.42132396840504388 0 -0.5 -0.5 0 -0.47160970827802529 -0.4793630013852106 0 -0.47620991077874902 -0.44978878706170539 0 -0.5 -0.5 0 -0.47160970827802529 -0.4793630013852106 0 -0.44860394795025399 -0.5 0 -0.47160970827802529 -0.4793630013852106 0 -0.44860394795025399 -0.5 0 -0.4490820238307246 -0.45820516232899983 0 -0.44860394795025399 -0.5 0 -0.4490820238307246 -0.45820516232899983 0 -0.42881687682924802 -0.47781464288736519 0 -0.4490820238307246 -0.45820516232899983 0 -0.45555437223955858 -0.42914059360647611 0 -0.4490820238307246 -0.45820516232899983 0 -0.45555437223955858 -0.42914059360647611 0 -0.43867285131603428 -0.4271457417558665 0 -0.4490820238307246 -0.45820516232899983 0 -0.43867285131603428 -0.4271457417558665 0 -0.4263356171060747 -0.44269880333887462 0 -0.47160970827802529 -0.4793630013852106 0 -0.4490820238307246 -0.45820516232899983 0 -0.47620991077874902 -0.44978878706170539 0 -0.4490820238307246 -0.45820516232899983 0 -0.47620991077874902 -0.44978878706170539 0 -0.45555437223955858 -0.42914059360647611 0 -0.47620991077874902 -0.44978878706170539 0 -0.48101336032419229 -0.41069999664450008 0 -0.45555437223955858 -0.42914059360647611 0 -0.47620991077874902 -0.44978878706170539 0 -0.49999999999999473 -0.42132396840504388 0 -0.48101336032419229 -0.41069999664450008 0 -0.49999999999999473 -0.42132396840504388 0 -0.48101336032419229 -0.41069999664450008 0 -0.5 -0.393886241813306 0 -0.49999999999999473 -0.42132396840504388 0 -0.48101336032419229 -0.41069999664450008 0 -0.5 -0.393886241813306 0 -0.47854472220918332 -0.38978458738689759 0 -0.48422759779560409 -0.37130120630367158 0 -0.5 -0.393886241813306 0 -0.5 -0.36644851522156802 0 -0.48422759779560409 -0.37130120630367158 0 -0.48101336032419229 -0.41069999664450008 0 -0.5 -0.393886241813306 0 -0.47854472220918332 -0.38978458738689759 0 -0.48101336032419229 -0.41069999664450008 0 -0.47854472220918332 -0.38978458738689759 0 -0.46202672064839212 -0.40007602488395211 0 -0.48101336032419229 -0.41069999664450008 0 -0.46202672064839212 -0.40007602488395211 0 -0.47854472220918332 -0.38978458738689759 0 -0.46725442735267431 -0.37660061361585562 0 -0.46202672064839212 -0.40007602488395211 0 -0.47854472220918332 -0.38978458738689759 0 -0.46725442735267431 -0.37660061361585562 0 -0.48422759779560409 -0.37130120630367158 0 -0.46725442735267431 -0.37660061361585562 0 -0.46202672064839212 -0.40007602488395211 0 -0.46725442735267431 -0.37660061361585562 0 -0.45645674801697989 -0.38644133236760531 0 -0.46202672064839212 -0.40007602488395211 0 -0.46725442735267431 -0.37660061361585562 0 -0.45645674801697989 -0.38644133236760531 0 -0.4540003998136638 -0.37455519391687309 0 -0.45645674801697989 -0.38644133236760531 0 -0.46202672064839212 -0.40007602488395211 0 -0.44257020456291563 -0.38918913383950271 0 -0.46202672064839212 -0.40007602488395211 0 -0.44257020456291563 -0.38918913383950271 0 -0.44727608925983742 -0.41095911152778891 0 -0.46202672064839212 -0.40007602488395211 0 -0.44257020456291563 -0.38918913383950271 0 -0.44257020456291563 -0.38918913383950271 0 -0.44727608925983742 -0.41095911152778891 0 -0.43479358559901082 -0.4041454901736512 0 -0.44257020456291563 -0.38918913383950271 0 -0.4540003998136638 -0.37455519391687309 0 -0.44172858264042247 -0.37082207246888088 0 -0.45645674801697989 -0.38644133236760531 0 -0.44257020456291563 -0.38918913383950271 0 -0.4540003998136638 -0.37455519391687309 0 -0.46202672064839212 -0.40007602488395211 0 -0.45555437223955858 -0.42914059360647611 0 -0.44727608925983742 -0.41095911152778891 0 -0.46202672064839212 -0.40007602488395211 0 -0.45555437223955858 -0.42914059360647611 0 -0.48101336032419229 -0.41069999664450008 0 -0.46202672064839212 -0.40007602488395211 0 -0.45555437223955858 -0.42914059360647611 0 -0.44727608925983742 -0.41095911152778891 0 -0.43867285131603428 -0.4271457417558665 0 -0.43676601469929588 -0.41441201227470881 0 -0.44727608925983742 -0.41095911152778891 0 -0.43676601469929588 -0.41441201227470881 0 -0.43479358559901082 -0.4041454901736512 0 -0.45555437223955858 -0.42914059360647611 0 -0.44727608925983742 -0.41095911152778891 0 -0.43867285131603428 -0.4271457417558665 0 -0.43867285131603428 -0.4271457417558665 0 -0.42681803064840879 -0.42717069814352421 0 -0.4263356171060747 -0.44269880333887462 0 -0.42681803064840879 -0.42717069814352421 0 -0.41531815884496182 -0.42985383783075998 0 -0.4263356171060747 -0.44269880333887462 0 -0.42681803064840879 -0.42717069814352421 0 -0.42624289495594048 -0.42089725947505818 0 -0.42083332353326591 -0.42146747131641099 0 -0.42681803064840879 -0.42717069814352421 0 -0.43096994786351572 -0.41951492446283251 0 -0.42624289495594048 -0.42089725947505818 0 -0.43867285131603428 -0.4271457417558665 0 -0.42681803064840879 -0.42717069814352421 0 -0.43096994786351572 -0.41951492446283251 0 -0.43867285131603428 -0.4271457417558665 0 -0.43676601469929588 -0.41441201227470881 0 -0.43096994786351572 -0.41951492446283251 0 -0.43676601469929588 -0.41441201227470881 0 -0.43096994786351572 -0.41951492446283251 0 -0.42907264086257813 -0.41311715872526122 0 -0.43676601469929588 -0.41441201227470881 0 -0.42907264086257813 -0.41311715872526122 0 -0.43479358559901082 -0.4041454901736512 0 -0.42907264086257813 -0.41311715872526122 0 -0.43479358559901082 -0.4041454901736512 0 -0.42460885511582858 -0.40417321677700252 0 -0.42907264086257813 -0.41311715872526122 0 -0.41997834854398469 -0.41180534796019508 0 -0.42907264086257813 -0.41311715872526122 0 -0.42635027777857132 -0.41543594397746519 0 -0.41997834854398469 -0.41180534796019508 0 -0.42907264086257813 -0.41311715872526122 0 -0.41997834854398469 -0.41180534796019508 0 -0.42460885511582858 -0.40417321677700252 0 -0.42635027777857132 -0.41543594397746519 0 -0.41997834854398469 -0.41180534796019508 0 -0.42635027777857132 -0.41543594397746519 0 -0.42083332353326591 -0.42146747131641099 0 -0.41997834854398469 -0.41180534796019508 0 -0.43096994786351572 -0.41951492446283251 0 -0.42624289495594048 -0.42089725947505818 0 -0.42635027777857132 -0.41543594397746519 0 -0.43096994786351572 -0.41951492446283251 0 -0.42907264086257813 -0.41311715872526122 0 -0.42635027777857132 -0.41543594397746519 0 -0.42624289495594048 -0.42089725947505818 0 -0.42635027777857132 -0.41543594397746519 0 -0.42083332353326591 -0.42146747131641099 0 -0.42083332353326591 -0.42146747131641099 0 -0.41997834854398469 -0.41180534796019508 0 -0.40992282953163789 -0.42011435591993562 0 -0.41997834854398469 -0.41180534796019508 0 -0.39756877647335259 -0.40857286797681719 0 -0.41997834854398469 -0.41180534796019508 0 -0.40992282953163789 -0.42011435591993562 0 -0.39756877647335259 -0.40857286797681719 0 -0.40992282953163789 -0.42011435591993562 0 -0.41531815884496182 -0.42985383783075998 0 -0.39591554026262499 -0.42887225451549271 0 -0.41531815884496182 -0.42985383783075998 0 -0.39591554026262499 -0.42887225451549271 0 -0.41160927495564159 -0.44339431233754628 0 -0.42083332353326591 -0.42146747131641099 0 -0.40992282953163789 -0.42011435591993562 0 -0.41531815884496182 -0.42985383783075998 0 -0.42681803064840879 -0.42717069814352421 0 -0.42083332353326591 -0.42146747131641099 0 -0.41531815884496182 -0.42985383783075998 0 -0.44257020456291563 -0.38918913383950271 0 -0.42311368847744002 -0.37830224279505142 0 -0.42594061475171041 -0.39368797999533162 0 -0.44257020456291563 -0.38918913383950271 0 -0.42311368847744002 -0.37830224279505142 0 -0.44172858264042247 -0.37082207246888088 0 -0.44257020456291563 -0.38918913383950271 0 -0.42311368847744002 -0.37830224279505142 0 -0.42311368847744002 -0.37830224279505142 0 -0.42594061475171041 -0.39368797999533162 0 -0.416587075656149 -0.38785930376960043 0 -0.44257020456291563 -0.38918913383950271 0 -0.42594061475171041 -0.39368797999533162 0 -0.43479358559901082 -0.4041454901736512 0 -0.42594061475171041 -0.39368797999533162 0 -0.43479358559901082 -0.4041454901736512 0 -0.42460885511582858 -0.40417321677700252 0 -0.41997834854398469 -0.41180534796019508 0 -0.41325908582185972 -0.39811010703057192 0 -0.39770572831670092 -0.39911486077581648 0 -0.41997834854398469 -0.41180534796019508 0 -0.39770572831670092 -0.39911486077581648 0 -0.42594061475171041 -0.39368797999533162 0 -0.42460885511582858 -0.40417321677700252 0 -0.41325908582185972 -0.39811010703057192 0 -0.41997834854398469 -0.41180534796019508 0 -0.42460885511582858 -0.40417321677700252 0 -0.41325908582185972 -0.39811010703057192 0 -0.42594061475171041 -0.39368797999533162 0 -0.41325908582185972 -0.39811010703057192 0 -0.416587075656149 -0.38785930376960043 0 -0.41325908582185972 -0.39811010703057192 0 -0.416587075656149 -0.38785930376960043 0 -0.40403491357358612 -0.38133688525744702 0 -0.42311368847744002 -0.37830224279505142 0 -0.40403491357358612 -0.38133688525744702 0 -0.40365717239196519 -0.36741535175059892 0 -0.42311368847744002 -0.37830224279505142 0 -0.416587075656149 -0.38785930376960043 0 -0.40403491357358612 -0.38133688525744702 0 -0.40403491357358612 -0.38133688525744702 0 -0.39190790742475001 -0.38540387676521748 0 -0.39770572831670092 -0.39911486077581648 0 -0.40403491357358612 -0.38133688525744702 0 -0.39190790742475001 -0.38540387676521748 0 -0.3904578797192948 -0.37473938743617019 0 -0.41325908582185972 -0.39811010703057192 0 -0.40403491357358612 -0.38133688525744702 0 -0.39770572831670092 -0.39911486077581648 0 -0.39770572831670092 -0.39911486077581648 0 -0.37543310808941849 -0.38642437359143528 0 -0.39770572831670092 -0.39911486077581648 0 -0.37515920440272033 -0.40534038799344108 0 -0.37543310808941849 -0.38642437359143528 0 -0.39770572831670092 -0.39911486077581648 0 -0.37515920440272033 -0.40534038799344108 0 -0.39756877647335259 -0.40857286797681719
[...]
<PointData Scalars="" Vectors="displacement," Tensors="">
<DataArray type="Float64" Name="displacement" NumberOfComponents="3" format="ascii">
0.034997120334374215 2.6772196401233375e-07 0 0.034114525940974492 0.00017771960157708511 0 0.034997656496407591 7.4136441091351558e-07 0 0.034997120334374215 2.6772196401233375e-07 0 0.033468221622244172 0.00011778761509685424 0 0.034114525940974492 0.00017771960157708511 0 0.034997120334374215 2.6772196401233375e-07 0 0.033468221622244172 0.00011778761509685424 0 0.031404210564702932 2.5958988022520727e-07 0 0.033468221622244172 0.00011778761509685424 0 0.031404210564702932 2.5958988022520727e-07 0 0.032844400399725644 -8.2285855394614423e-05 0 0.031404210564702932 2.5958988022520727e-07 0 0.032844400399725644 -8.2285855394614423e-05 0 0.031208798212722461 6.7408339517904001e-05 0 0.033174431208371193 -0.00021907912145190933 0 0.033347269150404896 -0.00021981831138915303 0 0.032844400399725644 -8.2285855394614423e-05 0 0.032238833058047395 -0.00034878662286569903 0 0.032183619811138729 -0.00011216836486099062 0 0.032844400399725644 -8.2285855394614423e-05 0 0.032183619811138729 -0.00011216836486099062 0 0.032238024793396658 -1.0815470497621737e-05 0 0.033468221622244172 0.00011778761509685424 0 0.032844400399725644 -8.2285855394614423e-05 0 0.034114525940974492 0.00017771960157708511 0 0.032844400399725644 -8.2285855394614423e-05 0 0.034114525940974492 0.00017771960157708511 0 0.034443388726214351 -0.00027108710981355987 0 0.034114525940974492 0.00017771960157708511 0 0.034884728996395595 2.8579360097853207e-05 0 0.034443388726214351 -0.00027108710981355987 0 0.034114525940974492 0.00017771960157708511 0 0.034997656496407591 7.4136441091351558e-07 0 0.034884728996395595 2.8579360097853207e-05 0 0.034999998808932058 -9.987765733388598e-11 0 0.034998520916504711 4.2112126332768918e-07 0 0.03499999819116955 5.4021849005506305e-10 0 0.034998922670310371 -4.2395226513173733e-07 0 0.034467100378814529 -0.00013530485975914335 0 0.03499999819116955 5.4021849005506305e-10 0 0.034998253755788564 7.6783440210225852e-07 0 0.034999259597117909 1.2532243881626461e-06 0 0.03499999819116955 5.4021849005506305e-10 0 0.034999997017938482 1.896179547578819e-09 0 0.034999259597117909 1.2532243881626461e-06 0 0.034998520916504711 4.2112126332768918e-07 0 0.03499999819116955 5.4021849005506305e-10 0 0.034998253755788564 7.6783440210225852e-07 0 0.034998520916504711 4.2112126332768918e-07 0 0.034998253755788564 7.6783440210225852e-07 0 0.034996348813466638 6.031612156477168e-07 0 0.034467100378814529 -0.00013530485975914335 0 0.03364604315254225 -0.00016069626287863024 0 0.034998253755788564 7.6783440210225852e-07 0 0.034997837523995302 8.282982836878277e-07 0 0.034996348813466638 6.031612156477168e-07 0 0.034998253755788564 7.6783440210225852e-07 0 0.034997837523995302 8.282982836878277e-07 0 0.034999259597117909 1.2532243881626461e-06 0 0.034174098086439064 -6.6987496629535362e-05 0 0.03364604315254225 -0.00016069626287863024 0 0.033485721191257638 -0.00014621696282624618 0 0.033302507391931371 -0.00036238827385450391 0 0.033041816668775564 -0.0002565199755694647 0 0.033485721191257638 -0.00014621696282624618 0 0.033302507391931371 -0.00036238827385450391 0 0.033535821193042173 -0.00041464149258639142 0 0.033302507391931371 -0.00036238827385450391 0 0.033041816668775564 -0.0002565199755694647 0 0.033254367512832866 -0.00062904879747857612 0 0.031923888255025519 -0.00040892616340933521 0 0.031803245193947983 -0.00021019334823204865 0 0.032040630659268453 -0.00024662156514911797 0 0.03364604315254225 -0.00016069626287863024 0 0.032781256471300625 -0.00037881091966102798 0 0.031803245193947983 -0.00021019334823204865 0 0.032040630659268453 -0.00024662156514911797 0 0.031973237882125173 -0.00012457110546280144 0 0.033254367512832866 -0.00062904879747857612 0 0.033535821193042173 -0.00041464149258639142 0 0.033606538728918535 -0.00064609386525860384 0 0.033302507391931371 -0.00036238827385450391 0 0.033254367512832866 -0.00062904879747857612 0 0.033535821193042173 -0.00041464149258639142 0 0.031923888255025519 -0.00040892616340933521 0 0.032238833058047395 -0.00034878662286569903 0 0.032040630659268453 -0.00024662156514911797 0 0.03364604315254225 -0.00016069626287863024 0 0.033347269150404896 -0.00021981831138915303 0 0.034884728996395595 2.8579360097853207e-05 0 0.035007302789719641 -0.00024169948185927663 0 0.034443388726214351 -0.00027108710981355987 0 0.032040630659268453 -0.00024662156514911797 0 0.032183619811138729 -0.00011216836486099062 0 0.032089083477502264 -0.00013523851880362783 0 0.032040630659268453 -0.00024662156514911797 0 0.032089083477502264 -0.00013523851880362783 0 0.031973237882125173 -0.00012457110546280144 0 0.032238833058047395 -0.00034878662286569903 0 0.032040630659268453 -0.00024662156514911797 0 0.032183619811138729 -0.00011216836486099062 0 0.032183619811138729 -0.00011216836486099062 0 0.032182910513104464 -6.7543948447252729e-05 0 0.032238024793396658 -1.0815470497621737e-05 0 0.032182910513104464 -6.7543948447252729e-05 0 0.032188828474385381 -0.00011171293840721285 0 0.032238024793396658 -1.0815470497621737e-05 0 0.032182910513104464 -6.7543948447252729e-05 0 0.032157294537705071 -7.2396293332285913e-05 0 0.032166946829699554 -8.4454321006230916e-05 0 0.032182910513104464 -6.7543948447252729e-05 0 0.032143520845750846 -8.6667498999939502e-05 0 0.032157294537705071 -7.2396293332285913e-05 0 0.032183619811138729 -0.00011216836486099062 0 0.032182910513104464 -6.7543948447252729e-05 0 0.032143520845750846 -8.6667498999939502e-05 0 0.032183619811138729 -0.00011216836486099062 0 0.032089083477502264 -0.00013523851880362783 0 0.032143520845750846 -8.6667498999939502e-05 0 0.032089083477502264 -0.00013523851880362783 0 0.032143520845750846 -8.6667498999939502e-05 0 0.032095024779689556 -7.3746300019525494e-05 0 0.032089083477502264 -0.00013523851880362783 0 0.032095024779689556 -7.3746300019525494e-05 0 0.031973237882125173 -0.00012457110546280144 0 0.032095024779689556 -7.3746300019525494e-05 0 0.031973237882125173 -0.00012457110546280144 0 0.031972397370580344 -9.7715418420183547e-06 0 0.028895656096046426 -0.00081664049381170516 0 0.028790890216443613 -0.00087357645891956428 0 0.032095024779689556 -7.3746300019525494e-05 0 0.032133760801879921 -6.0150585976923585e-05 0 0.032101951420498306 -5.4218662404328458e-06 0 0.032095024779689556 -7.3746300019525494e-05 0 0.0320684601701825 4.6731301870757731e-05 0 0.031972397370580344 -9.7715418420183547e-06 0 0.028890741493610487 -0.00090698798208315064 0 0.028790890216443613 -0.00087357645891956428 0 0.032133760801879921 -6.0150585976923585e-05 0 0.032166946829699554 -8.4454321006230916e-05 0 0.032175149673459649 -8.9151460104176222e-05 0 0.032143520845750846 -8.6667498999939502e-05 0 0.032157294537705071 -7.2396293332285913e-05 0 0.032133760801879921 -6.0150585976923585e-05 0 0.032143520845750846 -8.6667498999939502e-05 0 0.032095024779689556 -7.3746300019525494e-05 0 0.032133760801879921 -6.0150585976923585e-05 0 0.032157294537705071 -7.2396293332285913e-05 0 0.032133760801879921 -6.0150585976923585e-05 0 0.032166946829699554 -8.4454321006230916e-05 0 0.032166946829699554 -8.4454321006230916e-05 0 0.032175149673459649 -8.9151460104176222e-05 0 0.032174481329156249 -0.00011720309287968858 0 0.028790890216443613 -0.00087357645891956428 0 0.028019335258035984 -0.00068652735420207819 0 0.032175149673459649 -8.9151460104176222e-05 0 0.032174481329156249 -0.00011720309287968858 0 0.032187327591985233 -0.00014888173743963837 0 0.032174481329156249 -0.00011720309287968858 0 0.032188828474385381 -0.00011171293840721285 0 0.032161319994962391 -0.00015800941576680233 0 0.032188828474385381 -0.00011171293840721285 0 0.032161319994962391 -0.00015800941576680233 0 0.032167067756337361 -0.00018016198994072664 0 0.032166946829699554 -8.4454321006230916e-05 0 0.032174481329156249 -0.00011720309287968858 0 0.032188828474385381 -0.00011171293840721285 0 0.032182910513104464 -6.7543948447252729e-05 0 0.032166946829699554 -8.4454321006230916e-05 0 0.032188828474385381 -0.00011171293840721285 0 0.031803245193947983 -0.00021019334823204865 0 0.031652500660490454 7.8626555901455577e-06 0 0.031844335151585287 -2.4228819750333595e-05 0 0.033254367512832866 -0.00062904879747857612 0 0.033464616093674522 -0.00098749638175015799 0 0.033606538728918535 -0.00064609386525860384 0 0.032781256471300625 -0.00037881091966102798 0 0.032109453414384918 -0.0007314181326212721 0 0.031652500660490454 7.8626555901455577e-06 0 0.031844335151585287 -2.4228819750333595e-05 0 0.03176586355038221 8.6432918109361393e-05 0 0.031803245193947983 -0.00021019334823204865 0 0.031844335151585287 -2.4228819750333595e-05 0 0.031973237882125173 -0.00012457110546280144 0 0.031844335151585287 -2.4228819750333595e-05 0 0.031973237882125173 -0.00012457110546280144 0 0.031972397370580344 -9.7715418420183547e-06 0 0.0320684601701825 4.6731301870757731e-05 0 0.031893479425309068 0.00012788114378940835 0 0.031902477511276436 0.00032208061444463225 0 0.028790890216443613 -0.00087357645891956428 0 0.028138268542097392 -0.00097072925563722768 0 0.031844335151585287 -2.4228819750333595e-05 0 0.031972397370580344 -9.7715418420183547e-06 0 0.031893479425309068 0.00012788114378940835 0 0.0320684601701825 4.6731301870757731e-05 0 0.031972397370580344 -9.7715418420183547e-06 0 0.031893479425309068 0.00012788114378940835 0 0.031844335151585287 -2.4228819750333595e-05 0 0.031893479425309068 0.00012788114378940835 0 0.03176586355038221 8.6432918109361393e-05 0 0.031893479425309068 0.00012788114378940835 0 0.03176586355038221 8.6432918109361393e-05 0 0.031673749748695246 0.00023568450918843063 0 0.031652500660490454 7.8626555901455577e-06 0 0.031673749748695246 0.00023568450918843063 0 0.031511086313047616 0.00023792278652960688 0 0.031652500660490454 7.8626555901455577e-06 0 0.03176586355038221 8.6432918109361393e-05 0 0.031673749748695246 0.00023568450918843063 0 0.031673749748695246 0.00023568450918843063 0 0.031718117431894829 0.00040216973033489653 0 0.031902477511276436 0.00032208061444463225 0 0.031673749748695246 0.00023568450918843063 0 0.031718117431894829 0.00040216973033489653 0 0.031567854075434346 0.00042278631163593985 0 0.031893479425309068 0.00012788114378940835 0 0.031673749748695246 0.00023568450918843063 0 0.031902477511276436 0.00032208061444463225 0 0.028138268542097392 -0.00097072925563722768 0 0.026395176476510573 -0.0011193067666699708 0 0.027461159339738622 -0.00086292116771756098 0 0.027552646279847721 -0.0005213476009085649 0 0.027265759151731437 -0.0005259001043259082 0 0.027461159339738622 -0.00086292116771756098 0 0.027552646279847721 -0.0005213476009085649 0 0.027604821624741788 -0.00086067890509058205 0 0.026400315516814554 -0.00042747415698976175 0 0.026395176476510573 -0.0011193067666699708 0 0.031725917386091172 0.00063083599128114858 0 0.031567854075434346 0.00042278631163593985 0 0.031482292374818963 0.00063180970975423531 0 0.031718117431894829 0.00040216973033489653 0 0.031725917386091172 0.00063083599128114858 0 0.031567854075434346 0.00042278631163593985 0 0.026395176476510573 -0.0011193067666699708 0 0.027957722360389875 -0.0010313957423021517 0 0.031718117431894829 0.00040216973033489653 0 0.031902477511276436 0.00032208061444463225 0 0.031725917386091172 0.00063083599128114858 0 0.027658366960285865 -0.0011994326146305117 0 0.027461159339738622 -0.00086292116771756098 0 0.027604821624741788 -0.00086067890509058205 0 0.032174481329156249 -0.00011720309287968858 0 0.032161319994962391 -0.00015800941576680233 0 0.032187327591985233 -0.00014888173743963837 0 0.032177801454730211 -0.00018158682626512597 0 0.032161319994962391 -0.00015800941576680233 0 0.032187327591985233 -0.00014888173743963837 0 0.026400315516814554 -0.00042747415698976175 0 0.028019335258035984 -0.00068652735420207819 0 0.032177801454730211 -0.00018158682626512597 0 0.032161319994962391 -0.00015800941576680233 0 0.032148470896372405 -0.00018384123902500177 0 0.032161319994962391 -0.00015800941576680233 0 0.032148335476965544 -0.00017029081595537764 0 0.032148470896372405 -0.00018384123902500177 0 0.032148335476965544 -0.00017029081595537764 0 0.032117941737831598 -0.00018966830343384005 0 0.032148470896372405 -0.00018384123902500177 0 0.032161319994962391 -0.00015800941576680233 0 0.032148335476965544 -0.00017029081595537764 0 0.032167067756337361 -0.00018016198994072664 0 0.032148335476965544 -0.00017029081595537764 0 0.032143487607712823 -0.00017027969687170524 0 0.032167067756337361 -0.00018016198994072664 0 0.0316843165330832 -0.00062037585353270409 0 0.02970273286161482 -0.00073457969055399557 0 0.031066640220885029 -0.00021332762302435045 0 0.023767643688861816 -0.0016571121368922257 0 0.023979232596105637 -0.00085271022805218847 0 0.024924364637721293 -0.0010489888136904493 0 0.028304653790880898 0.00056209846729980868 0 0.027402423774591539 4.3502124515683942e-05 0 0.028304653790880898 0.00056209846729980868 0 0.028313987588625134 0.0005586698117901732 0 0.028304653790880898 0.00056209846729980868 0 0.027540497910376223 -0.00017612503940680387 0 0.032148335476965544 -0.00017029081595537764 0 0.032143487607712823 -0.00017027969687170524 0 0.032129486793999212 -0.00017527790300399869 0 0.032148335476965544 -0.00017029081595537764 0 0.032129486793999212 -0.00017527790300399869 0 0.032117941737831598 -0.00018966830343384005 0 0.027540497910376223 -0.00017612503940680387 0 0.02670953136640427 -0.00072482910321820262 0 0.023979232596105637 -0.00085271022805218847 0 0.024526494991541619 -0.00055683307928541153 0 0.024193313440764815 -2.7638965687002655e-05 0 0.024526494991541619 -0.00055683307928541153 0 0.024924364637721293 -0.0010489888136904493 0 0.024839955083594 -7.6594937821258943e-06 0 0.024924364637721293 -0.0010489888136904493 0 0.025531080994559689 0.00012675795482954507 0 0.024839955083594 -7.6594937821258943e-06 0 0.024526494991541619 -0.00055683307928541153 0 0.024839955083594 -7.6594937821258943e-06 0 0.024193313440764815 -2.7638965687002655e-05 0 0.023979232596105637 -0.00085271022805218847 0 0.024526494991541619 -0.00055683307928541153 0 0.024924364637721293 -0.0010489888136904493 0 0.026667562613235211 -1.9152834945251784e-07 0 0.027402423774591539 4.3502124515683942e-05 0 0.026663346807475685 -1.7923262107602588e-06 0 0.024924364637721293 -0.0010489888136904493 0 0.025531080994559689 0.00012675795482954507 0 0.026669736938708478 -2.8288842814269937e-06 0 0.02970273286161482 -0.00073457969055399557 0 0.028698737989604931 5.0586783756505325e-07 0 0.02970273286161482 -0.00073457969055399557 0 0.031066640220885029 -0.00021332762302435045 0 0.028698737989604931 5.0586783756505325e-07 0 0.031066640220885029 -0.00021332762302435045 0 0.028698737989604931 5.0586783756505325e-07 0 0.031208798212722461 6.7408339517904001e-05 0 0.031404210564702932 2.5958988022520727e-07 0 0.028698737989604931 5.0586783756505325e-07 0 0.031208798212722461 6.7408339517904001e-05 0 0.031066640220885029 -0.00021332762302435045 0 0.031208798212722461 6.7408339517904001e-05 0 0.031935200335601953 -2.5233594470637932e-05 0 0.032844400399725644 -8.2285855394614423e-05 0 0.031208798212722461 6.7408339517904001e-05 0 0.031935200335601953 -2.5233594470637932e-05 0 0.032844400399725644 -8.2285855394614423e-05 0 0.031935200335601953 -2.5233594470637932e-05 0 0.032238024793396658 -1.0815470497621737e-05 0 0.031935200335601953 -2.5233594470637932e-05 0 0.032238024793396658 -1.0815470497621737e-05 0 0.031941631525559011 -0.00014182160992507934 0 0.032238024793396658 -1.0815470497621737e-05 0 0.032167067756337361 -0.00018016198994072664 0 0.031941631525559011 -0.00014182160992507934 0 0.032188828474385381 -0.00011171293840721285 0 0.032238024793396658 -1.0815470497621737e-05 0 0.032167067756337361 -0.00018016198994072664 0 0.031725005103786681 -0.00059061661672488001 0 0.032167067756337361 -0.00018016198994072664 0 0.031744651602024658 -0.0004882393243197545 0 0.032167067756337361 -0.00018016198994072664 0 0.031744651602024658 -0.0004882393243197545 0 0.031941631525559011 -0.00014182160992507934 0 0.028304653790880898 0.00056209846729980868 0 0.029238656161165857 0.00079206848438839056 0 0.031066640220885029 -0.00021332762302435045 0 0.031744651602024658 -0.0004882393243197545 0 0.031941631525559011 -0.00014182160992507934 0 0.0316843165330832 -0.00062037585353270409 0 0.031066640220885029 -0.00021332762302435045 0 0.031744651602024658 -0.0004882393243197545 0 0.031066640220885029 -0.00021332762302435045 0 0.031935200335601953 -2.5233594470637932e-05 0 0.031941631525559011 -0.00014182160992507934 0 0.032285978393958054 -0.00037246897609866645 0 0.030787295354070897 -0.0013138735051362908 0 0.034775238406870065 0.00033844313091150805 0 0.034823352274570701 0.0014696669607650919 0 0.034219173957923073 0.00055527129217550794 0 0.034934837649332827 -0.00010385750024549545 0 0.034955942023457122 -7.972147028660548e-05 0 0.034960975962385482 -0.00013504055414831776 0 0.034934837649332827 -0.00010385750024549545 0 0.034928805404314596 -0.00015031981763737143 0 0.034960975962385482 -0.00013504055414831776 0 0.034934837649332827 -0.00010385750024549545 0 0.034904590778560264 -0.00014733437252363127 0 0.034928805404314596 -0.00015031981763737143 0 0.034934837649332827 -0.00010385750024549545 0 0.034939015580380206 -5.736182992574804e-05 0 0.034944394939127821 -5.3380806959052165e-05 0 0.034934837649332827 -0.00010385750024549545 0 0.034939015580380206 -5.736182992574804e-05 0 0.034955942023457122 -7.972147028660548e-05 0 0.032285978393958054 -0.00037246897609866645 0 0.032736895341393464 -0.00026999008392535517 0 0.034939015580380206 -5.736182992574804e-05 0 0.034955942023457122 -7.972147028660548e-05 0 0.034892130218615855 -5.6318068273792786e-05 0 0.034775238406870065 0.00033844313091150805 0 0.034892130218615855 -5.6318068273792786e-05 0 0.034287701761639082 -4.8711105041310768e-05 0 0.034892130218615855 -5.6318068273792786e-05 0 0.034999899126139898 -1.1370914692756551e-07 0 0.0349586673315255 -3.5628590995848449e-05 0 0.034892130218615855 -5.6318068273792786e-05 0 0.034999899126139898 -1.1370914692756551e-07 0 0.034724994538178101 -6.8406514372937387e-05 0 0.034999899126139898 -1.1370914692756551e-07 0 0.0349586673315255 -3.5628590995848449e-05 0 0.034999931162392098 3.8471729313484124e-09 0 0.034939015580380206 -5.736182992574804e-05 0 0.034892130218615855 -5.6318068273792786e-05 0 0.0349586673315255 -3.5628590995848449e-05 0 0.034939015580380206 -5.736182992574804e-05 0 0.0349586673315255 -3.5628590995848449e-05 0 0.034944394939127821 -5.3380806959052165e-05 0 0.034944394939127821 -5.3380806959052165e-05 0 0.034963991147106729 -1.0325300330142419e-05 0 0.034930910935381039 -4.0228888204533457e-05 0 0.0349586673315255 -3.5628590995848449e-05 0 0.034944394939127821 -5.3380806959052165e-05 0 0.034963991147106729 -1.0325300330142419e-05 0 0.034999931162392098 3.8471729313484124e-09 0 0.034963991147106729 -1.0325300330142419e-05 0 0.034999927104765481 -9.6358675889646465e-09 0 0.0349586673315255 -3.5628590995848449e-05 0 0.034999931162392098 3.8471729313484124e-09 0 0.034963991147106729 -1.0325300330142419e-05 0 0.034963991147106729 -1.0325300330142419e-05 0 0.034999927104765481 -9.6358675889646465e-09 0 0.034947439424676645 9.3449210818396729e-06 0 0.034947439424676645 9.3449210818396729e-06 0 0.034930910935381039 -4.0228888204533457e-05 0 0.034846306986963699 -3.3732118667543201e-05 0 0.034963991147106729 -1.0325300330142419e-05 0 0.034947439424676645 9.3449210818396729e-06 0 0.034930910935381039 -4.0228888204533457e-05 0 0.034930910935381039 -4.0228888204533457e-05 0 0.034871181920936606 -9.273668119911994e-05 0 0.034846306986963699 -3.3732118667543201e-05 0 0.034871181920936606 -9.273668119911994e-05 0 0.034866256418590903 -0.0001421936752307489 0 0.034818509563586508 -0.000138597081097297 0 0.034871181920936606 -9.273668119911994e-05 0 0.03491618003200235 -9.6049545904744167e-05 0 0.034866256418590903 -0.0001421936752