<?xml version="1.0"?>
<VTKFile type="UnstructuredGrid" version="0.1" byte_order="LittleEndian">
<UnstructuredGrid>
<Piece NumberOfPoints="31898" NumberOfCells="11152">
<Points>
<DataArray type="Float64" NumberOfComponents="3" format="ascii">
-0.5 -0.5 0 -0.47620991077874902 -0.44978878706170539 0 -0.49999999999999473 -0.42132396840504388 0 -0.5 -0.5 0 -0.47160970827802529 -0.4793630013852106 0 -0.47620991077874902 -0.44978878706170539 0 -0.5 -0.5 0 -0.47160970827802529 -0.4793630013852106 0 -0.44860394795025399 -0.5 0 -0.47160970827802529 -0.4793630013852106 0 -0.44860394795025399 -0.5 0 -0.4490820238307246 -0.45820516232899983 0 -0.44860394795025399 -0.5 0 -0.4490820238307246 -0.45820516232899983 0 -0.42881687682924802 -0.47781464288736519 0 -0.4490820238307246 -0.45820516232899983 0 -0.45555437223955858 -0.42914059360647611 0 -0.4490820238307246 -0.45820516232899983 0 -0.45555437223955858 -0.42914059360647611 0 -0.43867285131603428 -0.4271457417558665 0 -0.4490820238307246 -0.45820516232899983 0 -0.43867285131603428 -0.4271457417558665 0 -0.4263356171060747 -0.44269880333887462 0 -0.47160970827802529 -0.4793630013852106 0 -0.4490820238307246 -0.45820516232899983 0 -0.47620991077874902 -0.44978878706170539 0 -0.4490820238307246 -0.45820516232899983 0 -0.47620991077874902 -0.44978878706170539 0 -0.45555437223955858 -0.42914059360647611 0 -0.47620991077874902 -0.44978878706170539 0 -0.48101336032419229 -0.41069999664450008 0 -0.45555437223955858 -0.42914059360647611 0 -0.47620991077874902 -0.44978878706170539 0 -0.49999999999999473 -0.42132396840504388 0 -0.48101336032419229 -0.41069999664450008 0 -0.49999999999999473 -0.42132396840504388 0 -0.48101336032419229 -0.41069999664450008 0 -0.5 -0.393886241813306 0 -0.49999999999999473 -0.42132396840504388 0 -0.48101336032419229 -0.41069999664450008 0 -0.5 -0.393886241813306 0 -0.47854472220918332 -0.38978458738689759 0 -0.48422759779560409 -0.37130120630367158 0 -0.5 -0.393886241813306 0 -0.5 -0.36644851522156802 0 -0.48422759779560409 -0.37130120630367158 0 -0.48101336032419229 -0.41069999664450008 0 -0.5 -0.393886241813306 0 -0.47854472220918332 -0.38978458738689759 0 -0.48101336032419229 -0.41069999664450008 0 -0.47854472220918332 -0.38978458738689759 0 -0.46202672064839212 -0.40007602488395211 0 -0.48101336032419229 -0.41069999664450008 0 -0.46202672064839212 -0.40007602488395211 0 -0.47854472220918332 -0.38978458738689759 0 -0.46725442735267431 -0.37660061361585562 0 -0.46202672064839212 -0.40007602488395211 0 -0.47854472220918332 -0.38978458738689759 0 -0.46725442735267431 -0.37660061361585562 0 -0.48422759779560409 -0.37130120630367158 0 -0.46725442735267431 -0.37660061361585562 0 -0.46202672064839212 -0.40007602488395211 0 -0.46725442735267431 -0.37660061361585562 0 -0.45645674801697989 -0.38644133236760531 0 -0.46202672064839212 -0.40007602488395211 0 -0.46725442735267431 -0.37660061361585562 0 -0.45645674801697989 -0.38644133236760531 0 -0.4540003998136638 -0.37455519391687309 0 -0.45645674801697989 -0.38644133236760531 0 -0.46202672064839212 -0.40007602488395211 0 -0.44257020456291563 -0.38918913383950271 0 -0.46202672064839212 -0.40007602488395211 0 -0.44257020456291563 -0.38918913383950271 0 -0.44727608925983742 -0.41095911152778891 0 -0.46202672064839212 -0.40007602488395211 0 -0.44257020456291563 -0.38918913383950271 0 -0.44257020456291563 -0.38918913383950271 0 -0.44727608925983742 -0.41095911152778891 0 -0.43479358559901082 -0.4041454901736512 0 -0.44257020456291563 -0.38918913383950271 0 -0.4540003998136638 -0.37455519391687309 0 -0.44172858264042247 -0.37082207246888088 0 -0.45645674801697989 -0.38644133236760531 0 -0.44257020456291563 -0.38918913383950271 0 -0.4540003998136638 -0.37455519391687309 0 -0.46202672064839212 -0.40007602488395211 0 -0.45555437223955858 -0.42914059360647611 0 -0.44727608925983742 -0.41095911152778891 0 -0.46202672064839212 -0.40007602488395211 0 -0.45555437223955858 -0.42914059360647611 0 -0.48101336032419229 -0.41069999664450008 0 -0.46202672064839212 -0.40007602488395211 0 -0.45555437223955858 -0.42914059360647611 0 -0.44727608925983742 -0.41095911152778891 0 -0.43867285131603428 -0.4271457417558665 0 -0.43676601469929588 -0.41441201227470881 0 -0.44727608925983742 -0.41095911152778891 0 -0.43676601469929588 -0.41441201227470881 0 -0.43479358559901082 -0.4041454901736512 0 -0.45555437223955858 -0.42914059360647611 0 -0.44727608925983742 -0.41095911152778891 0 -0.43867285131603428 -0.4271457417558665 0 -0.43867285131603428 -0.4271457417558665 0 -0.42681803064840879 -0.42717069814352421 0 -0.4263356171060747 -0.44269880333887462 0 -0.42681803064840879 -0.42717069814352421 0 -0.41531815884496182 -0.42985383783075998 0 -0.4263356171060747 -0.44269880333887462 0 -0.42681803064840879 -0.42717069814352421 0 -0.42624289495594048 -0.42089725947505818 0 -0.42083332353326591 -0.42146747131641099 0 -0.42681803064840879 -0.42717069814352421 0 -0.43096994786351572 -0.41951492446283251 0 -0.42624289495594048 -0.42089725947505818 0 -0.43867285131603428 -0.4271457417558665 0 -0.42681803064840879 -0.42717069814352421 0 -0.43096994786351572 -0.41951492446283251 0 -0.43867285131603428 -0.4271457417558665 0 -0.43676601469929588 -0.41441201227470881 0 -0.43096994786351572 -0.41951492446283251 0 -0.43676601469929588 -0.41441201227470881 0 -0.43096994786351572 -0.41951492446283251 0 -0.42907264086257813 -0.41311715872526122 0 -0.43676601469929588 -0.41441201227470881 0 -0.42907264086257813 -0.41311715872526122 0 -0.43479358559901082 -0.4041454901736512 0 -0.42907264086257813 -0.41311715872526122 0 -0.43479358559901082 -0.4041454901736512 0 -0.42460885511582858 -0.40417321677700252 0 -0.42907264086257813 -0.41311715872526122 0 -0.41997834854398469 -0.41180534796019508 0 -0.42907264086257813 -0.41311715872526122 0 -0.42635027777857132 -0.41543594397746519 0 -0.41997834854398469 -0.41180534796019508 0 -0.42907264086257813 -0.41311715872526122 0 -0.41997834854398469 -0.41180534796019508 0 -0.42460885511582858 -0.40417321677700252 0 -0.42635027777857132 -0.41543594397746519 0 -0.41997834854398469 -0.41180534796019508 0 -0.42635027777857132 -0.41543594397746519 0 -0.42083332353326591 -0.42146747131641099 0 -0.41997834854398469 -0.41180534796019508 0 -0.43096994786351572 -0.41951492446283251 0 -0.42624289495594048 -0.42089725947505818 0 -0.42635027777857132 -0.41543594397746519 0 -0.43096994786351572 -0.41951492446283251 0 -0.42907264086257813 -0.41311715872526122 0 -0.42635027777857132 -0.41543594397746519 0 -0.42624289495594048 -0.42089725947505818 0 -0.42635027777857132 -0.41543594397746519 0 -0.42083332353326591 -0.42146747131641099 0 -0.42083332353326591 -0.42146747131641099 0 -0.41997834854398469 -0.41180534796019508 0 -0.40992282953163789 -0.42011435591993562 0 -0.41997834854398469 -0.41180534796019508 0 -0.39756877647335259 -0.40857286797681719 0 -0.41997834854398469 -0.41180534796019508 0 -0.40992282953163789 -0.42011435591993562 0 -0.39756877647335259 -0.40857286797681719 0 -0.40992282953163789 -0.42011435591993562 0 -0.41531815884496182 -0.42985383783075998 0 -0.39591554026262499 -0.42887225451549271 0 -0.41531815884496182 -0.42985383783075998 0 -0.39591554026262499 -0.42887225451549271 0 -0.41160927495564159 -0.44339431233754628 0 -0.42083332353326591 -0.42146747131641099 0 -0.40992282953163789 -0.42011435591993562 0 -0.41531815884496182 -0.42985383783075998 0 -0.42681803064840879 -0.42717069814352421 0 -0.42083332353326591 -0.42146747131641099 0 -0.41531815884496182 -0.42985383783075998 0 -0.44257020456291563 -0.38918913383950271 0 -0.42311368847744002 -0.37830224279505142 0 -0.42594061475171041 -0.39368797999533162 0 -0.44257020456291563 -0.38918913383950271 0 -0.42311368847744002 -0.37830224279505142 0 -0.44172858264042247 -0.37082207246888088 0 -0.44257020456291563 -0.38918913383950271 0 -0.42311368847744002 -0.37830224279505142 0 -0.42311368847744002 -0.37830224279505142 0 -0.42594061475171041 -0.39368797999533162 0 -0.416587075656149 -0.38785930376960043 0 -0.44257020456291563 -0.38918913383950271 0 -0.42594061475171041 -0.39368797999533162 0 -0.43479358559901082 -0.4041454901736512 0 -0.42594061475171041 -0.39368797999533162 0 -0.43479358559901082 -0.4041454901736512 0 -0.42460885511582858 -0.40417321677700252 0 -0.41997834854398469 -0.41180534796019508 0 -0.41325908582185972 -0.39811010703057192 0 -0.39770572831670092 -0.39911486077581648 0 -0.41997834854398469 -0.41180534796019508 0 -0.39770572831670092 -0.39911486077581648 0 -0.42594061475171041 -0.39368797999533162 0 -0.42460885511582858 -0.40417321677700252 0 -0.41325908582185972 -0.39811010703057192 0 -0.41997834854398469 -0.41180534796019508 0 -0.42460885511582858 -0.40417321677700252 0 -0.41325908582185972 -0.39811010703057192 0 -0.42594061475171041 -0.39368797999533162 0 -0.41325908582185972 -0.39811010703057192 0 -0.416587075656149 -0.38785930376960043 0 -0.41325908582185972 -0.39811010703057192 0 -0.416587075656149 -0.38785930376960043 0 -0.40403491357358612 -0.38133688525744702 0 -0.42311368847744002 -0.37830224279505142 0 -0.40403491357358612 -0.38133688525744702 0 -0.40365717239196519 -0.36741535175059892 0 -0.42311368847744002 -0.37830224279505142 0 -0.416587075656149 -0.38785930376960043 0 -0.40403491357358612 -0.38133688525744702 0 -0.40403491357358612 -0.38133688525744702 0 -0.39190790742475001 -0.38540387676521748 0 -0.39770572831670092 -0.39911486077581648 0 -0.40403491357358612 -0.38133688525744702 0 -0.39190790742475001 -0.38540387676521748 0 -0.3904578797192948 -0.37473938743617019 0 -0.41325908582185972 -0.39811010703057192 0 -0.40403491357358612 -0.38133688525744702 0 -0.39770572831670092 -0.39911486077581648 0 -0.39770572831670092 -0.39911486077581648 0 -0.37543310808941849 -0.38642437359143528 0 -0.39770572831670092 -0.39911486077581648 0 -0.37515920440272033 -0.40534038799344108 0 -0.37543310808941849 -0.38642437359143528 0 -0.39770572831670092 -0.39911486077581648 0 -0.37515920440272033 -0.40534038799344108 0 -0.39756877647335259 -0.40857286797681719
[...]
<PointData Scalars="" Vectors="displacement," Tensors="">
<DataArray type="Float64" Name="displacement" NumberOfComponents="3" format="ascii">
0.034997475143267939 0.034998029182621897 0 0.032629816376833445 0.034376067810678534 0 0.029503275125252689 0.034995336432487097 0 0.034997475143267939 0.034998029182621897 0 0.034441758662246823 0.033723783289181311 0 0.032629816376833445 0.034376067810678534 0 0.034997475143267939 0.034998029182621897 0 0.034441758662246823 0.033723783289181311 0 0.03499803926230724 0.031405299452711963 0 0.034441758662246823 0.033723783289181311 0 0.03499803926230724 0.031405299452711963 0 0.034654031606305556 0.033236829433067473 0 0.03499803926230724 0.031405299452711963 0 0.034654031606305556 0.033236829433067473 0 0.03511147276769673 0.030760037553414409 0 0.03395303258713505 0.034174329771056833 0 0.033819782856981069 0.034450119495160962 0 0.034654031606305556 0.033236829433067473 0 0.03765462083057828 0.033541530946610193 0 0.03788916399064788 0.032045573973974166 0 0.034654031606305556 0.033236829433067473 0 0.03788916399064788 0.032045573973974166 0 0.036631293935187832 0.03089449002661597 0 0.034441758662246823 0.033723783289181311 0 0.034654031606305556 0.033236829433067473 0 0.032629816376833445 0.034376067810678534 0 0.034654031606305556 0.033236829433067473 0 0.032629816376833445 0.034376067810678534 0 0.031844659546421128 0.034979506041651322 0 0.032629816376833445 0.034376067810678534 0 0.030367070251034314 0.034626186992986002 0 0.031844659546421128 0.034979506041651322 0 0.032629816376833445 0.034376067810678534 0 0.029503275125252689 0.034995336432487097 0 0.030367070251034314 0.034626186992986002 0 0.029492668476284008 0.034999995889494477 0 0.028748075135074245 0.036320189844206791 0 0.027572041776316003 0.034999994357446072 0 0.029493709941587329 0.035000450120094562 0 0.029971140425645974 0.035172814728892825 0 0.027572041776316003 0.034999994357446072 0 0.02728761995150384 0.036491550339344377 0 0.025993347952916093 0.0360968252139518 0 0.027572041776316003 0.034999994357446072 0 0.025651398866786492 0.034999993351696859 0 0.025993347952916093 0.0360968252139518 0 0.028748075135074245 0.036320189844206791 0 0.027572041776316003 0.034999994357446072 0 0.02728761995150384 0.036491550339344377 0 0.028748075135074245 0.036320189844206791 0 0.02728761995150384 0.036491550339344377 0 0.028009358710755886 0.037636981645040049 0 0.029971140425645974 0.035172814728892825 0 0.031001243239930212 0.034565682282539312 0 0.02728761995150384 0.036491550339344377 0 0.02636650657431688 0.037277613769369035 0 0.028009358710755886 0.037636981645040049 0 0.02728761995150384 0.036491550339344377 0 0.02636650657431688 0.037277613769369035 0 0.025993347952916093 0.0360968252139518 0 0.026579561722597529 0.035450886850544268 0 0.031001243239930212 0.034565682282539312 0 0.024380454540204852 0.036991021173552047 0 0.024314116321755896 0.03696985562443926 0 0.024268829982591347 0.03699143973669327 0 0.024380454540204852 0.036991021173552047 0 0.024314116321755896 0.03696985562443926 0 0.024323998564339963 0.036982697440518998 0 0.024314116321755896 0.03696985562443926 0 0.024268829982591347 0.03699143973669327 0 0.024279741326936125 0.036913697766740576 0 0.03975812700979129 0.033711499721270737 0 0.040355784914013378 0.032310998049307267 0 0.039026657878330477 0.032711386557952846 0 0.031001243239930212 0.034565682282539312 0 0.031297812886778922 0.033979775459721986 0 0.040355784914013378 0.032310998049307267 0 0.039026657878330477 0.032711386557952846 0 0.039454963816828288 0.031813966619915861 0 0.024279741326936125 0.036913697766740576 0 0.024323998564339963 0.036982697440518998 0 0.024325672134821761 0.036910920310161591 0 0.024314116321755896 0.03696985562443926 0 0.024279741326936125 0.036913697766740576 0 0.024323998564339963 0.036982697440518998 0 0.03975812700979129 0.033711499721270737 0 0.03765462083057828 0.033541530946610193 0 0.039026657878330477 0.032711386557952846 0 0.031001243239930212 0.034565682282539312 0 0.033819782856981069 0.034450119495160962 0 0.030367070251034314 0.034626186992986002 0 0.030214640501687692 0.035149447758881611 0 0.031844659546421128 0.034979506041651322 0 0.039026657878330477 0.032711386557952846 0 0.03788916399064788 0.032045573973974166 0 0.038807426057446227 0.031928567052374034 0 0.039026657878330477 0.032711386557952846 0 0.038807426057446227 0.031928567052374034 0 0.039454963816828288 0.031813966619915861 0 0.03765462083057828 0.033541530946610193 0 0.039026657878330477 0.032711386557952846 0 0.03788916399064788 0.032045573973974166 0 0.03788916399064788 0.032045573973974166 0 0.037856520552209415 0.031062220130324222 0 0.036631293935187832 0.03089449002661597 0 0.037856520552209415 0.031062220130324222 0 0.037641995291849022 0.030139752175671317 0 0.036631293935187832 0.03089449002661597 0 0.037856520552209415 0.031062220130324222 0 0.038336497733384031 0.031059111171261079 0 0.038287422304350623 0.030606343850085326 0 0.037856520552209415 0.031062220130324222 0 0.038447011089561535 0.031464473071753166 0 0.038336497733384031 0.031059111171261079 0 0.03788916399064788 0.032045573973974166 0 0.037856520552209415 0.031062220130324222 0 0.038447011089561535 0.031464473071753166 0 0.03788916399064788 0.032045573973974166 0 0.038807426057446227 0.031928567052374034 0 0.038447011089561535 0.031464473071753166 0 0.038807426057446227 0.031928567052374034 0 0.038447011089561535 0.031464473071753166 0 0.038943929415934463 0.03138508962562319 0 0.038807426057446227 0.031928567052374034 0 0.038943929415934463 0.03138508962562319 0 0.039454963816828288 0.031813966619915861 0 0.038943929415934463 0.03138508962562319 0 0.039454963816828288 0.031813966619915861 0 0.039445244358235397 0.031214498152211688 0 0.03767224831202888 0.029328591607552461 0 0.037652354760337993 0.029091155553799944 0 0.038943929415934463 0.03138508962562319 0 0.038755952091591689 0.031104607853704509 0 0.039116018350287149 0.030485503651054662 0 0.038943929415934463 0.03138508962562319 0 0.039062648396215031 0.030970287733816663 0 0.039445244358235397 0.031214498152211688 0 0.037648070937152493 0.029182357768285268 0 0.037652354760337993 0.029091155553799944 0 0.038755952091591689 0.031104607853704509 0 0.038287422304350623 0.030606343850085326 0 0.039054913490963988 0.030539216081290406 0 0.038447011089561535 0.031464473071753166 0 0.038336497733384031 0.031059111171261079 0 0.038755952091591689 0.031104607853704509 0 0.038447011089561535 0.031464473071753166 0 0.038943929415934463 0.03138508962562319 0 0.038755952091591689 0.031104607853704509 0 0.038336497733384031 0.031059111171261079 0 0.038755952091591689 0.031104607853704509 0 0.038287422304350623 0.030606343850085326 0 0.038287422304350623 0.030606343850085326 0 0.039054913490963988 0.030539216081290406 0 0.038393906005937672 0.029740063154801565 0 0.037652354760337993 0.029091155553799944 0 0.037888135199399493 0.02783650212593557 0 0.039054913490963988 0.030539216081290406 0 0.038393906005937672 0.029740063154801565 0 0.039272284656206573 0.028789619299045936 0 0.038393906005937672 0.029740063154801565 0 0.037641995291849022 0.030139752175671317 0 0.037731439544067005 0.028668458300689589 0 0.037641995291849022 0.030139752175671317 0 0.037731439544067005 0.028668458300689589 0 0.036647584216892251 0.029840861248660717 0 0.038287422304350623 0.030606343850085326 0 0.038393906005937672 0.029740063154801565 0 0.037641995291849022 0.030139752175671317 0 0.037856520552209415 0.031062220130324222 0 0.038287422304350623 0.030606343850085326 0 0.037641995291849022 0.030139752175671317 0 0.040355784914013378 0.032310998049307267 0 0.040751547582897549 0.031158128667756736 0 0.040008660176522895 0.031311458709260033 0 0.024279741326936125 0.036913697766740576 0 0.024288332525739604 0.036782750800714525 0 0.024325672134821761 0.036910920310161591 0 0.031297812886778922 0.033979775459721986 0 0.031275833574117812 0.032923492333501218 0 0.040751547582897549 0.031158128667756736 0 0.040008660176522895 0.031311458709260033 0 0.040261524554128125 0.030831074358349846 0 0.040355784914013378 0.032310998049307267 0 0.040008660176522895 0.031311458709260033 0 0.039454963816828288 0.031813966619915861 0 0.040008660176522895 0.031311458709260033 0 0.039454963816828288 0.031813966619915861 0 0.039445244358235397 0.031214498152211688 0 0.039062648396215031 0.030970287733816663 0 0.039762415384409028 0.030658727215251039 0 0.039737563044303467 0.029940355259642351 0 0.037652354760337993 0.029091155553799944 0 0.037429249014256559 0.027888783644632622 0 0.040008660176522895 0.031311458709260033 0 0.039445244358235397 0.031214498152211688 0 0.039762415384409028 0.030658727215251039 0 0.039062648396215031 0.030970287733816663 0 0.039445244358235397 0.031214498152211688 0 0.039762415384409028 0.030658727215251039 0 0.040008660176522895 0.031311458709260033 0 0.039762415384409028 0.030658727215251039 0 0.040261524554128125 0.030831074358349846 0 0.039762415384409028 0.030658727215251039 0 0.040261524554128125 0.030831074358349846 0 0.040518585181055021 0.030211590186784053 0 0.040751547582897549 0.031158128667756736 0 0.040518585181055021 0.030211590186784053 0 0.041193293151922938 0.030195871929532141 0 0.040751547582897549 0.031158128667756736 0 0.040261524554128125 0.030831074358349846 0 0.040518585181055021 0.030211590186784053 0 0.040518585181055021 0.030211590186784053 0 0.040314871967951096 0.029724154016794502 0 0.039737563044303467 0.029940355259642351 0 0.040518585181055021 0.030211590186784053 0 0.040314871967951096 0.029724154016794502 0 0.040716746064678525 0.029674861148958571 0 0.039762415384409028 0.030658727215251039 0 0.040518585181055021 0.030211590186784053 0 0.039737563044303467 0.029940355259642351 0 0.037429249014256559 0.027888783644632622 0 0.036585899541484689 0.026014258255416478 0 0.037704681527760846 0.027424187968543588 0 0.037415127016877256 0.026375524905679647 0 0.038289356828371181 0.02638745044906475 0 0.037704681527760846 0.027424187968543588 0 0.037415127016877256 0.026375524905679647 0 0.037265855479824479 0.027418462748053526 0 0.038013017445030009 0.026062797046775131 0 0.036585899541484689 0.026014258255416478 0 0.040274115018234746 0.02909242352353306 0 0.040716746064678525 0.029674861148958571 0 0.040904125694317887 0.029128497576441922 0 0.040314871967951096 0.029724154016794502 0 0.040274115018234746 0.02909242352353306 0 0.040716746064678525 0.029674861148958571 0 0.036585899541484689 0.026014258255416478 0 0.034631341037044093 0.026666332261074521 0 0.040314871967951096 0.029724154016794502 0 0.039737563044303467 0.029940355259642351 0 0.040274115018234746 0.02909242352353306 0 0.037118163864029101 0.028465736593705566 0 0.037704681527760846 0.027424187968543588 0 0.037265855479824479 0.027418462748053526 0 0.038393906005937672 0.029740063154801565 0 0.037731439544067005 0.028668458300689589 0 0.039272284656206573 0.028789619299045936 0 0.039508813793181823 0.027098713403854887 0 0.037731439544067005 0.028668458300689589 0 0.039272284656206573 0.028789619299045936 0 0.038013017445030009 0.026062797046775131 0 0.037888135199399493 0.02783650212593557 0 0.039508813793181823 0.027098713403854887 0 0.037731439544067005 0.028668458300689589 0 0.037240109492667609 0.027076387106323683 0 0.037731439544067005 0.028668458300689589 0 0.036412232163987771 0.028447818113467662 0 0.037240109492667609 0.027076387106323683 0 0.036412232163987771 0.028447818113467662 0 0.034996048482240187 0.027047652946491973 0 0.037240109492667609 0.027076387106323683 0 0.037731439544067005 0.028668458300689589 0 0.036412232163987771 0.028447818113467662 0 0.036647584216892251 0.029840861248660717 0 0.036412232163987771 0.028447818113467662 0 0.035593952867462315 0.029264712749348148 0 0.036647584216892251 0.029840861248660717 0 0.036035580456361911 0.029328443351770272 0 0.035599081316148473 0.028174192389285924 0 0.035577651359929352 0.029628960060272717 0 0.037901929033307476 0.02821191112476067 0 0.037631841523530246 0.027210674363632295 0 0.036466438765488184 0.027440437004971532 0 0.036683834597761804 0.027839227509500131 0 0.03588750268025051 0.027364591292810769 0 0.036683834597761804 0.027839227509500131 0 0.036684678797577766 0.027853416117147648 0 0.036683834597761804 0.027839227509500131 0 0.036688337150491669 0.027269551219761063 0 0.036412232163987771 0.028447818113467662 0 0.035593952867462315 0.029264712749348148 0 0.035295277037581473 0.028155754322692267 0 0.036412232163987771 0.028447818113467662 0 0.035295277037581473 0.028155754322692267 0 0.034996048482240187 0.027047652946491973 0 0.036688337150491669 0.027269551219761063 0 0.036677130947250988 0.026399668847335973 0 0.037631841523530246 0.027210674363632295 0 0.036953210658445042 0.026847771582074024 0 0.037361475569222251 0.026201943407104487 0 0.036953210658445042 0.026847771582074024 0 0.036466438765488184 0.027440437004971532 0 0.036565192887457451 0.02618590732907277 0 0.036466438765488184 0.027440437004971532 0 0.035709761101144363 0.026067269053144597 0 0.036565192887457451 0.02618590732907277 0 0.036953210658445042 0.026847771582074024 0 0.036565192887457451 0.02618590732907277 0 0.037361475569222251 0.026201943407104487 0 0.037631841523530246 0.027210674363632295 0 0.036953210658445042 0.026847771582074024 0 0.036466438765488184 0.027440437004971532 0 0.035000661660543303 0.026667163813783822 0 0.03588750268025051 0.027364591292810769 0 0.035000003274551932 0.026666258911288779 0 0.036466438765488184 0.027440437004971532 0 0.035709761101144363 0.026067269053144597 0 0.034999883703917628 0.026667496755288903 0 0.035599081316148473 0.028174192389285924 0 0.034999131837993983 0.028699082642993506 0 0.035599081316148473 0.028174192389285924 0 0.035577651359929352 0.029628960060272717 0 0.034999131837993983 0.028699082642993506 0 0.035577651359929352 0.029628960060272717 0 0.034999131837993983 0.028699082642993506 0 0.03511147276769673 0.030760037553414409 0 0.03499803926230724 0.031405299452711963 0 0.034999131837993983 0.028699082642993506 0 0.03511147276769673 0.030760037553414409 0 0.035577651359929352 0.029628960060272717 0 0.03511147276769673 0.030760037553414409 0 0.03551254907240619 0.03084116248702232 0 0.034654031606305556 0.033236829433067473 0 0.03511147276769673 0.030760037553414409 0 0.03551254907240619 0.03084116248702232 0 0.034654031606305556 0.033236829433067473 0 0.03551254907240619 0.03084116248702232 0 0.036631293935187832 0.03089449002661597 0 0.03551254907240619 0.03084116248702232 0 0.036631293935187832 0.03089449002661597 0 0.036040625517504199 0.030109333052150536 0 0.036631293935187832 0.03089449002661597 0 0.036647584216892251 0.029840861248660717 0 0.036040625517504199 0.030109333052150536 0 0.037641995291849022 0.030139752175671317 0 0.036631293935187832 0.03089449002661597 0 0.036647584216892251 0.029840861248660717 0 0.035998146056792663 0.029335367720067382 0 0.036647584216892251 0.029840861248660717 0 0.036027401386371449 0.029473417007890163 0 0.036647584216892251 0.029840861248660717 0 0.036027401386371449 0.029473417007890163 0 0.036040625517504199 0.030109333052150536 0 0.036683834597761804 0.027839227509500131 0 0.036755517931135649 0.028070584999084217 0 0.035577651359929352 0.029628960060272717 0 0.036027401386371449 0.029473417007890163 0 0.036040625517504199 0.030109333052150536 0 0.036035580456361911 0.029328443351770272 0 0.035577651359929352 0.029628960060272717 0 0.036027401386371449 0.029473417007890163 0 0.035577651359929352 0.029628960060272717 0 0.03551254907240619 0.03084116248702232 0 0.036040625517504199 0.030109333052150536 0 0.014985427960041835 0.036705337316086765 0 0.013412452376055189 0.034779989168800866 0 0.017612859792733773 0.037780063167179072 0 0.017516629799412809 0.039888790394231023 0 0.016397781009734373 0.038279103896020267 0 0.019233465034315875 0.038280944200212705 0 0.017910261746034918 0.037842163174200062 0 0.017797141695150884 0.039334240503390051 0 0.019233465034315875 0.038280944200212705 0 0.01916111992706163 0.039578655389267525 0 0.017797141695150884 0.039334240503390051 0 0.019233465034315875 0.038280944200212705 0 0.020439083237642472 0.038842104156335301 0 0.01916111992706163 0.039578655389267525 0 0.019233465034315875 0.038280944200212705 0 0.018730487669229336 0.037130488595761832 0 0.01977800953553167 0.037000070141737916 0 0.019233465034315875 0.038280944200212705 0 0.018730487669229336 0.037130488595761832 0 0.017910261746034918 0.037842163174200062 0 0.014985427960041835 0.036705337316086765 0 0.015499328551997354 0.036626040785808764 0 0.018730487669229336 0.037130488595761832 0 0.017910261746034918 0.037842163174200062 0 0.017943849179150588 0.036280122291607889 0 0.017612859792733773 0.037780063167179072 0 0.017943849179150588 0.036280122291607889 0 0.016161033940095611 0.03664889084733855 0 0.017943849179150588 0.036280122291607889 0 0.017968666182882408 0.034999688534325529 0 0.019150216271640201 0.03602186805002975 0 0.017943849179150588 0.036280122291607889 0 0.017968666182882408 0.034999688534325529 0 0.016797240502613678 0.03567683537943734 0 0.017968666182882408 0.034999688534325529 0 0.019150216271640201 0.03602186805002975 0 0.019889421905216764 0.034999956543224242 0 0.018730487669229336 0.037130488595761832 0 0.017943849179150588 0.036280122291607889 0 0.019150216271640201 0.03602186805002975 0 0.018730487669229336 0.037130488595761832 0 0.019150216271640201 0.03602186805002975 0 0.01977800953553167 0.037000070141737916 0 0.01977800953553167 0.037000070141737916 0 0.020407336266901145 0.035915974559968762 0 0.0208522976580921 0.036836306134319742 0 0.019150216271640201 0.03602186805002975 0 0.01977800953553167 0.037000070141737916 0 0.020407336266901145 0.035915974559968762 0 0.019889421905216764 0.034999956543224242 0 0.020407336266901145 0.035915974559968762 0 0.021810038496250177 0.034999941903124172 0 0.019150216271640201 0.03602186805002975 0 0.019889421905216764 0.034999956543224242 0 0.020407336266901145 0.035915974559968762 0 0.020407336266901145 0.035915974559968762 0 0.021810038496250177 0.034999941903124172 0 0.021392800582517295 0.036123449502427608 0 0.021392800582517295 0.036123449502427608 0 0.0208522976580921 0.036836306134319742 0 0.021962454220224525 0.036793624663573693 0 0.020407336266901145 0.035915974559968762 0 0.021392800582517295 0.036123449502427608 0 0.0208522976580921 0.036836306134319742 0 0.0208522976580921 0.036836306134319742 0 0.021398759699039083 0.037515943275095269 0 0.021962454220224525 0.036793624663573693 0 0.021398759699039083 0.037515943275095269 0 0.021180707539538862 0.038422486358087149 0 0.021888432598562081 0.038072526007461617 0 0.021398759699039083 0.037515943275095269 0 0.020458999211431093 0.037809779537890637 0 0.021180707539538862 0.038422486358087149 0 0.0208522976580921 0.036836306134319742 0 0.021398759699039083 0.037515943275095269 0 0.020458999211431093 0.037809779537890637 0 0.019233465034315875 0.038280944200212705 0 0.01977800953553167 0.037000070141737916 0 0.020458999211431093 0.037809779537890637 0 0.01977800953553167 0.037000070141737916 0 0.0208522976580921 0.036836306134319742 0 0.020458999211431093 0.037809779537890637 0 0.019233465034315875 0.038280944200212705 0 0.020458999211431093 0.037809779537890637 0 0.020439083237642472 0.038842104156335301 0 0.020458999211431093 0.037809779537890637 0 0.020439083237642472 0.038842104156335301 0 0.021180707539538862 0.038422486358087149 0 0.020439083237642472 0.038842104156335301 0 0.021180707539538862 0.038422486358087149 0 0.021222255101920086 0.039234315116363348 0 0.021180707539538862 0.038422486358087149 0 0.022183984357436549 0.038894092720199711 0 0.021222255101920086 0.039234315116363348 0 0.021180707539538862 0.038422486358087149 0 0.021888432598562081 0.038072526007461617 0 0.022183984357436549 0.038894092720199711 0 0.020100568869135464 0.036310983830441727 0 0.020320281004467325 0.036672153048186884 0 0.022223060197451062 0.0387532