<?xml version="1.0"?>
<VTKFile type="UnstructuredGrid" version="0.1" byte_order="LittleEndian">
<UnstructuredGrid>
<Piece NumberOfPoints="31898" NumberOfCells="11152">
<Points>
<DataArray type="Float64" NumberOfComponents="3" format="ascii">
-0.5 -0.5 0 -0.47620991077874902 -0.44978878706170539 0 -0.49999999999999473 -0.42132396840504388 0 -0.5 -0.5 0 -0.47160970827802529 -0.4793630013852106 0 -0.47620991077874902 -0.44978878706170539 0 -0.5 -0.5 0 -0.47160970827802529 -0.4793630013852106 0 -0.44860394795025399 -0.5 0 -0.47160970827802529 -0.4793630013852106 0 -0.44860394795025399 -0.5 0 -0.4490820238307246 -0.45820516232899983 0 -0.44860394795025399 -0.5 0 -0.4490820238307246 -0.45820516232899983 0 -0.42881687682924802 -0.47781464288736519 0 -0.4490820238307246 -0.45820516232899983 0 -0.45555437223955858 -0.42914059360647611 0 -0.4490820238307246 -0.45820516232899983 0 -0.45555437223955858 -0.42914059360647611 0 -0.43867285131603428 -0.4271457417558665 0 -0.4490820238307246 -0.45820516232899983 0 -0.43867285131603428 -0.4271457417558665 0 -0.4263356171060747 -0.44269880333887462 0 -0.47160970827802529 -0.4793630013852106 0 -0.4490820238307246 -0.45820516232899983 0 -0.47620991077874902 -0.44978878706170539 0 -0.4490820238307246 -0.45820516232899983 0 -0.47620991077874902 -0.44978878706170539 0 -0.45555437223955858 -0.42914059360647611 0 -0.47620991077874902 -0.44978878706170539 0 -0.48101336032419229 -0.41069999664450008 0 -0.45555437223955858 -0.42914059360647611 0 -0.47620991077874902 -0.44978878706170539 0 -0.49999999999999473 -0.42132396840504388 0 -0.48101336032419229 -0.41069999664450008 0 -0.49999999999999473 -0.42132396840504388 0 -0.48101336032419229 -0.41069999664450008 0 -0.5 -0.393886241813306 0 -0.49999999999999473 -0.42132396840504388 0 -0.48101336032419229 -0.41069999664450008 0 -0.5 -0.393886241813306 0 -0.47854472220918332 -0.38978458738689759 0 -0.48422759779560409 -0.37130120630367158 0 -0.5 -0.393886241813306 0 -0.5 -0.36644851522156802 0 -0.48422759779560409 -0.37130120630367158 0 -0.48101336032419229 -0.41069999664450008 0 -0.5 -0.393886241813306 0 -0.47854472220918332 -0.38978458738689759 0 -0.48101336032419229 -0.41069999664450008 0 -0.47854472220918332 -0.38978458738689759 0 -0.46202672064839212 -0.40007602488395211 0 -0.48101336032419229 -0.41069999664450008 0 -0.46202672064839212 -0.40007602488395211 0 -0.47854472220918332 -0.38978458738689759 0 -0.46725442735267431 -0.37660061361585562 0 -0.46202672064839212 -0.40007602488395211 0 -0.47854472220918332 -0.38978458738689759 0 -0.46725442735267431 -0.37660061361585562 0 -0.48422759779560409 -0.37130120630367158 0 -0.46725442735267431 -0.37660061361585562 0 -0.46202672064839212 -0.40007602488395211 0 -0.46725442735267431 -0.37660061361585562 0 -0.45645674801697989 -0.38644133236760531 0 -0.46202672064839212 -0.40007602488395211 0 -0.46725442735267431 -0.37660061361585562 0 -0.45645674801697989 -0.38644133236760531 0 -0.4540003998136638 -0.37455519391687309 0 -0.45645674801697989 -0.38644133236760531 0 -0.46202672064839212 -0.40007602488395211 0 -0.44257020456291563 -0.38918913383950271 0 -0.46202672064839212 -0.40007602488395211 0 -0.44257020456291563 -0.38918913383950271 0 -0.44727608925983742 -0.41095911152778891 0 -0.46202672064839212 -0.40007602488395211 0 -0.44257020456291563 -0.38918913383950271 0 -0.44257020456291563 -0.38918913383950271 0 -0.44727608925983742 -0.41095911152778891 0 -0.43479358559901082 -0.4041454901736512 0 -0.44257020456291563 -0.38918913383950271 0 -0.4540003998136638 -0.37455519391687309 0 -0.44172858264042247 -0.37082207246888088 0 -0.45645674801697989 -0.38644133236760531 0 -0.44257020456291563 -0.38918913383950271 0 -0.4540003998136638 -0.37455519391687309 0 -0.46202672064839212 -0.40007602488395211 0 -0.45555437223955858 -0.42914059360647611 0 -0.44727608925983742 -0.41095911152778891 0 -0.46202672064839212 -0.40007602488395211 0 -0.45555437223955858 -0.42914059360647611 0 -0.48101336032419229 -0.41069999664450008 0 -0.46202672064839212 -0.40007602488395211 0 -0.45555437223955858 -0.42914059360647611 0 -0.44727608925983742 -0.41095911152778891 0 -0.43867285131603428 -0.4271457417558665 0 -0.43676601469929588 -0.41441201227470881 0 -0.44727608925983742 -0.41095911152778891 0 -0.43676601469929588 -0.41441201227470881 0 -0.43479358559901082 -0.4041454901736512 0 -0.45555437223955858 -0.42914059360647611 0 -0.44727608925983742 -0.41095911152778891 0 -0.43867285131603428 -0.4271457417558665 0 -0.43867285131603428 -0.4271457417558665 0 -0.42681803064840879 -0.42717069814352421 0 -0.4263356171060747 -0.44269880333887462 0 -0.42681803064840879 -0.42717069814352421 0 -0.41531815884496182 -0.42985383783075998 0 -0.4263356171060747 -0.44269880333887462 0 -0.42681803064840879 -0.42717069814352421 0 -0.42624289495594048 -0.42089725947505818 0 -0.42083332353326591 -0.42146747131641099 0 -0.42681803064840879 -0.42717069814352421 0 -0.43096994786351572 -0.41951492446283251 0 -0.42624289495594048 -0.42089725947505818 0 -0.43867285131603428 -0.4271457417558665 0 -0.42681803064840879 -0.42717069814352421 0 -0.43096994786351572 -0.41951492446283251 0 -0.43867285131603428 -0.4271457417558665 0 -0.43676601469929588 -0.41441201227470881 0 -0.43096994786351572 -0.41951492446283251 0 -0.43676601469929588 -0.41441201227470881 0 -0.43096994786351572 -0.41951492446283251 0 -0.42907264086257813 -0.41311715872526122 0 -0.43676601469929588 -0.41441201227470881 0 -0.42907264086257813 -0.41311715872526122 0 -0.43479358559901082 -0.4041454901736512 0 -0.42907264086257813 -0.41311715872526122 0 -0.43479358559901082 -0.4041454901736512 0 -0.42460885511582858 -0.40417321677700252 0 -0.42907264086257813 -0.41311715872526122 0 -0.41997834854398469 -0.41180534796019508 0 -0.42907264086257813 -0.41311715872526122 0 -0.42635027777857132 -0.41543594397746519 0 -0.41997834854398469 -0.41180534796019508 0 -0.42907264086257813 -0.41311715872526122 0 -0.41997834854398469 -0.41180534796019508 0 -0.42460885511582858 -0.40417321677700252 0 -0.42635027777857132 -0.41543594397746519 0 -0.41997834854398469 -0.41180534796019508 0 -0.42635027777857132 -0.41543594397746519 0 -0.42083332353326591 -0.42146747131641099 0 -0.41997834854398469 -0.41180534796019508 0 -0.43096994786351572 -0.41951492446283251 0 -0.42624289495594048 -0.42089725947505818 0 -0.42635027777857132 -0.41543594397746519 0 -0.43096994786351572 -0.41951492446283251 0 -0.42907264086257813 -0.41311715872526122 0 -0.42635027777857132 -0.41543594397746519 0 -0.42624289495594048 -0.42089725947505818 0 -0.42635027777857132 -0.41543594397746519 0 -0.42083332353326591 -0.42146747131641099 0 -0.42083332353326591 -0.42146747131641099 0 -0.41997834854398469 -0.41180534796019508 0 -0.40992282953163789 -0.42011435591993562 0 -0.41997834854398469 -0.41180534796019508 0 -0.39756877647335259 -0.40857286797681719 0 -0.41997834854398469 -0.41180534796019508 0 -0.40992282953163789 -0.42011435591993562 0 -0.39756877647335259 -0.40857286797681719 0 -0.40992282953163789 -0.42011435591993562 0 -0.41531815884496182 -0.42985383783075998 0 -0.39591554026262499 -0.42887225451549271 0 -0.41531815884496182 -0.42985383783075998 0 -0.39591554026262499 -0.42887225451549271 0 -0.41160927495564159 -0.44339431233754628 0 -0.42083332353326591 -0.42146747131641099 0 -0.40992282953163789 -0.42011435591993562 0 -0.41531815884496182 -0.42985383783075998 0 -0.42681803064840879 -0.42717069814352421 0 -0.42083332353326591 -0.42146747131641099 0 -0.41531815884496182 -0.42985383783075998 0 -0.44257020456291563 -0.38918913383950271 0 -0.42311368847744002 -0.37830224279505142 0 -0.42594061475171041 -0.39368797999533162 0 -0.44257020456291563 -0.38918913383950271 0 -0.42311368847744002 -0.37830224279505142 0 -0.44172858264042247 -0.37082207246888088 0 -0.44257020456291563 -0.38918913383950271 0 -0.42311368847744002 -0.37830224279505142 0 -0.42311368847744002 -0.37830224279505142 0 -0.42594061475171041 -0.39368797999533162 0 -0.416587075656149 -0.38785930376960043 0 -0.44257020456291563 -0.38918913383950271 0 -0.42594061475171041 -0.39368797999533162 0 -0.43479358559901082 -0.4041454901736512 0 -0.42594061475171041 -0.39368797999533162 0 -0.43479358559901082 -0.4041454901736512 0 -0.42460885511582858 -0.40417321677700252 0 -0.41997834854398469 -0.41180534796019508 0 -0.41325908582185972 -0.39811010703057192 0 -0.39770572831670092 -0.39911486077581648 0 -0.41997834854398469 -0.41180534796019508 0 -0.39770572831670092 -0.39911486077581648 0 -0.42594061475171041 -0.39368797999533162 0 -0.42460885511582858 -0.40417321677700252 0 -0.41325908582185972 -0.39811010703057192 0 -0.41997834854398469 -0.41180534796019508 0 -0.42460885511582858 -0.40417321677700252 0 -0.41325908582185972 -0.39811010703057192 0 -0.42594061475171041 -0.39368797999533162 0 -0.41325908582185972 -0.39811010703057192 0 -0.416587075656149 -0.38785930376960043 0 -0.41325908582185972 -0.39811010703057192 0 -0.416587075656149 -0.38785930376960043 0 -0.40403491357358612 -0.38133688525744702 0 -0.42311368847744002 -0.37830224279505142 0 -0.40403491357358612 -0.38133688525744702 0 -0.40365717239196519 -0.36741535175059892 0 -0.42311368847744002 -0.37830224279505142 0 -0.416587075656149 -0.38785930376960043 0 -0.40403491357358612 -0.38133688525744702 0 -0.40403491357358612 -0.38133688525744702 0 -0.39190790742475001 -0.38540387676521748 0 -0.39770572831670092 -0.39911486077581648 0 -0.40403491357358612 -0.38133688525744702 0 -0.39190790742475001 -0.38540387676521748 0 -0.3904578797192948 -0.37473938743617019 0 -0.41325908582185972 -0.39811010703057192 0 -0.40403491357358612 -0.38133688525744702 0 -0.39770572831670092 -0.39911486077581648 0 -0.39770572831670092 -0.39911486077581648 0 -0.37543310808941849 -0.38642437359143528 0 -0.39770572831670092 -0.39911486077581648 0 -0.37515920440272033 -0.40534038799344108 0 -0.37543310808941849 -0.38642437359143528 0 -0.39770572831670092 -0.39911486077581648 0 -0.37515920440272033 -0.40534038799344108 0 -0.39756877647335259 -0.40857286797681719
[...]
<PointData Scalars="" Vectors="displacement," Tensors="">
<DataArray type="Float64" Name="displacement" NumberOfComponents="3" format="ascii">
1.6994505044575848e-06 0.03499679962725618 0 0.00017031408898312029 0.032722062839948156 0 -3.5981523622808345e-06 0.029500836547642396 0 1.6994505044575848e-06 0.03499679962725618 0 0.00015685322014849889 0.034200754651609565 0 0.00017031408898312029 0.032722062839948156 0 1.6994505044575848e-06 0.03499679962725618 0 0.00015685322014849889 0.034200754651609565 0 -6.1128346669860117e-09 0.034999144805655059 0 0.00015685322014849889 0.034200754651609565 0 -6.1128346669860117e-09 0.034999144805655059 0 8.6346166765298554e-05 0.034200987635595648 0 -6.1128346669860117e-09 0.034999144805655059 0 8.6346166765298554e-05 0.034200987635595648 0 6.8087400753349627e-05 0.034765032996279172 0 0.00029872127023219274 0.032056495540918703 0 -1.1718184453750544e-05 0.031145238626542872 0 8.6346166765298554e-05 0.034200987635595648 0 -0.00039422744609200728 0.034170571312504706 0 -0.00042510415579816423 0.034364804529573169 0 8.6346166765298554e-05 0.034200987635595648 0 -0.00042510415579816423 0.034364804529573169 0 -0.00020856056334682147 0.034585052907070452 0 0.00015685322014849889 0.034200754651609565 0 8.6346166765298554e-05 0.034200987635595648 0 0.00017031408898312029 0.032722062839948156 0 8.6346166765298554e-05 0.034200987635595648 0 0.00017031408898312029 0.032722062839948156 0 -0.00062319080789939628 0.033378321754803909 0 0.00017031408898312029 0.032722062839948156 0 -0.001324376241575894 0.031624609195041203 0 -0.00062319080789939628 0.033378321754803909 0 0.00017031408898312029 0.032722062839948156 0 -3.5981523622808345e-06 0.029500836547642396 0 -0.001324376241575894 0.031624609195041203 0 -1.9803301088674997e-06 0.029489653566670333 0 -0.0003012917606731077 0.027194167328571418 0 8.3569004661787845e-07 0.02757204728370222 0 -1.2344187502519472e-06 0.029491528524978383 0 -0.00052018731570153541 0.028963696126116656 0 8.3569004661787845e-07 0.02757204728370222 0 7.9407752537116369e-05 0.02648889508378497 0 0.0001676214880805258 0.02578151391591051 0 8.3569004661787845e-07 0.02757204728370222 0 2.5483204910345711e-07 0.025651173631593555 0 0.0001676214880805258 0.02578151391591051 0 -0.0003012917606731077 0.027194167328571418 0 8.3569004661787845e-07 0.02757204728370222 0 7.9407752537116369e-05 0.02648889508378497 0 -0.0003012917606731077 0.027194167328571418 0 7.9407752537116369e-05 0.02648889508378497 0 -0.00013214983569077355 0.026230656037456005 0 -0.00052018731570153541 0.028963696126116656 0 -0.00076615711903149956 0.027902041574017215 0 7.9407752537116369e-05 0.02648889508378497 0 0.00020627895535862989 0.026003390869082883 0 -0.00013214983569077355 0.026230656037456005 0 7.9407752537116369e-05 0.02648889508378497 0 0.00020627895535862989 0.026003390869082883 0 0.0001676214880805258 0.02578151391591051 0 -0.00055077323696427216 0.025344076233967106 0 -0.00076615711903149956 0.027902041574017215 0 -0.00080546635304329806 0.020389290556921198 0 -0.00053883873745578831 0.020659332758066157 0 -0.00019213724319279107 0.020526937172827102 0 -0.00080546635304329806 0.020389290556921198 0 -0.00053883873745578831 0.020659332758066157 0 -0.00082351026617045716 0.020704736939455383 0 -0.00053883873745578831 0.020659332758066157 0 -0.00019213724319279107 0.020526937172827102 0 -0.00045941681709208755 0.021009778549621643 0 -0.00056105177284147974 0.034243984381890753 0 -0.0004954950949895724 0.034330482171419117 0 -0.00053229251148233681 0.034291312317484571 0 -0.00076615711903149956 0.027902041574017215 0 -0.00066473277681849908 0.027604292548250468 0 -0.0004954950949895724 0.034330482171419117 0 -0.00053229251148233681 0.034291312317484571 0 -0.00054359830299957352 0.03432572953341604 0 -0.00045941681709208755 0.021009778549621643 0 -0.00082351026617045716 0.020704736939455383 0 -0.0009094551967710904 0.021021750995798196 0 -0.00053883873745578831 0.020659332758066157 0 -0.00045941681709208755 0.021009778549621643 0 -0.00082351026617045716 0.020704736939455383 0 -0.00056105177284147974 0.034243984381890753 0 -0.00039422744609200728 0.034170571312504706 0 -0.00053229251148233681 0.034291312317484571 0 -0.00076615711903149956 0.027902041574017215 0 -1.1718184453750544e-05 0.031145238626542872 0 -0.001324376241575894 0.031624609195041203 0 -0.0020440334199055797 0.032797134683029132 0 -0.00062319080789939628 0.033378321754803909 0 -0.00053229251148233681 0.034291312317484571 0 -0.00042510415579816423 0.034364804529573169 0 -0.00053669822385559612 0.034349818882224659 0 -0.00053229251148233681 0.034291312317484571 0 -0.00053669822385559612 0.034349818882224659 0 -0.00054359830299957352 0.03432572953341604 0 -0.00039422744609200728 0.034170571312504706 0 -0.00053229251148233681 0.034291312317484571 0 -0.00042510415579816423 0.034364804529573169 0 -0.00042510415579816423 0.034364804529573169 0 -0.00040666283113777879 0.034515088426720623 0 -0.00020856056334682147 0.034585052907070452 0 -0.00040666283113777879 0.034515088426720623 0 -0.00036670986684125584 0.034685160021741747 0 -0.00020856056334682147 0.034585052907070452 0 -0.00040666283113777879 0.034515088426720623 0 -0.00048288179931278816 0.034494127911013091 0 -0.00047271923885957445 0.034585838820051396 0 -0.00040666283113777879 0.034515088426720623 0 -0.00050102262057920581 0.03441505949154669 0 -0.00048288179931278816 0.034494127911013091 0 -0.00042510415579816423 0.034364804529573169 0 -0.00040666283113777879 0.034515088426720623 0 -0.00050102262057920581 0.03441505949154669 0 -0.00042510415579816423 0.034364804529573169 0 -0.00053669822385559612 0.034349818882224659 0 -0.00050102262057920581 0.03441505949154669 0 -0.00053669822385559612 0.034349818882224659 0 -0.00050102262057920581 0.03441505949154669 0 -0.00059416442258029779 0.034371924908708336 0 -0.00053669822385559612 0.034349818882224659 0 -0.00059416442258029779 0.034371924908708336 0 -0.00054359830299957352 0.03432572953341604 0 -0.00059416442258029779 0.034371924908708336 0 -0.00054359830299957352 0.03432572953341604 0 -0.00055232737804198587 0.034256512805600631 0 -0.0012753503072645404 0.033616963252457645 0 -0.0012882921419398656 0.033524021683992523 0 -0.00059416442258029779 0.034371924908708336 0 -0.0005529713443876565 0.034462941141075842 0 -0.00066512511412435474 0.034643731330709172 0 -0.00059416442258029779 0.034371924908708336 0 -0.00064993700108951157 0.034202504222410723 0 -0.00055232737804198587 0.034256512805600631 0 -0.0012878663726689943 0.033570586867358518 0 -0.0012882921419398656 0.033524021683992523 0 -0.0005529713443876565 0.034462941141075842 0 -0.00047271923885957445 0.034585838820051396 0 -0.00061467126508695489 0.034595237288028921 0 -0.00050102262057920581 0.03441505949154669 0 -0.00048288179931278816 0.034494127911013091 0 -0.0005529713443876565 0.034462941141075842 0 -0.00050102262057920581 0.03441505949154669 0 -0.00059416442258029779 0.034371924908708336 0 -0.0005529713443876565 0.034462941141075842 0 -0.00048288179931278816 0.034494127911013091 0 -0.0005529713443876565 0.034462941141075842 0 -0.00047271923885957445 0.034585838820051396 0 -0.00047271923885957445 0.034585838820051396 0 -0.00061467126508695489 0.034595237288028921 0 -0.00049207622910043343 0.034743232073243431 0 -0.0012882921419398656 0.033524021683992523 0 -0.0010714476911104179 0.033318675115688007 0 -0.00061467126508695489 0.034595237288028921 0 -0.00049207622910043343 0.034743232073243431 0 -0.00063731405837585714 0.034901469849916308 0 -0.00049207622910043343 0.034743232073243431 0 -0.00036670986684125584 0.034685160021741747 0 -0.00038119911211226623 0.034924574533594023 0 -0.00036670986684125584 0.034685160021741747 0 -0.00038119911211226623 0.034924574533594023 0 -0.00020347118133570287 0.034758400349627926 0 -0.00047271923885957445 0.034585838820051396 0 -0.00049207622910043343 0.034743232073243431 0 -0.00036670986684125584 0.034685160021741747 0 -0.00040666283113777879 0.034515088426720623 0 -0.00047271923885957445 0.034585838820051396 0 -0.00036670986684125584 0.034685160021741747 0 -0.0004954950949895724 0.034330482171419117 0 -0.00027942739659362069 0.034196924036224825 0 -0.00046758213090477375 0.03424044154244673 0 -0.00045941681709208755 0.021009778549621643 0 -0.00071638751843148489 0.021511122214676392 0 -0.0009094551967710904 0.021021750995798196 0 -0.00066473277681849908 0.027604292548250468 0 -0.00072521864093439943 0.027422272249422973 0 -0.00027942739659362069 0.034196924036224825 0 -0.00046758213090477375 0.03424044154244673 0 -0.00038675802334231757 0.034114187333441466 0 -0.0004954950949895724 0.034330482171419117 0 -0.00046758213090477375 0.03424044154244673 0 -0.00054359830299957352 0.03432572953341604 0 -0.00046758213090477375 0.03424044154244673 0 -0.00054359830299957352 0.03432572953341604 0 -0.00055232737804198587 0.034256512805600631 0 -0.00064993700108951157 0.034202504222410723 0 -0.00051122726082037393 0.034082609470019648 0 -0.00055526690551184975 0.033831759821749068 0 -0.0012882921419398656 0.033524021683992523 0 -0.0013525857076081636 0.03244955930184306 0 -0.00046758213090477375 0.03424044154244673 0 -0.00055232737804198587 0.034256512805600631 0 -0.00051122726082037393 0.034082609470019648 0 -0.00064993700108951157 0.034202504222410723 0 -0.00055232737804198587 0.034256512805600631 0 -0.00051122726082037393 0.034082609470019648 0 -0.00046758213090477375 0.03424044154244673 0 -0.00051122726082037393 0.034082609470019648 0 -0.00038675802334231757 0.034114187333441466 0 -0.00051122726082037393 0.034082609470019648 0 -0.00038675802334231757 0.034114187333441466 0 -0.00028383366347353587 0.033926813133706359 0 -0.00027942739659362069 0.034196924036224825 0 -0.00028383366347353587 0.033926813133706359 0 -9.143408723847986e-05 0.033910896057454828 0 -0.00027942739659362069 0.034196924036224825 0 -0.00038675802334231757 0.034114187333441466 0 -0.00028383366347353587 0.033926813133706359 0 -0.00028383366347353587 0.033926813133706359 0 -0.00034023184508679381 0.033711103290754718 0 -0.00055526690551184975 0.033831759821749068 0 -0.00028383366347353587 0.033926813133706359 0 -0.00034023184508679381 0.033711103290754718 0 -0.00015102209886240433 0.03367379637698667 0 -0.00051122726082037393 0.034082609470019648 0 -0.00028383366347353587 0.033926813133706359 0 -0.00055526690551184975 0.033831759821749068 0 -0.0013525857076081636 0.03244955930184306 0 -0.0012433761750363342 0.030253576269320768 0 -0.0012874880742435157 0.032371601950699984 0 -0.0015275048191602629 0.031499219155335732 0 -0.00079802382299490316 0.031507541366327878 0 -0.0012874880742435157 0.032371601950699984 0 -0.0015275048191602629 0.031499219155335732 0 -0.0016529665705374737 0.032367073716935868 0 -0.00073986864531219959 0.032408072724683511 0 -0.0012433761750363342 0.030253576269320768 0 -0.00036524472991234994 0.03340265195867019 0 -0.00015102209886240433 0.03367379637698667 0 -4.7955533644039288e-05 0.033390813460146343 0 -0.00034023184508679381 0.033711103290754718 0 -0.00036524472991234994 0.03340265195867019 0 -0.00015102209886240433 0.03367379637698667 0 -0.0012433761750363342 0.030253576269320768 0 -0.00086318811559580255 0.028359680536557203 0 -0.00034023184508679381 0.033711103290754718 0 -0.00055526690551184975 0.033831759821749068 0 -0.00036524472991234994 0.03340265195867019 0 -0.0017775287099257792 0.033236509303054995 0 -0.0012874880742435157 0.032371601950699984 0 -0.0016529665705374737 0.032367073716935868 0 -0.00049207622910043343 0.034743232073243431 0 -0.00038119911211226623 0.034924574533594023 0 -0.00063731405837585714 0.034901469849916308 0 -0.00067203539565357823 0.035169366887005449 0 -0.00038119911211226623 0.034924574533594023 0 -0.00063731405837585714 0.034901469849916308 0 -0.00073986864531219959 0.032408072724683511 0 -0.0010714476911104179 0.033318675115688007 0 -0.00067203539565357823 0.035169366887005449 0 -0.00038119911211226623 0.034924574533594023 0 -0.00030385254313806823 0.035173688234445284 0 -0.00038119911211226623 0.034924574533594023 0 -0.00017423874646316107 0.034961386814323044 0 -0.00030385254313806823 0.035173688234445284 0 -0.00017423874646316107 0.034961386814323044 0 4.2520721274497457e-05 0.035174978722640873 0 -0.00030385254313806823 0.035173688234445284 0 -0.00038119911211226623 0.034924574533594023 0 -0.00017423874646316107 0.034961386814323044 0 -0.00020347118133570287 0.034758400349627926 0 -0.00017423874646316107 0.034961386814323044 0 -5.106772212057169e-05 0.034840669610690898 0 -0.00020347118133570287 0.034758400349627926 0 -4.7718547460880963e-05 0.034869324739612136 0 2.1544589296087214e-05 0.034951927047028125 0 2.2177685910334777e-05 0.034838257938340021 0 -5.1716215604138536e-06 0.034994317342082235 0 -4.1776675910362298e-06 0.034997388671956314 0 -9.292111380090535e-07 0.034997414626214092 0 -6.6943139238995834e-05 0.034893359701188724 0 -6.0351803880653747e-06 0.034962646263373649 0 -6.6943139238995834e-05 0.034893359701188724 0 -6.699766002570325e-05 0.034892919307989337 0 -6.6943139238995834e-05 0.034893359701188724 0 -7.3048888217027891e-05 0.034848828853991973 0 -0.00017423874646316107 0.034961386814323044 0 -5.106772212057169e-05 0.034840669610690898 0 -4.1568412449892861e-06 0.035005951725480378 0 -0.00017423874646316107 0.034961386814323044 0 -4.1568412449892861e-06 0.035005951725480378 0 4.2520721274497457e-05 0.035174978722640873 0 -7.3048888217027891e-05 0.034848828853991973 0 -0.00012181514073541976 0.03466679047801173 0 -4.1776675910362298e-06 0.034997388671956314 0 -2.1089123857256143e-06 0.034998335067181238 0 -3.2910482044731927e-06 0.034999703773931877 0 -2.1089123857256143e-06 0.034998335067181238 0 -9.292111380090535e-07 0.034997414626214092 0 -7.2471919948680021e-07 0.034999620009226046 0 -9.292111380090535e-07 0.034997414626214092 0 -3.5903730205482503e-07 0.03499973689256583 0 -7.2471919948680021e-07 0.034999620009226046 0 -2.1089123857256143e-06 0.034998335067181238 0 -7.2471919948680021e-07 0.034999620009226046 0 -3.2910482044731927e-06 0.034999703773931877 0 -4.1776675910362298e-06 0.034997388671956314 0 -2.1089123857256143e-06 0.034998335067181238 0 -9.292111380090535e-07 0.034997414626214092 0 2.5066208952513663e-08 0.034999943715347592 0 -6.0351803880653747e-06 0.034962646263373649 0 1.5197614287584305e-09 0.034999997686956288 0 -9.292111380090535e-07 0.034997414626214092 0 -3.5903730205482503e-07 0.03499973689256583 0 -5.6853727624018089e-08 0.034999983879315653 0 2.1544589296087214e-05 0.034951927047028125 0 1.4085719729878915e-07 0.03499988095630744 0 2.1544589296087214e-05 0.034951927047028125 0 2.2177685910334777e-05 0.034838257938340021 0 1.4085719729878915e-07 0.03499988095630744 0 2.2177685910334777e-05 0.034838257938340021 0 1.4085719729878915e-07 0.03499988095630744 0 6.8087400753349627e-05 0.034765032996279172 0 -6.1128346669860117e-09 0.034999144805655059 0 1.4085719729878915e-07 0.03499988095630744 0 6.8087400753349627e-05 0.034765032996279172 0 2.2177685910334777e-05 0.034838257938340021 0 6.8087400753349627e-05 0.034765032996279172 0 -2.003017687922108e-06 0.034653790233937276 0 8.6346166765298554e-05 0.034200987635595648 0 6.8087400753349627e-05 0.034765032996279172 0 -2.003017687922108e-06 0.034653790233937276 0 8.6346166765298554e-05 0.034200987635595648 0 -2.003017687922108e-06 0.034653790233937276 0 -0.00020856056334682147 0.034585052907070452 0 -2.003017687922108e-06 0.034653790233937276 0 -0.00020856056334682147 0.034585052907070452 0 -8.0137362507007304e-05 0.034739692099522788 0 -0.00020856056334682147 0.034585052907070452 0 -0.00020347118133570287 0.034758400349627926 0 -8.0137362507007304e-05 0.034739692099522788 0 -0.00036670986684125584 0.034685160021741747 0 -0.00020856056334682147 0.034585052907070452 0 -0.00020347118133570287 0.034758400349627926 0 -4.8362226730177292e-05 0.03488272318549232 0 -0.00020347118133570287 0.034758400349627926 0 -5.5318922631911234e-05 0.034849333936183301 0 -0.00020347118133570287 0.034758400349627926 0 -5.5318922631911234e-05 0.034849333936183301 0 -8.0137362507007304e-05 0.034739692099522788 0 -6.6943139238995834e-05 0.034893359701188724 0 -9.5753938416359637e-05 0.034872509189353439 0 2.2177685910334777e-05 0.034838257938340021 0 -5.5318922631911234e-05 0.034849333936183301 0 -8.0137362507007304e-05 0.034739692099522788 0 -4.7718547460880963e-05 0.034869324739612136 0 2.2177685910334777e-05 0.034838257938340021 0 -5.5318922631911234e-05 0.034849333936183301 0 2.2177685910334777e-05 0.034838257938340021 0 -2.003017687922108e-06 0.034653790233937276 0 -8.0137362507007304e-05 0.034739692099522788 0 -0.0011386683269574696 0.018017990939223873 0 -0.001611333624985462 0.017137978641103037 0 -0.00050496333713622387 0.017563198368904322 0 -0.00059986818515825758 0.017005419107540894 0 -0.00033601708006748918 0.017380564152102033 0 0.00012052769579544611 0.01959263036437519 0 -0.00014687882659680242 0.019549850387911169 0 -7.8273421566520449e-05 0.019677282137730449 0 0.00012052769579544611 0.01959263036437519 0 7.0412472648366981e-05 0.019623608984081588 0 -7.8273421566520449e-05 0.019677282137730449 0 0.00012052769579544611 0.01959263036437519 0 6.9254484389530437e-05 0.019528199221717165 0 7.0412472648366981e-05 0.019623608984081588 0 0.00012052769579544611 0.01959263036437519 0 0.00011156847856470032 0.019318256997675615 0 0.0001806396386255625 0.019660998152636208 0 0.00012052769579544611 0.01959263036437519 0 0.00011156847856470032 0.019318256997675615 0 -0.00014687882659680242 0.019549850387911169 0 -0.0011386683269574696 0.018017990939223873 0 -0.00098110715246673059 0.018178066646932084 0 0.00011156847856470032 0.019318256997675615 0 -0.00014687882659680242 0.019549850387911169 0 -0.00014293884095339951 0.018506692872988822 0 -0.00050496333713622387 0.017563198368904322 0 -0.00014293884095339951 0.018506692872988822 0 -5.3871386310832701e-05 0.017820730669885959 0 -0.00014293884095339951 0.018506692872988822 0 4.096641033660908e-07 0.017968593545974822 0 0.00012253273615218414 0.019266744884946046 0 -0.00014293884095339951 0.018506692872988822 0 4.096641033660908e-07 0.017968593545974822 0 2.1741379632526276e-05 0.017566031791436666 0 4.096641033660908e-07 0.017968593545974822 0 0.00012253273615218414 0.019266744884946046 0 3.6235567762765556e-07 0.019889471341896531 0 0.00011156847856470032 0.019318256997675615 0 -0.00014293884095339951 0.018506692872988822 0 0.00012253273615218414 0.019266744884946046 0 0.00011156847856470032 0.019318256997675615 0 0.00012253273615218414 0.019266744884946046 0 0.0001806396386255625 0.019660998152636208 0 0.0001806396386255625 0.019660998152636208 0 7.5944729808185744e-05 0.020270859980507632 0 2.258484938282567e-05 0.020149649789580188 0 0.00012253273615218414 0.019266744884946046 0 0.0001806396386255625 0.019660998152636208 0 7.5944729808185744e-05 0.020270859980507632 0 3.6235567762765556e-07 0.019889471341896531 0 7.5944729808185744e-05 0.020270859980507632 0 -4.5886813547205754e-07 0.021809981285801531 0 0.00012253273615218414 0.019266744884946046 0 3.6235567762765556e-07 0.019889471341896531 0 7.5944729808185744e-05 0.020270859980507632 0 7.5944729808185744e-05 0.020270859980507632 0 -4.5886813547205754e-07 0.021809981285801531 0 -0.00014811866334377502 0.021047184848751847 0 -0.00014811866334377502 0.021047184848751847 0 2.258484938282567e-05 0.020149649789580188 0 -0.00054953813135854093 0.020386780469474654 0 7.5944729808185744e-05 0.020270859980507632 0 -0.00014811866334377502 0.021047184848751847 0 2.258484938282567e-05 0.020149649789580188 0 2.258484938282567e-05 0.020149649789580188 0 -0.00025800174750229969 0.019919548158101916 0 -0.00054953813135854093 0.020386780469474654 0 -0.00025800174750229969 0.019919548158101916 0 -0.00018397241847861525 0.019595498916187601 0 -0.00049127425511551366 0.019722011317726554 0 -0.00025800174750229969 0.019919548158101916 0 7.8270065779782548e-05 0.019715556253342845 0 -0.00018397241847861525 0.019595498916187601 0 2.258484938282567