<?xml version="1.0"?>
<VTKFile type="UnstructuredGrid" version="0.1" byte_order="LittleEndian">
<UnstructuredGrid>
<Piece NumberOfPoints="26844" NumberOfCells="9473">
<Points>
<DataArray type="Float64" NumberOfComponents="3" format="ascii">
-0.5 -0.5 0 -0.4646202970524127 -0.47450967910536629 0 -0.37839327844103138 -0.5 0 -0.5 -0.5 0 -0.4646202970524127 -0.47450967910536629 0 -0.49999999999999939 -0.46224005665092499 0 -0.4646202970524127 -0.47450967910536629 0 -0.43768100674537191 -0.46004029744547431 0 -0.47871216822681523 -0.45005021672891682 0 -0.43768100674537191 -0.46004029744547431 0 -0.45742433645363101 -0.43786037680690831 0 -0.47871216822681523 -0.45005021672891682 0 -0.43768100674537191 -0.46004029744547431 0 -0.45742433645363101 -0.43786037680690831 0 -0.43576333370280912 -0.44129895133621838 0 -0.45742433645363101 -0.43786037680690831 0 -0.47871216822681523 -0.45005021672891682 0 -0.47871216822681523 -0.45005021672891682 0 -0.5 -0.43228250189906309 0 -0.47381363781305458 -0.43238996341236879 0 -0.4646202970524127 -0.47450967910536629 0 -0.47871216822681523 -0.45005021672891682 0 -0.49999999999999939 -0.46224005665092499 0 -0.45742433645363101 -0.43786037680690831 0 -0.47871216822681523 -0.45005021672891682 0 -0.47381363781305458 -0.43238996341236879 0 -0.47871216822681523 -0.45005021672891682 0 -0.49999999999999939 -0.46224005665092499 0 -0.47871216822681523 -0.45005021672891682 0 -0.49999999999999939 -0.46224005665092499 0 -0.5 -0.43228250189906309 0 -0.5 -0.43228250189906309 0 -0.47441721215399091 -0.41161434893752902 0 -0.5 -0.40232494714720141 0 -0.5 -0.43228250189906309 0 -0.47441721215399091 -0.41161434893752902 0 -0.47381363781305458 -0.43238996341236879 0 -0.5 -0.40232494714720141 0 -0.48419956130454811 -0.38804043774805119 0 -0.5 -0.37236739239533939 0 -0.47441721215399091 -0.41161434893752902 0 -0.5 -0.40232494714720141 0 -0.48419956130454811 -0.38804043774805119 0 -0.47441721215399091 -0.41161434893752902 0 -0.48419956130454811 -0.38804043774805119 0 -0.45754348929793898 -0.39427264029310688 0 -0.48419956130454811 -0.38804043774805119 0 -0.45754348929793898 -0.39427264029310688 0 -0.48419956130454811 -0.38804043774805119 0 -0.45754348929793898 -0.39427264029310688 0 -0.46650518769805832 -0.36367487795397552 0 -0.45754348929793898 -0.39427264029310688 0 -0.44148962219302279 -0.38138251725045069 0 -0.46650518769805832 -0.36367487795397552 0 -0.47441721215399091 -0.41161434893752902 0 -0.45754348929793898 -0.39427264029310688 0 -0.45157575422031299 -0.40818327970169649 0 -0.45754348929793898 -0.39427264029310688 0 -0.43088741729132979 -0.4005048428381619 0 -0.45754348929793898 -0.39427264029310688 0 -0.45157575422031299 -0.40818327970169649 0 -0.43088741729132979 -0.4005048428381619 0 -0.45754348929793898 -0.39427264029310688 0 -0.44148962219302279 -0.38138251725045069 0 -0.43088741729132979 -0.4005048428381619 0 -0.45742433645363101 -0.43786037680690831 0 -0.47381363781305458 -0.43238996341236879 0 -0.45575262785512249 -0.42160798551961198 0 -0.47441721215399091 -0.41161434893752902 0 -0.47381363781305458 -0.43238996341236879 0 -0.45575262785512249 -0.42160798551961198 0 -0.47441721215399091 -0.41161434893752902 0 -0.45575262785512249 -0.42160798551961198 0 -0.45157575422031299 -0.40818327970169649 0 -0.45575262785512249 -0.42160798551961198 0 -0.43927802450318321 -0.41291658092007272 0 -0.43613650468044679 -0.4256705368848997 0 -0.45575262785512249 -0.42160798551961198 0 -0.45157575422031299 -0.40818327970169649 0 -0.43927802450318321 -0.41291658092007272 0 -0.45157575422031299 -0.40818327970169649 0 -0.43927802450318321 -0.41291658092007272 0 -0.43088741729132979 -0.4005048428381619 0 -0.45742433645363101 -0.43786037680690831 0 -0.43613650468044679 -0.4256705368848997 0 -0.43576333370280912 -0.44129895133621838 0 -0.45742433645363101 -0.43786037680690831 0 -0.43613650468044679 -0.4256705368848997 0 -0.45742433645363101 -0.43786037680690831 0 -0.45575262785512249 -0.42160798551961198 0 -0.43613650468044679 -0.4256705368848997 0 -0.42262651926962502 -0.43289615401210962 0 -0.43613650468044679 -0.4256705368848997 0 -0.42396383045893038 -0.41618313454099609 0 -0.42262651926962502 -0.43289615401210962 0 -0.43613650468044679 -0.4256705368848997 0 -0.43576333370280912 -0.44129895133621838 0 -0.43927802450318321 -0.41291658092007272 0 -0.42396383045893038 -0.41618313454099609 0 -0.43088741729132979 -0.4005048428381619 0 -0.43927802450318321 -0.41291658092007272 0 -0.43613650468044679 -0.4256705368848997 0 -0.42396383045893038 -0.41618313454099609 0 -0.43927802450318321 -0.41291658092007272 0 -0.43088741729132979 -0.4005048428381619 0 -0.42396383045893038 -0.41618313454099609 0 -0.406540338328441 -0.42289661130944511 0 -0.40973290954423253 -0.4054507769948596 0 -0.42396383045893038 -0.41618313454099609 0 -0.43088741729132979 -0.4005048428381619 0 -0.40973290954423253 -0.4054507769948596 0 -0.42262651926962502 -0.43289615401210962 0 -0.406540338328441 -0.42289661130944511 0 -0.4044741733462125 -0.44352827950914181 0 -0.42262651926962502 -0.43289615401210962 0 -0.42396383045893038 -0.41618313454099609 0 -0.406540338328441 -0.42289661130944511 0 -0.43088741729132979 -0.4005048428381619 0 -0.41627841541260002 -0.37889459457140101 0 -0.44148962219302279 -0.38138251725045069 0 -0.43088741729132979 -0.4005048428381619 0 -0.41627841541260002 -0.37889459457140101 0 -0.43088741729132979 -0.4005048428381619 0 -0.40973290954423253 -0.4054507769948596 0 -0.41627841541260002 -0.37889459457140101 0 -0.43088741729132979 -0.4005048428381619 0 -0.40973290954423253 -0.4054507769948596 0 -0.40973290954423253 -0.4054507769948596 0 -0.41627841541260002 -0.37889459457140101 0 -0.39626706838329923 -0.39504545103964511 0 -0.41627841541260002 -0.37889459457140101 0 -0.39188034863555288 -0.37964509591507889 0 -0.39626706838329923 -0.39504545103964511 0 -0.40973290954423253 -0.4054507769948596 0 -0.39626706838329923 -0.39504545103964511 0 -0.38857840179713488 -0.41039671115155663 0 -0.39188034863555288 -0.37964509591507889 0 -0.39626706838329923 -0.39504545103964511 0 -0.37474971554337089 -0.39783367767580391 0 -0.39626706838329923 -0.39504545103964511 0 -0.38857840179713488 -0.41039671115155663 0 -0.37474971554337089 -0.39783367767580391 0 -0.39188034863555288 -0.37964509591507889 0 -0.3795751283023639 -0.37049916240697423 0 -0.36747219157488098 -0.37991114783798341 0 -0.39188034863555288 -0.37964509591507889 0 -0.36747219157488098 -0.37991114783798341 0 -0.37474971554337089 -0.39783367767580391 0 -0.406540338328441 -0.42289661130944511 0 -0.38986619555451091 -0.42892461164800721 0 -0.4044741733462125 -0.44352827950914181 0 -0.40973290954423253 -0.4054507769948596 0 -0.38857840179713488 -0.41039671115155663 0 -0.406540338328441 -0.42289661130944511 0 -0.40973290954423253 -0.4054507769948596 0 -0.38857840179713488 -0.41039671115155663 0 -0.406540338328441 -0.42289661130944511 0 -0.38857840179713488 -0.41039671115155663 0 -0.38986619555451091 -0.42892461164800721 0 -0.38857840179713488 -0.41039671115155663 0 -0.38986619555451091 -0.42892461164800721 0 -0.37052375847279517 -0.4189845139465414 0 -0.38857840179713488 -0.41039671115155663 0 -0.37052375847279517 -0.4189845139465414 0 -0.37474971554337089 -0.39783367767580391 0 -0.38986619555451091 -0.42892461164800721 0 -0.37663782750341551 -0.44942816039535788 0 -0.37052375847279517 -0.4189845139465414 0 -0.38986619555451091 -0.42892461164800721 0 -0.37663782750341551 -0.44942816039535788 0 -0.4044741733462125 -0.44352827950914181 0 -0.4646202970524127 -0.47450967910536629 0 -0.43768100674537191 -0.46004029744547431 0 -0.37839327844103138 -0.5 0 -0.37663782750341551 -0.44942816039535788 0 -0.4044741733462125 -0.44352827950914181 0 -0.40508035653271018 -0.46487132243105073 0 -0.37663782750341551 -0.44942816039535788 0 -0.40508035653271018 -0.46487132243105073 0 -0.37839327844103138 -0.5 0 -0.43768100674537191 -0.46004029744547431 0 -0.40508035653271018 -0.46487132243105073 0 -0.37839327844103138 -0.5 0 -0.43768100674537191 -0.46004029744547431 0 -0.40508035653271018 -0.46487132243105073 0 -0.42494830136497042 -0.45002739153170063 0 -0.42262651926962502 -0.43289615401210962 0 -0.42494830136497042 -0.45002739153170063 0 -0.43576333370280912 -0.44129895133621838 0 -0.43768100674537191 -0.46004029744547431 0 -0.42494830136497042 -0.45002739153170063 0 -0.43576333370280912 -0.44129895133621838 0 -0.4044741733462125 -0.44352827950914181 0 -0.40508035653271018 -0.46487132243105073 0 -0.42494830136497042 -0.45002739153170063 0 -0.42262651926962502 -0.43289615401210962 0 -0.4044741733462125 -0.44352827950914181 0 -0.42494830136497042 -0.45002739153170063 0 -0.45237957687253721 -0.26935139155030108 0 -0.43333417593093548 -0.2586373813461017 0 -0.45552237441803523 -0.23859464828652599 0 -0.45237957687253721 -0.26935139155030108 0 -0.4391741251006836 -0.28760337166462002 0 -0.43333417593093548 -0.2586373813461017 0 -0.45237957687253721 -0.26935139155030108 0 -0.46217991615613491 -0.27842729230381991 0 -0.45654823437425313 -0.28698755605114262 0 -0.45237957687253721 -0.26935139155030108 0 -0.46217991615613491 -0.27842729230381991 0 -0.46932686742336582 -0.27190841780417557 0 -0.46217991615613491 -0.27842729230381991 0 -0.46932686742336582 -0.27190841780417557 0 -0.46907208869110228 -0.28539579446217173 0 -0.45237957687253721 -0.26935139155030108 0 -0.46858961573933577 -0.25532911961135868 0 -0.45552237441803523 -0.23859464828652599 0 -0.45237957687253721 -0.26935139155030108 0 -0.46858961573933577 -0.25532911961135868 0 -0.46932686742336582 -0.27190841780417557 0 -0.48548706001004782 -0.26105870567385769 0 -0.48159881645759078 -0.2398053104504039 0 -0.46858961573933577 -0.25532911961135868 0 -0.48548706001004782 -0.26105870567385769 0 -0.48159881645759078 -0.2398053104504039 0 -0.46858961573933577 -0.25532911961135868 0 -0.48548706001004782 -0.26105870567385769 0 -0.46932686742336582 -0.27190841780417557 0 -0.48548706001004782 -0.26105870567385769 0 -0.5 -0.25253717338789178 0 -0.4916262969
[...]
<PointData Scalars="" Vectors="displacement," Tensors="">
<DataArray type="Float64" Name="displacement" NumberOfComponents="3" format="ascii">
0.014997347833563997 0.014999751665395826 0 0.014825900340382626 0.014006931910416687 0 0.014998766796375292 0.011352374211935971 0 0.014997347833563997 0.014999751665395826 0 0.014825900340382626 0.014006931910416687 0 0.01387183524544832 0.014998638544365509 0 0.014825900340382626 0.014006931910416687 0 0.014956268114471533 0.013259648603652311 0 0.014849158048142963 0.014225795220731797 0 0.014956268114471533 0.013259648603652311 0 0.015010248378827746 0.013581979776940737 0 0.014849158048142963 0.014225795220731797 0 0.014956268114471533 0.013259648603652311 0 0.015010248378827746 0.013581979776940737 0 0.014849428693036343 0.013371942678194124 0 0.014077944073259512 0.014205236531669344 0 0.014062987499130769 0.014663635590667582 0 0.013291428118851482 0.015213135973864415 0 0.012968714501617889 0.015000003887978834 0 0.01317134731165169 0.015095464589271359 0 0.014825900340382626 0.014006931910416687 0 0.014849158048142963 0.014225795220731797 0 0.01387183524544832 0.014998638544365509 0 0.013109779481591557 0.014773777274691327 0 0.013291428118851482 0.015213135973864415 0 0.01317134731165169 0.015095464589271359 0 0.014062987499130769 0.014663635590667582 0 0.013867341487009119 0.014999818385510661 0 0.013291428118851482 0.015213135973864415 0 0.013866504309470541 0.014999729619676577 0 0.012968714501617889 0.015000003887978834 0 0.012968714501617889 0.015000003887978834 0 0.012964094480252821 0.015063614703533703 0 0.012070301595072401 0.014999283274653863 0 0.012968714501617889 0.015000003887978834 0 0.012964094480252821 0.015063614703533703 0 0.01317134731165169 0.015095464589271359 0 0.012070301595072401 0.014999283274653863 0 0.011610032607449491 0.015048653685871946 0 0.011170854129847562 0.014999702177885333 0 0.012964094480252821 0.015063614703533703 0 0.012070301595072401 0.014999283274653863 0 0.011610032607449491 0.015048653685871946 0 0.012964094480252821 0.015063614703533703 0 0.011610032607449491 0.015048653685871946 0 0.013317011088931142 0.014783297167982485 0 0.011698767110932833 0.0148294113924251 0 0.011734217150915239 0.01470732372086145 0 0.011610032607449491 0.015048653685871946 0 0.010622035815462259 0.014468288331518626 0 0.010924723756828895 0.014708967979865472 0 0.010622035815462259 0.014468288331518626 0 0.01057219337257531 0.014040387610338354 0 0.010924723756828895 0.014708967979865472 0 0.012964094480252821 0.015063614703533703 0 0.013317011088931142 0.014783297167982485 0 0.013731782046668299 0.014542800264967719 0 0.011734217150915239 0.01470732372086145 0 0.0137085673657315 0.013148646021978789 0 0.013317011088931142 0.014783297167982485 0 0.013731782046668299 0.014542800264967719 0 0.0140802132102437 0.014288677092504034 0 0.010622035815462259 0.014468288331518626 0 0.01057219337257531 0.014040387610338354 0 0.010178630723120856 0.013796373484510568 0 0.013109779481591557 0.014773777274691327 0 0.01317134731165169 0.015095464589271359 0 0.013631448143190054 0.014667503245864426 0 0.012964094480252821 0.015063614703533703 0 0.01317134731165169 0.015095464589271359 0 0.013631448143190054 0.014667503245864426 0 0.012964094480252821 0.015063614703533703 0 0.013631448143190054 0.014667503245864426 0 0.013731782046668299 0.014542800264967719 0 0.013631448143190054 0.014667503245864426 0 0.014318661370464921 0.014147952851555352 0 0.014336508872275179 0.013651470006778471 0 0.013631448143190054 0.014667503245864426 0 0.013731782046668299 0.014542800264967719 0 0.014318661370464921 0.014147952851555352 0 0.013731782046668299 0.014542800264967719 0 0.014318661370464921 0.014147952851555352 0 0.0140802132102437 0.014288677092504034 0 0.015010248378827746 0.013581979776940737 0 0.014336508872275179 0.013651470006778471 0 0.014849428693036343 0.013371942678194124 0 0.014077944073259512 0.014205236531669344 0 0.01428310210809533 0.013741651377973207 0 0.013109779481591557 0.014773777274691327 0 0.013631448143190054 0.014667503245864426 0 0.014336508872275179 0.013651470006778471 0 0.014778903976927181 0.013070992585647033 0 0.014336508872275179 0.013651470006778471 0 0.014826885517616396 0.013178680633652396 0 0.014778903976927181 0.013070992585647033 0 0.014336508872275179 0.013651470006778471 0 0.014849428693036343 0.013371942678194124 0 0.014318661370464921 0.014147952851555352 0 0.014826885517616396 0.013178680633652396 0 0.015483043274664167 0.013566479191229747 0 0.014318661370464921 0.014147952851555352 0 0.014336508872275179 0.013651470006778471 0 0.014826885517616396 0.013178680633652396 0 0.014449228958243658 0.013945029050803708 0 0.0137085673657315 0.013148646021978789 0 0.014826885517616396 0.013178680633652396 0 0.015087555340678285 0.012418182934102222 0 0.015527537144412741 0.012514659895274531 0 0.014826885517616396 0.013178680633652396 0 0.015483043274664167 0.013566479191229747 0 0.015527537144412741 0.012514659895274531 0 0.014778903976927181 0.013070992585647033 0 0.015087555340678285 0.012418182934102222 0 0.015028613752619012 0.012343324725009829 0 0.014778903976927181 0.013070992585647033 0 0.014826885517616396 0.013178680633652396 0 0.015087555340678285 0.012418182934102222 0 0.0137085673657315 0.013148646021978789 0 0.012491848639456602 0.011676247637089585 0 0.01057219337257531 0.014040387610338354 0 0.010178630723120856 0.013796373484510568 0 0.0103974055837542 0.013351737736200003 0 0.015419421187365985 0.010047896875188303 0 0.015582270459538087 0.010663513044948492 0 0.014815197961820417 0.010353220106541945 0 0.0137085673657315 0.013148646021978789 0 0.015624580233232765 0.011357281680100242 0 0.015582270459538087 0.010663513044948492 0 0.014815197961820417 0.010353220106541945 0 0.015280879099610291 0.011090868574875552 0 0.014815197961820417 0.010353220106541945 0 0.014945229509896196 0.011043537388377222 0 0.015280879099610291 0.011090868574875552 0 0.015582270459538087 0.010663513044948492 0 0.015280879099610291 0.011090868574875552 0 0.015542428191172615 0.011560730118938127 0 0.014945229509896196 0.011043537388377222 0 0.015280879099610291 0.011090868574875552 0 0.015468726136278274 0.011521160874017529 0 0.015280879099610291 0.011090868574875552 0 0.015542428191172615 0.011560730118938127 0 0.015468726136278274 0.011521160874017529 0 0.014945229509896196 0.011043537388377222 0 0.014685005962157275 0.011333061753601846 0 0.015303379383497318 0.01164631614702266 0 0.014945229509896196 0.011043537388377222 0 0.015303379383497318 0.01164631614702266 0 0.015468726136278274 0.011521160874017529 0 0.015087555340678285 0.012418182934102222 0 0.015228399301757185 0.011814278141052436 0 0.015028613752619012 0.012343324725009829 0 0.015624580233232765 0.011357281680100242 0 0.015538009449372503 0.011609047908360662 0 0.015087555340678285 0.012418182934102222 0 0.015527537144412741 0.012514659895274531 0 0.015542428191172615 0.011560730118938127 0 0.015087555340678285 0.012418182934102222 0 0.015542428191172615 0.011560730118938127 0 0.015228399301757185 0.011814278141052436 0 0.015542428191172615 0.011560730118938127 0 0.015228399301757185 0.011814278141052436 0 0.015333787533320299 0.011458951098493989 0 0.015542428191172615 0.011560730118938127 0 0.015333787533320299 0.011458951098493989 0 0.015468726136278274 0.011521160874017529 0 0.015228399301757185 0.011814278141052436 0 0.015293976975381448 0.011510830215643659 0 0.015333787533320299 0.011458951098493989 0 0.015228399301757185 0.011814278141052436 0 0.015293976975381448 0.011510830215643659 0 0.015028613752619012 0.012343324725009829 0 0.014825900340382626 0.014006931910416687 0 0.014956268114471533 0.013259648603652311 0 0.014998766796375292 0.011352374211935971 0 0.015293976975381448 0.011510830215643659 0 0.015028613752619012 0.012343324725009829 0 0.015036375489239726 0.01230092669829199 0 0.015293976975381448 0.011510830215643659 0 0.015036375489239726 0.01230092669829199 0 0.014998766796375292 0.011352374211935971 0 0.014956268114471533 0.013259648603652311 0 0.015036375489239726 0.01230092669829199 0 0.014998766796375292 0.011352374211935971 0 0.014956268114471533 0.013259648603652311 0 0.015036375489239726 0.01230092669829199 0 0.014929452898189203 0.012986637835276893 0 0.014778903976927181 0.013070992585647033 0 0.014929452898189203 0.012986637835276893 0 0.014849428693036343 0.013371942678194124 0 0.014956268114471533 0.013259648603652311 0 0.014929452898189203 0.012986637835276893 0 0.014849428693036343 0.013371942678194124 0 0.015028613752619012 0.012343324725009829 0 0.015036375489239726 0.01230092669829199 0 0.014929452898189203 0.012986637835276893 0 0.014778903976927181 0.013070992585647033 0 0.015028613752619012 0.012343324725009829 0 0.014929452898189203 0.012986637835276893 0 0.01127138596035545 0.01364748693234733 0 0.011475839058855693 0.013117288864842862 0 0.011948478352597415 0.01373412378700014 0 0.01127138596035545 0.01364748693234733 0 0.011009812992298673 0.013430121397313468 0 0.011475839058855693 0.013117288864842862 0 0.01127138596035545 0.01364748693234733 0 0.01110059495434235 0.013887326911028439 0 0.010993415248557851 0.013793685077822852 0 0.01127138596035545 0.01364748693234733 0 0.01110059495434235 0.013887326911028439 0 0.011194805686186885 0.014039168467012423 0 0.01110059495434235 0.013887326911028439 0 0.011194805686186885 0.014039168467012423 0 0.010954400044881039 0.014048184033204639 0 0.01127138596035545 0.01364748693234733 0 0.011576365804155596 0.014026861478544978 0 0.011948478352597415 0.01373412378700014 0 0.01127138596035545 0.01364748693234733 0 0.011576365804155596 0.014026861478544978 0 0.011194805686186885 0.014039168467012423 0 0.010007547019200928 0.015072431686673939 0 0.0093740134256828211 0.015193321409964976 0 0.011576365804155596 0.014026861478544978 0 0.011450188522622091 0.014433461255405565 0 0.011895835497777332 0.014311251771930072 0 0.011576365804155596 0.014026861478544978 0 0.011450188522622091 0.014433461255405565 0 0.011194805686186885 0.014039168467012423 0 0.0085227762260149734 0.01585387388162858 0 0.0075773992384238374 0.014998726027083173 0 0.010685490808950128 0.014622627058562963 0 0.0085227762260149734 0.01585387388162858 0 0.0075773992384238374 0.014998726027083173 0 0.0073846420017520857 0.015436283889894962 0 0.007576116735276737 0.014999995252166564 0 0.0084125092057031874 0.015252052635679166 0 0.008474853711180199 0.015000004458896307 0 0.0075767584535030384 0.014999949015755989 0 0.0095605822916210673 0.014968619092664132 0 0.010007547019200928 0.015072431686673939 0 0.010641013761563381 0.014736755210400203 0 0.0085227762260149734 0.01585387388162858 0 0.010685490808950128 0.014622627058562963 0 0.010767357576553905 0.014609328513876604 0 0.011450188522622091 0.014433461255405565 0 0.010983505752892532 0.014257080861626498 0 0.010767357576553905 0.014609328513876604 0 0.011450188522622091 0.014433461255405565 0 0.010983505752892532 0.014257080861626498 0 0.011194805686186885 0.014039168467012423 0 0.010983505752892532 0.014257080861626498 0 0.011194805686186885 0.014039168467012423 0 0.010954400044881039 0.014048184033204639 0 0.010983505752892532 0.014257080861626498 0 0.010954400044881039 0.014048184033204639 0 0.010833557510981381 0.014196822017748559 0 0.010833557510981381 0.014196822017748559 0 0.010767357576553905 0.014609328513876604 0 0.01082833309101724 0.0141586255302495 0 0.010954400044881039 0.014048184033204639 0 0.010833557510981381 0.014196822017748559 0 0.010851795719118514 0.014015893687403313 0 0.010983505752892532 0.014257080861626498 0 0.010833557510981381 0.014196822017748559 0 0.010767357576553905 0.014609328513876604 0 0.010685490808950128 0.014622627058562963 0 0.010767357576553905 0.014609328513876604 0 0.01082833309101724 0.0141586255302495 0 0.0084125092057031874 0.015252052635679166 0 0.0088868493332122257 0.015188939519322051 0 0.0092817107427526583 0.0154585221842052 0 0.0095605822916210673 0.014968619092664132 0 0.010061759535885688 0.014814200736630234 0 0.0084125092057031874 0.015252052635679166 0 0.0088868493332122257 0.015188939519322051 0 0.008474853711180199 0.015000004458896307 0 0.0088868493332122257 0.015188939519322051 0 0.0093736947405328123 0.014999917350273291 0 0.0092817107427526583 0.0154585221842052 0 0.0088868493332122257 0.015188939519322051 0 0.008474853711180199 0.015000004458896307 0 0.0093736947405328123 0.014999917350273291 0 0.01082833309101724 0.0141586255302495 0 0.010841848749195335 0.013953160983911288 0 0.010851795719118514 0.014015893687403313 0 0.010833557510981381 0.014196822017748559 0 0.01082833309101724 0.0141586255302495 0 0.010851795719118514 0.014015893687403313 0 0.010841848749195335 0.013953160983911288 0 0.010851795719118514 0.014015893687403313 0 0.010899105404037202 0.01375249162689474 0 0.010954400044881039 0.014048184033204639 0 0.010851795719118514 0.014015893687403313 0 0.010993415248557851 0.013793685077822852 0 0.01110059495434235 0.013887326911028439 0 0.010954400044881039 0.014048184033204639 0 0.010993415248557851 0.013793685077822852 0 0.010851795719118514 0.014015893687403313 0 0.010993415248557851 0.013793685077822852 0 0.010899105404037202 0.01375249162689474 0 0.010993415248557851 0.013793685077822852 0 0.011009812992298673 0.013430121397313468 0 0.010899105404037202 0.01375249162689474 0 0.01127138596035545 0.01364748693234733 0 0.010993415248557851 0.013793685077822852 0 0.011009812992298673 0.013430121397313468 0 0.011009812992298673 0.013430121397313468 0 0.010863453013890832 0.013579514497074304 0 0.010899105404037202 0.01375249162689474 0 0.010841848749195335 0.013953160983911288 0 0.010863453013890832 0.013579514497074304 0 0.010899105404037202 0.01375249162689474 0 0.010863453013890832 0.013579514497074304 0 0.010843558427343237 0.01385531303865716 0 0.010817254041754178 0.013380523385132939 0 0.010841848749195335 0.013953160983911288 0 0.010863453013890832 0.013579514497074304 0 0.010843558427343237 0.01385531303865716 0 0.010843558427343237 0.01385531303865716 0 0.010911054950974481 0.013976133582084134 0 0.010817254041754178 0.013380523385132939 0 0.010843558427343237 0.01385531303865716 0 0.010850727830362547 0.014146151603783689 0 0.010911054950974481 0.013976133582084134 0 0.010841848749195335 0.013953160983911288 0 0.010843558427343237 0.01385531303865716 0 0.010850727830362547 0.014146151603783689 0 0.010061759535885688 0.014814200736630234 0 0.010523604635740605 0.014757986353079419 0 0.0092817107427526583 0.0154585221842052 0 0.0098263680544270066 0.01523001693428846 0 0.010270190672869276 0.015397965704121285 0 0.01082833309101724 0.0141586255302495 0 0.010841848749195335 0.013953160983911288 0 0.010850727830362547 0.014146151603783689 0 0.0093736947405328123 0.014999917350273291 0 0.0098263680544270066 0.01523001693428846 0 0.010272678058623788 0.014999680770536043 0 0.0093736947405328123 0.014999917350273291 0 0.0092817107427526583 0.0154585221842052 0 0.0098263680544270066 0.01523001693428846 0 0.0098263680544270066 0.01523001693428846 0 0.010272678058623788 0.014999680770536043 0 0.010270190672869276 0.015397965704121285 0 0.010270190672869276 0.015397965704121285 0 0.010786666117504966 0.015055890692518527 0 0.010924723756828895 0.014708967979865472 0 0.010523604635740605 0.014757986353079419 0 0.010839303337876929 0.014710171570181113 0 0.010272678058623788 0.014999680770536043 0 0.010786666117504966 0.015055890692518527 0 0.011170854129847562 0.014999702177885333 0 0.010272678058623788 0.014999680770536043 0 0.010270190672869276 0.015397965704121285 0 0.010786666117504966 0.015055890692518527 0 0.011610032607449491 0.015048653685871946 0 0.010786666117504966 0.015055890692518527 0 0.011170854129847562 0.014999702177885333 0 0.011610032607449491 0.015048653685871946 0 0.010786666117504966 0.015055890692518527 0 0.010924723756828895 0.014708967979865472 0 0.010850727830362547 0.014146151603783689 0 0.010924723756828895 0.014708967979865472 0 0.010911054950974481 0.013976133582084134 0 0.010911054950974481 0.013976133582084134 0 0.010797949725258807 0.013826228219320096 0 0.010882911170500439 0.013548138392515575 0 0.010924723756828895 0.014708967979865472 0 0.010911054950974481 0.013976133582084134 0 0.010797949725258807 0.013826228219320096 0 0.01057219337257531 0.014040387610338354 0 0.010924723756828895 0.014708967979865472 0 0.010797949725258807 0.013826228219320096 0 0.0103974055837542 0.013351737736200003 0 0.010797949725258807 0.013826228219320096 0 0.010945639337906788 0.01327320041040214 0 0.01057219337257531 0.014040387610338354 0 0.0103974055837542 0.013351737736200003 0 0.010797949725258807 0.013826228219320096 0 0.010797949725258807 0.013826228219320096 0 0.010882911170500439 0.013548138392515575 0 0.010945639337906788 0.01327320041040214 0 0.010945639337906788 0.01327320041040214 0 0.010832238812222948 0.012245915076979131 0 0.012625571297392115 0.011839548686829933 0 0.010882911170500439 0.013548138392515575 0 0.010945639337906788 0.01327320041040214 0 0.010840327449373513 0.013301825866758219 0 0.0103974055837542 0.013351737736200003 0 0.010945639337906788 0.01327320041040214 0 0.010832238812222948 0.012245915076979131 0 0.012491848639456602 0.011676247637089585 0 0.012420671741164327 0.011374448357363186 0 0.014945229509896196 0.011043537388377222 0 0.013978535120298459 0.011052650112788864 0 0.013954835535164476 0.010478485566967422 0 0.014815197961820417 0.010353220106541945 0 0.014945229509896196 0.011043537388377222 0 0.013954835535164476 0.010478485566967422 0 0.014685005962157275 0.011333061753601846 0 0.013978535120298459 0.011052650112788864 0 0.01404989929668979 0.011797568533099672 0 0.014945229509896196 0.011043537388377222 0 0.014685005962157275 0.011333061753601846 0 0.013978535120298459 0.011052650112788864 0 0.013978535120298459 0.011052650112788864 0 0.012778731691634378 0.01079459317530602 0 0.01404989929668979 0.011797568533099672 0 0.012778731691634378 0.01079459317530602 0 0.012475089893965306 0.010415371908287502 0 0.01204184241439742 0.010256457676136511 0 0.01284667822042042 0.010805616578651641 0 0.012818767247039984 0.011004226880498126 0 0.013978535120298459 0.011052650112788864 0 0.013954835535164476 0.010478485566967422 0 0.012778731691634378 0.01079459317530602 0 0.012420671741164327 0.011374448357363186 0 0.012454139393676332 0.010896978802533245 0 0.013954835535164476 0.010478485566967422 0 0.012778731691634378 0.01079459317530602 0 0.012451605543393168 0.010813716935146865 0 0.010832238812222948 0.012245915076979131 0 0.012625571297392115 0.011839548686829933 0 0.012451605543393168 0.010813716935146865 0 0.012778731691634378 0.01079459317530602 0 0.012451605543393168 0.010813716935146865 0 0.012475089893965306 0.010415371908287502 0 0.012451605543393168 0.010813716935146865 0 0.012590485222580147 0.0104037438582641 0 0.012842010299462574 0.010304938698965293 0 0.012451605543393168 0.010813716935146865 0 0.012590485222580147 0.0104037438582641 0 0.012475089893965306 0.010415371908287502 0 0.012451605543393168 0.010813716935146865 0 0.012842010299462574 0.010304938698965293 0 0.013210340372888586 0.010603185568345467 0 0.011630893712132943 0.012448588302060993 0 0.01195139488517849 0.011554358874943408 0 0.010705160701989434 0.013066119418614491 0 0.010787371306898098 0.012999475383342621 0 0.010697934474133327 0.012477446692990444 0 0.012625571297392115 0.011839548686829933 0 0.012451605543393168 0.010813716935146865 0 0.013210340372888586 0.010603185568345467 0 0.010817254041754178 0.013380523385132939 0 0.010894091655625233 0.013230133878108803 0 0.010787371306898098 0.012999475383342621 0 0.010705160701989434 0.013066119418614491 0 0.010817254041754178 0.013380523385132939 0 0.010787371306898098 0.012999475383342621 0 0.010973162699325462 0.01319958019075985 0 0.011630893712132943 0.012448588302060993 0 0.010945639337906788 0.01327320041040214 0 0.010705160701989434 0.013066119418614491 0 0.010840327449373513 