<?xml version="1.0"?>
<VTKFile type="UnstructuredGrid" version="0.1" byte_order="LittleEndian">
<UnstructuredGrid>
<Piece NumberOfPoints="26844" NumberOfCells="9473">
<Points>
<DataArray type="Float64" NumberOfComponents="3" format="ascii">
-0.5 -0.5 0 -0.4646202970524127 -0.47450967910536629 0 -0.37839327844103138 -0.5 0 -0.5 -0.5 0 -0.4646202970524127 -0.47450967910536629 0 -0.49999999999999939 -0.46224005665092499 0 -0.4646202970524127 -0.47450967910536629 0 -0.43768100674537191 -0.46004029744547431 0 -0.47871216822681523 -0.45005021672891682 0 -0.43768100674537191 -0.46004029744547431 0 -0.45742433645363101 -0.43786037680690831 0 -0.47871216822681523 -0.45005021672891682 0 -0.43768100674537191 -0.46004029744547431 0 -0.45742433645363101 -0.43786037680690831 0 -0.43576333370280912 -0.44129895133621838 0 -0.45742433645363101 -0.43786037680690831 0 -0.47871216822681523 -0.45005021672891682 0 -0.47871216822681523 -0.45005021672891682 0 -0.5 -0.43228250189906309 0 -0.47381363781305458 -0.43238996341236879 0 -0.4646202970524127 -0.47450967910536629 0 -0.47871216822681523 -0.45005021672891682 0 -0.49999999999999939 -0.46224005665092499 0 -0.45742433645363101 -0.43786037680690831 0 -0.47871216822681523 -0.45005021672891682 0 -0.47381363781305458 -0.43238996341236879 0 -0.47871216822681523 -0.45005021672891682 0 -0.49999999999999939 -0.46224005665092499 0 -0.47871216822681523 -0.45005021672891682 0 -0.49999999999999939 -0.46224005665092499 0 -0.5 -0.43228250189906309 0 -0.5 -0.43228250189906309 0 -0.47441721215399091 -0.41161434893752902 0 -0.5 -0.40232494714720141 0 -0.5 -0.43228250189906309 0 -0.47441721215399091 -0.41161434893752902 0 -0.47381363781305458 -0.43238996341236879 0 -0.5 -0.40232494714720141 0 -0.48419956130454811 -0.38804043774805119 0 -0.5 -0.37236739239533939 0 -0.47441721215399091 -0.41161434893752902 0 -0.5 -0.40232494714720141 0 -0.48419956130454811 -0.38804043774805119 0 -0.47441721215399091 -0.41161434893752902 0 -0.48419956130454811 -0.38804043774805119 0 -0.45754348929793898 -0.39427264029310688 0 -0.48419956130454811 -0.38804043774805119 0 -0.45754348929793898 -0.39427264029310688 0 -0.48419956130454811 -0.38804043774805119 0 -0.45754348929793898 -0.39427264029310688 0 -0.46650518769805832 -0.36367487795397552 0 -0.45754348929793898 -0.39427264029310688 0 -0.44148962219302279 -0.38138251725045069 0 -0.46650518769805832 -0.36367487795397552 0 -0.47441721215399091 -0.41161434893752902 0 -0.45754348929793898 -0.39427264029310688 0 -0.45157575422031299 -0.40818327970169649 0 -0.45754348929793898 -0.39427264029310688 0 -0.43088741729132979 -0.4005048428381619 0 -0.45754348929793898 -0.39427264029310688 0 -0.45157575422031299 -0.40818327970169649 0 -0.43088741729132979 -0.4005048428381619 0 -0.45754348929793898 -0.39427264029310688 0 -0.44148962219302279 -0.38138251725045069 0 -0.43088741729132979 -0.4005048428381619 0 -0.45742433645363101 -0.43786037680690831 0 -0.47381363781305458 -0.43238996341236879 0 -0.45575262785512249 -0.42160798551961198 0 -0.47441721215399091 -0.41161434893752902 0 -0.47381363781305458 -0.43238996341236879 0 -0.45575262785512249 -0.42160798551961198 0 -0.47441721215399091 -0.41161434893752902 0 -0.45575262785512249 -0.42160798551961198 0 -0.45157575422031299 -0.40818327970169649 0 -0.45575262785512249 -0.42160798551961198 0 -0.43927802450318321 -0.41291658092007272 0 -0.43613650468044679 -0.4256705368848997 0 -0.45575262785512249 -0.42160798551961198 0 -0.45157575422031299 -0.40818327970169649 0 -0.43927802450318321 -0.41291658092007272 0 -0.45157575422031299 -0.40818327970169649 0 -0.43927802450318321 -0.41291658092007272 0 -0.43088741729132979 -0.4005048428381619 0 -0.45742433645363101 -0.43786037680690831 0 -0.43613650468044679 -0.4256705368848997 0 -0.43576333370280912 -0.44129895133621838 0 -0.45742433645363101 -0.43786037680690831 0 -0.43613650468044679 -0.4256705368848997 0 -0.45742433645363101 -0.43786037680690831 0 -0.45575262785512249 -0.42160798551961198 0 -0.43613650468044679 -0.4256705368848997 0 -0.42262651926962502 -0.43289615401210962 0 -0.43613650468044679 -0.4256705368848997 0 -0.42396383045893038 -0.41618313454099609 0 -0.42262651926962502 -0.43289615401210962 0 -0.43613650468044679 -0.4256705368848997 0 -0.43576333370280912 -0.44129895133621838 0 -0.43927802450318321 -0.41291658092007272 0 -0.42396383045893038 -0.41618313454099609 0 -0.43088741729132979 -0.4005048428381619 0 -0.43927802450318321 -0.41291658092007272 0 -0.43613650468044679 -0.4256705368848997 0 -0.42396383045893038 -0.41618313454099609 0 -0.43927802450318321 -0.41291658092007272 0 -0.43088741729132979 -0.4005048428381619 0 -0.42396383045893038 -0.41618313454099609 0 -0.406540338328441 -0.42289661130944511 0 -0.40973290954423253 -0.4054507769948596 0 -0.42396383045893038 -0.41618313454099609 0 -0.43088741729132979 -0.4005048428381619 0 -0.40973290954423253 -0.4054507769948596 0 -0.42262651926962502 -0.43289615401210962 0 -0.406540338328441 -0.42289661130944511 0 -0.4044741733462125 -0.44352827950914181 0 -0.42262651926962502 -0.43289615401210962 0 -0.42396383045893038 -0.41618313454099609 0 -0.406540338328441 -0.42289661130944511 0 -0.43088741729132979 -0.4005048428381619 0 -0.41627841541260002 -0.37889459457140101 0 -0.44148962219302279 -0.38138251725045069 0 -0.43088741729132979 -0.4005048428381619 0 -0.41627841541260002 -0.37889459457140101 0 -0.43088741729132979 -0.4005048428381619 0 -0.40973290954423253 -0.4054507769948596 0 -0.41627841541260002 -0.37889459457140101 0 -0.43088741729132979 -0.4005048428381619 0 -0.40973290954423253 -0.4054507769948596 0 -0.40973290954423253 -0.4054507769948596 0 -0.41627841541260002 -0.37889459457140101 0 -0.39626706838329923 -0.39504545103964511 0 -0.41627841541260002 -0.37889459457140101 0 -0.39188034863555288 -0.37964509591507889 0 -0.39626706838329923 -0.39504545103964511 0 -0.40973290954423253 -0.4054507769948596 0 -0.39626706838329923 -0.39504545103964511 0 -0.38857840179713488 -0.41039671115155663 0 -0.39188034863555288 -0.37964509591507889 0 -0.39626706838329923 -0.39504545103964511 0 -0.37474971554337089 -0.39783367767580391 0 -0.39626706838329923 -0.39504545103964511 0 -0.38857840179713488 -0.41039671115155663 0 -0.37474971554337089 -0.39783367767580391 0 -0.39188034863555288 -0.37964509591507889 0 -0.3795751283023639 -0.37049916240697423 0 -0.36747219157488098 -0.37991114783798341 0 -0.39188034863555288 -0.37964509591507889 0 -0.36747219157488098 -0.37991114783798341 0 -0.37474971554337089 -0.39783367767580391 0 -0.406540338328441 -0.42289661130944511 0 -0.38986619555451091 -0.42892461164800721 0 -0.4044741733462125 -0.44352827950914181 0 -0.40973290954423253 -0.4054507769948596 0 -0.38857840179713488 -0.41039671115155663 0 -0.406540338328441 -0.42289661130944511 0 -0.40973290954423253 -0.4054507769948596 0 -0.38857840179713488 -0.41039671115155663 0 -0.406540338328441 -0.42289661130944511 0 -0.38857840179713488 -0.41039671115155663 0 -0.38986619555451091 -0.42892461164800721 0 -0.38857840179713488 -0.41039671115155663 0 -0.38986619555451091 -0.42892461164800721 0 -0.37052375847279517 -0.4189845139465414 0 -0.38857840179713488 -0.41039671115155663 0 -0.37052375847279517 -0.4189845139465414 0 -0.37474971554337089 -0.39783367767580391 0 -0.38986619555451091 -0.42892461164800721 0 -0.37663782750341551 -0.44942816039535788 0 -0.37052375847279517 -0.4189845139465414 0 -0.38986619555451091 -0.42892461164800721 0 -0.37663782750341551 -0.44942816039535788 0 -0.4044741733462125 -0.44352827950914181 0 -0.4646202970524127 -0.47450967910536629 0 -0.43768100674537191 -0.46004029744547431 0 -0.37839327844103138 -0.5 0 -0.37663782750341551 -0.44942816039535788 0 -0.4044741733462125 -0.44352827950914181 0 -0.40508035653271018 -0.46487132243105073 0 -0.37663782750341551 -0.44942816039535788 0 -0.40508035653271018 -0.46487132243105073 0 -0.37839327844103138 -0.5 0 -0.43768100674537191 -0.46004029744547431 0 -0.40508035653271018 -0.46487132243105073 0 -0.37839327844103138 -0.5 0 -0.43768100674537191 -0.46004029744547431 0 -0.40508035653271018 -0.46487132243105073 0 -0.42494830136497042 -0.45002739153170063 0 -0.42262651926962502 -0.43289615401210962 0 -0.42494830136497042 -0.45002739153170063 0 -0.43576333370280912 -0.44129895133621838 0 -0.43768100674537191 -0.46004029744547431 0 -0.42494830136497042 -0.45002739153170063 0 -0.43576333370280912 -0.44129895133621838 0 -0.4044741733462125 -0.44352827950914181 0 -0.40508035653271018 -0.46487132243105073 0 -0.42494830136497042 -0.45002739153170063 0 -0.42262651926962502 -0.43289615401210962 0 -0.4044741733462125 -0.44352827950914181 0 -0.42494830136497042 -0.45002739153170063 0 -0.45237957687253721 -0.26935139155030108 0 -0.43333417593093548 -0.2586373813461017 0 -0.45552237441803523 -0.23859464828652599 0 -0.45237957687253721 -0.26935139155030108 0 -0.4391741251006836 -0.28760337166462002 0 -0.43333417593093548 -0.2586373813461017 0 -0.45237957687253721 -0.26935139155030108 0 -0.46217991615613491 -0.27842729230381991 0 -0.45654823437425313 -0.28698755605114262 0 -0.45237957687253721 -0.26935139155030108 0 -0.46217991615613491 -0.27842729230381991 0 -0.46932686742336582 -0.27190841780417557 0 -0.46217991615613491 -0.27842729230381991 0 -0.46932686742336582 -0.27190841780417557 0 -0.46907208869110228 -0.28539579446217173 0 -0.45237957687253721 -0.26935139155030108 0 -0.46858961573933577 -0.25532911961135868 0 -0.45552237441803523 -0.23859464828652599 0 -0.45237957687253721 -0.26935139155030108 0 -0.46858961573933577 -0.25532911961135868 0 -0.46932686742336582 -0.27190841780417557 0 -0.48548706001004782 -0.26105870567385769 0 -0.48159881645759078 -0.2398053104504039 0 -0.46858961573933577 -0.25532911961135868 0 -0.48548706001004782 -0.26105870567385769 0 -0.48159881645759078 -0.2398053104504039 0 -0.46858961573933577 -0.25532911961135868 0 -0.48548706001004782 -0.26105870567385769 0 -0.46932686742336582 -0.27190841780417557 0 -0.48548706001004782 -0.26105870567385769 0 -0.5 -0.25253717338789178 0 -0.4916262969
[...]
<PointData Scalars="" Vectors="displacement," Tensors="">
<DataArray type="Float64" Name="displacement" NumberOfComponents="3" format="ascii">
3.5027550923153026e-07 0.01499798529515795 0 2.1686367363541766e-05 0.014745752744485269 0 -4.6725011606789949e-08 0.014999371825545003 0 3.5027550923153026e-07 0.01499798529515795 0 2.1686367363541766e-05 0.014745752744485269 0 -4.5929179401528114e-07 0.013870452477929134 0 2.1686367363541766e-05 0.014745752744485269 0 -1.6293045817901124e-05 0.014647168509408358 0 -0.00017816025921723019 0.014477381770581641 0 -1.6293045817901124e-05 0.014647168509408358 0 -6.5117570073129998e-05 0.01453486302853833 0 -0.00017816025921723019 0.014477381770581641 0 -1.6293045817901124e-05 0.014647168509408358 0 -6.5117570073129998e-05 0.01453486302853833 0 1.0481946741392609e-05 0.014424407030871975 0 0.00013647532904508846 0.013856094953815727 0 -3.967933077914623e-06 0.013747112125773099 0 0.00010013790256794416 0.013012626972415869 0 7.3731912256761661e-07 0.012968569303913545 0 0.00016467737264082443 0.012862852208571486 0 2.1686367363541766e-05 0.014745752744485269 0 -0.00017816025921723019 0.014477381770581641 0 -4.5929179401528114e-07 0.013870452477929134 0 0.00038137306799144587 0.013128109796412784 0 0.00010013790256794416 0.013012626972415869 0 0.00016467737264082443 0.012862852208571486 0 -3.967933077914623e-06 0.013747112125773099 0 1.187634635429966e-08 0.013867077690573102 0 0.00010013790256794416 0.013012626972415869 0 -6.0956479201894361e-07 0.01386589649921976 0 7.3731912256761661e-07 0.012968569303913545 0 7.3731912256761661e-07 0.012968569303913545 0 2.8772545113847763e-05 0.012525387599949539 0 -4.1438037293314725e-07 0.01206965934923201 0 7.3731912256761661e-07 0.012968569303913545 0 2.8772545113847763e-05 0.012525387599949539 0 0.00016467737264082443 0.012862852208571486 0 -4.1438037293314725e-07 0.01206965934923201 0 -0.00018185526816036821 0.011643432471591301 0 -5.9066754563312502e-08 0.011171168362388408 0 2.8772545113847763e-05 0.012525387599949539 0 -4.1438037293314725e-07 0.01206965934923201 0 -0.00018185526816036821 0.011643432471591301 0 2.8772545113847763e-05 0.012525387599949539 0 -0.00018185526816036821 0.011643432471591301 0 -0.00058691617405715513 0.013074132277546537 0 -0.00020403678209306273 0.011746750225308657 0 -0.00036040014167422474 0.011916499478364585 0 -0.00018185526816036821 0.011643432471591301 0 -0.00013835470121695192 0.010861130700535038 0 0.00014062224034211155 0.010772699791688422 0 -0.00013835470121695192 0.010861130700535038 0 5.696001715044843e-05 0.010741901463726439 0 0.00014062224034211155 0.010772699791688422 0 2.8772545113847763e-05 0.012525387599949539 0 -0.00058691617405715513 0.013074132277546537 0 -0.00022587922714096016 0.013364999099729437 0 -0.00036040014167422474 0.011916499478364585 0 -9.6702233489941178e-05 0.012800045933922579 0 -0.00058691617405715513 0.013074132277546537 0 -0.00022587922714096016 0.013364999099729437 0 -0.00055285857375346849 0.014180982430169341 0 -0.00013835470121695192 0.010861130700535038 0 5.696001715044843e-05 0.010741901463726439 0 2.1160123753321763e-05 0.010750019993878476 0 0.00038137306799144587 0.013128109796412784 0 0.00016467737264082443 0.012862852208571486 0 8.7187038624221243e-05 0.013221383329568789 0 2.8772545113847763e-05 0.012525387599949539 0 0.00016467737264082443 0.012862852208571486 0 8.7187038624221243e-05 0.013221383329568789 0 2.8772545113847763e-05 0.012525387599949539 0 8.7187038624221243e-05 0.013221383329568789 0 -0.00022587922714096016 0.013364999099729437 0 8.7187038624221243e-05 0.013221383329568789 0 -0.00011096000775672906 0.013929442515793287 0 0.00013760892252680124 0.014171097327987631 0 8.7187038624221243e-05 0.013221383329568789 0 -0.00022587922714096016 0.013364999099729437 0 -0.00011096000775672906 0.013929442515793287 0 -0.00022587922714096016 0.013364999099729437 0 -0.00011096000775672906 0.013929442515793287 0 -0.00055285857375346849 0.014180982430169341 0 -6.5117570073129998e-05 0.01453486302853833 0 0.00013760892252680124 0.014171097327987631 0 1.0481946741392609e-05 0.014424407030871975 0 0.00013647532904508846 0.013856094953815727 0 0.00011693698317471687 0.014149235134446903 0 0.00038137306799144587 0.013128109796412784 0 8.7187038624221243e-05 0.013221383329568789 0 0.00013760892252680124 0.014171097327987631 0 4.0576570910508348e-05 0.014380091168895826 0 0.00013760892252680124 0.014171097327987631 0 -2.1884433774066999e-05 0.014293381873441707 0 4.0576570910508348e-05 0.014380091168895826 0 0.00013760892252680124 0.014171097327987631 0 1.0481946741392609e-05 0.014424407030871975 0 -0.00011096000775672906 0.013929442515793287 0 -2.1884433774066999e-05 0.014293381873441707 0 -0.00023996919697724404 0.014155624617059092 0 -0.00011096000775672906 0.013929442515793287 0 0.00013760892252680124 0.014171097327987631 0 -2.1884433774066999e-05 0.014293381873441707 0 -0.0004269798758168133 0.014043875572823545 0 -9.6702233489941178e-05 0.012800045933922579 0 -2.1884433774066999e-05 0.014293381873441707 0 -3.158559501358936e-05 0.014369727184651385 0 -2.5375386077961545e-05 0.014356488933219518 0 -2.1884433774066999e-05 0.014293381873441707 0 -0.00023996919697724404 0.014155624617059092 0 -2.5375386077961545e-05 0.014356488933219518 0 4.0576570910508348e-05 0.014380091168895826 0 -3.158559501358936e-05 0.014369727184651385 0 -1.9515350163625809e-05 0.014495857379950844 0 4.0576570910508348e-05 0.014380091168895826 0 -2.1884433774066999e-05 0.014293381873441707 0 -3.158559501358936e-05 0.014369727184651385 0 -9.6702233489941178e-05 0.012800045933922579 0 -0.00011915203895421395 0.011879016164568558 0 5.696001715044843e-05 0.010741901463726439 0 2.1160123753321763e-05 0.010750019993878476 0 0.00021183909236638791 0.010831125075556487 0 -0.00012375601187549767 0.012903964976019002 0 -3.1679646752764983e-05 0.013331998622568458 0 -0.00054160036156905111 0.013172269884686619 0 -9.6702233489941178e-05 0.012800045933922579 0 -2.7272138364134419e-05 0.013977684355163351 0 -3.1679646752764983e-05 0.013331998622568458 0 -0.00054160036156905111 0.013172269884686619 0 -0.00026986808377023704 0.013631671720809832 0 -0.00054160036156905111 0.013172269884686619 0 -0.00050780872188336027 0.013532567981659452 0 -0.00026986808377023704 0.013631671720809832 0 -3.1679646752764983e-05 0.013331998622568458 0 -0.00026986808377023704 0.013631671720809832 0 2.540008228776008e-06 0.014050415365421934 0 -0.00050780872188336027 0.013532567981659452 0 -0.00026986808377023704 0.013631671720809832 0 -0.00018248384323221845 0.014021598268798527 0 -0.00026986808377023704 0.013631671720809832 0 2.540008228776008e-06 0.014050415365421934 0 -0.00018248384323221845 0.014021598268798527 0 -0.00050780872188336027 0.013532567981659452 0 -0.00059993743783237077 0.013610544394774193 0 -0.00044418260023948566 0.013950421616225389 0 -0.00050780872188336027 0.013532567981659452 0 -0.00044418260023948566 0.013950421616225389 0 -0.00018248384323221845 0.014021598268798527 0 -3.158559501358936e-05 0.014369727184651385 0 -3.1630876993972845e-05 0.014330834114839829 0 -1.9515350163625809e-05 0.014495857379950844 0 -2.7272138364134419e-05 0.013977684355163351 0 -8.7829843607321029e-06 0.013966604060669094 0 -3.158559501358936e-05 0.014369727184651385 0 -2.5375386077961545e-05 0.014356488933219518 0 2.540008228776008e-06 0.014050415365421934 0 -3.158559501358936e-05 0.014369727184651385 0 2.540008228776008e-06 0.014050415365421934 0 -3.1630876993972845e-05 0.014330834114839829 0 2.540008228776008e-06 0.014050415365421934 0 -3.1630876993972845e-05 0.014330834114839829 0 -4.9895489689511748e-06 0.01422164564990374 0 2.540008228776008e-06 0.014050415365421934 0 -4.9895489689511748e-06 0.01422164564990374 0 -0.00018248384323221845 0.014021598268798527 0 -3.1630876993972845e-05 0.014330834114839829 0 -5.7020217545531712e-05 0.014569094970651383 0 -4.9895489689511748e-06 0.01422164564990374 0 -3.1630876993972845e-05 0.014330834114839829 0 -5.7020217545531712e-05 0.014569094970651383 0 -1.9515350163625809e-05 0.014495857379950844 0 2.1686367363541766e-05 0.014745752744485269 0 -1.6293045817901124e-05 0.014647168509408358 0 -4.6725011606789949e-08 0.014999371825545003 0 -5.7020217545531712e-05 0.014569094970651383 0 -1.9515350163625809e-05 0.014495857379950844 0 -1.6152367867241013e-05 0.01468354046289764 0 -5.7020217545531712e-05 0.014569094970651383 0 -1.6152367867241013e-05 0.01468354046289764 0 -4.6725011606789949e-08 0.014999371825545003 0 -1.6293045817901124e-05 0.014647168509408358 0 -1.6152367867241013e-05 0.01468354046289764 0 -4.6725011606789949e-08 0.014999371825545003 0 -1.6293045817901124e-05 0.014647168509408358 0 -1.6152367867241013e-05 0.01468354046289764 0 2.8655086039109912e-07 0.014538878719483121 0 4.0576570910508348e-05 0.014380091168895826 0 2.8655086039109912e-07 0.014538878719483121 0 1.0481946741392609e-05 0.014424407030871975 0 -1.6293045817901124e-05 0.014647168509408358 0 2.8655086039109912e-07 0.014538878719483121 0 1.0481946741392609e-05 0.014424407030871975 0 -1.9515350163625809e-05 0.014495857379950844 0 -1.6152367867241013e-05 0.01468354046289764 0 2.8655086039109912e-07 0.014538878719483121 0 4.0576570910508348e-05 0.014380091168895826 0 -1.9515350163625809e-05 0.014495857379950844 0 2.8655086039109912e-07 0.014538878719483121 0 -0.00045134099632564671 0.010182264081994585 0 -0.00052528541754365081 0.010455000057087258 0 -0.0010142420510629911 0.010083773252647154 0 -0.00045134099632564671 0.010182264081994585 0 -0.00022426064140743668 0.010403084829850393 0 -0.00052528541754365081 0.010455000057087258 0 -0.00045134099632564671 0.010182264081994585 0 -0.00033494012734159727 0.010022526425567842 0 -0.00021515295736970676 0.010157684869589416 0 -0.00045134099632564671 0.010182264081994585 0 -0.00033494012734159727 0.010022526425567842 0 -0.00045744336330011658 0.0098498914512092622 0 -0.00033494012734159727 0.010022526425567842 0 -0.00045744336330011658 0.0098498914512092622 0 -0.00021167785381377222 0.0099054661053576704 0 -0.00045134099632564671 0.010182264081994585 0 -0.00074923761475376432 0.0098427156189714697 0 -0.0010142420510629911 0.010083773252647154 0 -0.00045134099632564671 0.010182264081994585 0 -0.00074923761475376432 0.0098427156189714697 0 -0.00045744336330011658 0.0098498914512092622 0 -0.0002805921914572129 0.0087915391828692572 0 -0.00068280655179474043 0.0087301055296945713 0 -0.00074923761475376432 0.0098427156189714697 0 -0.0007016639523578478 0.0094847073216904228 0 -0.0010133758765966258 0.00960316896951262 0 -0.00074923761475376432 0.0098427156189714697 0 -0.0007016639523578478 0.0094847073216904228 0 -0.00045744336330011658 0.0098498914512092622 0 5.5654989113119202e-06 0.0080343001846280085 0 8.4010378206924597e-07 0.0075760646707211483 0 -0.00018700961754541349 0.0089705059500649366 0 5.5654989113119202e-06 0.0080343001846280085 0 8.4010378206924597e-07 0.0075760646707211483 0 -5.7376848427141497e-05 0.0076801523882756113 0 -8.4163130541453535e-08 0.0075763860954372545 0 -2.3334838192017995e-05 0.0085626262155495438 0 -7.9274210752832699e-08 0.0084751134663481973 0 -1.6901416523600868e-07 0.0075764983975303265 0 -0.00010683838985346659 0.0087436232014410122 0 -0.0002805921914572129 0.0087915391828692572 0 -0.00013158116226903374 0.0089981306628330246 0 5.5654989113119202e-06 0.0080343001846280085 0 -0.00018700961754541349 0.0089705059500649366 0 -0.00018683311580557495 0.0091055684525934346 0 -0.0007016639523578478 0.0094847073216904228 0 -0.00031888033198374172 0.0096139056289079091 0 -0.00018683311580557495 0.0091055684525934346 0 -0.0007016639523578478 0.0094847073216904228 0 -0.00031888033198374172 0.0096139056289079091 0 -0.00045744336330011658 0.0098498914512092622 0 -0.00031888033198374172 0.0096139056289079091 0 -0.00045744336330011658 0.0098498914512092622 0 -0.00021167785381377222 0.0099054661053576704 0 -0.00031888033198374172 0.0096139056289079091 0 -0.00021167785381377222 0.0099054661053576704 0 -6.9646305430482328e-05 0.0097699201570983218 0 -6.9646305430482328e-05 0.0097699201570983218 0 -0.00018683311580557495 0.0091055684525934346 0 9.9054203818313969e-05 0.0098800945854442858 0 -0.00021167785381377222 0.0099054661053576704 0 -6.9646305430482328e-05 0.0097699201570983218 0 -3.6677827924391162e-05 0.010039159932816474 0 -0.00031888033198374172 0.0096139056289079091 0 -6.9646305430482328e-05 0.0097699201570983218 0 -0.00018683311580557495 0.0091055684525934346 0 -0.00018700961754541349 0.0089705059500649366 0 -0.00018683311580557495 0.0091055684525934346 0 9.9054203818313969e-05 0.0098800945854442858 0 -2.3334838192017995e-05 0.0085626262155495438 0 -1.2972823649038349e-05 0.0089903380808959536 0 -2.8990066543558528e-05 0.0095288717562219839 0 -0.00010683838985346659 0.0087436232014410122 0 5.0664170097195214e-05 0.009692350446433769 0 -2.3334838192017995e-05 0.0085626262155495438 0 -1.2972823649038349e-05 0.0089903380808959536 0 -7.9274210752832699e-08 0.0084751134663481973 0 -1.2972823649038349e-05 0.0089903380808959536 0 -3.9694890310707366e-08 0.0093738134666683324 0 -2.8990066543558528e-05 0.0095288717562219839 0 -1.2972823649038349e-05 0.0089903380808959536 0 -7.9274210752832699e-08 0.0084751134663481973 0 -3.9694890310707366e-08 0.0093738134666683324 0 9.9054203818313969e-05 0.0098800945854442858 0 4.5631456331972851e-05 0.010225065063522899 0 -3.6677827924391162e-05 0.010039159932816474 0 -6.9646305430482328e-05 0.0097699201570983218 0 9.9054203818313969e-05 0.0098800945854442858 0 -3.6677827924391162e-05 0.010039159932816474 0 4.5631456331972851e-05 0.010225065063522899 0 -3.6677827924391162e-05 0.010039159932816474 0 -8.1668565517671027e-05 0.010273016210184917 0 -0.00021167785381377222 0.0099054661053576704 0 -3.6677827924391162e-05 0.010039159932816474 0 -0.00021515295736970676 0.010157684869589416 0 -0.00033494012734159727 0.010022526425567842 0 -0.00021167785381377222 0.0099054661053576704 0 -0.00021515295736970676 0.010157684869589416 0 -3.6677827924391162e-05 0.010039159932816474 0 -0.00021515295736970676 0.010157684869589416 0 -8.1668565517671027e-05 0.010273016210184917 0 -0.00021515295736970676 0.010157684869589416 0 -0.00022426064140743668 0.010403084829850393 0 -8.1668565517671027e-05 0.010273016210184917 0 -0.00045134099632564671 0.010182264081994585 0 -0.00021515295736970676 0.010157684869589416 0 -0.00022426064140743668 0.010403084829850393 0 -0.00022426064140743668 0.010403084829850393 0 -3.3446300113049041e-05 0.010456072687673752 0 -8.1668565517671027e-05 0.010273016210184917 0 4.5631456331972851e-05 0.010225065063522899 0 -3.3446300113049041e-05 0.010456072687673752 0 -8.1668565517671027e-05 0.010273016210184917 0 -3.3446300113049041e-05 0.010456072687673752 0 7.0687111125862401e-05 0.010450131133756448 0 1.5700811030479333e-05 0.010647783904044548 0 4.5631456331972851e-05 0.010225065063522899 0 -3.3446300113049041e-05 0.010456072687673752 0 7.0687111125862401e-05 0.010450131133756448 0 7.0687111125862401e-05 0.010450131133756448 0 0.00011648145128387135 0.010595007168484437 0 1.5700811030479333e-05 0.010647783904044548 0 7.0687111125862401e-05 0.010450131133756448 0 0.00015271460408904528 0.010347615812552747 0 0.00011648145128387135 0.010595007168484437 0 4.5631456331972851e-05 0.010225065063522899 0 7.0687111125862401e-05 0.010450131133756448 0 0.00015271460408904528 0.010347615812552747 0 5.0664170097195214e-05 0.009692350446433769 0 0.00011475037464822681 0.010346248634871933 0 -2.8990066543558528e-05 0.0095288717562219839 0 2.1556784080702354e-05 0.0098895763413257183 0 6.0218508784974321e-05 0.010350263995840839 0 9.9054203818313969e-05 0.0098800945854442858 0 4.5631456331972851e-05 0.010225065063522899 0 0.00015271460408904528 0.010347615812552747 0 -3.9694890310707366e-08 0.0093738134666683324 0 2.1556784080702354e-05 0.0098895763413257183 0 2.4901900825407541e-07 0.010272329257350967 0 -3.9694890310707366e-08 0.0093738134666683324 0 -2.8990066543558528e-05 0.0095288717562219839 0 2.1556784080702354e-05 0.0098895763413257183 0 2.1556784080702354e-05 0.0098895763413257183 0 2.4901900825407541e-07 0.010272329257350967 0 6.0218508784974321e-05 0.010350263995840839 0 6.0218508784974321e-05 0.010350263995840839 0 8.7686468157764888e-05 0.010760125121728236 0 0.00014062224034211155 0.010772699791688422 0 0.00011475037464822681 0.010346248634871933 0 0.00014645790709416363 0.010713361723604644 0 2.4901900825407541e-07 0.010272329257350967 0 8.7686468157764888e-05 0.010760125121728236 0 -5.9066754563312502e-08 0.011171168362388408 0 2.4901900825407541e-07 0.010272329257350967 0 6.0218508784974321e-05 0.010350263995840839 0 8.7686468157764888e-05 0.010760125121728236 0 -0.00018185526816036821 0.011643432471591301 0 8.7686468157764888e-05 0.010760125121728236 0 -5.9066754563312502e-08 0.011171168362388408 0 -0.00018185526816036821 0.011643432471591301 0 8.7686468157764888e-05 0.010760125121728236 0 0.00014062224034211155 0.010772699791688422 0 0.00015271460408904528 0.010347615812552747 0 0.00014062224034211155 0.010772699791688422 0 0.00011648145128387135 0.010595007168484437 0 0.00011648145128387135 0.010595007168484437 0 9.5139005531714164e-05 0.010691876018469633 0 3.8690221404510377e-05 0.0107059683293701 0 0.00014062224034211155 0.010772699791688422 0 0.00011648145128387135 0.010595007168484437 0 9.5139005531714164e-05 0.010691876018469633 0 5.696001715044843e-05 0.010741901463726439 0 0.00014062224034211155 0.010772699791688422 0 9.5139005531714164e-05 0.010691876018469633 0 0.00021183909236638791 0.010831125075556487 0 9.5139005531714164e-05 0.010691876018469633 0 -1.5778913751083286e-05 0.010873518740119921 0 5.696001715044843e-05 0.010741901463726439 0 0.00021183909236638791 0.010831125075556487 0 9.5139005531714164e-05 0.010691876018469633 0 9.5139005531714164e-05 0.010691876018469633 0 3.8690221404510377e-05 0.0107059683293701 0 -1.5778913751083286e-05 0.010873518740119921 0 -1.5778913751083286e-05 0.010873518740119921 0 5.2224772478611994e-05 0.011517343888496264 0 -0.00096429948448752318 0.011871690938881244 0 3.8690221404510377e-05 0.0107059683293701 0 -1.5778913751083286e-05 0.010873518740119921 0 8.892111846950891e-06 0.010746266132106098 0 0.00021183909236638791 0.010831125075556487 0 -1.5778913751083286e-05 0.010873518740119921 0 5.2224772478611994e-05 0.011517343888496264 0 -0.00011915203895421395 0.011879016164568558 0 -0.00047162230069552143 0.012388814716519477 0 -0.00050780872188336027 0.013532567981659452 0 -0.00079915084288501622 0.013238671514897564 0 -0.00083364295246196769 0.013236488501055613 0 -0.00054160036156905111 0.013172269884686619 0 -0.00050780872188336027 0.013532567981659452 0 -0.00083364295246196769 0.013236488501055613 0 -0.00059993743783237077 0.013610544394774193 0 -0.00079915084288501622 0.013238671514897564 0 -0.00086189581521286173 0.01377102776652408 0 -0.00050780872188336027 0.013532567981659452 0 -0.00059993743783237077 0.013610544394774193 0 -0.00079915084288501622 0.013238671514897564 0 -0.00079915084288501622 0.013238671514897564 0 -0.00090821848476637572 0.012620095463054858 0 -0.00086189581521286173 0.01377102776652408 0 -0.00090821848476637572 0.012620095463054858 0 -0.0010277992749336529 0.012194365373305097 0 -0.0013511189099465434 0.012076238349402678 0 -0.00089794350325515316 0.01274711135494979 0 -0.0011430070323463616 0.012808173438532624 0 -0.00079915084288501622 0.013238671514897564 0 -0.00083364295246196769 0.013236488501055613 0 -0.00090821848476637572 0.012620095463054858 0 -0.00047162230069552143 0.012388814716519477 0 -0.00087553806313980819 0.01247761717469436 0 -0.00083364295246196769 0.013236488501055613 0 -0.00090821848476637572 0.012620095463054858 0 -0.00089712196089537625 0.012430189358608939 0 5.2224772478611994e-05 0.011517343888496264 0 -0.00096429948448752318 0.011871690938881244 0 -0.00089712196089537625 0.012430189358608939 0 -0.00090821848476637572 0.012620095463054858 0 -0.00089712196089537625 0.012430189358608939 0 -0.00102779927493