<?xml version="1.0"?>
<VTKFile type="UnstructuredGrid" version="0.1" byte_order="LittleEndian">
<UnstructuredGrid>
<Piece NumberOfPoints="26844" NumberOfCells="9473">
<Points>
<DataArray type="Float64" NumberOfComponents="3" format="ascii">
-0.5 -0.5 0 -0.4646202970524127 -0.47450967910536629 0 -0.37839327844103138 -0.5 0 -0.5 -0.5 0 -0.4646202970524127 -0.47450967910536629 0 -0.49999999999999939 -0.46224005665092499 0 -0.4646202970524127 -0.47450967910536629 0 -0.43768100674537191 -0.46004029744547431 0 -0.47871216822681523 -0.45005021672891682 0 -0.43768100674537191 -0.46004029744547431 0 -0.45742433645363101 -0.43786037680690831 0 -0.47871216822681523 -0.45005021672891682 0 -0.43768100674537191 -0.46004029744547431 0 -0.45742433645363101 -0.43786037680690831 0 -0.43576333370280912 -0.44129895133621838 0 -0.45742433645363101 -0.43786037680690831 0 -0.47871216822681523 -0.45005021672891682 0 -0.47871216822681523 -0.45005021672891682 0 -0.5 -0.43228250189906309 0 -0.47381363781305458 -0.43238996341236879 0 -0.4646202970524127 -0.47450967910536629 0 -0.47871216822681523 -0.45005021672891682 0 -0.49999999999999939 -0.46224005665092499 0 -0.45742433645363101 -0.43786037680690831 0 -0.47871216822681523 -0.45005021672891682 0 -0.47381363781305458 -0.43238996341236879 0 -0.47871216822681523 -0.45005021672891682 0 -0.49999999999999939 -0.46224005665092499 0 -0.47871216822681523 -0.45005021672891682 0 -0.49999999999999939 -0.46224005665092499 0 -0.5 -0.43228250189906309 0 -0.5 -0.43228250189906309 0 -0.47441721215399091 -0.41161434893752902 0 -0.5 -0.40232494714720141 0 -0.5 -0.43228250189906309 0 -0.47441721215399091 -0.41161434893752902 0 -0.47381363781305458 -0.43238996341236879 0 -0.5 -0.40232494714720141 0 -0.48419956130454811 -0.38804043774805119 0 -0.5 -0.37236739239533939 0 -0.47441721215399091 -0.41161434893752902 0 -0.5 -0.40232494714720141 0 -0.48419956130454811 -0.38804043774805119 0 -0.47441721215399091 -0.41161434893752902 0 -0.48419956130454811 -0.38804043774805119 0 -0.45754348929793898 -0.39427264029310688 0 -0.48419956130454811 -0.38804043774805119 0 -0.45754348929793898 -0.39427264029310688 0 -0.48419956130454811 -0.38804043774805119 0 -0.45754348929793898 -0.39427264029310688 0 -0.46650518769805832 -0.36367487795397552 0 -0.45754348929793898 -0.39427264029310688 0 -0.44148962219302279 -0.38138251725045069 0 -0.46650518769805832 -0.36367487795397552 0 -0.47441721215399091 -0.41161434893752902 0 -0.45754348929793898 -0.39427264029310688 0 -0.45157575422031299 -0.40818327970169649 0 -0.45754348929793898 -0.39427264029310688 0 -0.43088741729132979 -0.4005048428381619 0 -0.45754348929793898 -0.39427264029310688 0 -0.45157575422031299 -0.40818327970169649 0 -0.43088741729132979 -0.4005048428381619 0 -0.45754348929793898 -0.39427264029310688 0 -0.44148962219302279 -0.38138251725045069 0 -0.43088741729132979 -0.4005048428381619 0 -0.45742433645363101 -0.43786037680690831 0 -0.47381363781305458 -0.43238996341236879 0 -0.45575262785512249 -0.42160798551961198 0 -0.47441721215399091 -0.41161434893752902 0 -0.47381363781305458 -0.43238996341236879 0 -0.45575262785512249 -0.42160798551961198 0 -0.47441721215399091 -0.41161434893752902 0 -0.45575262785512249 -0.42160798551961198 0 -0.45157575422031299 -0.40818327970169649 0 -0.45575262785512249 -0.42160798551961198 0 -0.43927802450318321 -0.41291658092007272 0 -0.43613650468044679 -0.4256705368848997 0 -0.45575262785512249 -0.42160798551961198 0 -0.45157575422031299 -0.40818327970169649 0 -0.43927802450318321 -0.41291658092007272 0 -0.45157575422031299 -0.40818327970169649 0 -0.43927802450318321 -0.41291658092007272 0 -0.43088741729132979 -0.4005048428381619 0 -0.45742433645363101 -0.43786037680690831 0 -0.43613650468044679 -0.4256705368848997 0 -0.43576333370280912 -0.44129895133621838 0 -0.45742433645363101 -0.43786037680690831 0 -0.43613650468044679 -0.4256705368848997 0 -0.45742433645363101 -0.43786037680690831 0 -0.45575262785512249 -0.42160798551961198 0 -0.43613650468044679 -0.4256705368848997 0 -0.42262651926962502 -0.43289615401210962 0 -0.43613650468044679 -0.4256705368848997 0 -0.42396383045893038 -0.41618313454099609 0 -0.42262651926962502 -0.43289615401210962 0 -0.43613650468044679 -0.4256705368848997 0 -0.43576333370280912 -0.44129895133621838 0 -0.43927802450318321 -0.41291658092007272 0 -0.42396383045893038 -0.41618313454099609 0 -0.43088741729132979 -0.4005048428381619 0 -0.43927802450318321 -0.41291658092007272 0 -0.43613650468044679 -0.4256705368848997 0 -0.42396383045893038 -0.41618313454099609 0 -0.43927802450318321 -0.41291658092007272 0 -0.43088741729132979 -0.4005048428381619 0 -0.42396383045893038 -0.41618313454099609 0 -0.406540338328441 -0.42289661130944511 0 -0.40973290954423253 -0.4054507769948596 0 -0.42396383045893038 -0.41618313454099609 0 -0.43088741729132979 -0.4005048428381619 0 -0.40973290954423253 -0.4054507769948596 0 -0.42262651926962502 -0.43289615401210962 0 -0.406540338328441 -0.42289661130944511 0 -0.4044741733462125 -0.44352827950914181 0 -0.42262651926962502 -0.43289615401210962 0 -0.42396383045893038 -0.41618313454099609 0 -0.406540338328441 -0.42289661130944511 0 -0.43088741729132979 -0.4005048428381619 0 -0.41627841541260002 -0.37889459457140101 0 -0.44148962219302279 -0.38138251725045069 0 -0.43088741729132979 -0.4005048428381619 0 -0.41627841541260002 -0.37889459457140101 0 -0.43088741729132979 -0.4005048428381619 0 -0.40973290954423253 -0.4054507769948596 0 -0.41627841541260002 -0.37889459457140101 0 -0.43088741729132979 -0.4005048428381619 0 -0.40973290954423253 -0.4054507769948596 0 -0.40973290954423253 -0.4054507769948596 0 -0.41627841541260002 -0.37889459457140101 0 -0.39626706838329923 -0.39504545103964511 0 -0.41627841541260002 -0.37889459457140101 0 -0.39188034863555288 -0.37964509591507889 0 -0.39626706838329923 -0.39504545103964511 0 -0.40973290954423253 -0.4054507769948596 0 -0.39626706838329923 -0.39504545103964511 0 -0.38857840179713488 -0.41039671115155663 0 -0.39188034863555288 -0.37964509591507889 0 -0.39626706838329923 -0.39504545103964511 0 -0.37474971554337089 -0.39783367767580391 0 -0.39626706838329923 -0.39504545103964511 0 -0.38857840179713488 -0.41039671115155663 0 -0.37474971554337089 -0.39783367767580391 0 -0.39188034863555288 -0.37964509591507889 0 -0.3795751283023639 -0.37049916240697423 0 -0.36747219157488098 -0.37991114783798341 0 -0.39188034863555288 -0.37964509591507889 0 -0.36747219157488098 -0.37991114783798341 0 -0.37474971554337089 -0.39783367767580391 0 -0.406540338328441 -0.42289661130944511 0 -0.38986619555451091 -0.42892461164800721 0 -0.4044741733462125 -0.44352827950914181 0 -0.40973290954423253 -0.4054507769948596 0 -0.38857840179713488 -0.41039671115155663 0 -0.406540338328441 -0.42289661130944511 0 -0.40973290954423253 -0.4054507769948596 0 -0.38857840179713488 -0.41039671115155663 0 -0.406540338328441 -0.42289661130944511 0 -0.38857840179713488 -0.41039671115155663 0 -0.38986619555451091 -0.42892461164800721 0 -0.38857840179713488 -0.41039671115155663 0 -0.38986619555451091 -0.42892461164800721 0 -0.37052375847279517 -0.4189845139465414 0 -0.38857840179713488 -0.41039671115155663 0 -0.37052375847279517 -0.4189845139465414 0 -0.37474971554337089 -0.39783367767580391 0 -0.38986619555451091 -0.42892461164800721 0 -0.37663782750341551 -0.44942816039535788 0 -0.37052375847279517 -0.4189845139465414 0 -0.38986619555451091 -0.42892461164800721 0 -0.37663782750341551 -0.44942816039535788 0 -0.4044741733462125 -0.44352827950914181 0 -0.4646202970524127 -0.47450967910536629 0 -0.43768100674537191 -0.46004029744547431 0 -0.37839327844103138 -0.5 0 -0.37663782750341551 -0.44942816039535788 0 -0.4044741733462125 -0.44352827950914181 0 -0.40508035653271018 -0.46487132243105073 0 -0.37663782750341551 -0.44942816039535788 0 -0.40508035653271018 -0.46487132243105073 0 -0.37839327844103138 -0.5 0 -0.43768100674537191 -0.46004029744547431 0 -0.40508035653271018 -0.46487132243105073 0 -0.37839327844103138 -0.5 0 -0.43768100674537191 -0.46004029744547431 0 -0.40508035653271018 -0.46487132243105073 0 -0.42494830136497042 -0.45002739153170063 0 -0.42262651926962502 -0.43289615401210962 0 -0.42494830136497042 -0.45002739153170063 0 -0.43576333370280912 -0.44129895133621838 0 -0.43768100674537191 -0.46004029744547431 0 -0.42494830136497042 -0.45002739153170063 0 -0.43576333370280912 -0.44129895133621838 0 -0.4044741733462125 -0.44352827950914181 0 -0.40508035653271018 -0.46487132243105073 0 -0.42494830136497042 -0.45002739153170063 0 -0.42262651926962502 -0.43289615401210962 0 -0.4044741733462125 -0.44352827950914181 0 -0.42494830136497042 -0.45002739153170063 0 -0.45237957687253721 -0.26935139155030108 0 -0.43333417593093548 -0.2586373813461017 0 -0.45552237441803523 -0.23859464828652599 0 -0.45237957687253721 -0.26935139155030108 0 -0.4391741251006836 -0.28760337166462002 0 -0.43333417593093548 -0.2586373813461017 0 -0.45237957687253721 -0.26935139155030108 0 -0.46217991615613491 -0.27842729230381991 0 -0.45654823437425313 -0.28698755605114262 0 -0.45237957687253721 -0.26935139155030108 0 -0.46217991615613491 -0.27842729230381991 0 -0.46932686742336582 -0.27190841780417557 0 -0.46217991615613491 -0.27842729230381991 0 -0.46932686742336582 -0.27190841780417557 0 -0.46907208869110228 -0.28539579446217173 0 -0.45237957687253721 -0.26935139155030108 0 -0.46858961573933577 -0.25532911961135868 0 -0.45552237441803523 -0.23859464828652599 0 -0.45237957687253721 -0.26935139155030108 0 -0.46858961573933577 -0.25532911961135868 0 -0.46932686742336582 -0.27190841780417557 0 -0.48548706001004782 -0.26105870567385769 0 -0.48159881645759078 -0.2398053104504039 0 -0.46858961573933577 -0.25532911961135868 0 -0.48548706001004782 -0.26105870567385769 0 -0.48159881645759078 -0.2398053104504039 0 -0.46858961573933577 -0.25532911961135868 0 -0.48548706001004782 -0.26105870567385769 0 -0.46932686742336582 -0.27190841780417557 0 -0.48548706001004782 -0.26105870567385769 0 -0.5 -0.25253717338789178 0 -0.4916262969
[...]
<PointData Scalars="" Vectors="displacement," Tensors="">
<DataArray type="Float64" Name="displacement" NumberOfComponents="3" format="ascii">
0.014999804295042662 6.9182937074269438e-08 0 0.013911991086528974 6.6073195504498837e-05 0 0.011351794640542135 6.8976844966014556e-07 0 0.014999804295042662 6.9182937074269438e-08 0 0.013911991086528974 6.6073195504498837e-05 0 0.01499732471928698 -3.058277729746536e-07 0 0.013911991086528974 6.6073195504498837e-05 0 0.013157420573577097 0.00012571602593347417 0 0.013966807361462179 4.9002606432778549e-05 0 0.013157420573577097 0.00012571602593347417 0 0.01337497694080309 0.00014733132708944467 0 0.013966807361462179 4.9002606432778549e-05 0 0.013157420573577097 0.00012571602593347417 0 0.01337497694080309 0.00014733132708944467 0 0.013108722872395501 0.00011436045461443707 0 0.013890846485288542 0.00011306462046150357 0 0.014395800846962275 7.0255126140152371e-05 0 0.014840259467763963 1.2396766852253525e-05 0 0.014999518975749989 -8.2623068754430455e-08 0 0.014594956581315426 3.5213173798091759e-05 0 0.013911991086528974 6.6073195504498837e-05 0 0.013966807361462179 4.9002606432778549e-05 0 0.01499732471928698 -3.058277729746536e-07 0 0.014410902383314972 0.00013887406920180063 0 0.014840259467763963 1.2396766852253525e-05 0 0.014594956581315426 3.5213173798091759e-05 0 0.014395800846962275 7.0255126140152371e-05 0 0.014999718023943235 6.6546066581234876e-08 0 0.014840259467763963 1.2396766852253525e-05 0 0.015000047858799099 4.9149501547295479e-08 0 0.014999518975749989 -8.2623068754430455e-08 0 0.014999518975749989 -8.2623068754430455e-08 0 0.014535490056286127 4.8600479353697702e-05 0 0.014999425881358854 2.6977487216417415e-08 0 0.014999518975749989 -8.2623068754430455e-08 0 0.014535490056286127 4.8600479353697702e-05 0 0.014594956581315426 3.5213173798091759e-05 0 0.014999425881358854 2.6977487216417415e-08 0 0.014751107006493605 -4.2977570442059642e-05 0 0.014999579648467608 -4.9881990685951427e-08 0 0.014535490056286127 4.8600479353697702e-05 0 0.014999425881358854 2.6977487216417415e-08 0 0.014751107006493605 -4.2977570442059642e-05 0 0.014535490056286127 4.8600479353697702e-05 0 0.014751107006493605 -4.2977570442059642e-05 0 0.014322902337554323 0.00012273512630312929 0 0.014664164388349705 -3.1503847984542651e-05 0 0.014594773314669855 -1.3771755663745649e-05 0 0.014751107006493605 -4.2977570442059642e-05 0 0.014555929553969608 -0.00019771931866977997 0 0.014566634686964385 -0.00027038513647399594 0 0.014555929553969608 -0.00019771931866977997 0 0.01443262495859525 -0.00012966594294203869 0 0.014566634686964385 -0.00027038513647399594 0 0.014535490056286127 4.8600479353697702e-05 0 0.014322902337554323 0.00012273512630312929 0 0.014055329564119069 0.00011459504518742146 0 0.014594773314669855 -1.3771755663745649e-05 0 0.013292863893730987 -6.3548193861803952e-05 0 0.014322902337554323 0.00012273512630312929 0 0.014055329564119069 0.00011459504518742146 0 0.013994983834301141 -0.00016470475108207425 0 0.014555929553969608 -0.00019771931866977997 0 0.01443262495859525 -0.00012966594294203869 0 0.01456628149252907 -3.8906208168941039e-05 0 0.014410902383314972 0.00013887406920180063 0 0.014594956581315426 3.5213173798091759e-05 0 0.014095456281726136 0.00011534119006672612 0 0.014535490056286127 4.8600479353697702e-05 0 0.014594956581315426 3.5213173798091759e-05 0 0.014095456281726136 0.00011534119006672612 0 0.014535490056286127 4.8600479353697702e-05 0 0.014095456281726136 0.00011534119006672612 0 0.014055329564119069 0.00011459504518742146 0 0.014095456281726136 0.00011534119006672612 0 0.013621637205520761 3.6385689368340282e-06 0 0.013400264995646392 0.0001006877491589265 0 0.014095456281726136 0.00011534119006672612 0 0.014055329564119069 0.00011459504518742146 0 0.013621637205520761 3.6385689368340282e-06 0 0.014055329564119069 0.00011459504518742146 0 0.013621637205520761 3.6385689368340282e-06 0 0.013994983834301141 -0.00016470475108207425 0 0.01337497694080309 0.00014733132708944467 0 0.013400264995646392 0.0001006877491589265 0 0.013108722872395501 0.00011436045461443707 0 0.013890846485288542 0.00011306462046150357 0 0.013513791285311017 8.9329199565266261e-05 0 0.014410902383314972 0.00013887406920180063 0 0.014095456281726136 0.00011534119006672612 0 0.013400264995646392 0.0001006877491589265 0 0.01293382854431053 6.7456736336856098e-05 0 0.013400264995646392 0.0001006877491589265 0 0.013109543010609213 7.6715718523592553e-05 0 0.01293382854431053 6.7456736336856098e-05 0 0.013400264995646392 0.0001006877491589265 0 0.013108722872395501 0.00011436045461443707 0 0.013621637205520761 3.6385689368340282e-06 0 0.013109543010609213 7.6715718523592553e-05 0 0.013151493027934367 4.76332434499351e-05 0 0.013621637205520761 3.6385689368340282e-06 0 0.013400264995646392 0.0001006877491589265 0 0.013109543010609213 7.6715718523592553e-05 0 0.013622159679525139 -5.4352743379270911e-05 0 0.013292863893730987 -6.3548193861803952e-05 0 0.013109543010609213 7.6715718523592553e-05 0 0.012580288283935858 5.4740951012690101e-05 0 0.012752792797596928 8.5424264715280404e-05 0 0.013109543010609213 7.6715718523592553e-05 0 0.013151493027934367 4.76332434499351e-05 0 0.012752792797596928 8.5424264715280404e-05 0 0.01293382854431053 6.7456736336856098e-05 0 0.012580288283935858 5.4740951012690101e-05 0 0.012436025718146526 6.7646726814341292e-05 0 0.01293382854431053 6.7456736336856098e-05 0 0.013109543010609213 7.6715718523592553e-05 0 0.012580288283935858 5.4740951012690101e-05 0 0.013292863893730987 -6.3548193861803952e-05 0 0.012975588498983923 0.00013386580292648362 0 0.01443262495859525 -0.00012966594294203869 0 0.01456628149252907 -3.8906208168941039e-05 0 0.014330893744336189 0.00010692235297628719 0 0.011796189307734331 5.615238733871806e-07 0 0.011813711865093323 9.5196957992696281e-05 0 0.0116589914132217 0.00012416008684219292 0 0.013292863893730987 -6.3548193861803952e-05 0 0.012216496171922376 0.00012346360877144358 0 0.011813711865093323 9.5196957992696281e-05 0 0.0116589914132217 0.00012416008684219292 0 0.011735201662902725 0.00016337084532509478 0 0.0116589914132217 0.00012416008684219292 0 0.01161647459087068 0.00026686980339163505 0 0.011735201662902725 0.00016337084532509478 0 0.011813711865093323 9.5196957992696281e-05 0 0.011735201662902725 0.00016337084532509478 0 0.011994716032149898 0.00012178261978377243 0 0.01161647459087068 0.00026686980339163505 0 0.011735201662902725 0.00016337084532509478 0 0.0116079086718846 0.00024225506125141917 0 0.011735201662902725 0.00016337084532509478 0 0.011994716032149898 0.00012178261978377243 0 0.0116079086718846 0.00024225506125141917 0 0.01161647459087068 0.00026686980339163505 0 0.011568451528395392 0.00032192276163250201 0 0.011474059159491568 0.00028874489706238364 0 0.01161647459087068 0.00026686980339163505 0 0.011474059159491568 0.00028874489706238364 0 0.0116079086718846 0.00024225506125141917 0 0.012580288283935858 5.4740951012690101e-05 0 0.012162622653031569 8.7989359723379909e-05 0 0.012436025718146526 6.7646726814341292e-05 0 0.012216496171922376 0.00012346360877144358 0 0.012087901159383735 0.00017107477307747531 0 0.012580288283935858 5.4740951012690101e-05 0 0.012752792797596928 8.5424264715280404e-05 0 0.011994716032149898 0.00012178261978377243 0 0.012580288283935858 5.4740951012690101e-05 0 0.011994716032149898 0.00012178261978377243 0 0.012162622653031569 8.7989359723379909e-05 0 0.011994716032149898 0.00012178261978377243 0 0.012162622653031569 8.7989359723379909e-05 0 0.011797983858149392 0.00015169666776935735 0 0.011994716032149898 0.00012178261978377243 0 0.011797983858149392 0.00015169666776935735 0 0.0116079086718846 0.00024225506125141917 0 0.012162622653031569 8.7989359723379909e-05 0 0.011748791442406269 1.9764902313666749e-05 0 0.011797983858149392 0.00015169666776935735 0 0.012162622653031569 8.7989359723379909e-05 0 0.011748791442406269 1.9764902313666749e-05 0 0.012436025718146526 6.7646726814341292e-05 0 0.013911991086528974 6.6073195504498837e-05 0 0.013157420573577097 0.00012571602593347417 0 0.011351794640542135 6.8976844966014556e-07 0 0.011748791442406269 1.9764902313666749e-05 0 0.012436025718146526 6.7646726814341292e-05 0 0.012300741646394697 6.8259391885407912e-05 0 0.011748791442406269 1.9764902313666749e-05 0 0.012300741646394697 6.8259391885407912e-05 0 0.011351794640542135 6.8976844966014556e-07 0 0.013157420573577097 0.00012571602593347417 0 0.012300741646394697 6.8259391885407912e-05 0 0.011351794640542135 6.8976844966014556e-07 0 0.013157420573577097 0.00012571602593347417 0 0.012300741646394697 6.8259391885407912e-05 0 0.01286559608810018 0.00010705004294354972 0 0.01293382854431053 6.7456736336856098e-05 0 0.01286559608810018 0.00010705004294354972 0 0.013108722872395501 0.00011436045461443707 0 0.013157420573577097 0.00012571602593347417 0 0.01286559608810018 0.00010705004294354972 0 0.013108722872395501 0.00011436045461443707 0 0.012436025718146526 6.7646726814341292e-05 0 0.012300741646394697 6.8259391885407912e-05 0 0.01286559608810018 0.00010705004294354972 0 0.01293382854431053 6.7456736336856098e-05 0 0.012436025718146526 6.7646726814341292e-05 0 0.01286559608810018 0.00010705004294354972 0 0.013001027927598104 -0.00023004105259962442 0 0.012800817378741829 -3.9986313827078676e-05 0 0.012729791366749614 -0.00025807029979514308 0 0.013001027927598104 -0.00023004105259962442 0 0.013198940480525855 -8.8772844609467363e-05 0 0.012800817378741829 -3.9986313827078676e-05 0 0.013001027927598104 -0.00023004105259962442 0 0.013141361494977542 -0.00032433532879013089 0 0.013224691622941879 -0.00027487689168383735 0 0.013001027927598104 -0.00023004105259962442 0 0.013141361494977542 -0.00032433532879013089 0 0.01309725648234176 -0.00038002887710256845 0 0.013141361494977542 -0.00032433532879013089 0 0.01309725648234176 -0.00038002887710256845 0 0.013239877480531233 -0.00039565474760887217 0 0.013001027927598104 -0.00023004105259962442 0 0.012906292242714473 -0.00037367873064721358 0 0.012729791366749614 -0.00025807029979514308 0 0.013001027927598104 -0.00023004105259962442 0 0.012906292242714473 -0.00037367873064721358 0 0.01309725648234176 -0.00038002887710256845 0 0.01368209278307677 -0.00058116108575562977 0 0.014105135505551564 -0.00055993455108117158 0 0.012906292242714473 -0.00037367873064721358 0 0.012993833811567729 -0.00054532078898924391 0 0.012761600320125865 -0.00050094008985304315 0 0.012906292242714473 -0.00037367873064721358 0 0.012993833811567729 -0.00054532078898924391 0 0.01309725648234176 -0.00038002887710256845 0 0.014467356172566163 -0.00067163740636646174 0 0.014998575153430158 2.7043078007254572e-07 0 0.01335275644472602 -0.00045706233787780255 0 0.014467356172566163 -0.00067163740636646174 0 0.014998575153430158 2.7043078007254572e-07 0 0.015036439862219548 -0.00028347639927975065 0 0.015000002310286281 -2.4028469945312407e-09 0 0.01499784596368145 -6.0680456140628738e-07 0 0.014999984614140059 4.2475368963820508e-09 0 0.014999810682119381 -4.4956792400929635e-08 0 0.014196667772850448 -0.00022987890693245271 0 0.01368209278307677 -0.00058116108575562977 0 0.013359223788517052 -0.00051762617880352806 0 0.014467356172566163 -0.00067163740636646174 0 0.01335275644472602 -0.00045706233787780255 0 0.013321256818943803 -0.00050002255934849193 0 0.012993833811567729 -0.00054532078898924391 0 0.013221082451119134 -0.00045301260963970458 0 0.013321256818943803 -0.00050002255934849193 0 0.012993833811567729 -0.00054532078898924391 0 0.013221082451119134 -0.00045301260963970458 0 0.01309725648234176 -0.00038002887710256845 0 0.013221082451119134 -0.00045301260963970458 0 0.01309725648234176 -0.00038002887710256845 0 0.013239877480531233 -0.00039565474760887217 0 0.013221082451119134 -0.00045301260963970458 0 0.013239877480531233 -0.00039565474760887217 0 0.013327381747473749 -0.00047573868149470563 0 0.013327381747473749 -0.00047573868149470563 0 0.013321256818943803 -0.00050002255934849193 0 0.013425086456411396 -0.0005772304128908647 0 0.013239877480531233 -0.00039565474760887217 0 0.013327381747473749 -0.00047573868149470563 0 0.013361449562087886 -0.00038690969555987842 0 0.013221082451119134 -0.00045301260963970458 0 0.013327381747473749 -0.00047573868149470563 0 0.013321256818943803 -0.00050002255934849193 0 0.01335275644472602 -0.00045706233787780255 0 0.013321256818943803 -0.00050002255934849193 0 0.013425086456411396 -0.0005772304128908647 0 0.01499784596368145 -6.0680456140628738e-07 0 0.015001852483808309 -5.5643150168193668e-06 0 0.015006053342115567 -1.8247330194081607e-05 0 0.014196667772850448 -0.00022987890693245271 0 0.014219355976228731 -0.00029704241128028144 0 0.01499784596368145 -6.0680456140628738e-07 0 0.015001852483808309 -5.5643150168193668e-06 0 0.014999984614140059 4.2475368963820508e-09 0 0.015001852483808309 -5.5643150168193668e-06 0 0.015000051020193174 -4.9199821309793264e-08 0 0.015006053342115567 -1.8247330194081607e-05 0 0.015001852483808309 -5.5643150168193668e-06 0 0.014999984614140059 4.2475368963820508e-09 0 0.015000051020193174 -4.9199821309793264e-08 0 0.013425086456411396 -0.0005772304128908647 0 0.01350078888222552 -0.00033026966282554343 0 0.013361449562087886 -0.00038690969555987842 0 0.013327381747473749 -0.00047573868149470563 0 0.013425086456411396 -0.0005772304128908647 0 0.013361449562087886 -0.00038690969555987842 0 0.01350078888222552 -0.00033026966282554343 0 0.013361449562087886 -0.00038690969555987842 0 0.013359562689286954 -0.00023169643881071117 0 0.013239877480531233 -0.00039565474760887217 0 0.013361449562087886 -0.00038690969555987842 0 0.013224691622941879 -0.00027487689168383735 0 0.013141361494977542 -0.00032433532879013089 0 0.013239877480531233 -0.00039565474760887217 0 0.013224691622941879 -0.00027487689168383735 0 0.013361449562087886 -0.00038690969555987842 0 0.013224691622941879 -0.00027487689168383735 0 0.013359562689286954 -0.00023169643881071117 0 0.013224691622941879 -0.00027487689168383735 0 0.013198940480525855 -8.8772844609467363e-05 0 0.013359562689286954 -0.00023169643881071117 0 0.013001027927598104 -0.00023004105259962442 0 0.013224691622941879 -0.00027487689168383735 0 0.013198940480525855 -8.8772844609467363e-05 0 0.013198940480525855 -8.8772844609467363e-05 0 0.01348383433349342 -9.2448032785168873e-05 0 0.013359562689286954 -0.00023169643881071117 0 0.01350078888222552 -0.00033026966282554343 0 0.01348383433349342 -9.2448032785168873e-05 0 0.013359562689286954 -0.00023169643881071117 0 0.01348383433349342 -9.2448032785168873e-05 0 0.013701742566938407 -0.00018209885861119387 0 0.013695825140795502 6.1112351529811709e-05 0 0.01350078888222552 -0.00033026966282554343 0 0.01348383433349342 -9.2448032785168873e-05 0 0.013701742566938407 -0.00018209885861119387 0 0.013701742566938407 -0.00018209885861119387 0 0.013986438647549415 -0.00012279056622995654 0 0.013695825140795502 6.1112351529811709e-05 0 0.013701742566938407 -0.00018209885861119387 0 0.013868353988051741 -0.0005302826284016278 0 0.013986438647549415 -0.00012279056622995654 0 0.01350078888222552 -0.00033026966282554343 0 0.013701742566938407 -0.00018209885861119387 0 0.013868353988051741 -0.0005302826284016278 0 0.014219355976228731 -0.00029704241128028144 0 0.0144332215474986 -0.00031104557001364249 0 0.015006053342115567 -1.8247330194081607e-05 0 0.015007749843356758 -3.4142871832018931e-05 0 0.015007496023328043 -0.00010432221828383176 0 0.013425086456411396 -0.0005772304128908647 0 0.01350078888222552 -0.00033026966282554343 0 0.013868353988051741 -0.0005302826284016278 0 0.015000051020193174 -4.9199821309793264e-08 0 0.015007749843356758 -3.4142871832018931e-05 0 0.014999930059947422 1.7687435841446247e-08 0 0.015000051020193174 -4.9199821309793264e-08 0 0.015006053342115567 -1.8247330194081607e-05 0 0.015007749843356758 -3.4142871832018931e-05 0 0.015007749843356758 -3.4142871832018931e-05 0 0.014999930059947422 1.7687435841446247e-08 0 0.015007496023328043 -0.00010432221828383176 0 0.015007496023328043 -0.00010432221828383176 0 0.014859988475448501 -4.9683639110275748e-05 0 0.014566634686964385 -0.00027038513647399594 0 0.0144332215474986 -0.00031104557001364249 0 0.014558410198883905 -0.00027618924394342208 0 0.014999930059947422 1.7687435841446247e-08 0 0.014859988475448501 -4.9683639110275748e-05 0 0.014999579648467608 -4.9881990685951427e-08 0 0.014999930059947422 1.7687435841446247e-08 0 0.015007496023328043 -0.00010432221828383176 0 0.014859988475448501 -4.9683639110275748e-05 0 0.014751107006493605 -4.2977570442059642e-05 0 0.014859988475448501 -4.9683639110275748e-05 0 0.014999579648467608 -4.9881990685951427e-08 0 0.014751107006493605 -4.2977570442059642e-05 0 0.014859988475448501 -4.9683639110275748e-05 0 0.014566634686964385 -0.00027038513647399594 0 0.013868353988051741 -0.0005302826284016278 0 0.014566634686964385 -0.00027038513647399594 0 0.013986438647549415 -0.00012279056622995654 0 0.013986438647549415 -0.00012279056622995654 0 0.014142811928438474 -8.0461855437315399e-05 0 0.013880968077959596 1.2164530031001218e-05 0 0.014566634686964385 -0.00027038513647399594 0 0.013986438647549415 -0.00012279056622995654 0 0.014142811928438474 -8.0461855437315399e-05 0 0.01443262495859525 -0.00012966594294203869 0 0.014566634686964385 -0.00027038513647399594 0 0.014142811928438474 -8.0461855437315399e-05 0 0.014330893744336189 0.00010692235297628719 0 0.014142811928438474 -8.0461855437315399e-05 0 0.013753126373733941 9.7169341901637923e-06 0 0.01443262495859525 -0.00012966594294203869 0 0.014330893744336189 0.00010692235297628719 0 0.014142811928438474 -8.0461855437315399e-05 0 0.014142811928438474 -8.0461855437315399e-05 0 0.013880968077959596 1.2164530031001218e-05 0 0.013753126373733941 9.7169341901637923e-06 0 0.013753126373733941 9.7169341901637923e-06 0 0.013661573114041639 0.00048175363983788419 0 0.011862009261967316 0.000174586545808615 0 0.013880968077959596 1.2164530031001218e-05 0 0.013753126373733941 9.7169341901637923e-06 0 0.01378834249826778 9.9376690168945315e-05 0 0.014330893744336189 0.00010692235297628719 0 0.013753126373733941 9.7169341901637923e-06 0 0.013661573114041639 0.00048175363983788419 0 0.012975588498983923 0.00013386580292648362 0 0.012640014092677647 0.0003826420533418298 0 0.01161647459087068 0.00026686980339163505 0 0.011629868967775743 0.00042004164247689169 0 0.01161511435423258 0.00035550725527194635 0 0.0116589914132217 0.00012416008684219292 0 0.01161647459087068 0.00026686980339163505 0 0.01161511435423258 0.00035550725527194635 0 0.011568451528395392 0.00032192276163250201 0 0.011629868967775743 0.00042004164247689169 0 0.011635748689762483 0.000272412664188212 0 0.01161647459087068 0.00026686980339163505 0 0.011568451528395392 0.00032192276163250201 0 0.011629868967775743 0.00042004164247689169 0 0.011629868967775743 0.00042004164247689169 0 0.011787592597154539 0.00062412955184282812 0 0.011635748689762483 0.000272412664188212 0 0.011787592597154539 0.00062412955184282812 0 0.011719110034424655 0.00085057346028742957 0 0.011874408362908711 0.00092021311981151457 0 0.011728798668569861 0.00057520571942744304 0 0.01188180467894261 0.00066477064470344077 0 0.011629868967775743 0.00042004164247689169 0 0.01161511435423258 0.00035550725527194635 0 0.011787592597154539 0.00062412955184282812 0 0.012640014092677647 0.0003826420533418298 0 0.011963189177095155 0.00067824681393537187 0 0.01161511435423258 0.00035550725527194635 0 0.011787592597154539 0.00062412955184282812 0 0.011839819569446016 0.0007085172489465283 0 0.013661573114041639 0.00048175363983788419 0 0.011862009261967316 0.000174586545808615 0 0.011839819569446016 0.0007085172489465283 0 0.011787592597154539 0.00062412955184282812 0 0.011839819569446016 0.0007085172489465283 0 0.011719110034424655 0.00085057346028742957 0 0.011839819569446016 0.0007085172489465283 0 0.011597641974111473 0.00086281698964407424 0 0.011322985696004512 0.00089196963738922717 0 0.011839819569446016 0.0007085172489465283