<?xml version="1.0"?>
<VTKFile type="UnstructuredGrid" version="0.1" byte_order="LittleEndian">
<UnstructuredGrid>
<Piece NumberOfPoints="29993" NumberOfCells="10497">
<Points>
<DataArray type="Float64" NumberOfComponents="3" format="ascii">
-0.5 -0.5 0 -0.4885654373785705 -0.48478895414309647 0 -0.50000000000000555 -0.46957790828618862 0 -0.5 -0.5 0 -0.4885654373785705 -0.48478895414309647 0 -0.47713087475713128 -0.50000000000000122 0 -0.4885654373785705 -0.48478895414309647 0 -0.50000000000000555 -0.46957790828618862 0 -0.4872637014387764 -0.46074571869931658 0 -0.4885654373785705 -0.48478895414309647 0 -0.50000000000000555 -0.46957790828618862 0 -0.4885654373785705 -0.48478895414309647 0 -0.47399982686133441 -0.4691912146487236 0 -0.4872637014387764 -0.46074571869931658 0 -0.4885654373785705 -0.48478895414309647 0 -0.47399982686133441 -0.4691912146487236 0 -0.4630026500298921 -0.48347192371181802 0 -0.4885654373785705 -0.48478895414309647 0 -0.47713087475713128 -0.50000000000000122 0 -0.4630026500298921 -0.48347192371181802 0 -0.4885654373785705 -0.48478895414309647 0 -0.47713087475713128 -0.50000000000000122 0 -0.45463482053199489 -0.5 0 -0.4630026500298921 -0.48347192371181802 0 -0.44306567011615999 -0.48960677283144349 0 -0.47713087475713128 -0.50000000000000122 0 -0.45463482053199489 -0.5 0 -0.4630026500298921 -0.48347192371181802 0 -0.4630026500298921 -0.48347192371181802 0 -0.44632893934183587 -0.47562752376868261 0 -0.45790972188533391 -0.46501012567577449 0 -0.47399982686133441 -0.4691912146487236 0 -0.4630026500298921 -0.48347192371181802 0 -0.45790972188533391 -0.46501012567577449 0 -0.44632893934183587 -0.47562752376868261 0 -0.44306567011615999 -0.48960677283144349 0 -0.42798582571177929 -0.48781376188434239 0 -0.4630026500298921 -0.48347192371181802 0 -0.44632893934183587 -0.47562752376868261 0 -0.44306567011615999 -0.48960677283144349 0 -0.45463482053199489 -0.5 0 -0.44306567011615999 -0.48960677283144349 0 -0.4321387663068586 -0.5 0 -0.44255424756708739 -0.44473766304979567 0 -0.43957543253440851 -0.45981259768199029 0 -0.45562208548867439 -0.44946630419263361 0 -0.44255424756708739 -0.44473766304979567 0 -0.45562208548867439 -0.44946630419263361 0 -0.45219192834488381 -0.43501754280427002 0 -0.43957543253440851 -0.45981259768199029 0 -0.45790972188533391 -0.46501012567577449 0 -0.45562208548867439 -0.44946630419263361 0 -0.44632893934183587 -0.47562752376868261 0 -0.43957543253440851 -0.45981259768199029 0 -0.43395751333245303 -0.46935779742432682 0 -0.44632893934183587 -0.47562752376868261 0 -0.43957543253440851 -0.45981259768199029 0 -0.45790972188533391 -0.46501012567577449 0 -0.47399982686133441 -0.4691912146487236 0 -0.45790972188533391 -0.46501012567577449 0 -0.46993589911870598 -0.45382444668916699 0 -0.45790972188533391 -0.46501012567577449 0 -0.45562208548867439 -0.44946630419263361 0 -0.46993589911870598 -0.45382444668916699 0 -0.45562208548867439 -0.44946630419263361 0 -0.46402001875246812 -0.44054207141993867 0 -0.46993589911870598 -0.45382444668916699 0 -0.45562208548867439 -0.44946630419263361 0 -0.46402001875246812 -0.44054207141993867 0 -0.45219192834488381 -0.43501754280427002 0 -0.46402001875246812 -0.44054207141993867 0 -0.48115818124890058 -0.44268647918350662 0 -0.46993589911870598 -0.45382444668916699 0 -0.48115818124890058 -0.44268647918350662 0 -0.46993589911870598 -0.45382444668916699 0 -0.4872637014387764 -0.46074571869931658 0 -0.47399982686133441 -0.4691912146487236 0 -0.46993589911870598 -0.45382444668916699 0 -0.4872637014387764 -0.46074571869931658 0 -0.50000000000000555 -0.46957790828618862 0 -0.4872637014387764 -0.46074571869931658 0 -0.5 -0.45133064312022969 0 -0.48115818124890058 -0.44268647918350662 0 -0.5 -0.45133064312022969 0 -0.500000000000001 -0.43308337795427082 0 -0.48115818124890058 -0.44268647918350662 0 -0.4872637014387764 -0.46074571869931658 0 -0.5 -0.45133064312022969 0 -0.500000000000001 -0.43308337795427082 0 -0.47875105600110518 -0.42344788087192647 0 -0.48115818124890058 -0.44268647918350662 0 -0.500000000000001 -0.43308337795427082 0 -0.47875105600110518 -0.42344788087192647 0 -0.500000000000001 -0.43308337795427082 0 -0.47875105600110518 -0.42344788087192647 0 -0.5 -0.40382674391869389 0 -0.47875105600110518 -0.42344788087192647 0 -0.5 -0.40382674391869389 0 -0.47663764439203787 -0.39986088316167812 0 -0.4702036055959371 -0.4114312644081411 0 -0.47875105600110518 -0.42344788087192647 0 -0.45750211200220919 -0.41381238378958252 0 -0.4702036055959371 -0.4114312644081411 0 -0.47875105600110518 -0.42344788087192647 0 -0.47663764439203787 -0.39986088316167812 0 -0.48115818124890058 -0.44268647918350662 0 -0.46134122496252988 -0.42367193159882099 0 -0.46402001875246812 -0.44054207141993867 0 -0.48115818124890058 -0.44268647918350662 0 -0.46134122496252988 -0.42367193159882099 0 -0.48115818124890058 -0.44268647918350662 0 -0.47875105600110518 -0.42344788087192647 0 -0.46134122496252988 -0.42367193159882099 0 -0.47663764439203787 -0.39986088316167812 0 -0.46428573772970338 -0.3796558498427855 0 -0.5 -0.37457010988311701 0 -0.5 -0.40382674391869389 0 -0.47663764439203787 -0.39986088316167812 0 -0.5 -0.37457010988311701 0 -0.46428573772970338 -0.3796558498427855 0 -0.45866059022647337 -0.39926898411589318 0 -0.44214448996605771 -0.38590067987180487 0 -0.47663764439203787 -0.39986088316167812 0 -0.46428573772970338 -0.3796558498427855 0 -0.45866059022647337 -0.39926898411589318 0 -0.4702036055959371 -0.4114312644081411 0 -0.47663764439203787 -0.39986088316167812 0 -0.45866059022647337 -0.39926898411589318 0 -0.45866059022647337 -0.39926898411589318 0 -0.44152426867615929 -0.40465738401413542 0 -0.45750211200220919 -0.41381238378958252 0 -0.45866059022647337 -0.39926898411589318 0 -0.44152426867615929 -0.40465738401413542 0 -0.44214448996605771 -0.38590067987180487 0 -0.46428573772970338 -0.3796558498427855 0 -0.44214448996605771 -0.38590067987180487 0 -0.44087329149294457 -0.36774911197406901 0 -0.46402001875246812 -0.44054207141993867 0 -0.46134122496252988 -0.42367193159882099 0 -0.45219192834488381 -0.43501754280427002 0 -0.46134122496252988 -0.42367193159882099 0 -0.44874530109274741 -0.42269180253109789 0 -0.45219192834488381 -0.43501754280427002 0 -0.47875105600110518 -0.42344788087192647 0 -0.45750211200220919 -0.41381238378958252 0 -0.47875105600110518 -0.42344788087192647 0 -0.46134122496252988 -0.42367193159882099 0 -0.45750211200220919 -0.41381238378958252 0 -0.44152426867615929 -0.40465738401413542 0 -0.46134122496252988 -0.42367193159882099 0 -0.45750211200220919 -0.41381238378958252 0 -0.4702036055959371 -0.4114312644081411 0 -0.45866059022647337 -0.39926898411589318 0 -0.45750211200220919 -0.41381238378958252 0 -0.44152426867615929 -0.40465738401413542 0 -0.46134122496252988 -0.42367193159882099 0 -0.44874530109274741 -0.42269180253109789 0 -0.44152426867615929 -0.40465738401413542 0 -0.43992378238741658 -0.42742035170716552 0 -0.44874530109274741 -0.42269180253109789 0 -0.44152426867615929 -0.40465738401413542 0 -0.46134122496252988 -0.42367193159882099 0 -0.44255424756708739 -0.44473766304979567 0 -0.43992378238741658 -0.42742035170716552 0 -0.4306209311802523 -0.43996401056784429 0 -0.44255424756708739 -0.44473766304979567 0 -0.43992378238741658 -0.42742035170716552 0 -0.45219192834488381 -0.43501754280427002 0 -0.43992378238741658 -0.42742035170716552 0 -0.44874530109274741 -0.42269180253109789 0 -0.45219192834488381 -0.43501754280427002 0 -0.43992378238741658 -0.42742035170716552 0 -0.42405097927288021 -0.42754653170584977 0 -0.42598090854913179 -0.41114895450337618 0 -0.42405097927288021 -0.42754653170584977 0 -0.4306209311802523 -0.43996401056784429 0 -0.4147970792573844 -0.43981489782294803 0 -0.43992378238741658 -0.42742035170716552 0 -0.42405097927288021 -0.42754653170584977 0 -0.4306209311802523 -0.43996401056784429 0 -0.44152426867615929 -0.40465738401413542 0 -0.43992378238741658 -0.42742035170716552 0 -0.42598090854913179 -0.41114895450337618 0 -0.42405097927288021 -0.42754653170584977 0 -0.42598090854913179 -0.41114895450337618 0 -0.41896497017151119 -0.41759769451880668 0 -0.41896497017151119 -0.41759769451880668 0 -0.40895848325622047 -0.42620465349391468 0 -0.40971413839703469 -0.40402892864484968 0 -0.42598090854913179 -0.41114895450337618 0 -0.41896497017151119 -0.41759769451880668 0 -0.40971413839703469 -0.40402892864484968 0 -0.40895848325622047 -0.42620465349391468 0 -0.39576164711706507 -0.44517487717762272 0 -0.4147970792573844 -0.43981489782294803 0 -0.42405097927288021 -0.42754653170584977 0 -0.40895848325622047 -0.42620465349391468 0 -0.4147970792573844 -0.43981489782294803 0 -0.42405097927288021 -0.42754653170584977 0 -0.41896497017151119 -0.41759769451880668 0 -0.40895848325622047 -0.42620465349391468 0 -0.44214448996605771 -0.38590067987180487 0 -0.42170731238978848 -0.38564283642944969 0 -0.44087329149294457 -0.36774911197406901 0 -0.44152426867615929 -0.40465738401413542 0 -0.42170731238978848 -0.38564283642944969 0 -0.44152426867615929 -0.40465738401413542 0 -0.44214448996605771 -0.38590067987180487 0 -0.42170731238978848 -0.38564283642944969 0 -0.44152426867615929 -0.40465738401413542 0 -0.42598090854913179 -0.41114895450337618 0 -0.42170731238978848 -0.38564283642944969 0 -0.42598090854913179 -0.41114895450337618 0 -0.40971413839703469 -0.40402892864484968 0 -0.42170731238978848 -0.38564283642944969 0 -0.40971413839703469 -0.40402892864484968 0 -0.42170731238978848 -0.38564283642944969 0 -0.40024578372452152 -0.38545626035896607 0 -0.42170731238978848 -0.38564283642944969 0 -0.40024578372452152 -0.38545626035896607 0 -0.40189035610341778 -0.36662828884476412 0 -0.42170731238978848 -0.38564283642944969 0 -0.40189035610341778 -0.36662828884476412 0 -0.40024578372452152 -0.38545626035896607 0 -0.39163796262849287 -0.40235663887082501 0 -0.38435120585081739 -0.38625447766204568 0 -0.40971413839703469 -0.40402892864484968 0 -0.40024578372452152 -0.38545626035896607 0 -0.39163796262849287 -0.40235663887
[...]
<PointData Scalars="" Vectors="displacement," Tensors="">
<DataArray type="Float64" Name="displacement" NumberOfComponents="3" format="ascii">
-0.014999726701757074 -0.014999467183551338 0 -0.014744101272325279 -0.014977967358897322 0 -0.014088146013372082 -0.014999901534098897 0 -0.014999726701757074 -0.014999467183551338 0 -0.014744101272325279 -0.014977967358897322 0 -0.014999735212636752 -0.014315086407799641 0 -0.014427893443885497 -0.014447068732891689 0 -0.014087305703976405 -0.014998857568912911 0 -0.014059143240823305 -0.014792275405397782 0 -0.014584254562839601 -0.014704207827993759 0 -0.014087603379815869 -0.014999852229034759 0 -0.014427893443885497 -0.014447068732891689 0 -0.014344972884842655 -0.014367445239983059 0 -0.014059143240823305 -0.014792275405397782 0 -0.014427893443885497 -0.014447068732891689 0 -0.014344972884842655 -0.014367445239983059 0 -0.014709639449092841 -0.01402938695581739 0 -0.014427893443885497 -0.014447068732891689 0 -0.014998990052166867 -0.014313097466326223 0 -0.014709639449092841 -0.01402938695581739 0 -0.014584254562839601 -0.014704207827993759 0 -0.014999758621404603 -0.014314118703595452 0 -0.014999677534871976 -0.013639569650622484 0 -0.014709639449092841 -0.01402938695581739 0 -0.014957420577012746 -0.013418328543365464 0 -0.014998990052166867 -0.014313097466326223 0 -0.014999677534871976 -0.013639569650622484 0 -0.014709639449092841 -0.01402938695581739 0 -0.014709639449092841 -0.01402938695581739 0 -0.014724807287152038 -0.013625925859843272 0 -0.014500763540998133 -0.013980124796230693 0 -0.014344972884842655 -0.014367445239983059 0 -0.014709639449092841 -0.01402938695581739 0 -0.014500763540998133 -0.013980124796230693 0 -0.014724807287152038 -0.013625925859843272 0 -0.014957420577012746 -0.013418328543365464 0 -0.015173301317984958 -0.012978703912331115 0 -0.014709639449092841 -0.01402938695581739 0 -0.014724807287152038 -0.013625925859843272 0 -0.014957420577012746 -0.013418328543365464 0 -0.014999677534871976 -0.013639569650622484 0 -0.014957420577012746 -0.013418328543365464 0 -0.014999659576318188 -0.012964485683261261 0 -0.014717524386951843 -0.013551328476219498 0 -0.014673306055709233 -0.013470319569539998 0 -0.014519219899373449 -0.013936846252497958 0 -0.014717524386951843 -0.013551328476219498 0 -0.014519219899373449 -0.013936846252497958 0 -0.014807136640351395 -0.013793913314656082 0 -0.014673306055709233 -0.013470319569539998 0 -0.014500763540998133 -0.013980124796230693 0 -0.014519219899373449 -0.013936846252497958 0 -0.014724807287152038 -0.013625925859843272 0 -0.014673306055709233 -0.013470319569539998 0 -0.014764452788260485 -0.013295800582024696 0 -0.014724807287152038 -0.013625925859843272 0 -0.014673306055709233 -0.013470319569539998 0 -0.014500763540998133 -0.013980124796230693 0 -0.014344972884842655 -0.014367445239983059 0 -0.014500763540998133 -0.013980124796230693 0 -0.014253808946444582 -0.014410657092057065 0 -0.014500763540998133 -0.013980124796230693 0 -0.014519219899373449 -0.013936846252497958 0 -0.014253808946444582 -0.014410657092057065 0 -0.014519219899373449 -0.013936846252497958 0 -0.014478368630489477 -0.014215228331147963 0 -0.014253808946444582 -0.014410657092057065 0 -0.014519219899373449 -0.013936846252497958 0 -0.014478368630489477 -0.014215228331147963 0 -0.014807136640351395 -0.013793913314656082 0 -0.014478368630489477 -0.014215228331147963 0 -0.013931488187613755 -0.014929152939676177 0 -0.014253808946444582 -0.014410657092057065 0 -0.013931488187613755 -0.014929152939676177 0 -0.014253808946444582 -0.014410657092057065 0 -0.014059143240823305 -0.014792275405397782 0 -0.014344972884842655 -0.014367445239983059 0 -0.014253808946444582 -0.014410657092057065 0 -0.014059143240823305 -0.014792275405397782 0 -0.014087305703976405 -0.014998857568912911 0 -0.014059143240823305 -0.014792275405397782 0 -0.013540340069739167 -0.015000023518177048 0 -0.013931488187613755 -0.014929152939676177 0 -0.013540340069739167 -0.015000023518177048 0 -0.012994037623599361 -0.014999069652207991 0 -0.013931488187613755 -0.014929152939676177 0 -0.014059143240823305 -0.014792275405397782 0 -0.013540340069739167 -0.015000023518177048 0 -0.012992518684414237 -0.014999989464258415 0 -0.012855484887395968 -0.015321963704055513 0 -0.013931488187613755 -0.014929152939676177 0 -0.012994037623599361 -0.014999069652207991 0 -0.013082940411476096 -0.0151013622667281 0 -0.012992346402234492 -0.014999965076396336 0 -0.012664178086198713 -0.015508274549908755 0 -0.012114810613201995 -0.014999888623193722 0 -0.012664178086198713 -0.015508274549908755 0 -0.012114810613201995 -0.014999888623193722 0 -0.0119967581698393 -0.015533212636289409 0 -0.012357966648503095 -0.01568697113113382 0 -0.012664178086198713 -0.015508274549908755 0 -0.012499908868224333 -0.015987338272158386 0 -0.012357966648503095 -0.01568697113113382 0 -0.012664178086198713 -0.015508274549908755 0 -0.0119967581698393 -0.015533212636289409 0 -0.013971213240708108 -0.014930606753194561 0 -0.014050114141133184 -0.014947442812430276 0 -0.014478368630489477 -0.014215228331147963 0 -0.013931488187613755 -0.014929152939676177 0 -0.015170795624826792 -0.014075703831992369 0 -0.013931488187613755 -0.014929152939676177 0 -0.013082940411476096 -0.0151013622667281 0 -0.012977683138939163 -0.015861511036322461 0 -0.0119967581698393 -0.015533212636289409 0 -0.011367371030892168 -0.015806435579175233 0 -0.011237115753984729 -0.01499994063747777 0 -0.012114810613201995 -0.014999888623193722 0 -0.0119967581698393 -0.015533212636289409 0 -0.011237115753984729 -0.01499994063747777 0 -0.011367371030892168 -0.015806435579175233 0 -0.011969648396214455 -0.015972108513323587 0 -0.011527212581120688 -0.016418761675748444 0 -0.0119967581698393 -0.015533212636289409 0 -0.011367371030892168 -0.015806435579175233 0 -0.011969648396214455 -0.015972108513323587 0 -0.012357966648503095 -0.01568697113113382 0 -0.0119967581698393 -0.015533212636289409 0 -0.011969648396214455 -0.015972108513323587 0 -0.011969648396214455 -0.015972108513323587 0 -0.012108799475176313 -0.016493700318518236 0 -0.012499908868224333 -0.015987338272158386 0 -0.011969648396214455 -0.015972108513323587 0 -0.012108799475176313 -0.016493700318518236 0 -0.011527212581120688 -0.016418761675748444 0 -0.011367371030892168 -0.015806435579175233 0 -0.011527212581120688 -0.016418761675748444 0 -0.010919439025981007 -0.016395953991786203 0 -0.014478368630489477 -0.014215228331147963 0 -0.015170795624826792 -0.014075703831992369 0 -0.014807136640351395 -0.013793913314656082 0 -0.015170795624826792 -0.014075703831992369 0 -0.015138832086712581 -0.013702867557013415 0 -0.014807136640351395 -0.013793913314656082 0 -0.012855484887395968 -0.015321963704055513 0 -0.012530779640900236 -0.015953820372287146 0 -0.013082940411476096 -0.0151013622667281 0 -0.012977683138939163 -0.015861511036322461 0 -0.012499908868224333 -0.015987338272158386 0 -0.012108799475176313 -0.016493700318518236 0 -0.012977683138939163 -0.015861511036322461 0 -0.012499908868224333 -0.015987338272158386 0 -0.012357966648503095 -0.01568697113113382 0 -0.011969648396214455 -0.015972108513323587 0 -0.012499908868224333 -0.015987338272158386 0 -0.015481831096412994 -0.013486974193420147 0 -0.015170795624826792 -0.014075703831992369 0 -0.015138832086712581 -0.013702867557013415 0 -0.015481831096412994 -0.013486974193420147 0 -0.015023748483400528 -0.013469623295427766 0 -0.015138832086712581 -0.013702867557013415 0 -0.013809204630067306 -0.014999796206160664 0 -0.014050114141133184 -0.014947442812430276 0 -0.014717524386951843 -0.013551328476219498 0 -0.015023748483400528 -0.013469623295427766 0 -0.014837935769392656 -0.013267737581834792 0 -0.014717524386951843 -0.013551328476219498 0 -0.015023748483400528 -0.013469623295427766 0 -0.014807136640351395 -0.013793913314656082 0 -0.015023748483400528 -0.013469623295427766 0 -0.015138832086712581 -0.013702867557013415 0 -0.014807136640351395 -0.013793913314656082 0 -0.015023748483400528 -0.013469623295427766 0 -0.015018384254669974 -0.013115714159905697 0 -0.015317401376370401 -0.013126569665722648 0 -0.015018384254669974 -0.013115714159905697 0 -0.014837935769392656 -0.013267737581834792 0 -0.014852505832122539 -0.012978049431846271 0 -0.015023748483400528 -0.013469623295427766 0 -0.015018384254669974 -0.013115714159905697 0 -0.014837935769392656 -0.013267737581834792 0 -0.015481831096412994 -0.013486974193420147 0 -0.015023748483400528 -0.013469623295427766 0 -0.015317401376370401 -0.013126569665722648 0 -0.015018384254669974 -0.013115714159905697 0 -0.015317401376370401 -0.013126569665722648 0 -0.015185545827347944 -0.01298129858566963 0 -0.015185545827347944 -0.01298129858566963 0 -0.015022070217618168 -0.012809961969254477 0 -0.015416634276295757 -0.012706270098948766 0 -0.015317401376370401 -0.013126569665722648 0 -0.015185545827347944 -0.01298129858566963 0 -0.015416634276295757 -0.012706270098948766 0 -0.015022070217618168 -0.012809961969254477 0 -0.014786536344926663 -0.012738561359368891 0 -0.014852505832122539 -0.012978049431846271 0 -0.015018384254669974 -0.013115714159905697 0 -0.015022070217618168 -0.012809961969254477 0 -0.014852505832122539 -0.012978049431846271 0 -0.015018384254669974 -0.013115714159905697 0 -0.015185545827347944 -0.01298129858566963 0 -0.015022070217618168 -0.012809961969254477 0 -0.011527212581120688 -0.016418761675748444 0 -0.011524859716319422 -0.017012314558493478 0 -0.010919439025981007 -0.016395953991786203 0 -0.013809204630067306 -0.014999796206160664 0 -0.013646976947490532 -0.014980339269233877 0 -0.012108799475176313 -0.016493700318518236 0 -0.011527212581120688 -0.016418761675748444 0 -0.011524859716319422 -0.017012314558493478 0 -0.015481831096412994 -0.013486974193420147 0 -0.015317401376370401 -0.013126569665722648 0 -0.015819780875663481 -0.012986290426069125 0 -0.015317401376370401 -0.013126569665722648 0 -0.015416634276295757 -0.012706270098948766 0 -0.015819780875663481 -0.012986290426069125 0 -0.015416634276295757 -0.012706270098948766 0 -0.015819780875663481 -0.012986290426069125 0 -0.015797274621725026 -0.012393128405516615 0 -0.015819780875663481 -0.012986290426069125 0 -0.015797274621725026 -0.012393128405516615 0 -0.016220278758491555 -0.012433586868470906 0 -0.013646976947490532 -0.014980339269233877 0 -0.01372159149316393 -0.015234126917145456 0 -0.015797274621725026 -0.012393128405516615 0 -0.015433690965863037 -0.012132308298892136 0 -0.015725176264150608 -0.011919950521123417 0 -0.015416634276295757 -0.012706270098948766 0 -0.015797274621725026 -0.012393128405516615 0 -0.015433690965863037 -0.012132308298892136 0 -0.015433690965863037 -0.012132308298892136 0 -0.015269371371324397 -0.011700414240421503 0 -0.015485732950816476 -0.011519819710829184 0 -0.015433690965863037 -0.012132308298892136 0 -0.015725176264150608 -0.011919950521123417 0 -0.015485732950816476 -0.011519819710829184 0 -0.015797274621725026 -0.012393128405516615 0 -0.015725176264150608 -0.011919950521123417 0 -0.016089837780547001 -0.011972028394298785 0 -0.015725176264150608 -0.011919950521123417 0 -0.015806913701789757 -0.011612601696771297 0 -0.015485732950816476 -0.011519819710829184 0 -0.015725176264150608 -0.011919950521123417 0 -0.016089837780547001 -0.011972028394298785 0 -0.015806913701789757 -0.011612601696771297 0 -0.015146901592828188 -0.012214380818314568 0 -0.014779741737437275 -0.012355526191851056 0 -0.015022070217618168 -0.012809961969254477 0 -0.015038951288444572 -0.012486306890104009 0 -0.014786536344926663 -0.012738561359368891 0 -0.015416634276295757 -0.012706270098948766 0 -0.015433690965863037 -0.012132308298892136 0 -0.015038951288444572 -0.012486306890104009 0 -0.015433497969533907 -0.012143817192682085 0 -0.015146901592828188 -0.012214380818314568 0 -0.015022070217618168 -0.012809961969254477 0 -0.015416634276295757 -0.012706270098948766 0 -0.015038951288444572 -0.012486306890104009 0 -0.015433690965863037 -0.012132308298892136 0 -0.015158932053475287 -0.011941930847889469 0 -0.015269371371324397 -0.011700414240421503 0 -0.015158932053475287 -0.011941930847889469 0 -0.014904680826732006 -0.011940349158629076 0 -0.015065032915590942 -0.011600390216406202 0 -0.015158932053475287 -0.011941930847889469 0 -0.015269371371324397 -0.011700414240421503 0 -0.015065032915590942 -0.011600390216406202 0 -0.014904680826732006 -0.011940349158629076 0 -0.014705029797517899 -0.011647440083682009 0 -0.015065032915590942 -0.011600390216406202 0 -0.014779741737437275 -0.012355526191851056 0 -0.014993966708871103 -0.012194377961512863 0 -0.014786536344926663 -0.012738561359368891 0 -0.014648915222248843 -0.012900481000995131 0 -0.014736295754110834 -0.012977496206936201 0 -0.014904680826732006 -0.011940349158629076 0 -0.014602116624202934 -0.011966282414052752 0 -0.014705029797517899 -0.011647440083682009 0 -0.014993966708871103 -0.012194377961512863 0 -0.015192059718207923 -0.011342696390281062 0 -0.015613719203678258 -0.011701780428353698 0 -0.015655275387281353 -0.011166604929504172 0 -0.015343223091779972 -0.011357604310359369 0 -0.015343223091779972 -0.011357604310359369 0 -0.014999930335973641 -0.011364854706281135 0 -0.015175852658359777 -0.01163742978000468 0 -0.015343223091779972 -0.011357604310359369 0 -0.015175852658359777 -0.01163742978000468 0 -0.015315424176955817 -0.011805781722220451 0 -0.014999930335973641 -0.011364854706281135 0 -0.015175852658359777 -0.01163742978000468 0 -0.014999893933196331 -0.012030859466176935 0 -0.014999876705873041 -0.012031280043988388 0 -0.015192913185311791 -0.01203210820610017 0 -0.015000225964079756 -0.012032126602375031 0 -0.014946779251585813 -0.012292078628283644 0 -0.014872128375655016 -0.012527239827010784 0 -0.015175852658359777 -0.01163742978000468 0 -0.014999893933196331 -0.012030859466176935 0 -0.015315424176955817 -0.011805781722220451 0 -0.015613719203678258 -0.011701780428353698 0 -0.015343223091779972 -0.011357604310359369 0 -0.015315424176955817 -0.011805781722220451 0 -0.015285599242259879 -0.012248379723043393 0 -0.014946779251585813 -0.012292078628283644 0 -0.014872128375655016 -0.012527239827010784 0 -0.014993966708871103 -0.012194377961512863 0 -0.015192913185311791 -0.01203210820610017 0 -0.014872128375655016 -0.012527239827010784 0 -0.014667528291059037 -0.012979426769242988 0 -0.01481095131907666 -0.013034614754993432 0 -0.015285599242259879 -0.012248379723043393 0 -0.014872128375655016 -0.012527239827010784 0 -0.01481095131907666 -0.013034614754993432 0 -0.014993966708871103 -0.012194377961512863 0 -0.014800195791346287 -0.013154377961012789 0 -0.014999952314365506 -0.012289568226203841 0 -0.014910911994070531 -0.012996921256337545 0 -0.014999099826421444 -0.012289025977872847 0 -0.014872128375655016 -0.012527239827010784 0 -0.014667528291059037 -0.012979426769242988 0 -0.015000225964079756 -0.012032126602375031 0 -0.014999099826421444 -0.012289025977872847 0 -0.014872128375655016 -0.012527239827010784 0 -0.015000119308329151 -0.012289335379450718 0 -0.015173301317984958 -0.012978703912331115 0 -0.014999659576318188 -0.012964485683261261 0 -0.014957420577012746 -0.013418328543365464 0 -0.015173301317984958 -0.012978703912331115 0 -0.014999659576318188 -0.012964485683261261 0 -0.014791828379225783 -0.013499761680703314 0 -0.014910911994070531 -0.012996921256337545 0 -0.014724807287152038 -0.013625925859843272 0 -0.014667528291059037 -0.012979426769242988 0 -0.014764452788260485 -0.013295800582024696 0 -0.014667528291059037 -0.012979426769242988 0 -0.01481095131907666 -0.013034614754993432 0 -0.014764452788260485 -0.013295800582024696 0 -0.01481095131907666 -0.013034614754993432 0 -0.014764452788260485 -0.013295800582024696 0 -0.014729804405358704 -0.01308804453516302 0 -0.014673306055709233 -0.013470319569539998 0 -0.014764452788260485 -0.013295800582024696 0 -0.014729804405358704 -0.01308804453516302 0 -0.014673306055709233 -0.013470319569539998 0 -0.014729804405358704 -0.01308804453516302 0 -0.01474822607625656 -0.013197173834193648 0 -0.014717524386951843 -0.013551328476219498 0 -0.014673306055709233 -0.013470319569539998 0 -0.01474822607625656 -0.013197173834193648 0 -0.014717524386951843 -0.013551328476219498 0 -0.014837935769392656 -0.013267737581834792 0 -0.01474822607625656 -0.013197173834193648 0 -0.014837935769392656 -0.013267737581834792 0 -0.01474822607625656 -0.013197173834193648 0 -0.014852505832122539 -0.012978049431846271 0 -0.01474822607625656 -0.013197173834193648 0 -0.014852505832122539 -0.012978049431846271 0 -0.014736295754110834 -0.012977496206936201 0 -0.014786536344926663 -0.012738561359368891 0 -0.014852505832122539 -0.012978049431846271 0 -0.014736295754110834 -0.012977496206936201 0 -0.014648915222248843 -0.012900481000995131 0 -0.01481095131907666 -0.013034614754993432 0 -0.014729804405358704 -0.01308804453516302 0 -0.014648915222248843 -0.012900481000995131 0 -0.014729804405358704 -0.01308804453516302 0 -0.014736295754110834 -0.012977496206936201 0 -0.014729804405358704 -0.01308804453516302 0 -0.01474822607625656 -0.013197173834193648 0 -0.014736295754110834 -0.012977496206936201 0 -0.0078569255320769509 -0.015994002991574895 0 -0.0080140172424950033 -0.016093915822395749 0 -0.0077811064601358898 -0.01611429606207988 0 -0.0078569255320769509 -0.015994002991574895 0 -0.0076754018740292224 -0.015856411296699579 0 -0.0076402523518521483 -0.01601478384647128 0 -0.0078569255320769509 -0.015994002991574895 0 -0.0077811064601358898 -0.01611429606207988 0 -0.0076402523518521483 -0.01601478384647128 0 -0.0080140172424950033 -0.016093915822395749 0 -0.0080361742027760721 -0.015836567907325717 0 -0.0082373767732466067 -0.016026626562555369 0 -0.0078569255320769509 -0.015994002991574895 0 -0.0080140172424950033 -0.016093915822395749 0 -0.0080361742027760721 -0.015836567907325717 0 -0.0080361742027760721 -0.015836567907325717 0 -0.0078458188703619484 -0.015691695103806393 0 -0.0080487978796686434 -0.015481575271408421 0 -0.0080361742027760721 -0.015836567907325717 0 -0.0078458188703619484 -0.015691695103806393 0 -0.0076754018740292224 -0.015856411296699579 0 -0.0078458188703619484 -0.015691695103806393 0 -0.0076754018740292224 -0.015856411296699579 0 -0.0076267209234332015 -0.015536527812168743 0 -0.0078569255320769509 -0.015994002991574895 0 -0.0080361742027760721 -0.015836567907325717 0 -0.0076754018740292224 -0.015856411296699579 0 -0.0078458188703619484 -0.015691695103806393 0 -0.0076267209234332015 -0.015536527812168743 0 -0.0080487978796686434 -0.015481575271408421 0 -0.0076267209234332015 -0.015536527812168743 0 -0.0077933177262568803 -0.01499991107104127 0 -0.0080487978796686434 -0.015481575271408421 0 -0.0076267209234332015 -0.015536527812168743 0 -0.0077933177262568803 -0.01499991107104127 0 -0.0072171743275195885 -0.015356474954504852 0 -0.0077933177262568803 -0.01499991107104127 0 -0.0080487978796686434 -0.015481575271408421 0 -0.0086033061554027374 -0.015000022279139064 0 -0.0080361742027760721 -0.015836567907325717 0 -0.0080487978796686434 -0.015481575271408421 0 -0.0084139624383224899 -0.015518585553362269 0 -0.0080487978796686434 -0.015481575271408421 0 -0.0084139624383224899 -0.015518585553362269 0 -0.0086033061554027374 -0.015000022279139064 0 -0.0084139624383224899 -0.015518585553362269 0 -0.0087159441027733729 -0.015401043594921993 0 -0.0085560815182856367 -0.015624392604720247 0 -0.0084139624383224899 -0.015518585553362269 0 -0.0086033061554027374 -0.015000022279139064 0 -0.0087159441027733729 -0.015401043594921993 0 -0.0086039965760694292 -0.015000031183928821 0 -0.0089496032858910595 -0.015502444055233112 0 -0.0086040320235937513 -0.015000000721877425 0 -0.0091542904583472792 -0.015567928284996011 0 -0.0094817272548291063 -0.014999969105625262 0 -0.0087159441027733729 -0.015401043594921993 0 -0.0085560815182856367 -0.015624392604720247 0 -0.0087419558702309195 -0.015800404758911039 0 -0.0085560815182856367 -0.015624392604720247 0 -0.0087419558702309195 -0.015800404758911039 0 -0.008368530279845493 -0.01580216468