<?xml version="1.0"?>
<VTKFile type="UnstructuredGrid" version="0.1" byte_order="LittleEndian">
<UnstructuredGrid>
<Piece NumberOfPoints="29993" NumberOfCells="10497">
<Points>
<DataArray type="Float64" NumberOfComponents="3" format="ascii">
-0.5 -0.5 0 -0.4885654373785705 -0.48478895414309647 0 -0.50000000000000555 -0.46957790828618862 0 -0.5 -0.5 0 -0.4885654373785705 -0.48478895414309647 0 -0.47713087475713128 -0.50000000000000122 0 -0.4885654373785705 -0.48478895414309647 0 -0.50000000000000555 -0.46957790828618862 0 -0.4872637014387764 -0.46074571869931658 0 -0.4885654373785705 -0.48478895414309647 0 -0.50000000000000555 -0.46957790828618862 0 -0.4885654373785705 -0.48478895414309647 0 -0.47399982686133441 -0.4691912146487236 0 -0.4872637014387764 -0.46074571869931658 0 -0.4885654373785705 -0.48478895414309647 0 -0.47399982686133441 -0.4691912146487236 0 -0.4630026500298921 -0.48347192371181802 0 -0.4885654373785705 -0.48478895414309647 0 -0.47713087475713128 -0.50000000000000122 0 -0.4630026500298921 -0.48347192371181802 0 -0.4885654373785705 -0.48478895414309647 0 -0.47713087475713128 -0.50000000000000122 0 -0.45463482053199489 -0.5 0 -0.4630026500298921 -0.48347192371181802 0 -0.44306567011615999 -0.48960677283144349 0 -0.47713087475713128 -0.50000000000000122 0 -0.45463482053199489 -0.5 0 -0.4630026500298921 -0.48347192371181802 0 -0.4630026500298921 -0.48347192371181802 0 -0.44632893934183587 -0.47562752376868261 0 -0.45790972188533391 -0.46501012567577449 0 -0.47399982686133441 -0.4691912146487236 0 -0.4630026500298921 -0.48347192371181802 0 -0.45790972188533391 -0.46501012567577449 0 -0.44632893934183587 -0.47562752376868261 0 -0.44306567011615999 -0.48960677283144349 0 -0.42798582571177929 -0.48781376188434239 0 -0.4630026500298921 -0.48347192371181802 0 -0.44632893934183587 -0.47562752376868261 0 -0.44306567011615999 -0.48960677283144349 0 -0.45463482053199489 -0.5 0 -0.44306567011615999 -0.48960677283144349 0 -0.4321387663068586 -0.5 0 -0.44255424756708739 -0.44473766304979567 0 -0.43957543253440851 -0.45981259768199029 0 -0.45562208548867439 -0.44946630419263361 0 -0.44255424756708739 -0.44473766304979567 0 -0.45562208548867439 -0.44946630419263361 0 -0.45219192834488381 -0.43501754280427002 0 -0.43957543253440851 -0.45981259768199029 0 -0.45790972188533391 -0.46501012567577449 0 -0.45562208548867439 -0.44946630419263361 0 -0.44632893934183587 -0.47562752376868261 0 -0.43957543253440851 -0.45981259768199029 0 -0.43395751333245303 -0.46935779742432682 0 -0.44632893934183587 -0.47562752376868261 0 -0.43957543253440851 -0.45981259768199029 0 -0.45790972188533391 -0.46501012567577449 0 -0.47399982686133441 -0.4691912146487236 0 -0.45790972188533391 -0.46501012567577449 0 -0.46993589911870598 -0.45382444668916699 0 -0.45790972188533391 -0.46501012567577449 0 -0.45562208548867439 -0.44946630419263361 0 -0.46993589911870598 -0.45382444668916699 0 -0.45562208548867439 -0.44946630419263361 0 -0.46402001875246812 -0.44054207141993867 0 -0.46993589911870598 -0.45382444668916699 0 -0.45562208548867439 -0.44946630419263361 0 -0.46402001875246812 -0.44054207141993867 0 -0.45219192834488381 -0.43501754280427002 0 -0.46402001875246812 -0.44054207141993867 0 -0.48115818124890058 -0.44268647918350662 0 -0.46993589911870598 -0.45382444668916699 0 -0.48115818124890058 -0.44268647918350662 0 -0.46993589911870598 -0.45382444668916699 0 -0.4872637014387764 -0.46074571869931658 0 -0.47399982686133441 -0.4691912146487236 0 -0.46993589911870598 -0.45382444668916699 0 -0.4872637014387764 -0.46074571869931658 0 -0.50000000000000555 -0.46957790828618862 0 -0.4872637014387764 -0.46074571869931658 0 -0.5 -0.45133064312022969 0 -0.48115818124890058 -0.44268647918350662 0 -0.5 -0.45133064312022969 0 -0.500000000000001 -0.43308337795427082 0 -0.48115818124890058 -0.44268647918350662 0 -0.4872637014387764 -0.46074571869931658 0 -0.5 -0.45133064312022969 0 -0.500000000000001 -0.43308337795427082 0 -0.47875105600110518 -0.42344788087192647 0 -0.48115818124890058 -0.44268647918350662 0 -0.500000000000001 -0.43308337795427082 0 -0.47875105600110518 -0.42344788087192647 0 -0.500000000000001 -0.43308337795427082 0 -0.47875105600110518 -0.42344788087192647 0 -0.5 -0.40382674391869389 0 -0.47875105600110518 -0.42344788087192647 0 -0.5 -0.40382674391869389 0 -0.47663764439203787 -0.39986088316167812 0 -0.4702036055959371 -0.4114312644081411 0 -0.47875105600110518 -0.42344788087192647 0 -0.45750211200220919 -0.41381238378958252 0 -0.4702036055959371 -0.4114312644081411 0 -0.47875105600110518 -0.42344788087192647 0 -0.47663764439203787 -0.39986088316167812 0 -0.48115818124890058 -0.44268647918350662 0 -0.46134122496252988 -0.42367193159882099 0 -0.46402001875246812 -0.44054207141993867 0 -0.48115818124890058 -0.44268647918350662 0 -0.46134122496252988 -0.42367193159882099 0 -0.48115818124890058 -0.44268647918350662 0 -0.47875105600110518 -0.42344788087192647 0 -0.46134122496252988 -0.42367193159882099 0 -0.47663764439203787 -0.39986088316167812 0 -0.46428573772970338 -0.3796558498427855 0 -0.5 -0.37457010988311701 0 -0.5 -0.40382674391869389 0 -0.47663764439203787 -0.39986088316167812 0 -0.5 -0.37457010988311701 0 -0.46428573772970338 -0.3796558498427855 0 -0.45866059022647337 -0.39926898411589318 0 -0.44214448996605771 -0.38590067987180487 0 -0.47663764439203787 -0.39986088316167812 0 -0.46428573772970338 -0.3796558498427855 0 -0.45866059022647337 -0.39926898411589318 0 -0.4702036055959371 -0.4114312644081411 0 -0.47663764439203787 -0.39986088316167812 0 -0.45866059022647337 -0.39926898411589318 0 -0.45866059022647337 -0.39926898411589318 0 -0.44152426867615929 -0.40465738401413542 0 -0.45750211200220919 -0.41381238378958252 0 -0.45866059022647337 -0.39926898411589318 0 -0.44152426867615929 -0.40465738401413542 0 -0.44214448996605771 -0.38590067987180487 0 -0.46428573772970338 -0.3796558498427855 0 -0.44214448996605771 -0.38590067987180487 0 -0.44087329149294457 -0.36774911197406901 0 -0.46402001875246812 -0.44054207141993867 0 -0.46134122496252988 -0.42367193159882099 0 -0.45219192834488381 -0.43501754280427002 0 -0.46134122496252988 -0.42367193159882099 0 -0.44874530109274741 -0.42269180253109789 0 -0.45219192834488381 -0.43501754280427002 0 -0.47875105600110518 -0.42344788087192647 0 -0.45750211200220919 -0.41381238378958252 0 -0.47875105600110518 -0.42344788087192647 0 -0.46134122496252988 -0.42367193159882099 0 -0.45750211200220919 -0.41381238378958252 0 -0.44152426867615929 -0.40465738401413542 0 -0.46134122496252988 -0.42367193159882099 0 -0.45750211200220919 -0.41381238378958252 0 -0.4702036055959371 -0.4114312644081411 0 -0.45866059022647337 -0.39926898411589318 0 -0.45750211200220919 -0.41381238378958252 0 -0.44152426867615929 -0.40465738401413542 0 -0.46134122496252988 -0.42367193159882099 0 -0.44874530109274741 -0.42269180253109789 0 -0.44152426867615929 -0.40465738401413542 0 -0.43992378238741658 -0.42742035170716552 0 -0.44874530109274741 -0.42269180253109789 0 -0.44152426867615929 -0.40465738401413542 0 -0.46134122496252988 -0.42367193159882099 0 -0.44255424756708739 -0.44473766304979567 0 -0.43992378238741658 -0.42742035170716552 0 -0.4306209311802523 -0.43996401056784429 0 -0.44255424756708739 -0.44473766304979567 0 -0.43992378238741658 -0.42742035170716552 0 -0.45219192834488381 -0.43501754280427002 0 -0.43992378238741658 -0.42742035170716552 0 -0.44874530109274741 -0.42269180253109789 0 -0.45219192834488381 -0.43501754280427002 0 -0.43992378238741658 -0.42742035170716552 0 -0.42405097927288021 -0.42754653170584977 0 -0.42598090854913179 -0.41114895450337618 0 -0.42405097927288021 -0.42754653170584977 0 -0.4306209311802523 -0.43996401056784429 0 -0.4147970792573844 -0.43981489782294803 0 -0.43992378238741658 -0.42742035170716552 0 -0.42405097927288021 -0.42754653170584977 0 -0.4306209311802523 -0.43996401056784429 0 -0.44152426867615929 -0.40465738401413542 0 -0.43992378238741658 -0.42742035170716552 0 -0.42598090854913179 -0.41114895450337618 0 -0.42405097927288021 -0.42754653170584977 0 -0.42598090854913179 -0.41114895450337618 0 -0.41896497017151119 -0.41759769451880668 0 -0.41896497017151119 -0.41759769451880668 0 -0.40895848325622047 -0.42620465349391468 0 -0.40971413839703469 -0.40402892864484968 0 -0.42598090854913179 -0.41114895450337618 0 -0.41896497017151119 -0.41759769451880668 0 -0.40971413839703469 -0.40402892864484968 0 -0.40895848325622047 -0.42620465349391468 0 -0.39576164711706507 -0.44517487717762272 0 -0.4147970792573844 -0.43981489782294803 0 -0.42405097927288021 -0.42754653170584977 0 -0.40895848325622047 -0.42620465349391468 0 -0.4147970792573844 -0.43981489782294803 0 -0.42405097927288021 -0.42754653170584977 0 -0.41896497017151119 -0.41759769451880668 0 -0.40895848325622047 -0.42620465349391468 0 -0.44214448996605771 -0.38590067987180487 0 -0.42170731238978848 -0.38564283642944969 0 -0.44087329149294457 -0.36774911197406901 0 -0.44152426867615929 -0.40465738401413542 0 -0.42170731238978848 -0.38564283642944969 0 -0.44152426867615929 -0.40465738401413542 0 -0.44214448996605771 -0.38590067987180487 0 -0.42170731238978848 -0.38564283642944969 0 -0.44152426867615929 -0.40465738401413542 0 -0.42598090854913179 -0.41114895450337618 0 -0.42170731238978848 -0.38564283642944969 0 -0.42598090854913179 -0.41114895450337618 0 -0.40971413839703469 -0.40402892864484968 0 -0.42170731238978848 -0.38564283642944969 0 -0.40971413839703469 -0.40402892864484968 0 -0.42170731238978848 -0.38564283642944969 0 -0.40024578372452152 -0.38545626035896607 0 -0.42170731238978848 -0.38564283642944969 0 -0.40024578372452152 -0.38545626035896607 0 -0.40189035610341778 -0.36662828884476412 0 -0.42170731238978848 -0.38564283642944969 0 -0.40189035610341778 -0.36662828884476412 0 -0.40024578372452152 -0.38545626035896607 0 -0.39163796262849287 -0.40235663887082501 0 -0.38435120585081739 -0.38625447766204568 0 -0.40971413839703469 -0.40402892864484968 0 -0.40024578372452152 -0.38545626035896607 0 -0.39163796262849287 -0.40235663887
[...]
<PointData Scalars="" Vectors="displacement," Tensors="">
<DataArray type="Float64" Name="displacement" NumberOfComponents="3" format="ascii">
-1.804803018705326e-07 -0.014999486558212542 0 1.134449597149208e-07 -0.014785196527622217 0 2.7106812567520943e-07 -0.014088347327465259 0 -1.804803018705326e-07 -0.014999486558212542 0 1.134449597149208e-07 -0.014785196527622217 0 8.9783143053176285e-08 -0.015000013837208941 0 -3.0192806854645676e-05 -0.014386458556566364 0 -5.6994861625112751e-08 -0.01408695377791239 0 2.3143591882023494e-05 -0.013936107365228592 0 -1.6569975532016743e-05 -0.014577881222935246 0 -1.225221924582503e-08 -0.01408760350148278 0 -3.0192806854645676e-05 -0.014386458556566364 0 2.5933115334406753e-05 -0.014318062323311386 0 2.3143591882023494e-05 -0.013936107365228592 0 -3.0192806854645676e-05 -0.014386458556566364 0 2.5933115334406753e-05 -0.014318062323311386 0 -7.5533032921846522e-06 -0.0147133730394004 0 -3.0192806854645676e-05 -0.014386458556566364 0 -3.3602622076587308e-07 -0.014998717949076198 0 -7.5533032921846522e-06 -0.0147133730394004 0 -1.6569975532016743e-05 -0.014577881222935246 0 7.5636115838050851e-09 -0.014999771194845335 0 6.6528477344788052e-08 -0.014999850975938504 0 -7.5533032921846522e-06 -0.0147133730394004 0 6.1657355723181837e-06 -0.014887526142233501 0 -3.3602622076587308e-07 -0.014998717949076198 0 6.6528477344788052e-08 -0.014999850975938504 0 -7.5533032921846522e-06 -0.0147133730394004 0 -7.5533032921846522e-06 -0.0147133730394004 0 9.3199433766570663e-05 -0.01470074552528697 0 9.1454218411421472e-05 -0.014501900974686073 0 2.5933115334406753e-05 -0.014318062323311386 0 -7.5533032921846522e-06 -0.0147133730394004 0 9.1454218411421472e-05 -0.014501900974686073 0 9.3199433766570663e-05 -0.01470074552528697 0 6.1657355723181837e-06 -0.014887526142233501 0 2.4570594244648907e-05 -0.01500444263867381 0 -7.5533032921846522e-06 -0.0147133730394004 0 9.3199433766570663e-05 -0.01470074552528697 0 6.1657355723181837e-06 -0.014887526142233501 0 6.6528477344788052e-08 -0.014999850975938504 0 6.1657355723181837e-06 -0.014887526142233501 0 -4.4678365126685277e-08 -0.014999892208873072 0 0.00029012626634371432 -0.014499351675849667 0 0.00018363143150188727 -0.014590666413310985 0 0.00021668902952482773 -0.014403681154892886 0 0.00029012626634371432 -0.014499351675849667 0 0.00021668902952482773 -0.014403681154892886 0 0.00038227862261069873 -0.014401899855434651 0 0.00018363143150188727 -0.014590666413310985 0 9.1454218411421472e-05 -0.014501900974686073 0 0.00021668902952482773 -0.014403681154892886 0 9.3199433766570663e-05 -0.01470074552528697 0 0.00018363143150188727 -0.014590666413310985 0 0.00016806867329953221 -0.014644657860161314 0 9.3199433766570663e-05 -0.01470074552528697 0 0.00018363143150188727 -0.014590666413310985 0 9.1454218411421472e-05 -0.014501900974686073 0 2.5933115334406753e-05 -0.014318062323311386 0 9.1454218411421472e-05 -0.014501900974686073 0 0.00012063880544297793 -0.014160130698772278 0 9.1454218411421472e-05 -0.014501900974686073 0 0.00021668902952482773 -0.014403681154892886 0 0.00012063880544297793 -0.014160130698772278 0 0.00021668902952482773 -0.014403681154892886 0 0.0003049869334608958 -0.014210465068363966 0 0.00012063880544297793 -0.014160130698772278 0 0.00021668902952482773 -0.014403681154892886 0 0.0003049869334608958 -0.014210465068363966 0 0.00038227862261069873 -0.014401899855434651 0 0.0003049869334608958 -0.014210465068363966 0 0.00027382674527835825 -0.013593656424627077 0 0.00012063880544297793 -0.014160130698772278 0 0.00027382674527835825 -0.013593656424627077 0 0.00012063880544297793 -0.014160130698772278 0 2.3143591882023494e-05 -0.013936107365228592 0 2.5933115334406753e-05 -0.014318062323311386 0 0.00012063880544297793 -0.014160130698772278 0 2.3143591882023494e-05 -0.013936107365228592 0 -5.6994861625112751e-08 -0.01408695377791239 0 2.3143591882023494e-05 -0.013936107365228592 0 1.392370457937284e-08 -0.013539705319894117 0 0.00027382674527835825 -0.013593656424627077 0 1.392370457937284e-08 -0.013539705319894117 0 7.2269745747555391e-07 -0.012994068512181309 0 0.00027382674527835825 -0.013593656424627077 0 2.3143591882023494e-05 -0.013936107365228592 0 1.392370457937284e-08 -0.013539705319894117 0 5.2864544698801147e-08 -0.012992272233347459 0 0.00014791307713153023 -0.012414652807211374 0 0.00027382674527835825 -0.013593656424627077 0 7.2269745747555391e-07 -0.012994068512181309 0 8.3545045291684534e-05 -0.013085309238002617 0 1.0703180538149733e-06 -0.012991008289059226 0 0.00020543180299928114 -0.011842352233774863 0 -2.8527381393210743e-07 -0.012114694529283553 0 0.00020543180299928114 -0.011842352233774863 0 -2.8527381393210743e-07 -0.012114694529283553 0 -3.1715241672970241e-05 -0.011482210768482312 0 0.00011580367484446769 -0.011532756364931491 0 0.00020543180299928114 -0.011842352233774863 0 0.00017651021118930834 -0.011376964712969723 0 0.00011580367484446769 -0.011532756364931491 0 0.00020543180299928114 -0.011842352233774863 0 -3.1715241672970241e-05 -0.011482210768482312 0 0.00027765090412177544 -0.013465914324366182 0 0.00040374484615401338 -0.013039976191576597 0 0.0003049869334608958 -0.014210465068363966 0 0.00027382674527835825 -0.013593656424627077 0 0.0005442803685287859 -0.014318097456119661 0 0.00027382674527835825 -0.013593656424627077 0 8.3545045291684534e-05 -0.013085309238002617 0 0.00039452061577066339 -0.011815158416543918 0 -3.1715241672970241e-05 -0.011482210768482312 0 -0.00023165381544998148 -0.010911154247075954 0 -2.9188193642227496e-07 -0.011236976121179777 0 -2.8527381393210743e-07 -0.012114694529283553 0 -3.1715241672970241e-05 -0.011482210768482312 0 -2.9188193642227496e-07 -0.011236976121179777 0 -0.00023165381544998148 -0.010911154247075954 0 -1.2672232692218023e-05 -0.011086504871970392 0 -0.00022429179662690208 -0.010378830926669755 0 -3.1715241672970241e-05 -0.011482210768482312 0 -0.00023165381544998148 -0.010911154247075954 0 -1.2672232692218023e-05 -0.011086504871970392 0 0.00011580367484446769 -0.011532756364931491 0 -3.1715241672970241e-05 -0.011482210768482312 0 -1.2672232692218023e-05 -0.011086504871970392 0 -1.2672232692218023e-05 -0.011086504871970392 0 0.00013165813731158031 -0.010516532344377284 0 0.00017651021118930834 -0.011376964712969723 0 -1.2672232692218023e-05 -0.011086504871970392 0 0.00013165813731158031 -0.010516532344377284 0 -0.00022429179662690208 -0.010378830926669755 0 -0.00023165381544998148 -0.010911154247075954 0 -0.00022429179662690208 -0.010378830926669755 0 -0.0005463874888312698 -0.010113213616100691 0 0.0003049869334608958 -0.014210465068363966 0 0.0005442803685287859 -0.014318097456119661 0 0.00038227862261069873 -0.014401899855434651 0 0.0005442803685287859 -0.014318097456119661 0 0.0004668045500092059 -0.014407096025228976 0 0.00038227862261069873 -0.014401899855434651 0 0.00014791307713153023 -0.012414652807211374 0 0.0001313121780298133 -0.011537319378599548 0 8.3545045291684534e-05 -0.013085309238002617 0 0.00039452061577066339 -0.011815158416543918 0 0.00017651021118930834 -0.011376964712969723 0 0.00013165813731158031 -0.010516532344377284 0 0.00039452061577066339 -0.011815158416543918 0 0.00017651021118930834 -0.011376964712969723 0 0.00011580367484446769 -0.011532756364931491 0 -1.2672232692218023e-05 -0.011086504871970392 0 0.00017651021118930834 -0.011376964712969723 0 0.00044338556235597952 -0.014437256390385757 0 0.0005442803685287859 -0.014318097456119661 0 0.0004668045500092059 -0.014407096025228976 0 0.00044338556235597952 -0.014437256390385757 0 0.00042359035947695596 -0.014455687462011951 0 0.0004668045500092059 -0.014407096025228976 0 0.00026481310057874268 -0.012470708117221632 0 0.00040374484615401338 -0.013039976191576597 0 0.00029012626634371432 -0.014499351675849667 0 0.00042359035947695596 -0.014455687462011951 0 0.00032902258867200962 -0.0145189837352436 0 0.00029012626634371432 -0.014499351675849667 0 0.00042359035947695596 -0.014455687462011951 0 0.00038227862261069873 -0.014401899855434651 0 0.00042359035947695596 -0.014455687462011951 0 0.0004668045500092059 -0.014407096025228976 0 0.00038227862261069873 -0.014401899855434651 0 0.00042359035947695596 -0.014455687462011951 0 0.00039308389537709697 -0.014480538847390719 0 0.00042867911865352706 -0.014435629393769566 0 0.00039308389537709697 -0.014480538847390719 0 0.00032902258867200962 -0.0145189837352436 0 0.00033139054505122495 -0.014525572525194501 0 0.00042359035947695596 -0.014455687462011951 0 0.00039308389537709697 -0.014480538847390719 0 0.00032902258867200962 -0.0145189837352436 0 0.00044338556235597952 -0.014437256390385757 0 0.00042359035947695596 -0.014455687462011951 0 0.00042867911865352706 -0.014435629393769566 0 0.00039308389537709697 -0.014480538847390719 0 0.00042867911865352706 -0.014435629393769566 0 0.00041234347046223213 -0.014446252803045229 0 0.00041234347046223213 -0.014446252803045229 0 0.00039457653140360368 -0.014469172299845928 0 0.00041816793348777845 -0.014377320832710073 0 0.00042867911865352706 -0.014435629393769566 0 0.00041234347046223213 -0.014446252803045229 0 0.00041816793348777845 -0.014377320832710073 0 0.00039457653140360368 -0.014469172299845928 0 0.0003102606513161806 -0.014557200782232034 0 0.00033139054505122495 -0.014525572525194501 0 0.00039308389537709697 -0.014480538847390719 0 0.00039457653140360368 -0.014469172299845928 0 0.00033139054505122495 -0.014525572525194501 0 0.00039308389537709697 -0.014480538847390719 0 0.00041234347046223213 -0.014446252803045229 0 0.00039457653140360368 -0.014469172299845928 0 -0.00022429179662690208 -0.010378830926669755 0 -0.00024967786192143246 -0.0098525427727370347 0 -0.0005463874888312698 -0.010113213616100691 0 0.00026481310057874268 -0.012470708117221632 0 6.7884057855835888e-05 -0.012130455039303175 0 0.00013165813731158031 -0.010516532344377284 0 -0.00022429179662690208 -0.010378830926669755 0 -0.00024967786192143246 -0.0098525427727370347 0 0.00044338556235597952 -0.014437256390385757 0 0.00042867911865352706 -0.014435629393769566 0 0.00037188450625030714 -0.01438737058753372 0 0.00042867911865352706 -0.014435629393769566 0 0.00041816793348777845 -0.014377320832710073 0 0.00037188450625030714 -0.01438737058753372 0 0.00041816793348777845 -0.014377320832710073 0 0.00037188450625030714 -0.01438737058753372 0 0.00037692327388275251 -0.014289874395350101 0 0.00037188450625030714 -0.01438737058753372 0 0.00037692327388275251 -0.014289874395350101 0 0.00030212560901440199 -0.014280463428075865 0 6.7884057855835888e-05 -0.012130455039303175 0 -0.00019823881624288697 -0.011895324582324996 0 0.00037692327388275251 -0.014289874395350101 0 0.00041340286789830986 -0.014251849244944 0 0.00040943154065390351 -0.014205681103134313 0 0.00041816793348777845 -0.014377320832710073 0 0.00037692327388275251 -0.014289874395350101 0 0.00041340286789830986 -0.014251849244944 0 0.00041340286789830986 -0.014251849244944 0 0.00035250270345039991 -0.014210183040371076 0 0.00044554729492259272 -0.014165753788060774 0 0.00041340286789830986 -0.014251849244944 0 0.00040943154065390351 -0.014205681103134313 0 0.00044554729492259272 -0.014165753788060774 0 0.00037692327388275251 -0.014289874395350101 0 0.00040943154065390351 -0.014205681103134313 0 0.00034012085197184872 -0.014203015379300287 0 0.00040943154065390351 -0.014205681103134313 0 0.00042767001011130188 -0.014141632786246803 0 0.00044554729492259272 -0.014165753788060774 0 0.00040943154065390351 -0.014205681103134313 0 0.00034012085197184872 -0.014203015379300287 0 0.00042767001011130188 -0.014141632786246803 0 0.00033291992396509675 -0.01428140063479293 0 0.00018012997691479505 -0.014288261753244515 0 0.00039457653140360368 -0.014469172299845928 0 0.00040871931943283472 -0.01444337895538505 0 0.0003102606513161806 -0.014557200782232034 0 0.00041816793348777845 -0.014377320832710073 0 0.00041340286789830986 -0.014251849244944 0 0.00040871931943283472 -0.01444337895538505 0 0.00038729789833758942 -0.014257161394709493 0 0.00033291992396509675 -0.01428140063479293 0 0.00039457653140360368 -0.014469172299845928 0 0.00041816793348777845 -0.014377320832710073 0 0.00040871931943283472 -0.01444337895538505 0 0.00041340286789830986 -0.014251849244944 0 0.00028234464699128153 -0.014114925498029045 0 0.00035250270345039991 -0.014210183040371076 0 0.00028234464699128153 -0.014114925498029045 0 8.6726880475727764e-05 -0.014076463478746545 0 0.00017257389676215371 -0.014248099538640504 0 0.00028234464699128153 -0.014114925498029045 0 0.00035250270345039991 -0.014210183040371076 0 0.00017257389676215371 -0.014248099538640504 0 8.6726880475727764e-05 -0.014076463478746545 0 -4.6960887272880287e-05 -0.014228806599741293 0 0.00017257389676215371 -0.014248099538640504 0 0.00018012997691479505 -0.014288261753244515 0 0.00014089975010482092 -0.014664099088815127 0 0.0003102606513161806 -0.014557200782232034 0 0.00025627242778433144 -0.014582098209145597 0 0.00026771496968719627 -0.014573582130662479 0 8.6726880475727764e-05 -0.014076463478746545 0 -9.1680239188411769e-05 -0.014062941734826646 0 -4.6960887272880287e-05 -0.014228806599741293 0 0.00014089975010482092 -0.014664099088815127 0 -6.2976248464061799e-05 -0.014570874857349274 0 -1.8488672548263666e-05 -0.015001519425698984 0 -3.0181721887520414e-05 -0.01497894954523964 0 -4.8547900603269857e-06 -0.014989994414805549 0 -4.8547900603269857e-06 -0.014989994414805549 0 9.0759110229733263e-09 -0.014999976542421989 0 -1.10741707914294e-06 -0.014998145599806013 0 -4.8547900603269857e-06 -0.014989994414805549 0 -1.10741707914294e-06 -0.014998145599806013 0 -3.9721624923649651e-06 -0.01500232214807457 0 9.0759110229733263e-09 -0.014999976542421989 0 -1.10741707914294e-06 -0.014998145599806013 0 -3.6593175680065517e-09 -0.015000011202679521 0 1.3802489438720611e-08 -0.015000005802410834 0 7.8631983558877924e-05 -0.015010696627589009 0 -2.810311535058032e-08 -0.015000352919204771 0 0.00013953637297481341 -0.015025611365006398 0 0.00010837742847902063 -0.014902090745575138 0 -1.10741707914294e-06 -0.014998145599806013 0 -3.6593175680065517e-09 -0.015000011202679521 0 -3.9721624923649651e-06 -0.01500232214807457 0 -1.8488672548263666e-05 -0.015001519425698984 0 -4.8547900603269857e-06 -0.014989994414805549 0 -3.9721624923649651e-06 -0.01500232214807457 0 0.00033422100945711765 -0.015052586740469791 0 0.00013953637297481341 -0.015025611365006398 0 0.00010837742847902063 -0.014902090745575138 0 0.00014089975010482092 -0.014664099088815127 0 7.8631983558877924e-05 -0.015010696627589009 0 0.00010837742847902063 -0.014902090745575138 0 0.0001095719403457027 -0.01468095539767037 0 0.00019148149004662727 -0.014674027889041399 0 0.00033422100945711765 -0.015052586740469791 0 0.00010837742847902063 -0.014902090745575138 0 0.00019148149004662727 -0.014674027889041399 0 0.00014089975010482092 -0.014664099088815127 0 0.00025251092470195938 -0.014746065883615858 0 2.3670772559753085e-08 -0.014999940598250374 0 6.505881860205867e-05 -0.01483838231188442 0 -5.9276960593930818e-09 -0.014999497872144598 0 0.00010837742847902063 -0.014902090745575138 0 0.0001095719403457027 -0.01468095539767037 0 -2.810311535058032e-08 -0.015000352919204771 0 -5.9276960593930818e-09 -0.014999497872144598 0 0.00010837742847902063 -0.014902090745575138 0 2.8614669298546839e-08 -0.015000073779005517 0 2.4570594244648907e-05 -0.01500444263867381 0 -4.4678365126685277e-08 -0.014999892208873072 0 6.1657355723181837e-06 -0.014887526142233501 0 2.4570594244648907e-05 -0.01500444263867381 0 -4.4678365126685277e-08 -0.014999892208873072 0 9.432537678023035e-05 -0.014724363690346003 0 6.505881860205867e-05 -0.01483838231188442 0 9.3199433766570663e-05 -0.01470074552528697 0 0.0001095719403457027 -0.01468095539767037 0 0.00016806867329953221 -0.014644657860161314 0 0.0001095719403457027 -0.01468095539767037 0 0.00019148149004662727 -0.014674027889041399 0 0.00016806867329953221 -0.014644657860161314 0 0.00019148149004662727 -0.014674027889041399 0 0.00016806867329953221 -0.014644657860161314 0 0.00021857701107348834 -0.014618155055498398 0 0.00018363143150188727 -0.014590666413310985 0 0.00016806867329953221 -0.014644657860161314 0 0.00021857701107348834 -0.014618155055498398 0 0.00018363143150188727 -0.014590666413310985 0 0.00021857701107348834 -0.014618155055498398 0 0.00026177990323391238 -0.014570332932949528 0 0.00029012626634371432 -0.014499351675849667 0 0.00018363143150188727 -0.014590666413310985 0 0.00026177990323391238 -0.014570332932949528 0 0.00029012626634371432 -0.014499351675849667 0 0.00032902258867200962 -0.0145189837352436 0 0.00026177990323391238 -0.014570332932949528 0 0.00032902258867200962 -0.0145189837352436 0 0.00026177990323391238 -0.014570332932949528 0 0.00033139054505122495 -0.014525572525194501 0 0.00026177990323391238 -0.014570332932949528 0 0.00033139054505122495 -0.014525572525194501 0 0.00026771496968719627 -0.014573582130662479 0 0.0003102606513161806 -0.014557200782232034 0 0.00033139054505122495 -0.014525572525194501 0 0.00026771496968719627 -0.014573582130662479 0 0.00025627242778433144 -0.014582098209145597 0 0.00019148149004662727 -0.014674027889041399 0 0.00021857701107348834 -0.014618155055498398 0 0.00025627242778433144 -0.014582098209145597 0 0.00021857701107348834 -0.014618155055498398 0 0.00026771496968719627 -0.014573582130662479 0 0.00021857701107348834 -0.014618155055498398 0 0.00026177990323391238 -0.014570332932949528 0 0.00026771496968719627 -0.014573582130662479 0 -0.0002218946480683451 -0.0082908357217626252 0 -0.00034820941378756859 -0.0085359174607589228 0 -0.0001622830016281423 -0.0084498971972473587 0 -0.0002218946480683451 -0.0082908357217626252 0 -0.00014194212145892811 -0.0079981574747856263 0 -7.8177399561725198e-05 -0.0082238239424818962 0 -0.0002218946480683451 -0.0082908357217626252 0 -0.0001622830016281423 -0.0084498971972473587 0 -7.8177399561725198e-05 -0.0082238239424818962 0 -0.00034820941378756859 -0.0085359174607589228 0 -0.00026732110149751135 -0.0081931243596640203 0 -0.00045805119593350023 -0.0086209732335563276 0 -0.0002218946480683451 -0.0082908357217626252 0 -0.00034820941378756859 -0.0085359174607589228 0 -0.00026732110149751135 -0.0081931243596640203 0 -0.00026732110149751135 -0.0081931243596640203 0 -0.00019224175703142646 -0.0079556787779433199 0 -0.00018475151440153347 -0.0079807907750481608 0 -0.00026732110149751135 -0.0081931243596640203 0 -0.00019224175703142646 -0.0079556787779433199 0 -0.00014194212145892811 -0.0079981574747856263 0 -0.00019224175703142646 -0.0079556787779433199 0 -0.00014194212145892811 -0.0079981574747856263 0 -0.00011308873383055954 -0.007661561874101522 0 -0.0002218946480683451 -0.0082908357217626252 0 -0.00026732110149751135 -0.0081931243596640203 0 -0.00014194212145892811 -0.0079981574747856263 0 -0.00019224175703142646 -0.0079556787779433199 0 -0.00011308873383055954 -0.007661561874101522 0 -0.00018475151440153347 -0.0079807907750481608 0 -0.00011308873383055954 -0.007661561874101522 0 -2.6357642416977265e-07 -0.0077935603458900845 0 -0.00018475151440153347 -0.0079807907750481608 0 -0.00011308873383055954 -0.007661561874101522 0 -2.6357642416977265e-07 -0.0077935603458900845 0 -1.6802310830605293e-05 -0.0072242264957806824 0 -2.6357642416977265e-07 -0.0077935603458900845 0 -0.00018475151440153347 -0.0079807907750481608 0 -3.531397365173764e-07 -0.0086022569000441806 0 -0.00026732110149751135 -0.0081931243596640203 0 -0.00018475151440153347 -0.0079807907750481608 0 -0.00020991698227223758 -0.0081750925660927978 0 -0.00018475151440153347 -0.0079807907750481608 0 -0.00020991698227223758 -0.0081750925660927978 0 -3.531397365173764e-07 -0.0086022569000441806 0 -0.00020991698227223758 -0.0081750925660927978 0 -0.00017543491233931944 -0.0082664278596865093 0 -0.00026946055762191724 -0.0082736528923559594 0 -0.00020991698227223758 -0.0081750925660927978 0 -3.531397365173764e-07 -0.0086022569000441806 0 -0.00017543491233931944 -0.0082664278596865093 0 -2.0368310836734009e