<?xml version="1.0"?>
<VTKFile type="UnstructuredGrid" version="0.1" byte_order="LittleEndian">
<UnstructuredGrid>
<Piece NumberOfPoints="29993" NumberOfCells="10497">
<Points>
<DataArray type="Float64" NumberOfComponents="3" format="ascii">
-0.5 -0.5 0 -0.4885654373785705 -0.48478895414309647 0 -0.50000000000000555 -0.46957790828618862 0 -0.5 -0.5 0 -0.4885654373785705 -0.48478895414309647 0 -0.47713087475713128 -0.50000000000000122 0 -0.4885654373785705 -0.48478895414309647 0 -0.50000000000000555 -0.46957790828618862 0 -0.4872637014387764 -0.46074571869931658 0 -0.4885654373785705 -0.48478895414309647 0 -0.50000000000000555 -0.46957790828618862 0 -0.4885654373785705 -0.48478895414309647 0 -0.47399982686133441 -0.4691912146487236 0 -0.4872637014387764 -0.46074571869931658 0 -0.4885654373785705 -0.48478895414309647 0 -0.47399982686133441 -0.4691912146487236 0 -0.4630026500298921 -0.48347192371181802 0 -0.4885654373785705 -0.48478895414309647 0 -0.47713087475713128 -0.50000000000000122 0 -0.4630026500298921 -0.48347192371181802 0 -0.4885654373785705 -0.48478895414309647 0 -0.47713087475713128 -0.50000000000000122 0 -0.45463482053199489 -0.5 0 -0.4630026500298921 -0.48347192371181802 0 -0.44306567011615999 -0.48960677283144349 0 -0.47713087475713128 -0.50000000000000122 0 -0.45463482053199489 -0.5 0 -0.4630026500298921 -0.48347192371181802 0 -0.4630026500298921 -0.48347192371181802 0 -0.44632893934183587 -0.47562752376868261 0 -0.45790972188533391 -0.46501012567577449 0 -0.47399982686133441 -0.4691912146487236 0 -0.4630026500298921 -0.48347192371181802 0 -0.45790972188533391 -0.46501012567577449 0 -0.44632893934183587 -0.47562752376868261 0 -0.44306567011615999 -0.48960677283144349 0 -0.42798582571177929 -0.48781376188434239 0 -0.4630026500298921 -0.48347192371181802 0 -0.44632893934183587 -0.47562752376868261 0 -0.44306567011615999 -0.48960677283144349 0 -0.45463482053199489 -0.5 0 -0.44306567011615999 -0.48960677283144349 0 -0.4321387663068586 -0.5 0 -0.44255424756708739 -0.44473766304979567 0 -0.43957543253440851 -0.45981259768199029 0 -0.45562208548867439 -0.44946630419263361 0 -0.44255424756708739 -0.44473766304979567 0 -0.45562208548867439 -0.44946630419263361 0 -0.45219192834488381 -0.43501754280427002 0 -0.43957543253440851 -0.45981259768199029 0 -0.45790972188533391 -0.46501012567577449 0 -0.45562208548867439 -0.44946630419263361 0 -0.44632893934183587 -0.47562752376868261 0 -0.43957543253440851 -0.45981259768199029 0 -0.43395751333245303 -0.46935779742432682 0 -0.44632893934183587 -0.47562752376868261 0 -0.43957543253440851 -0.45981259768199029 0 -0.45790972188533391 -0.46501012567577449 0 -0.47399982686133441 -0.4691912146487236 0 -0.45790972188533391 -0.46501012567577449 0 -0.46993589911870598 -0.45382444668916699 0 -0.45790972188533391 -0.46501012567577449 0 -0.45562208548867439 -0.44946630419263361 0 -0.46993589911870598 -0.45382444668916699 0 -0.45562208548867439 -0.44946630419263361 0 -0.46402001875246812 -0.44054207141993867 0 -0.46993589911870598 -0.45382444668916699 0 -0.45562208548867439 -0.44946630419263361 0 -0.46402001875246812 -0.44054207141993867 0 -0.45219192834488381 -0.43501754280427002 0 -0.46402001875246812 -0.44054207141993867 0 -0.48115818124890058 -0.44268647918350662 0 -0.46993589911870598 -0.45382444668916699 0 -0.48115818124890058 -0.44268647918350662 0 -0.46993589911870598 -0.45382444668916699 0 -0.4872637014387764 -0.46074571869931658 0 -0.47399982686133441 -0.4691912146487236 0 -0.46993589911870598 -0.45382444668916699 0 -0.4872637014387764 -0.46074571869931658 0 -0.50000000000000555 -0.46957790828618862 0 -0.4872637014387764 -0.46074571869931658 0 -0.5 -0.45133064312022969 0 -0.48115818124890058 -0.44268647918350662 0 -0.5 -0.45133064312022969 0 -0.500000000000001 -0.43308337795427082 0 -0.48115818124890058 -0.44268647918350662 0 -0.4872637014387764 -0.46074571869931658 0 -0.5 -0.45133064312022969 0 -0.500000000000001 -0.43308337795427082 0 -0.47875105600110518 -0.42344788087192647 0 -0.48115818124890058 -0.44268647918350662 0 -0.500000000000001 -0.43308337795427082 0 -0.47875105600110518 -0.42344788087192647 0 -0.500000000000001 -0.43308337795427082 0 -0.47875105600110518 -0.42344788087192647 0 -0.5 -0.40382674391869389 0 -0.47875105600110518 -0.42344788087192647 0 -0.5 -0.40382674391869389 0 -0.47663764439203787 -0.39986088316167812 0 -0.4702036055959371 -0.4114312644081411 0 -0.47875105600110518 -0.42344788087192647 0 -0.45750211200220919 -0.41381238378958252 0 -0.4702036055959371 -0.4114312644081411 0 -0.47875105600110518 -0.42344788087192647 0 -0.47663764439203787 -0.39986088316167812 0 -0.48115818124890058 -0.44268647918350662 0 -0.46134122496252988 -0.42367193159882099 0 -0.46402001875246812 -0.44054207141993867 0 -0.48115818124890058 -0.44268647918350662 0 -0.46134122496252988 -0.42367193159882099 0 -0.48115818124890058 -0.44268647918350662 0 -0.47875105600110518 -0.42344788087192647 0 -0.46134122496252988 -0.42367193159882099 0 -0.47663764439203787 -0.39986088316167812 0 -0.46428573772970338 -0.3796558498427855 0 -0.5 -0.37457010988311701 0 -0.5 -0.40382674391869389 0 -0.47663764439203787 -0.39986088316167812 0 -0.5 -0.37457010988311701 0 -0.46428573772970338 -0.3796558498427855 0 -0.45866059022647337 -0.39926898411589318 0 -0.44214448996605771 -0.38590067987180487 0 -0.47663764439203787 -0.39986088316167812 0 -0.46428573772970338 -0.3796558498427855 0 -0.45866059022647337 -0.39926898411589318 0 -0.4702036055959371 -0.4114312644081411 0 -0.47663764439203787 -0.39986088316167812 0 -0.45866059022647337 -0.39926898411589318 0 -0.45866059022647337 -0.39926898411589318 0 -0.44152426867615929 -0.40465738401413542 0 -0.45750211200220919 -0.41381238378958252 0 -0.45866059022647337 -0.39926898411589318 0 -0.44152426867615929 -0.40465738401413542 0 -0.44214448996605771 -0.38590067987180487 0 -0.46428573772970338 -0.3796558498427855 0 -0.44214448996605771 -0.38590067987180487 0 -0.44087329149294457 -0.36774911197406901 0 -0.46402001875246812 -0.44054207141993867 0 -0.46134122496252988 -0.42367193159882099 0 -0.45219192834488381 -0.43501754280427002 0 -0.46134122496252988 -0.42367193159882099 0 -0.44874530109274741 -0.42269180253109789 0 -0.45219192834488381 -0.43501754280427002 0 -0.47875105600110518 -0.42344788087192647 0 -0.45750211200220919 -0.41381238378958252 0 -0.47875105600110518 -0.42344788087192647 0 -0.46134122496252988 -0.42367193159882099 0 -0.45750211200220919 -0.41381238378958252 0 -0.44152426867615929 -0.40465738401413542 0 -0.46134122496252988 -0.42367193159882099 0 -0.45750211200220919 -0.41381238378958252 0 -0.4702036055959371 -0.4114312644081411 0 -0.45866059022647337 -0.39926898411589318 0 -0.45750211200220919 -0.41381238378958252 0 -0.44152426867615929 -0.40465738401413542 0 -0.46134122496252988 -0.42367193159882099 0 -0.44874530109274741 -0.42269180253109789 0 -0.44152426867615929 -0.40465738401413542 0 -0.43992378238741658 -0.42742035170716552 0 -0.44874530109274741 -0.42269180253109789 0 -0.44152426867615929 -0.40465738401413542 0 -0.46134122496252988 -0.42367193159882099 0 -0.44255424756708739 -0.44473766304979567 0 -0.43992378238741658 -0.42742035170716552 0 -0.4306209311802523 -0.43996401056784429 0 -0.44255424756708739 -0.44473766304979567 0 -0.43992378238741658 -0.42742035170716552 0 -0.45219192834488381 -0.43501754280427002 0 -0.43992378238741658 -0.42742035170716552 0 -0.44874530109274741 -0.42269180253109789 0 -0.45219192834488381 -0.43501754280427002 0 -0.43992378238741658 -0.42742035170716552 0 -0.42405097927288021 -0.42754653170584977 0 -0.42598090854913179 -0.41114895450337618 0 -0.42405097927288021 -0.42754653170584977 0 -0.4306209311802523 -0.43996401056784429 0 -0.4147970792573844 -0.43981489782294803 0 -0.43992378238741658 -0.42742035170716552 0 -0.42405097927288021 -0.42754653170584977 0 -0.4306209311802523 -0.43996401056784429 0 -0.44152426867615929 -0.40465738401413542 0 -0.43992378238741658 -0.42742035170716552 0 -0.42598090854913179 -0.41114895450337618 0 -0.42405097927288021 -0.42754653170584977 0 -0.42598090854913179 -0.41114895450337618 0 -0.41896497017151119 -0.41759769451880668 0 -0.41896497017151119 -0.41759769451880668 0 -0.40895848325622047 -0.42620465349391468 0 -0.40971413839703469 -0.40402892864484968 0 -0.42598090854913179 -0.41114895450337618 0 -0.41896497017151119 -0.41759769451880668 0 -0.40971413839703469 -0.40402892864484968 0 -0.40895848325622047 -0.42620465349391468 0 -0.39576164711706507 -0.44517487717762272 0 -0.4147970792573844 -0.43981489782294803 0 -0.42405097927288021 -0.42754653170584977 0 -0.40895848325622047 -0.42620465349391468 0 -0.4147970792573844 -0.43981489782294803 0 -0.42405097927288021 -0.42754653170584977 0 -0.41896497017151119 -0.41759769451880668 0 -0.40895848325622047 -0.42620465349391468 0 -0.44214448996605771 -0.38590067987180487 0 -0.42170731238978848 -0.38564283642944969 0 -0.44087329149294457 -0.36774911197406901 0 -0.44152426867615929 -0.40465738401413542 0 -0.42170731238978848 -0.38564283642944969 0 -0.44152426867615929 -0.40465738401413542 0 -0.44214448996605771 -0.38590067987180487 0 -0.42170731238978848 -0.38564283642944969 0 -0.44152426867615929 -0.40465738401413542 0 -0.42598090854913179 -0.41114895450337618 0 -0.42170731238978848 -0.38564283642944969 0 -0.42598090854913179 -0.41114895450337618 0 -0.40971413839703469 -0.40402892864484968 0 -0.42170731238978848 -0.38564283642944969 0 -0.40971413839703469 -0.40402892864484968 0 -0.42170731238978848 -0.38564283642944969 0 -0.40024578372452152 -0.38545626035896607 0 -0.42170731238978848 -0.38564283642944969 0 -0.40024578372452152 -0.38545626035896607 0 -0.40189035610341778 -0.36662828884476412 0 -0.42170731238978848 -0.38564283642944969 0 -0.40189035610341778 -0.36662828884476412 0 -0.40024578372452152 -0.38545626035896607 0 -0.39163796262849287 -0.40235663887082501 0 -0.38435120585081739 -0.38625447766204568 0 -0.40971413839703469 -0.40402892864484968 0 -0.40024578372452152 -0.38545626035896607 0 -0.39163796262849287 -0.40235663887
[...]
<PointData Scalars="" Vectors="displacement," Tensors="">
<DataArray type="Float64" Name="displacement" NumberOfComponents="3" format="ascii">
-0.014999317470203092 -1.9927332018671289e-07 0 -0.014923608033017167 2.3478766210302704e-07 0 -0.015000188200434502 9.934142976696431e-08 0 -0.014999317470203092 -1.9927332018671289e-07 0 -0.014923608033017167 2.3478766210302704e-07 0 -0.014315099070195028 2.993181979242178e-07 0 -0.014383410805148749 1.9624783465051014e-07 0 -0.01499852356192728 -3.3575858255732314e-07 0 -0.014718373695338856 1.2529022158868426e-05 0 -0.01465394017951307 5.1216630654422132e-07 0 -0.014999810007862687 5.4757298999357236e-09 0 -0.014383410805148749 1.9624783465051014e-07 0 -0.014349960699092522 1.1196819095379648e-05 0 -0.014718373695338856 1.2529022158868426e-05 0 -0.014383410805148749 1.9624783465051014e-07 0 -0.014349960699092522 1.1196819095379648e-05 0 -0.014027415345715954 -4.8805289028036677e-05 0 -0.014383410805148749 1.9624783465051014e-07 0 -0.014312963939466562 -1.2324976822689104e-07 0 -0.014027415345715954 -4.8805289028036677e-05 0 -0.01465394017951307 5.1216630654422132e-07 0 -0.014314112448664337 -5.813179883598901e-09 0 -0.013639500567453198 -1.4569114172895421e-07 0 -0.014027415345715954 -4.8805289028036677e-05 0 -0.013500109717884347 -4.9107056161852122e-05 0 -0.014312963939466562 -1.2324976822689104e-07 0 -0.013639500567453198 -1.4569114172895421e-07 0 -0.014027415345715954 -4.8805289028036677e-05 0 -0.014027415345715954 -4.8805289028036677e-05 0 -0.013853710185533986 -0.00010746296337438026 0 -0.014113649565793324 -4.1439799199909316e-05 0 -0.014349960699092522 1.1196819095379648e-05 0 -0.014027415345715954 -4.8805289028036677e-05 0 -0.014113649565793324 -4.1439799199909316e-05 0 -0.013853710185533986 -0.00010746296337438026 0 -0.013500109717884347 -4.9107056161852122e-05 0 -0.01323486802762718 8.2423361334600336e-05 0 -0.014027415345715954 -4.8805289028036677e-05 0 -0.013853710185533986 -0.00010746296337438026 0 -0.013500109717884347 -4.9107056161852122e-05 0 -0.013639500567453198 -1.4569114172895421e-07 0 -0.013500109717884347 -4.9107056161852122e-05 0 -0.012964324488323551 -7.9977859029050958e-09 0 -0.01390265374210189 -0.00010564968848382378 0 -0.013890160918473953 -0.00015018781403650707 0 -0.014101512843394415 -2.6337920244093237e-05 0 -0.01390265374210189 -0.00010564968848382378 0 -0.014101512843394415 -2.6337920244093237e-05 0 -0.013902918717788811 -2.0824579664686991e-05 0 -0.013890160918473953 -0.00015018781403650707 0 -0.014113649565793324 -4.1439799199909316e-05 0 -0.014101512843394415 -2.6337920244093237e-05 0 -0.013853710185533986 -0.00010746296337438026 0 -0.013890160918473953 -0.00015018781403650707 0 -0.013765609818804859 -0.00021562593890746151 0 -0.013853710185533986 -0.00010746296337438026 0 -0.013890160918473953 -0.00015018781403650707 0 -0.014113649565793324 -4.1439799199909316e-05 0 -0.014349960699092522 1.1196819095379648e-05 0 -0.014113649565793324 -4.1439799199909316e-05 0 -0.014365059060763371 3.538913035610177e-05 0 -0.014113649565793324 -4.1439799199909316e-05 0 -0.014101512843394415 -2.6337920244093237e-05 0 -0.014365059060763371 3.538913035610177e-05 0 -0.014101512843394415 -2.6337920244093237e-05 0 -0.014178722549750306 4.7957901453047023e-05 0 -0.014365059060763371 3.538913035610177e-05 0 -0.014101512843394415 -2.6337920244093237e-05 0 -0.014178722549750306 4.7957901453047023e-05 0 -0.013902918717788811 -2.0824579664686991e-05 0 -0.014178722549750306 4.7957901453047023e-05 0 -0.014627210184612556 7.9454272208441336e-05 0 -0.014365059060763371 3.538913035610177e-05 0 -0.014627210184612556 7.9454272208441336e-05 0 -0.014365059060763371 3.538913035610177e-05 0 -0.014718373695338856 1.2529022158868426e-05 0 -0.014349960699092522 1.1196819095379648e-05 0 -0.014365059060763371 3.538913035610177e-05 0 -0.014718373695338856 1.2529022158868426e-05 0 -0.01499852356192728 -3.3575858255732314e-07 0 -0.014718373695338856 1.2529022158868426e-05 0 -0.014999912939360592 1.4161139885398132e-07 0 -0.014627210184612556 7.9454272208441336e-05 0 -0.014999912939360592 1.4161139885398132e-07 0 -0.014999458044373032 -1.8104395768530579e-07 0 -0.014627210184612556 7.9454272208441336e-05 0 -0.014718373695338856 1.2529022158868426e-05 0 -0.014999912939360592 1.4161139885398132e-07 0 -0.014999945769832924 -6.717760217524377e-09 0 -0.014923827055287641 3.8582219343956685e-05 0 -0.014627210184612556 7.9454272208441336e-05 0 -0.014999458044373032 -1.8104395768530579e-07 0 -0.014856095599353504 6.6283641623033094e-05 0 -0.014999963931260759 1.5159164170392923e-09 0 -0.01496946796708274 2.3144608735950462e-05 0 -0.014999952742875352 2.9129148784656544e-08 0 -0.01496946796708274 2.3144608735950462e-05 0 -0.014999952742875352 2.9129148784656544e-08 0 -0.014965813490046657 3.5343166561803009e-05 0 -0.014958894488385895 3.733422049904731e-05 0 -0.01496946796708274 2.3144608735950462e-05 0 -0.014935946468435239 6.0290728583162552e-05 0 -0.014958894488385895 3.733422049904731e-05 0 -0.01496946796708274 2.3144608735950462e-05 0 -0.014965813490046657 3.5343166561803009e-05 0 -0.01455765873153456 7.2905514227262274e-05 0 -0.014313796316837109 7.7261083035768289e-05 0 -0.014178722549750306 4.7957901453047023e-05 0 -0.014627210184612556 7.9454272208441336e-05 0 -0.013740349159690359 0.00012776946347067437 0 -0.014627210184612556 7.9454272208441336e-05 0 -0.014856095599353504 6.6283641623033094e-05 0 -0.014896665581333905 9.4685613553135644e-05 0 -0.014965813490046657 3.5343166561803009e-05 0 -0.014925848875989184 6.2418640775733605e-05 0 -0.014999956035034076 4.4908945335921891e-09 0 -0.014999952742875352 2.9129148784656544e-08 0 -0.014965813490046657 3.5343166561803009e-05 0 -0.014999956035034076 4.4908945335921891e-09 0 -0.014925848875989184 6.2418640775733605e-05 0 -0.014954758419552417 4.3501275496541123e-05 0 -0.014903285798739589 -2.3921306353733014e-05 0 -0.014965813490046657 3.5343166561803009e-05 0 -0.014925848875989184 6.2418640775733605e-05 0 -0.014954758419552417 4.3501275496541123e-05 0 -0.014958894488385895 3.733422049904731e-05 0 -0.014965813490046657 3.5343166561803009e-05 0 -0.014954758419552417 4.3501275496541123e-05 0 -0.014954758419552417 4.3501275496541123e-05 0 -0.014972028339876374 -2.3651082170813462e-06 0 -0.014935946468435239 6.0290728583162552e-05 0 -0.014954758419552417 4.3501275496541123e-05 0 -0.014972028339876374 -2.3651082170813462e-06 0 -0.014903285798739589 -2.3921306353733014e-05 0 -0.014925848875989184 6.2418640775733605e-05 0 -0.014903285798739589 -2.3921306353733014e-05 0 -0.014789792367010295 -4.2377072336008288e-05 0 -0.014178722549750306 4.7957901453047023e-05 0 -0.013740349159690359 0.00012776946347067437 0 -0.013902918717788811 -2.0824579664686991e-05 0 -0.013740349159690359 0.00012776946347067437 0 -0.013638754156097993 1.9024134847457881e-06 0 -0.013902918717788811 -2.0824579664686991e-05 0 -0.014923827055287641 3.8582219343956685e-05 0 -0.014934340846385601 6.9785541097143813e-05 0 -0.014856095599353504 6.6283641623033094e-05 0 -0.014896665581333905 9.4685613553135644e-05 0 -0.014935946468435239 6.0290728583162552e-05 0 -0.014972028339876374 -2.3651082170813462e-06 0 -0.014896665581333905 9.4685613553135644e-05 0 -0.014935946468435239 6.0290728583162552e-05 0 -0.014958894488385895 3.733422049904731e-05 0 -0.014954758419552417 4.3501275496541123e-05 0 -0.014935946468435239 6.0290728583162552e-05 0 -0.013249684241393599 -1.0923883197069633e-05 0 -0.013740349159690359 0.00012776946347067437 0 -0.013638754156097993 1.9024134847457881e-06 0 -0.013249684241393599 -1.0923883197069633e-05 0 -0.013664979591141439 -8.8430589210404282e-05 0 -0.013638754156097993 1.9024134847457881e-06 0 -0.014105845568722993 -1.4821301815449204e-05 0 -0.014313796316837109 7.7261083035768289e-05 0 -0.01390265374210189 -0.00010564968848382378 0 -0.013664979591141439 -8.8430589210404282e-05 0 -0.013751935019785822 -0.00017337622813687185 0 -0.01390265374210189 -0.00010564968848382378 0 -0.013664979591141439 -8.8430589210404282e-05 0 -0.013902918717788811 -2.0824579664686991e-05 0 -0.013664979591141439 -8.8430589210404282e-05 0 -0.013638754156097993 1.9024134847457881e-06 0 -0.013902918717788811 -2.0824579664686991e-05 0 -0.013664979591141439 -8.8430589210404282e-05 0 -0.013555589716793942 -0.00020534919063896291 0 -0.01327716118838394 -0.00018007394761966521 0 -0.013555589716793942 -0.00020534919063896291 0 -0.013751935019785822 -0.00017337622813687185 0 -0.013667962201022314 -0.00026599727498944888 0 -0.013664979591141439 -8.8430589210404282e-05 0 -0.013555589716793942 -0.00020534919063896291 0 -0.013751935019785822 -0.00017337622813687185 0 -0.013249684241393599 -1.0923883197069633e-05 0 -0.013664979591141439 -8.8430589210404282e-05 0 -0.01327716118838394 -0.00018007394761966521 0 -0.013555589716793942 -0.00020534919063896291 0 -0.01327716118838394 -0.00018007394761966521 0 -0.013352138421077577 -0.00023916130368480755 0 -0.013352138421077577 -0.00023916130368480755 0 -0.013466404478760475 -0.00033149805481402767 0 -0.013031440192023935 -0.00031200749901326983 0 -0.01327716118838394 -0.00018007394761966521 0 -0.013352138421077577 -0.00023916130368480755 0 -0.013031440192023935 -0.00031200749901326983 0 -0.013466404478760475 -0.00033149805481402767 0 -0.013694977430057455 -0.00041058425295135748 0 -0.013667962201022314 -0.00026599727498944888 0 -0.013555589716793942 -0.00020534919063896291 0 -0.013466404478760475 -0.00033149805481402767 0 -0.013667962201022314 -0.00026599727498944888 0 -0.013555589716793942 -0.00020534919063896291 0 -0.013352138421077577 -0.00023916130368480755 0 -0.013466404478760475 -0.00033149805481402767 0 -0.014903285798739589 -2.3921306353733014e-05 0 -0.014893577145499798 -0.00015563755511092411 0 -0.014789792367010295 -4.2377072336008288e-05 0 -0.014105845568722993 -1.4821301815449204e-05 0 -0.013870298624493125 -0.00020307547660848279 0 -0.014972028339876374 -2.3651082170813462e-06 0 -0.014903285798739589 -2.3921306353733014e-05 0 -0.014893577145499798 -0.00015563755511092411 0 -0.013249684241393599 -1.0923883197069633e-05 0 -0.01327716118838394 -0.00018007394761966521 0 -0.012883928757272147 -0.00024017355909092874 0 -0.01327716118838394 -0.00018007394761966521 0 -0.013031440192023935 -0.00031200749901326983 0 -0.012883928757272147 -0.00024017355909092874 0 -0.013031440192023935 -0.00031200749901326983 0 -0.012883928757272147 -0.00024017355909092874 0 -0.012834823815057761 -0.00035895853331225399 0 -0.012883928757272147 -0.00024017355909092874 0 -0.012834823815057761 -0.00035895853331225399 0 -0.012883250959593012 -0.00035804207958448211 0 -0.013870298624493125 -0.00020307547660848279 0 -0.013968139017999287 -0.00035492526032378138 0 -0.012834823815057761 -0.00035895853331225399 0 -0.012794703871871314 -0.00044997283699605757 0 -0.012771881383192962 -0.00026842744747033678 0 -0.013031440192023935 -0.00031200749901326983 0 -0.012834823815057761 -0.00035895853331225399 0 -0.012794703871871314 -0.00044997283699605757 0 -0.012794703871871314 -0.00044997283699605757 0 -0.012400068397478035 -0.0002123381080720308 0 -0.012597776137192793 -7.6501740873478701e-05 0 -0.012794703871871314 -0.00044997283699605757 0 -0.012771881383192962 -0.00026842744747033678 0 -0.012597776137192793 -7.6501740873478701e-05 0 -0.012834823815057761 -0.00035895853331225399 0 -0.012771881383192962 -0.00026842744747033678 0 -0.012870802521871864 -0.00024896117715667921 0 -0.012771881383192962 -0.00026842744747033678 0 -0.012753767319385947 -0.0001004492064259567 0 -0.012597776137192793 -7.6501740873478701e-05 0 -0.012771881383192962 -0.00026842744747033678 0 -0.012870802521871864 -0.00024896117715667921 0 -0.012753767319385947 -0.0001004492064259567 0 -0.012798192207693551 -0.0005064075655697185 0 -0.012799914687632041 -0.00049705474551161829 0 -0.013466404478760475 -0.00033149805481402767 0 -0.013374922327364451 -0.0005194188267957638 0 -0.013694977430057455 -0.00041058425295135748 0 -0.013031440192023935 -0.00031200749901326983 0 -0.012794703871871314 -0.00044997283699605757 0 -0.013374922327364451 -0.0005194188267957638 0 -0.012805542551738304 -0.00046943336030946109 0 -0.012798192207693551 -0.0005064075655697185 0 -0.013466404478760475 -0.00033149805481402767 0 -0.013031440192023935 -0.00031200749901326983 0 -0.013374922327364451 -0.0005194188267957638 0 -0.012794703871871314 -0.00044997283699605757 0 -0.012228548298775024 -0.00052769343383123871 0 -0.012400068397478035 -0.0002123381080720308 0 -0.012228548298775024 -0.00052769343383123871 0 -0.011885843308856607 -0.00054539973529881274 0 -0.012031918044436693 -0.00019021888967831743 0 -0.012228548298775024 -0.00052769343383123871 0 -0.012400068397478035 -0.0002123381080720308 0 -0.012031918044436693 -0.00019021888967831743 0 -0.011885843308856607 -0.00054539973529881274 0 -0.011667481880613992 -0.00025655263671348804 0 -0.012031918044436693 -0.00019021888967831743 0 -0.012799914687632041 -0.00049705474551161829 0 -0.012552552220810592 -0.00010599144064640765 0 -0.013694977430057455 -0.00041058425295135748 0 -0.013776898199978689 -0.00027141399313185889 0 -0.013753942327535393 -0.0002694384048898063 0 -0.011885843308856607 -0.00054539973529881274 0 -0.011580014881100616 -0.00056735979602988743 0 -0.011667481880613992 -0.00025655263671348804 0 -0.012552552220810592 -0.00010599144064640765 0 -0.011302579101247051 -0.0002762544361107632 0 -0.011162135545061888 5.7141611647577144e-05 0 -0.011151555643390753 -0.00016321432434971775 0 -0.011237671497693499 -8.8998536712599905e-05 0 -0.011237671497693499 -8.8998536712599905e-05 0 -0.011364915853671064 -3.5000253558209334e-07 0 -0.011503893181313765 -3.3414897132506259e-05 0 -0.011237671497693499 -8.8998536712599905e-05 0 -0.011503893181313765 -3.3414897132506259e-05 0 -0.011345218524950663 0.00012386745451663822 0 -0.011364915853671064 -3.5000253558209334e-07 0 -0.011503893181313765 -3.3414897132506259e-05 0 -0.012030249138856945 5.4825073611613862e-07 0 -0.012031342602842764 1.5658712483277741e-07 0 -0.012205487177938198 0.00021323805843375331 0 -0.012032387795065186 1.5352345499034902e-06 0 -0.013089714022179927 0.0004112494886527105 0 -0.013052685151314962 2.7410240221053156e-05 0 -0.011503893181313765 -3.3414897132506259e-05 0 -0.012030249138856945 5.4825073611613862e-07 0 -0.011345218524950663 0.00012386745451663822 0 -0.011162135545061888 5.7141611647577144e-05 0 -0.011237671497693499 -8.8998536712599905e-05 0 -0.011345218524950663 0.00012386745451663822 0 -0.013606338185714559 0.00044040697520325551 0 -0.013089714022179927 0.0004112494886527105 0 -0.013052685151314962 2.7410240221053156e-05 0 -0.012552552220810592 -0.00010599144064640765 0 -0.012205487177938198 0.00021323805843375331 0 -0.013052685151314962 2.7410240221053156e-05 0 -0.013270315014801224 -0.00036397205206105718 0 -0.013573704983497314 -0.00025791914556235119 0 -0.013606338185714559 0.00044040697520325551 0 -0.013052685151314962 2.7410240221053156e-05 0 -0.013573704983497314 -0.00025791914556235119 0 -0.012552552220810592 -0.00010599144064640765 0 -0.013916467668758262 -0.00013263528805820474 0 -0.012289674072480905 9.7081672829555435e-09 0 -0.013236798108039051 -0.00014508600557402063 0 -0.012288873674736002 -1.1092290559169137e-06 0 -0.013052685151314962 2.7410240221053156e-05 0 -0.013270315014801224 -0.00036397205206105718 0 -0.012032387795065186 1.5352345499034902e-06 0 -0.012288873674736002 -1.1092290559169137e-06 0 -0.013052685151314962 2.7410240221053156e-05 0 -0.012289849018976286 3.4086636723283836e-07 0 -0.01323486802762718 8.2423361334600336e-05 0 -0.012964324488323551 -7.9977859029050958e-09 0 -0.013500109717884347 -4.9107056161852122e-05 0 -0.01323486802762718 8.2423361334600336e-05 0 -0.012964324488323551 -7.9977859029050958e-09 0 -0.013732945716727091 -0.00014320934209601275 0 -0.013236798108039051 -0.00014508600557402063 0 -0.013853710185533986 -0.00010746296337438026 0 -0.013270315014801224 -0.00036397205206105718 0 -0.013765609818804859 -0.00021562593890746151 0 -0.013270315014801224 -0.00036397205206105718 0 -0.013573704983497314 -0.00025791914556235119 0 -0.013765609818804859 -0.00021562593890746151 0 -0.013573704983497314 -0.00025791914556235119 0 -0.013765609818804859 -0.00021562593890746151 0 -0.013754785276665708 -0.0002378264546201159 0 -0.013890160918473953 -0.00015018781403650707 0 -0.013765609818804859 -0.00021562593890746151 0 -0.013754785276665708 -0.0002378264546201159 0 -0.013890160918473953 -0.00015018781403650707 0 -0.013754785276665708 -0.0002378264546201159 0 -0.013795848511509883 -0.00020269942724710388 0 -0.01390265374210189 -0.00010564968848382378 0 -0.013890160918473953 -0.00015018781403650707 0 -0.013795848511509883 -0.00020269942724710388 0 -0.01390265374210189 -0.00010564968848382378 0 -0.013751935019785822 -0.00017337622813687185 0 -0.013795848511509883 -0.00020269942724710388 0 -0.013751935019785822 -0.00017337622813687185 0 -0.013795848511509883 -0.00020269942724710388 0 -0.013667962201022314 -0.00026599727498944888 0 -0.013795848511509883 -0.00020269942724710388 0 -0.013667962201022314 -0.00026599727498944888 0 -0.013753942327535393 -0.0002694384048898063 0 -0.013694977430057455 -0.00041058425295135748 0 -0.013667962201022314 -0.00026599727498944888 0 -0.013753942327535393 -0.0002694384048898063 0 -0.013776898199978689 -0.00027141399313185889 0 -0.013573704983497314 -0.00025791914556235119 0 -0.013754785276665708 -0.0002378264546201159 0 -0.013776898199978689 -0.00027141399313185889 0 -0.013754785276665708 -0.0002378264546201159 0 -0.013753942327535393 -0.0002694384048898063 0 -0.013754785276665708 -0.0002378264546201159 0 -0.013795848511509883 -0.00020269942724710388 0 -0.013753942327535393 -0.0002694384048898063 0 -0.014670841678033189 -4.005334299072428e-05 0 -0.014564929214220479 -2.5784730090683838e-05 0 -0.014637511603890237 -2.282372265275643e-05 0 -0.014670841678033189 -4.005334299072428e-05 0 -0.01476537003799722 -4.6068235479483636e-05 0 -0.014719455652750324 -3.6619665398080923e-05 0 -0.014670841678033189 -4.005334299072428e-05 0 -0.014637511603890237 -2.282372265275643e-05 0 -0.014719455652750324 -3.6619665398080923e-05 0 -0.014564929214220479 -2.5784730090683838e-05 0 -0.014702984493312867 -5.2159710691595072e-05 0 -0.014538410627885414 -2.3977921915915141e-05 0 -0.014670841678033189 -4.005334299072428e-05 0 -0.014564929214220479 -2.5784730090683838e-05 0 -0.014702984493312867 -5.2159710691595072e-05 0 -0.014702984493312867 -5.2159710691595072e-05 0 -0.014793144047119946 -4.5288583255957675e-05 0 -0.014851164925763825 -3.3240252599643635e-05 0 -0.014702984493312867 -5.2159710691595072e-05 0 -0.014793144047119946 -4.5288583255957675e-05 0 -0.01476537003799722 -4.6068235479483636e-05 0 -0.014793144047119946 -4.5288583255957675e-05 0 -0.01476537003799722 -4.6068235479483636e-05 0 -0.014862509666714378 -3.7501915126263944e-05 0 -0.014670841678033189 -4.005334299072428e-05 0 -0.014702984493312867 -5.2159710691595072e-05 0 -0.01476537003799722 -4.6068235479483636e-05 0 -0.014793144047119946 -4.5288583255957675e-05 0 -0.014862509666714378 -3.7501915126263944e-05 0 -0.014851164925763825 -3.3240252599643635e-05 0 -0.014862509666714378 -3.7501915126263944e-05 0 -0.014999905299499145 -1.4215983076181195e-08 0 -0.014851164925763825 -3.3240252599643635e-05 0 -0.014862509666714378 -3.7501915126263944e-05 0 -0.014999905299499145 -1.4215983076181195e-08 0 -0.014925227029777281 -2.5893836919501005e-05 0 -0.014999905299499145 -1.4215983076181195e-08 0 -0.014851164925763825 -3.3240252599643635e-05 0 -0.014999556471508198 -9.4022663888866041e-08 0 -0.014702984493312867 -5.2159710691595072e-05 0 -0.014851164925763825 -3.3240252599643635e-05 0 -0.014798151617251827 -2.8424100975449235e-05 0 -0.014851164925763825 -3.3240252599643635e-05 0 -0.014798151617251827 -2.8424100975449235e-05 0 -0.014999556471508198 -9.4022663888866041e-08 0 -0.014798151617251827 -2.8424100975449235e-05 0 -0.014788590314945208 -1.8640826388141719e-05 0 -0.014753723350210161 -3.07384396376518