<?xml version="1.0"?>
<VTKFile type="UnstructuredGrid" version="0.1" byte_order="LittleEndian">
<UnstructuredGrid>
<Piece NumberOfPoints="31898" NumberOfCells="11152">
<Points>
<DataArray type="Float64" NumberOfComponents="3" format="ascii">
-0.5 -0.5 0 -0.47620991077874902 -0.44978878706170539 0 -0.49999999999999473 -0.42132396840504388 0 -0.5 -0.5 0 -0.47160970827802529 -0.4793630013852106 0 -0.47620991077874902 -0.44978878706170539 0 -0.5 -0.5 0 -0.47160970827802529 -0.4793630013852106 0 -0.44860394795025399 -0.5 0 -0.47160970827802529 -0.4793630013852106 0 -0.44860394795025399 -0.5 0 -0.4490820238307246 -0.45820516232899983 0 -0.44860394795025399 -0.5 0 -0.4490820238307246 -0.45820516232899983 0 -0.42881687682924802 -0.47781464288736519 0 -0.4490820238307246 -0.45820516232899983 0 -0.45555437223955858 -0.42914059360647611 0 -0.4490820238307246 -0.45820516232899983 0 -0.45555437223955858 -0.42914059360647611 0 -0.43867285131603428 -0.4271457417558665 0 -0.4490820238307246 -0.45820516232899983 0 -0.43867285131603428 -0.4271457417558665 0 -0.4263356171060747 -0.44269880333887462 0 -0.47160970827802529 -0.4793630013852106 0 -0.4490820238307246 -0.45820516232899983 0 -0.47620991077874902 -0.44978878706170539 0 -0.4490820238307246 -0.45820516232899983 0 -0.47620991077874902 -0.44978878706170539 0 -0.45555437223955858 -0.42914059360647611 0 -0.47620991077874902 -0.44978878706170539 0 -0.48101336032419229 -0.41069999664450008 0 -0.45555437223955858 -0.42914059360647611 0 -0.47620991077874902 -0.44978878706170539 0 -0.49999999999999473 -0.42132396840504388 0 -0.48101336032419229 -0.41069999664450008 0 -0.49999999999999473 -0.42132396840504388 0 -0.48101336032419229 -0.41069999664450008 0 -0.5 -0.393886241813306 0 -0.49999999999999473 -0.42132396840504388 0 -0.48101336032419229 -0.41069999664450008 0 -0.5 -0.393886241813306 0 -0.47854472220918332 -0.38978458738689759 0 -0.48422759779560409 -0.37130120630367158 0 -0.5 -0.393886241813306 0 -0.5 -0.36644851522156802 0 -0.48422759779560409 -0.37130120630367158 0 -0.48101336032419229 -0.41069999664450008 0 -0.5 -0.393886241813306 0 -0.47854472220918332 -0.38978458738689759 0 -0.48101336032419229 -0.41069999664450008 0 -0.47854472220918332 -0.38978458738689759 0 -0.46202672064839212 -0.40007602488395211 0 -0.48101336032419229 -0.41069999664450008 0 -0.46202672064839212 -0.40007602488395211 0 -0.47854472220918332 -0.38978458738689759 0 -0.46725442735267431 -0.37660061361585562 0 -0.46202672064839212 -0.40007602488395211 0 -0.47854472220918332 -0.38978458738689759 0 -0.46725442735267431 -0.37660061361585562 0 -0.48422759779560409 -0.37130120630367158 0 -0.46725442735267431 -0.37660061361585562 0 -0.46202672064839212 -0.40007602488395211 0 -0.46725442735267431 -0.37660061361585562 0 -0.45645674801697989 -0.38644133236760531 0 -0.46202672064839212 -0.40007602488395211 0 -0.46725442735267431 -0.37660061361585562 0 -0.45645674801697989 -0.38644133236760531 0 -0.4540003998136638 -0.37455519391687309 0 -0.45645674801697989 -0.38644133236760531 0 -0.46202672064839212 -0.40007602488395211 0 -0.44257020456291563 -0.38918913383950271 0 -0.46202672064839212 -0.40007602488395211 0 -0.44257020456291563 -0.38918913383950271 0 -0.44727608925983742 -0.41095911152778891 0 -0.46202672064839212 -0.40007602488395211 0 -0.44257020456291563 -0.38918913383950271 0 -0.44257020456291563 -0.38918913383950271 0 -0.44727608925983742 -0.41095911152778891 0 -0.43479358559901082 -0.4041454901736512 0 -0.44257020456291563 -0.38918913383950271 0 -0.4540003998136638 -0.37455519391687309 0 -0.44172858264042247 -0.37082207246888088 0 -0.45645674801697989 -0.38644133236760531 0 -0.44257020456291563 -0.38918913383950271 0 -0.4540003998136638 -0.37455519391687309 0 -0.46202672064839212 -0.40007602488395211 0 -0.45555437223955858 -0.42914059360647611 0 -0.44727608925983742 -0.41095911152778891 0 -0.46202672064839212 -0.40007602488395211 0 -0.45555437223955858 -0.42914059360647611 0 -0.48101336032419229 -0.41069999664450008 0 -0.46202672064839212 -0.40007602488395211 0 -0.45555437223955858 -0.42914059360647611 0 -0.44727608925983742 -0.41095911152778891 0 -0.43867285131603428 -0.4271457417558665 0 -0.43676601469929588 -0.41441201227470881 0 -0.44727608925983742 -0.41095911152778891 0 -0.43676601469929588 -0.41441201227470881 0 -0.43479358559901082 -0.4041454901736512 0 -0.45555437223955858 -0.42914059360647611 0 -0.44727608925983742 -0.41095911152778891 0 -0.43867285131603428 -0.4271457417558665 0 -0.43867285131603428 -0.4271457417558665 0 -0.42681803064840879 -0.42717069814352421 0 -0.4263356171060747 -0.44269880333887462 0 -0.42681803064840879 -0.42717069814352421 0 -0.41531815884496182 -0.42985383783075998 0 -0.4263356171060747 -0.44269880333887462 0 -0.42681803064840879 -0.42717069814352421 0 -0.42624289495594048 -0.42089725947505818 0 -0.42083332353326591 -0.42146747131641099 0 -0.42681803064840879 -0.42717069814352421 0 -0.43096994786351572 -0.41951492446283251 0 -0.42624289495594048 -0.42089725947505818 0 -0.43867285131603428 -0.4271457417558665 0 -0.42681803064840879 -0.42717069814352421 0 -0.43096994786351572 -0.41951492446283251 0 -0.43867285131603428 -0.4271457417558665 0 -0.43676601469929588 -0.41441201227470881 0 -0.43096994786351572 -0.41951492446283251 0 -0.43676601469929588 -0.41441201227470881 0 -0.43096994786351572 -0.41951492446283251 0 -0.42907264086257813 -0.41311715872526122 0 -0.43676601469929588 -0.41441201227470881 0 -0.42907264086257813 -0.41311715872526122 0 -0.43479358559901082 -0.4041454901736512 0 -0.42907264086257813 -0.41311715872526122 0 -0.43479358559901082 -0.4041454901736512 0 -0.42460885511582858 -0.40417321677700252 0 -0.42907264086257813 -0.41311715872526122 0 -0.41997834854398469 -0.41180534796019508 0 -0.42907264086257813 -0.41311715872526122 0 -0.42635027777857132 -0.41543594397746519 0 -0.41997834854398469 -0.41180534796019508 0 -0.42907264086257813 -0.41311715872526122 0 -0.41997834854398469 -0.41180534796019508 0 -0.42460885511582858 -0.40417321677700252 0 -0.42635027777857132 -0.41543594397746519 0 -0.41997834854398469 -0.41180534796019508 0 -0.42635027777857132 -0.41543594397746519 0 -0.42083332353326591 -0.42146747131641099 0 -0.41997834854398469 -0.41180534796019508 0 -0.43096994786351572 -0.41951492446283251 0 -0.42624289495594048 -0.42089725947505818 0 -0.42635027777857132 -0.41543594397746519 0 -0.43096994786351572 -0.41951492446283251 0 -0.42907264086257813 -0.41311715872526122 0 -0.42635027777857132 -0.41543594397746519 0 -0.42624289495594048 -0.42089725947505818 0 -0.42635027777857132 -0.41543594397746519 0 -0.42083332353326591 -0.42146747131641099 0 -0.42083332353326591 -0.42146747131641099 0 -0.41997834854398469 -0.41180534796019508 0 -0.40992282953163789 -0.42011435591993562 0 -0.41997834854398469 -0.41180534796019508 0 -0.39756877647335259 -0.40857286797681719 0 -0.41997834854398469 -0.41180534796019508 0 -0.40992282953163789 -0.42011435591993562 0 -0.39756877647335259 -0.40857286797681719 0 -0.40992282953163789 -0.42011435591993562 0 -0.41531815884496182 -0.42985383783075998 0 -0.39591554026262499 -0.42887225451549271 0 -0.41531815884496182 -0.42985383783075998 0 -0.39591554026262499 -0.42887225451549271 0 -0.41160927495564159 -0.44339431233754628 0 -0.42083332353326591 -0.42146747131641099 0 -0.40992282953163789 -0.42011435591993562 0 -0.41531815884496182 -0.42985383783075998 0 -0.42681803064840879 -0.42717069814352421 0 -0.42083332353326591 -0.42146747131641099 0 -0.41531815884496182 -0.42985383783075998 0 -0.44257020456291563 -0.38918913383950271 0 -0.42311368847744002 -0.37830224279505142 0 -0.42594061475171041 -0.39368797999533162 0 -0.44257020456291563 -0.38918913383950271 0 -0.42311368847744002 -0.37830224279505142 0 -0.44172858264042247 -0.37082207246888088 0 -0.44257020456291563 -0.38918913383950271 0 -0.42311368847744002 -0.37830224279505142 0 -0.42311368847744002 -0.37830224279505142 0 -0.42594061475171041 -0.39368797999533162 0 -0.416587075656149 -0.38785930376960043 0 -0.44257020456291563 -0.38918913383950271 0 -0.42594061475171041 -0.39368797999533162 0 -0.43479358559901082 -0.4041454901736512 0 -0.42594061475171041 -0.39368797999533162 0 -0.43479358559901082 -0.4041454901736512 0 -0.42460885511582858 -0.40417321677700252 0 -0.41997834854398469 -0.41180534796019508 0 -0.41325908582185972 -0.39811010703057192 0 -0.39770572831670092 -0.39911486077581648 0 -0.41997834854398469 -0.41180534796019508 0 -0.39770572831670092 -0.39911486077581648 0 -0.42594061475171041 -0.39368797999533162 0 -0.42460885511582858 -0.40417321677700252 0 -0.41325908582185972 -0.39811010703057192 0 -0.41997834854398469 -0.41180534796019508 0 -0.42460885511582858 -0.40417321677700252 0 -0.41325908582185972 -0.39811010703057192 0 -0.42594061475171041 -0.39368797999533162 0 -0.41325908582185972 -0.39811010703057192 0 -0.416587075656149 -0.38785930376960043 0 -0.41325908582185972 -0.39811010703057192 0 -0.416587075656149 -0.38785930376960043 0 -0.40403491357358612 -0.38133688525744702 0 -0.42311368847744002 -0.37830224279505142 0 -0.40403491357358612 -0.38133688525744702 0 -0.40365717239196519 -0.36741535175059892 0 -0.42311368847744002 -0.37830224279505142 0 -0.416587075656149 -0.38785930376960043 0 -0.40403491357358612 -0.38133688525744702 0 -0.40403491357358612 -0.38133688525744702 0 -0.39190790742475001 -0.38540387676521748 0 -0.39770572831670092 -0.39911486077581648 0 -0.40403491357358612 -0.38133688525744702 0 -0.39190790742475001 -0.38540387676521748 0 -0.3904578797192948 -0.37473938743617019 0 -0.41325908582185972 -0.39811010703057192 0 -0.40403491357358612 -0.38133688525744702 0 -0.39770572831670092 -0.39911486077581648 0 -0.39770572831670092 -0.39911486077581648 0 -0.37543310808941849 -0.38642437359143528 0 -0.39770572831670092 -0.39911486077581648 0 -0.37515920440272033 -0.40534038799344108 0 -0.37543310808941849 -0.38642437359143528 0 -0.39770572831670092 -0.39911486077581648 0 -0.37515920440272033 -0.40534038799344108 0 -0.39756877647335259 -0.40857286797681719
[...]
<PointData Scalars="" Vectors="displacement," Tensors="">
<DataArray type="Float64" Name="displacement" NumberOfComponents="3" format="ascii">
0.10499135438183256 8.0144690848352788e-07 0 0.10234186817232988 0.00053033483892359025 0 0.1049929731881851 2.2194488937475173e-06 0 0.10499135438183256 8.0144690848352788e-07 0 0.10040212426540031 0.00035052741003145839 0 0.10234186817232988 0.00053033483892359025 0 0.10499135438183256 8.0144690848352788e-07 0 0.10040212426540031 0.00035052741003145839 0 0.094212630601290578 7.6834886271208728e-07 0 0.10040212426540031 0.00035052741003145839 0 0.094212630601290578 7.6834886271208728e-07 0 0.09852672817218959 -0.00025817164172609719 0 0.094212630601290578 7.6834886271208728e-07 0 0.09852672817218959 -0.00025817164172609719 0 0.093623325176151379 0.00020179043134769848 0 0.099501225572941096 -0.00068331193006062804 0 0.10000116394380085 -0.00069301393222514249 0 0.09852672817218959 -0.00025817164172609719 0 0.096668625942438052 -0.0010871371155034128 0 0.096500652458955546 -0.00035068738883838545 0 0.09852672817218959 -0.00025817164172609719 0 0.096500652458955546 -0.00035068738883838545 0 0.096685897565361029 -3.0863432742224445e-05 0 0.10040212426540031 0.00035052741003145839 0 0.09852672817218959 -0.00025817164172609719 0 0.10234186817232988 0.00053033483892359025 0 0.09852672817218959 -0.00025817164172609719 0 0.10234186817232988 0.00053033483892359025 0 0.10333116660346123 -0.00082045013689175175 0 0.10234186817232988 0.00053033483892359025 0 0.10465664547385714 8.2754607912426535e-05 0 0.10333116660346123 -0.00082045013689175175 0 0.10234186817232988 0.00053033483892359025 0 0.1049929731881851 2.2194488937475173e-06 0 0.10465664547385714 8.2754607912426535e-05 0 0.10499999636979036 -3.0823055177176483e-10 0 0.10499543758353509 1.3580304884123551e-06 0 0.10499999444595333 1.7378111099616366e-09 0 0.10499665438674365 -1.3347994098616813e-06 0 0.10334777369123151 -0.00043416286612289875 0 0.10499999444595333 1.7378111099616366e-09 0 0.10499457267054596 2.4941441414791419e-06 0 0.10499773443644028 4.16050061743011e-06 0 0.10499999444595333 1.7378111099616366e-09 0 0.10499999083641225 6.1953476649486279e-09 0 0.10499773443644028 4.16050061743011e-06 0 0.10499543758353509 1.3580304884123551e-06 0 0.10499999444595333 1.7378111099616366e-09 0 0.10499457267054596 2.4941441414791419e-06 0 0.10499543758353509 1.3580304884123551e-06 0 0.10499457267054596 2.4941441414791419e-06 0 0.10498867313344409 1.8846148317748029e-06 0 0.10334777369123151 -0.00043416286612289875 0 0.10080640590679145 -0.00054450890670444002 0 0.10499457267054596 2.4941441414791419e-06 0 0.10499325501694505 2.7048056717893122e-06 0 0.10498867313344409 1.8846148317748029e-06 0 0.10499457267054596 2.4941441414791419e-06 0 0.10499325501694505 2.7048056717893122e-06 0 0.10499773443644028 4.16050061743011e-06 0 0.10237491783596717 -0.00023802335348230272 0 0.10080640590679145 -0.00054450890670444002 0 0.100102041349225 -0.00046916316056489415 0 0.099520448675913573 -0.0011583329421845688 0 0.098691526850904862 -0.00082171643715714187 0 0.100102041349225 -0.00046916316056489415 0 0.099520448675913573 -0.0011583329421845688 0 0.10026354485055251 -0.0013253144052130543 0 0.099520448675913573 -0.0011583329421845688 0 0.098691526850904862 -0.00082171643715714187 0 0.099368074675725421 -0.0020069425651735415 0 0.095667330700162007 -0.0012894977137720277 0 0.095278878561405059 -0.00065671451064489809 0 0.096039871585897427 -0.00077198479600518752 0 0.10080640590679145 -0.00054450890670444002 0 0.098046236981906856 -0.0012368352805153229 0 0.095278878561405059 -0.00065671451064489809 0 0.096039871585897427 -0.00077198479600518752 0 0.09582233707629538 -0.00038318269297608204 0 0.099368074675725421 -0.0020069425651735415 0 0.10026354485055251 -0.0013253144052130543 0 0.10048873328142363 -0.0020612816309472149 0 0.099520448675913573 -0.0011583329421845688 0 0.099368074675725421 -0.0020069425651735415 0 0.10026354485055251 -0.0013253144052130543 0 0.095667330700162007 -0.0012894977137720277 0 0.096668625942438052 -0.0010871371155034128 0 0.096039871585897427 -0.00077198479600518752 0 0.10080640590679145 -0.00054450890670444002 0 0.10000116394380085 -0.00069301393222514249 0 0.10465664547385714 8.2754607912426535e-05 0 0.10502583070407596 -0.00073094919998639284 0 0.10333116660346123 -0.00082045013689175175 0 0.096039871585897427 -0.00077198479600518752 0 0.096500652458955546 -0.00035068738883838545 0 0.096193111571413317 -0.00041849822019779457 0 0.096039871585897427 -0.00077198479600518752 0 0.096193111571413317 -0.00041849822019779457 0 0.09582233707629538 -0.00038318269297608204 0 0.096668625942438052 -0.0010871371155034128 0 0.096039871585897427 -0.00077198479600518752 0 0.096500652458955546 -0.00035068738883838545 0 0.096500652458955546 -0.00035068738883838545 0 0.096497860916849254 -0.00020098786092720097 0 0.096685897565361029 -3.0863432742224445e-05 0 0.096497860916849254 -0.00020098786092720097 0 0.096519557898467861 -0.00032088793180916141 0 0.096685897565361029 -3.0863432742224445e-05 0 0.096497860916849254 -0.00020098786092720097 0 0.096411046595416064 -0.00021402826055803682 0 0.096441337378716602 -0.00024425367213433196 0 0.096497860916849254 -0.00020098786092720097 0 0.096367121087999497 -0.0002630466937661924 0 0.096411046595416064 -0.00021402826055803682 0 0.096500652458955546 -0.00035068738883838545 0 0.096497860916849254 -0.00020098786092720097 0 0.096367121087999497 -0.0002630466937661924 0 0.096500652458955546 -0.00035068738883838545 0 0.096193111571413317 -0.00041849822019779457 0 0.096367121087999497 -0.0002630466937661924 0 0.096193111571413317 -0.00041849822019779457 0 0.096367121087999497 -0.0002630466937661924 0 0.09620969478503176 -0.00022020988074357561 0 0.096193111571413317 -0.00041849822019779457 0 0.09620969478503176 -0.00022020988074357561 0 0.09582233707629538 -0.00038318269297608204 0 0.09620969478503176 -0.00022020988074357561 0 0.09582233707629538 -0.00038318269297608204 0 0.095818939534890249 -1.6536536542447457e-05 0 0.086343701095525707 -0.0025473403414017861 0 0.086021242595509514 -0.0027284063917281968 0 0.09620969478503176 -0.00022020988074357561 0 0.096331561799131202 -0.00017593206159494318 0 0.096230300355445719 -1.4833602833017952e-06 0 0.09620969478503176 -0.00022020988074357561 0 0.096125936137976126 0.00016385830913750541 0 0.095818939534890249 -1.6536536542447457e-05 0 0.086327951350238366 -0.0028283237645123052 0 0.086021242595509514 -0.0027284063917281968 0 0.096331561799131202 -0.00017593206159494318 0 0.096441337378716602 -0.00024425367213433196 0 0.096454062561415338 -0.00025749421996989564 0 0.096367121087999497 -0.0002630466937661924 0 0.096411046595416064 -0.00021402826055803682 0 0.096331561799131202 -0.00017593206159494318 0 0.096367121087999497 -0.0002630466937661924 0 0.09620969478503176 -0.00022020988074357561 0 0.096331561799131202 -0.00017593206159494318 0 0.096411046595416064 -0.00021402826055803682 0 0.096331561799131202 -0.00017593206159494318 0 0.096441337378716602 -0.00024425367213433196 0 0.096441337378716602 -0.00024425367213433196 0 0.096454062561415338 -0.00025749421996989564 0 0.096463049067926229 -0.0003302863336591151 0 0.086021242595509514 -0.0027284063917281968 0 0.083727534795344755 -0.0021746255096141615 0 0.096454062561415338 -0.00025749421996989564 0 0.096463049067926229 -0.0003302863336591151 0 0.096487330247659181 -0.00041082987588634163 0 0.096463049067926229 -0.0003302863336591151 0 0.096519557898467861 -0.00032088793180916141 0 0.096435289575652852 -0.00043609346106518871 0 0.096519557898467861 -0.00032088793180916141 0 0.096435289575652852 -0.00043609346106518871 0 0.09647308724391962 -0.00052431529465884206 0 0.096441337378716602 -0.00024425367213433196 0 0.096463049067926229 -0.0003302863336591151 0 0.096519557898467861 -0.00032088793180916141 0 0.096497860916849254 -0.00020098786092720097 0 0.096441337378716602 -0.00024425367213433196 0 0.096519557898467861 -0.00032088793180916141 0 0.095278878561405059 -0.00065671451064489809 0 0.094793775114947423 3.942636424105502e-05 0 0.095409051126992273 -6.28477558321139e-05 0 0.099368074675725421 -0.0020069425651735415 0 0.10003745922134538 -0.0031459703157963137 0 0.10048873328142363 -0.0020612816309472149 0 0.098046236981906856 -0.0012368352805153229 0 0.09585983393295848 -0.0023612985110467652 0 0.094793775114947423 3.942636424105502e-05 0 0.095409051126992273 -6.28477558321139e-05 0 0.095156876329264062 0.00029090510814018278 0 0.095278878561405059 -0.00065671451064489809 0 0.095409051126992273 -6.28477558321139e-05 0 0.09582233707629538 -0.00038318269297608204 0 0.095409051126992273 -6.28477558321139e-05 0 0.09582233707629538 -0.00038318269297608204 0 0.095818939534890249 -1.6536536542447457e-05 0 0.096125936137976126 0.00016385830913750541 0 0.095566113708651826 0.00042360283070201773 0 0.095595397158827658 0.0010457516319393578 0 0.086021242595509514 -0.0027284063917281968 0 0.083940259854429281 -0.0030867104683577917 0 0.095409051126992273 -6.28477558321139e-05 0 0.095818939534890249 -1.6536536542447457e-05 0 0.095566113708651826 0.00042360283070201773 0 0.096125936137976126 0.00016385830913750541 0 0.095818939534890249 -1.6536536542447457e-05 0 0.095566113708651826 0.00042360283070201773 0 0.095409051126992273 -6.28477558321139e-05 0 0.095566113708651826 0.00042360283070201773 0 0.095156876329264062 0.00029090510814018278 0 0.095566113708651826 0.00042360283070201773 0 0.095156876329264062 0.00029090510814018278 0 0.094860475926764193 0.00076836954286196629 0 0.094793775114947423 3.942636424105502e-05 0 0.094860475926764193 0.00076836954286196629 0 0.094338918892076906 0.00077566127259740231 0 0.094793775114947423 3.942636424105502e-05 0 0.095156876329264062 0.00029090510814018278 0 0.094860475926764193 0.00076836954286196629 0 0.094860475926764193 0.00076836954286196629 0 0.095002835818138565 0.0013031799487795608 0 0.095595397158827658 0.0010457516319393578 0 0.094860475926764193 0.00076836954286196629 0 0.095002835818138565 0.0013031799487795608 0 0.094518924239035365 0.0013693844294175167 0 0.095566113708651826 0.00042360283070201773 0 0.094860475926764193 0.00076836954286196629 0 0.095595397158827658 0.0010457516319393578 0 0.083940259854429281 -0.0030867104683577917 0 0.078474119144683024 -0.0036646640834433995 0 0.08194287398843339 -0.0027935997133830166 0 0.082198239806576978 -0.0018377332412156464 0 0.08139467731942919 -0.0018507090639529491 0 0.08194287398843339 -0.0027935997133830166 0 0.082198239806576978 -0.0018377332412156464 0 0.082345200245407174 -0.0027872247132886652 0 0.078871354178995157 -0.001457373744770514 0 0.078474119144683024 -0.0036646640834433995 0 0.095028408447760102 0.0020384337793209763 0 0.094518924239035365 0.0013693844294175167 0 0.094243062897979582 0.0020419251545974368 0 0.095002835818138565 0.0013031799487795608 0 0.095028408447760102 0.0020384337793209763 0 0.094518924239035365 0.0013693844294175167 0 0.078474119144683024 -0.0036646640834433995 0 0.08288130489056765 -0.0033625416197405411 0 0.095002835818138565 0.0013031799487795608 0 0.095595397158827658 0.0010457516319393578 0 0.095028408447760102 0.0020384337793209763 0 0.082496531870512022 -0.0037351143369133031 0 0.08194287398843339 -0.0027935997133830166 0 0.082345200245407174 -0.0027872247132886652 0 0.096463049067926229 -0.0003302863336591151 0 0.096435289575652852 -0.00043609346106518871 0 0.096487330247659181 -0.00041082987588634163 0 0.096454182214413264 -0.00048089697679440759 0 0.096435289575652852 -0.00043609346106518871 0 0.096487330247659181 -0.00041082987588634163 0 0.078871354178995157 -0.001457373744770514 0 0.083727534795344755 -0.0021746255096141615 0 0.096454182214413264 -0.00048089697679440759 0 0.096435289575652852 -0.00043609346106518871 0 0.096405479095094476 -0.00048648194002309488 0 0.096435289575652852 -0.00043609346106518871 0 0.096420183234758691 -0.00046967502946164376 0 0.096405479095094476 -0.00048648194002309488 0 0.096420183234758691 -0.00046967502946164376 0 0.096353949910848571 -0.00050347492279925277 0 0.096405479095094476 -0.00048648194002309488 0 0.096435289575652852 -0.00043609346106518871 0 0.096420183234758691 -0.00046967502946164376 0 0.09647308724391962 -0.00052431529465884206 0 0.096420183234758691 -0.00046967502946164376 0 0.096420356203226518 -0.0004842935228384429 0 0.09647308724391962 -0.00052431529465884206 0 0.095040987645817684 -0.0018498219988107645 0 0.089104914338343624 -0.002198827860535046 0 0.093193498477817049 -0.00063432506960345997 0 0.071301914198147895 -0.0049720722736921333 0 0.071936802445367876 -0.0025585077454373557 0 0.074772638834862154 -0.0031473981036459838 0 0.084903013648478159 0.0016923215384877211 0 0.082202204919267149 0.00013327127548657902 0 0.084903013648478159 0.0016923215384877211 0 0.084931020668312207 0.0016820872050076524 0 0.084903013648478159 0.0016923215384877211 0 0.082605857618176431 -0.00052496184808658219 0 0.096420183234758691 -0.00046967502946164376 0 0.096420356203226518 -0.0004842935228384429 0 0.096383378955320911 -0.00047965413064044571 0 0.096420183234758691 -0.00046967502946164376 0 0.096383378955320911 -0.00047965413064044571 0 0.096353949910848571 -0.00050347492279925277 0 0.082605857618176431 -0.00052496184808658219 0 0.080101934597748684 -0.0021917156417648196 0 0.071936802445367876 -0.0025585077454373557 0 0.073578857207164172 -0.0016707678282924295 0 0.072579142268410488 -8.2975240801467332e-05 0 0.073578857207164172 -0.0016707678282924295 0 0.074772638834862154 -0.0031473981036459838 0 0.074519409943357623 -2.3064091416912826e-05 0 0.074772638834862154 -0.0031473981036459838 0 0.076593008602578269 0.00038021665401921341 0 0.074519409943357623 -2.3064091416912826e-05 0 0.073578857207164172 -0.0016707678282924295 0 0.074519409943357623 -2.3064091416912826e-05 0 0.072579142268410488 -8.2975240801467332e-05 0 0.071936802445367876 -0.0025585077454373557 0 0.073578857207164172 -0.0016707678282924295 0 0.074772638834862154 -0.0031473981036459838 0 0.080002679773333488 -5.6794131520766066e-07 0 0.082202204919267149 0.00013327127548657902 0 0.079990040254344294 -5.3776400154011387e-06 0 0.074772638834862154 -0.0031473981036459838 0 0.076593008602578269 0.00038021665401921341 0 0.080009209196120215 -8.4819388682917072e-06 0 0.089104914338343624 -0.002198827860535046 0 0.086096213146228368 1.5252311748463223e-06 0 0.089104914338343624 -0.002198827860535046 0 0.093193498477817049 -0.00063432506960345997 0 0.086096213146228368 1.5252311748463223e-06 0 0.093193498477817049 -0.00063432506960345997 0 0.086096213146228368 1.5252311748463223e-06 0 0.093623325176151379 0.00020179043134769848 0 0.094212630601290578 7.6834886271208728e-07 0 0.086096213146228368 1.5252311748463223e-06 0 0.093623325176151379 0.00020179043134769848 0 0.093193498477817049 -0.00063432506960345997 0 0.093623325176151379 0.00020179043134769848 0 0.095795070861018072 -7.4569727523664695e-05 0 0.09852672817218959 -0.00025817164172609719 0 0.093623325176151379 0.00020179043134769848 0 0.095795070861018072 -7.4569727523664695e-05 0 0.09852672817218959 -0.00025817164172609719 0 0.095795070861018072 -7.4569727523664695e-05 0 0.096685897565361029 -3.0863432742224445e-05 0 0.095795070861018072 -7.4569727523664695e-05 0 0.096685897565361029 -3.0863432742224445e-05 0 0.095809049654168185 -0.00041757904146385216 0 0.096685897565361029 -3.0863432742224445e-05 0 0.09647308724391962 -0.00052431529465884206 0 0.095809049654168185 -0.00041757904146385216 0 0.096519557898467861 -0.00032088793180916141 0 0.096685897565361029 -3.0863432742224445e-05 0 0.09647308724391962 -0.00052431529465884206 0 0.095163273707930984 -0.0017589900397481069 0 0.09647308724391962 -0.00052431529465884206 0 0.095221227725954483 -0.0014531257506388705 0 0.09647308724391962 -0.00052431529465884206 0 0.095221227725954483 -0.0014531257506388705 0 0.095809049654168185 -0.00041757904146385216 0 0.084903013648478159 0.0016923215384877211 0 0.08770173906789086 0.0023821447004222585 0 0.093193498477817049 -0.00063432506960345997 0 0.095221227725954483 -0.0014531257506388705 0 0.095809049654168185 -0.00041757904146385216 0 0.095040987645817684 -0.0018498219988107645 0 0.093193498477817049 -0.00063432506960345997 0 0.095221227725954483 -0.0014531257506388705 0 0.093193498477817049 -0.00063432506960345997 0 0.095795070861018072 -7.4569727523664695e-05 0 0.095809049654168185 -0.00041757904146385216 0 0.096108824492023417 -0.00081933082671560554 0 0.091135458847465128 -0.0032593583367733605 0 0.10434136673242984 0.0013825824844000269 0 0.10452381580296537 0.0054949478785275277 0 0.10233818148317358 0.00219446705327145 0 0.10479514026405598 -0.00032766915285388802 0 0.10487171951448281 -0.00024798916583259283 0 0.1048864019275262 -0.00043138634436784578 0 0.10479514026405598 -0.00032766915285388802 0 0.1047753283153766 -0.00048202874578909185 0 0.1048864019275262 -0.00043138634436784578 0 0.10479514026405598 -0.00032766915285388802 0 0.10469141944472175 -0.00046968646006629965 0 0.1047753283153766 -0.00048202874578909185 0 0.10479514026405598 -0.00032766915285388802 0 0.10481213128959456 -0.00017174206268970535 0 0.10482364659556494 -0.00016135369459677955 0 0.10479514026405598 -0.00032766915285388802 0 0.10481213128959456 -0.00017174206268970535 0 0.10487171951448281 -0.00024798916583259283 0 0.096108824492023417 -0.00081933082671560554 0 0.097599995977848852 -0.00064485334972674369 0 0.10481213128959456 -0.00017174206268970535 0 0.10487171951448281 -0.00024798916583259283 0 0.10467201854074597 -0.00015605389622773506 0 0.10434136673242984 0.0013825824844000269 0 0.10467201854074597 -0.00015605389622773506 0 0.10253349493316327 -6.9610418801096036e-05 0 0.10467201854074597 -0.00015605389622773506 0 0.10499976115205656 -3.5505943423210303e-07 0 0.10487303984783068 -0.00010107825260499486 0 0.10467201854074597 -0.00015605389622773506 0 0.10499976115205656 -3.5505943423210303e-07 0 0.10406169744598993 -0.00021558406647349186 0 0.10499976115205656 -3.5505943423210303e-07 0 0.10487303984783068 -0.00010107825260499486 0 0.10499976557801731 2.4172931128909145e-08 0 0.10481213128959456 -0.00017174206268970535 0 0.10467201854074597 -0.00015605389622773506 0 0.10487303984783068 -0.00010107825260499486 0 0.10481213128959456 -0.00017174206268970535 0 0.10487303984783068 -0.00010107825260499486 0 0.10482364659556494 -0.00016135369459677955 0 0.10482364659556494 -0.00016135369459677955 0 0.10488478453032284 -2.577902072993361e-05 0 0.10477672865375481 -0.00012104698884163976 0 0.10487303984783068 -0.00010107825260499486 0 0.10482364659556494 -0.00016135369459677955 0 0.10488478453032284 -2.577902072993361e-05 0 0.10499976557801731 2.4172931128909145e-08 0 0.10488478453032284 -2.577902072993361e-05 0 0.1049997702747988 -2.8302085378123182e-08 0 0.10487303984783068 -0.00010107825260499486 0 0.10499976557801731 2.4172931128909145e-08 0 0.10488478453032284 -2.577902072993361e-05 0 0.10488478453032284 -2.577902072993361e-05 0 0.1049997702747988 -2.8302085378123182e-08 0 0.10483000390200571 3.6624372139917047e-05 0 0.10483000390200571 3.6624372139917047e-05 0 0.10477672865375481 -0.00012104698884163976 0 0.10450054252197809 -0.00010104622706649821 0 0.10488478453032284 -2.577902072993361e-05 0 0.10483000390200571 3.6624372139917047e-05 0 0.10477672865375481 -0.00012104698884163976 0 0.10477672865375481 -0.00012104698884163976 0 0.10458154636643521 -0.00029119164326249741 0 0.10450054252197809 -0.00010104622706649821 0 0.10458154636643521 -0.00029119164326249741 0 0.10456560154032959 -0.00045222278640464502 0 0.10440950382216056 -0.00043978697914123739 0 0.10458154636643521 -0.00029119164326249741 0 0.10472954814464473 -0.00030173691851668723 0 0.10456560154032959 -0.00045222278640464502 0 0.10477672865375481 -0.00012104698884163976 0 0.10458154636643521 -0.00029119164326249741 0 0.10472954814464473 -0.00030173691851668723 0 0.10479514026405598 -0.00032766915285388802 0 0.10482364659556494 -0.000161353694