<?xml version="1.0"?>
<VTKFile type="UnstructuredGrid" version="0.1" byte_order="LittleEndian">
<UnstructuredGrid>
<Piece NumberOfPoints="31898" NumberOfCells="11152">
<Points>
<DataArray type="Float64" NumberOfComponents="3" format="ascii">
-0.5 -0.5 0 -0.47620991077874902 -0.44978878706170539 0 -0.49999999999999473 -0.42132396840504388 0 -0.5 -0.5 0 -0.47160970827802529 -0.4793630013852106 0 -0.47620991077874902 -0.44978878706170539 0 -0.5 -0.5 0 -0.47160970827802529 -0.4793630013852106 0 -0.44860394795025399 -0.5 0 -0.47160970827802529 -0.4793630013852106 0 -0.44860394795025399 -0.5 0 -0.4490820238307246 -0.45820516232899983 0 -0.44860394795025399 -0.5 0 -0.4490820238307246 -0.45820516232899983 0 -0.42881687682924802 -0.47781464288736519 0 -0.4490820238307246 -0.45820516232899983 0 -0.45555437223955858 -0.42914059360647611 0 -0.4490820238307246 -0.45820516232899983 0 -0.45555437223955858 -0.42914059360647611 0 -0.43867285131603428 -0.4271457417558665 0 -0.4490820238307246 -0.45820516232899983 0 -0.43867285131603428 -0.4271457417558665 0 -0.4263356171060747 -0.44269880333887462 0 -0.47160970827802529 -0.4793630013852106 0 -0.4490820238307246 -0.45820516232899983 0 -0.47620991077874902 -0.44978878706170539 0 -0.4490820238307246 -0.45820516232899983 0 -0.47620991077874902 -0.44978878706170539 0 -0.45555437223955858 -0.42914059360647611 0 -0.47620991077874902 -0.44978878706170539 0 -0.48101336032419229 -0.41069999664450008 0 -0.45555437223955858 -0.42914059360647611 0 -0.47620991077874902 -0.44978878706170539 0 -0.49999999999999473 -0.42132396840504388 0 -0.48101336032419229 -0.41069999664450008 0 -0.49999999999999473 -0.42132396840504388 0 -0.48101336032419229 -0.41069999664450008 0 -0.5 -0.393886241813306 0 -0.49999999999999473 -0.42132396840504388 0 -0.48101336032419229 -0.41069999664450008 0 -0.5 -0.393886241813306 0 -0.47854472220918332 -0.38978458738689759 0 -0.48422759779560409 -0.37130120630367158 0 -0.5 -0.393886241813306 0 -0.5 -0.36644851522156802 0 -0.48422759779560409 -0.37130120630367158 0 -0.48101336032419229 -0.41069999664450008 0 -0.5 -0.393886241813306 0 -0.47854472220918332 -0.38978458738689759 0 -0.48101336032419229 -0.41069999664450008 0 -0.47854472220918332 -0.38978458738689759 0 -0.46202672064839212 -0.40007602488395211 0 -0.48101336032419229 -0.41069999664450008 0 -0.46202672064839212 -0.40007602488395211 0 -0.47854472220918332 -0.38978458738689759 0 -0.46725442735267431 -0.37660061361585562 0 -0.46202672064839212 -0.40007602488395211 0 -0.47854472220918332 -0.38978458738689759 0 -0.46725442735267431 -0.37660061361585562 0 -0.48422759779560409 -0.37130120630367158 0 -0.46725442735267431 -0.37660061361585562 0 -0.46202672064839212 -0.40007602488395211 0 -0.46725442735267431 -0.37660061361585562 0 -0.45645674801697989 -0.38644133236760531 0 -0.46202672064839212 -0.40007602488395211 0 -0.46725442735267431 -0.37660061361585562 0 -0.45645674801697989 -0.38644133236760531 0 -0.4540003998136638 -0.37455519391687309 0 -0.45645674801697989 -0.38644133236760531 0 -0.46202672064839212 -0.40007602488395211 0 -0.44257020456291563 -0.38918913383950271 0 -0.46202672064839212 -0.40007602488395211 0 -0.44257020456291563 -0.38918913383950271 0 -0.44727608925983742 -0.41095911152778891 0 -0.46202672064839212 -0.40007602488395211 0 -0.44257020456291563 -0.38918913383950271 0 -0.44257020456291563 -0.38918913383950271 0 -0.44727608925983742 -0.41095911152778891 0 -0.43479358559901082 -0.4041454901736512 0 -0.44257020456291563 -0.38918913383950271 0 -0.4540003998136638 -0.37455519391687309 0 -0.44172858264042247 -0.37082207246888088 0 -0.45645674801697989 -0.38644133236760531 0 -0.44257020456291563 -0.38918913383950271 0 -0.4540003998136638 -0.37455519391687309 0 -0.46202672064839212 -0.40007602488395211 0 -0.45555437223955858 -0.42914059360647611 0 -0.44727608925983742 -0.41095911152778891 0 -0.46202672064839212 -0.40007602488395211 0 -0.45555437223955858 -0.42914059360647611 0 -0.48101336032419229 -0.41069999664450008 0 -0.46202672064839212 -0.40007602488395211 0 -0.45555437223955858 -0.42914059360647611 0 -0.44727608925983742 -0.41095911152778891 0 -0.43867285131603428 -0.4271457417558665 0 -0.43676601469929588 -0.41441201227470881 0 -0.44727608925983742 -0.41095911152778891 0 -0.43676601469929588 -0.41441201227470881 0 -0.43479358559901082 -0.4041454901736512 0 -0.45555437223955858 -0.42914059360647611 0 -0.44727608925983742 -0.41095911152778891 0 -0.43867285131603428 -0.4271457417558665 0 -0.43867285131603428 -0.4271457417558665 0 -0.42681803064840879 -0.42717069814352421 0 -0.4263356171060747 -0.44269880333887462 0 -0.42681803064840879 -0.42717069814352421 0 -0.41531815884496182 -0.42985383783075998 0 -0.4263356171060747 -0.44269880333887462 0 -0.42681803064840879 -0.42717069814352421 0 -0.42624289495594048 -0.42089725947505818 0 -0.42083332353326591 -0.42146747131641099 0 -0.42681803064840879 -0.42717069814352421 0 -0.43096994786351572 -0.41951492446283251 0 -0.42624289495594048 -0.42089725947505818 0 -0.43867285131603428 -0.4271457417558665 0 -0.42681803064840879 -0.42717069814352421 0 -0.43096994786351572 -0.41951492446283251 0 -0.43867285131603428 -0.4271457417558665 0 -0.43676601469929588 -0.41441201227470881 0 -0.43096994786351572 -0.41951492446283251 0 -0.43676601469929588 -0.41441201227470881 0 -0.43096994786351572 -0.41951492446283251 0 -0.42907264086257813 -0.41311715872526122 0 -0.43676601469929588 -0.41441201227470881 0 -0.42907264086257813 -0.41311715872526122 0 -0.43479358559901082 -0.4041454901736512 0 -0.42907264086257813 -0.41311715872526122 0 -0.43479358559901082 -0.4041454901736512 0 -0.42460885511582858 -0.40417321677700252 0 -0.42907264086257813 -0.41311715872526122 0 -0.41997834854398469 -0.41180534796019508 0 -0.42907264086257813 -0.41311715872526122 0 -0.42635027777857132 -0.41543594397746519 0 -0.41997834854398469 -0.41180534796019508 0 -0.42907264086257813 -0.41311715872526122 0 -0.41997834854398469 -0.41180534796019508 0 -0.42460885511582858 -0.40417321677700252 0 -0.42635027777857132 -0.41543594397746519 0 -0.41997834854398469 -0.41180534796019508 0 -0.42635027777857132 -0.41543594397746519 0 -0.42083332353326591 -0.42146747131641099 0 -0.41997834854398469 -0.41180534796019508 0 -0.43096994786351572 -0.41951492446283251 0 -0.42624289495594048 -0.42089725947505818 0 -0.42635027777857132 -0.41543594397746519 0 -0.43096994786351572 -0.41951492446283251 0 -0.42907264086257813 -0.41311715872526122 0 -0.42635027777857132 -0.41543594397746519 0 -0.42624289495594048 -0.42089725947505818 0 -0.42635027777857132 -0.41543594397746519 0 -0.42083332353326591 -0.42146747131641099 0 -0.42083332353326591 -0.42146747131641099 0 -0.41997834854398469 -0.41180534796019508 0 -0.40992282953163789 -0.42011435591993562 0 -0.41997834854398469 -0.41180534796019508 0 -0.39756877647335259 -0.40857286797681719 0 -0.41997834854398469 -0.41180534796019508 0 -0.40992282953163789 -0.42011435591993562 0 -0.39756877647335259 -0.40857286797681719 0 -0.40992282953163789 -0.42011435591993562 0 -0.41531815884496182 -0.42985383783075998 0 -0.39591554026262499 -0.42887225451549271 0 -0.41531815884496182 -0.42985383783075998 0 -0.39591554026262499 -0.42887225451549271 0 -0.41160927495564159 -0.44339431233754628 0 -0.42083332353326591 -0.42146747131641099 0 -0.40992282953163789 -0.42011435591993562 0 -0.41531815884496182 -0.42985383783075998 0 -0.42681803064840879 -0.42717069814352421 0 -0.42083332353326591 -0.42146747131641099 0 -0.41531815884496182 -0.42985383783075998 0 -0.44257020456291563 -0.38918913383950271 0 -0.42311368847744002 -0.37830224279505142 0 -0.42594061475171041 -0.39368797999533162 0 -0.44257020456291563 -0.38918913383950271 0 -0.42311368847744002 -0.37830224279505142 0 -0.44172858264042247 -0.37082207246888088 0 -0.44257020456291563 -0.38918913383950271 0 -0.42311368847744002 -0.37830224279505142 0 -0.42311368847744002 -0.37830224279505142 0 -0.42594061475171041 -0.39368797999533162 0 -0.416587075656149 -0.38785930376960043 0 -0.44257020456291563 -0.38918913383950271 0 -0.42594061475171041 -0.39368797999533162 0 -0.43479358559901082 -0.4041454901736512 0 -0.42594061475171041 -0.39368797999533162 0 -0.43479358559901082 -0.4041454901736512 0 -0.42460885511582858 -0.40417321677700252 0 -0.41997834854398469 -0.41180534796019508 0 -0.41325908582185972 -0.39811010703057192 0 -0.39770572831670092 -0.39911486077581648 0 -0.41997834854398469 -0.41180534796019508 0 -0.39770572831670092 -0.39911486077581648 0 -0.42594061475171041 -0.39368797999533162 0 -0.42460885511582858 -0.40417321677700252 0 -0.41325908582185972 -0.39811010703057192 0 -0.41997834854398469 -0.41180534796019508 0 -0.42460885511582858 -0.40417321677700252 0 -0.41325908582185972 -0.39811010703057192 0 -0.42594061475171041 -0.39368797999533162 0 -0.41325908582185972 -0.39811010703057192 0 -0.416587075656149 -0.38785930376960043 0 -0.41325908582185972 -0.39811010703057192 0 -0.416587075656149 -0.38785930376960043 0 -0.40403491357358612 -0.38133688525744702 0 -0.42311368847744002 -0.37830224279505142 0 -0.40403491357358612 -0.38133688525744702 0 -0.40365717239196519 -0.36741535175059892 0 -0.42311368847744002 -0.37830224279505142 0 -0.416587075656149 -0.38785930376960043 0 -0.40403491357358612 -0.38133688525744702 0 -0.40403491357358612 -0.38133688525744702 0 -0.39190790742475001 -0.38540387676521748 0 -0.39770572831670092 -0.39911486077581648 0 -0.40403491357358612 -0.38133688525744702 0 -0.39190790742475001 -0.38540387676521748 0 -0.3904578797192948 -0.37473938743617019 0 -0.41325908582185972 -0.39811010703057192 0 -0.40403491357358612 -0.38133688525744702 0 -0.39770572831670092 -0.39911486077581648 0 -0.39770572831670092 -0.39911486077581648 0 -0.37543310808941849 -0.38642437359143528 0 -0.39770572831670092 -0.39911486077581648 0 -0.37515920440272033 -0.40534038799344108 0 -0.37543310808941849 -0.38642437359143528 0 -0.39770572831670092 -0.39911486077581648 0 -0.37515920440272033 -0.40534038799344108 0 -0.39756877647335259 -0.40857286797681719
[...]
<PointData Scalars="" Vectors="displacement," Tensors="">
<DataArray type="Float64" Name="displacement" NumberOfComponents="3" format="ascii">
5.1016772460727216e-06 0.10499039968607755 0 0.00051192749283292228 0.098167677058907596 0 -1.079595076343625e-05 0.088502512142500919 0 5.1016772460727216e-06 0.10499039968607755 0 0.0004719674364176222 0.10260377019963214 0 0.00051192749283292228 0.098167677058907596 0 5.1016772460727216e-06 0.10499039968607755 0 0.0004719674364176222 0.10260377019963214 0 -1.6971325403111603e-08 0.10499744046652945 0 0.0004719674364176222 0.10260377019963214 0 -1.6971325403111603e-08 0.10499744046652945 0 0.00026270907664316845 0.10260887294739431 0 -1.6971325403111603e-08 0.10499744046652945 0 0.00026270907664316845 0.10260887294739431 0 0.00020616681393550158 0.10429650341609013 0 0.00090489112565208868 0.096187017765572383 0 -1.8043807843982742e-05 0.093458938788702317 0 0.00026270907664316845 0.10260887294739431 0 -0.0011628005214958045 0.1025283004238321 0 -0.0012548061709191476 0.1031039854849195 0 0.00026270907664316845 0.10260887294739431 0 -0.0012548061709191476 0.1031039854849195 0 -0.00061332216502514396 0.1037584491826683 0 0.0004719674364176222 0.10260377019963214 0 0.00026270907664316845 0.10260887294739431 0 0.00051192749283292228 0.098167677058907596 0 0.00026270907664316845 0.10260887294739431 0 0.00051192749283292228 0.098167677058907596 0 -0.0018700308767063375 0.10013880092784556 0 0.00051192749283292228 0.098167677058907596 0 -0.0039744052037898204 0.094875429281114754 0 -0.0018700308767063375 0.10013880092784556 0 0.00051192749283292228 0.098167677058907596 0 -1.079595076343625e-05 0.088502512142500919 0 -0.0039744052037898204 0.094875429281114754 0 -5.9408568100086668e-06 0.088468960700426341 0 -0.00090377868838253841 0.081582516892943852 0 2.5071017291382632e-06 0.082716141885848957 0 -3.6356252144842616e-06 0.088474626102230655 0 -0.0015296391180123126 0.086910994892479429 0 2.5071017291382632e-06 0.082716141885848957 0 0.00023833956844166945 0.079466675957156896 0 0.00050291259258132201 0.077344445030369802 0 2.5071017291382632e-06 0.082716141885848957 0 7.6491998797134313e-07 0.076953520615061222 0 0.00050291259258132201 0.077344445030369802 0 -0.00090377868838253841 0.081582516892943852 0 2.5071017291382632e-06 0.082716141885848957 0 0.00023833956844166945 0.079466675957156896 0 -0.00090377868838253841 0.081582516892943852 0 0.00023833956844166945 0.079466675957156896 0 -0.00039622138175493776 0.078692057062640416 0 -0.0015296391180123126 0.086910994892479429 0 -0.0022249321401313993 0.083755328675135701 0 0.00023833956844166945 0.079466675957156896 0 0.00061900175893346218 0.078010177999835409 0 -0.00039622138175493776 0.078692057062640416 0 0.00023833956844166945 0.079466675957156896 0 0.00061900175893346218 0.078010177999835409 0 0.00050291259258132201 0.077344445030369802 0 -0.0015642833872224796 0.076063148707642275 0 -0.0022249321401313993 0.083755328675135701 0 -0.0022014996207186314 0.061192654720513114 0 -0.0013660863774899773 0.062042425372608623 0 -0.00027693824187411905 0.061625156123400679 0 -0.0022014996207186314 0.061192654720513114 0 -0.0013660863774899773 0.062042425372608623 0 -0.0022629662138983877 0.06218767652600693 0 -0.0013660863774899773 0.062042425372608623 0 -0.00027693824187411905 0.061625156123400679 0 -0.0011178920464936161 0.063144110726384151 0 -0.0016517621441172071 0.10275062746711207 0 -0.0014536778089840206 0.10300428862824881 0 -0.0015688862161310111 0.10288790896474979 0 -0.0022249321401313993 0.083755328675135701 0 -0.0018358055578129796 0.082910861830370983 0 -0.0014536778089840206 0.10300428862824881 0 -0.0015688862161310111 0.10288790896474979 0 -0.0016001135790232629 0.10298879802799843 0 -0.0011178920464936161 0.063144110726384151 0 -0.0022629662138983877 0.06218767652600693 0 -0.0025339965930127406 0.063183270237558042 0 -0.0013660863774899773 0.062042425372608623 0 -0.0011178920464936161 0.063144110726384151 0 -0.0022629662138983877 0.06218767652600693 0 -0.0016517621441172071 0.10275062746711207 0 -0.0011628005214958045 0.1025283004238321 0 -0.0015688862161310111 0.10288790896474979 0 -0.0022249321401313993 0.083755328675135701 0 -1.8043807843982742e-05 0.093458938788702317 0 -0.0039744052037898204 0.094875429281114754 0 -0.0061341587702536558 0.098394575733673634 0 -0.0018700308767063375 0.10013880092784556 0 -0.0015688862161310111 0.10288790896474979 0 -0.0012548061709191476 0.1031039854849195 0 -0.0015829163645195155 0.10306022273406423 0 -0.0015688862161310111 0.10288790896474979 0 -0.0015829163645195155 0.10306022273406423 0 -0.0016001135790232629 0.10298879802799843 0 -0.0011628005214958045 0.1025283004238321 0 -0.0015688862161310111 0.10288790896474979 0 -0.0012548061709191476 0.1031039854849195 0 -0.0012548061709191476 0.1031039854849195 0 -0.0011997317507028277 0.10355030778134479 0 -0.00061332216502514396 0.1037584491826683 0 -0.0011997317507028277 0.10355030778134479 0 -0.0010812424728606921 0.10405570164930354 0 -0.00061332216502514396 0.1037584491826683 0 -0.0011997317507028277 0.10355030778134479 0 -0.0014250508671680433 0.10348786559371154 0 -0.0013951224688082955 0.10376034067183298 0 -0.0011997317507028277 0.10355030778134479 0 -0.001478575239824193 0.10325324838121508 0 -0.0014250508671680433 0.10348786559371154 0 -0.0012548061709191476 0.1031039854849195 0 -0.0011997317507028277 0.10355030778134479 0 -0.001478575239824193 0.10325324838121508 0 -0.0012548061709191476 0.1031039854849195 0 -0.0015829163645195155 0.10306022273406423 0 -0.001478575239824193 0.10325324838121508 0 -0.0015829163645195155 0.10306022273406423 0 -0.001478575239824193 0.10325324838121508 0 -0.0017530867176631909 0.10312512895900233 0 -0.0015829163645195155 0.10306022273406423 0 -0.0017530867176631909 0.10312512895900233 0 -0.0016001135790232629 0.10298879802799843 0 -0.0017530867176631909 0.10312512895900233 0 -0.0016001135790232629 0.10298879802799843 0 -0.0016252704455362748 0.10278169288323132 0 -0.0035631967063675129 0.1009977408019565 0 -0.0035956252505695311 0.10073435243738493 0 -0.0017530867176631909 0.10312512895900233 0 -0.0016321579711928785 0.1033948521870873 0 -0.0019638888694942036 0.10392985616287274 0 -0.0017530867176631909 0.10312512895900233 0 -0.0019166740667566776 0.10262052608330208 0 -0.0016252704455362748 0.10278169288323132 0 -0.0035989944071782728 0.10086985846739217 0 -0.0035956252505695311 0.10073435243738493 0 -0.0016321579711928785 0.1033948521870873 0 -0.0013951224688082955 0.10376034067183298 0 -0.0018165210218275038 0.10378840981035901 0 -0.001478575239824193 0.10325324838121508 0 -0.0014250508671680433 0.10348786559371154 0 -0.0016321579711928785 0.1033948521870873 0 -0.001478575239824193 0.10325324838121508 0 -0.0017530867176631909 0.10312512895900233 0 -0.0016321579711928785 0.1033948521870873 0 -0.0014250508671680433 0.10348786559371154 0 -0.0016321579711928785 0.1033948521870873 0 -0.0013951224688082955 0.10376034067183298 0 -0.0013951224688082955 0.10376034067183298 0 -0.0018165210218275038 0.10378840981035901 0 -0.0014529065208002119 0.10422826542374246 0 -0.0035956252505695311 0.10073435243738493 0 -0.0029568829347885795 0.1001550199413172 0 -0.0018165210218275038 0.10378840981035901 0 -0.0014529065208002119 0.10422826542374246 0 -0.0018842409439899963 0.10469880641110269 0 -0.0014529065208002119 0.10422826542374246 0 -0.0010812424728606921 0.10405570164930354 0 -0.0011239724970054737 0.10476723905163463 0 -0.0010812424728606921 0.10405570164930354 0 -0.0011239724970054737 0.10476723905163463 0 -0.00059745248511463092 0.10427375076528055 0 -0.0013951224688082955 0.10376034067183298 0 -0.0014529065208002119 0.10422826542374246 0 -0.0010812424728606921 0.10405570164930354 0 -0.0011997317507028277 0.10355030778134479 0 -0.0013951224688082955 0.10376034067183298 0 -0.0010812424728606921 0.10405570164930354 0 -0.0014536778089840206 0.10300428862824881 0 -0.0008079191290882615 0.1026050574523326 0 -0.0013708199330125207 0.10273441640070143 0 -0.0011178920464936161 0.063144110726384151 0 -0.0019277555373580098 0.064718230124396967 0 -0.0025339965930127406 0.063183270237558042 0 -0.0018358055578129796 0.082910861830370983 0 -0.0019465936214077401 0.082462462383461818 0 -0.0008079191290882615 0.1026050574523326 0 -0.0013708199330125207 0.10273441640070143 0 -0.0011285229024716394 0.10235837599558707 0 -0.0014536778089840206 0.10300428862824881 0 -0.0013708199330125207 0.10273441640070143 0 -0.0016001135790232629 0.10298879802799843 0 -0.0013708199330125207 0.10273441640070143 0 -0.0016001135790232629 0.10298879802799843 0 -0.0016252704455362748 0.10278169288323132 0 -0.0019166740667566776 0.10262052608330208 0 -0.0015007137244180634 0.10226383352758307 0 -0.0016307978539764842 0.1015163811469436 0 -0.0035956252505695311 0.10073435243738493 0 -0.0037226395075085537 0.097635284315154697 0 -0.0013708199330125207 0.10273441640070143 0 -0.0016252704455362748 0.10278169288323132 0 -0.0015007137244180634 0.10226383352758307 0 -0.0019166740667566776 0.10262052608330208 0 -0.0016252704455362748 0.10278169288323132 0 -0.0015007137244180634 0.10226383352758307 0 -0.0013708199330125207 0.10273441640070143 0 -0.0015007137244180634 0.10226383352758307 0 -0.0011285229024716394 0.10235837599558707 0 -0.0015007137244180634 0.10226383352758307 0 -0.0011285229024716394 0.10235837599558707 0 -0.00082002223117991267 0.10180061185219853 0 -0.0008079191290882615 0.1026050574523326 0 -0.00082002223117991267 0.10180061185219853 0 -0.00024643481359163034 0.10175343158067279 0 -0.0008079191290882615 0.1026050574523326 0 -0.0011285229024716394 0.10235837599558707 0 -0.00082002223117991267 0.10180061185219853 0 -0.00082002223117991267 0.10180061185219853 0 -0.00098775255870554466 0.1011566586730579 0 -0.0016307978539764842 0.1015163811469436 0 -0.00082002223117991267 0.10180061185219853 0 -0.00098775255870554466 0.1011566586730579 0 -0.00042180071363606583 0.10104564884785271 0 -0.0015007137244180634 0.10226383352758307 0 -0.00082002223117991267 0.10180061185219853 0 -0.0016307978539764842 0.1015163811469436 0 -0.0037226395075085537 0.097635284315154697 0 -0.0032744645353686573 0.091301579789728055 0 -0.0035369612970182949 0.097427470871464444 0 -0.0042286240672022614 0.094913066619238179 0 -0.0021258519183788081 0.094937033899781254 0 -0.0035369612970182949 0.097427470871464444 0 -0.0042286240672022614 0.094913066619238179 0 -0.004590440109917663 0.097414414284630393 0 -0.0019571744029237984 0.097544565798616173 0 -0.0032744645353686573 0.091301579789728055 0 -0.0010616860134100563 0.10023576250157129 0 -0.00042180071363606583 0.10104564884785271 0 -0.00011282550093265943 0.10020044790158995 0 -0.00098775255870554466 0.1011566586730579 0 -0.0010616860134100563 0.10023576250157129 0 -0.00042180071363606583 0.10104564884785271 0 -0.0032744645353686573 0.091301579789728055 0 -0.0021425396308761609 0.08569161835465032 0 -0.00098775255870554466 0.1011566586730579 0 -0.0016307978539764842 0.1015163811469436 0 -0.0010616860134100563 0.10023576250157129 0 -0.0049497774678970603 0.099920341625183498 0 -0.0035369612970182949 0.097427470871464444 0 -0.004590440109917663 0.097414414284630393 0 -0.0014529065208002119 0.10422826542374246 0 -0.0011239724970054737 0.10476723905163463 0 -0.0018842409439899963 0.10469880641110269 0 -0.0019870479610636805 0.10549485656200476 0 -0.0011239724970054737 0.10476723905163463 0 -0.0018842409439899963 0.10469880641110269 0 -0.0019571744029237984 0.097544565798616173 0 -0.0029568829347885795 0.1001550199413172 0 -0.0019870479610636805 0.10549485656200476 0 -0.0011239724970054737 0.10476723905163463 0 -0.00089430622383106283 0.10550728173432973 0 -0.0011239724970054737 0.10476723905163463 0 -0.00050982259487959746 0.10487673609241165 0 -0.00089430622383106283 0.10550728173432973 0 -0.00050982259487959746 0.10487673609241165 0 0.00013400528644836723 0.10551124922911026 0 -0.00089430622383106283 0.10550728173432973 0 -0.0011239724970054737 0.10476723905163463 0 -0.00050982259487959746 0.10487673609241165 0 -0.00059745248511463092 0.10427375076528055 0 -0.00050982259487959746 0.10487673609241165 0 -0.00014408518721591046 0.10451816054869828 0 -0.00059745248511463092 0.10427375076528055 0 -0.00013714198724643859 0.104605436879632 0 6.6333608163012087e-05 0.10485423992088043 0 6.9882072217847065e-05 0.10451424864906583 0 -1.4134187446078511e-05 0.10498416272837316 0 -1.1342217677695314e-05 0.10499278107019662 0 -2.2749575908183278e-06 0.10499290049769726 0 -0.00019204789645999146 0.10468569152164796 0 -1.5347229896267991e-05 0.10488954424773306 0 -0.00019204789645999146 0.10468569152164796 0 -0.00019223536658655776 0.10468428553825104 0 -0.00019204789645999146 0.10468569152164796 0 -0.0002039454089951355 0.10456528695661049 0 -0.00050982259487959746 0.10487673609241165 0 -0.00014408518721591046 0.10451816054869828 0 -4.6555386958638788e-06 0.10500915315221851 0 -0.00050982259487959746 0.10487673609241165 0 -4.6555386958638788e-06 0.10500915315221851 0 0.00013400528644836723 0.10551124922911026 0 -0.0002039454089951355 0.10456528695661049 0 -0.00033737368964824115 0.10405288415293244 0 -1.1342217677695314e-05 0.10499278107019662 0 -5.5537739201831983e-06 0.10499543332343961 0 -8.8496794111892476e-06 0.10499923718066594 0 -5.5537739201831983e-06 0.10499543332343961 0 -2.2749575908183278e-06 0.10499290049769726 0 -1.6697801210109997e-06 0.10499900245310299 0 -2.2749575908183278e-06 0.10499290049769726 0 -8.0319918998875968e-07 0.10499930829262868 0 -1.6697801210109997e-06 0.10499900245310299 0 -5.5537739201831983e-06 0.10499543332343961 0 -1.6697801210109997e-06 0.10499900245310299 0 -8.8496794111892476e-06 0.10499923718066594 0 -1.1342217677695314e-05 0.10499278107019662 0 -5.5537739201831983e-06 0.10499543332343961 0 -2.2749575908183278e-06 0.10499290049769726 0 7.7940213829936977e-08 0.1049998326753831 0 -1.5347229896267991e-05 0.10488954424773306 0 4.6052398258878746e-09 0.10499999395119022 0 -2.2749575908183278e-06 0.10499290049769726 0 -8.0319918998875968e-07 0.10499930829262868 0 -1.6970145489371444e-07 0.10499994901590284 0 6.6333608163012087e-05 0.10485423992088043 0 4.2295076450136794e-07 0.10499964176935006 0 6.6333608163012087e-05 0.10485423992088043 0 6.9882072217847065e-05 0.10451424864906583 0 4.2295076450136794e-07 0.10499964176935006 0 6.9882072217847065e-05 0.10451424864906583 0 4.2295076450136794e-07 0.10499964176935006 0 0.00020616681393550158 0.10429650341609013 0 -1.6971325403111603e-08 0.10499744046652945 0 4.2295076450136794e-07 0.10499964176935006 0 0.00020616681393550158 0.10429650341609013 0 6.9882072217847065e-05 0.10451424864906583 0 0.00020616681393550158 0.10429650341609013 0 -6.669797724190538e-07 0.10396341929944271 0 0.00026270907664316845 0.10260887294739431 0 0.00020616681393550158 0.10429650341609013 0 -6.669797724190538e-07 0.10396341929944271 0 0.00026270907664316845 0.10260887294739431 0 -6.669797724190538e-07 0.10396341929944271 0 -0.00061332216502514396 0.1037584491826683 0 -6.669797724190538e-07 0.10396341929944271 0 -0.00061332216502514396 0.1037584491826683 0 -0.00023270578873514256 0.10421922991617918 0 -0.00061332216502514396 0.1037584491826683 0 -0.00059745248511463092 0.10427375076528055 0 -0.00023270578873514256 0.10421922991617918 0 -0.0010812424728606921 0.10405570164930354 0 -0.00061332216502514396 0.1037584491826683 0 -0.00059745248511463092 0.10427375076528055 0 -0.00013907408514257736 0.10464489152248305 0 -0.00059745248511463092 0.10427375076528055 0 -0.00015957597666178689 0.10454570443670845 0 -0.00059745248511463092 0.10427375076528055 0 -0.00015957597666178689 0.10454570443670845 0 -0.00023270578873514256 0.10421922991617918 0 -0.00019204789645999146 0.10468569152164796 0 -0.00027835181058204488 0.10462233545321685 0 6.9882072217847065e-05 0.10451424864906583 0 -0.00015957597666178689 0.10454570443670845 0 -0.00023270578873514256 0.10421922991617918 0 -0.00013714198724643859 0.104605436879632 0 6.9882072217847065e-05 0.10451424864906583 0 -0.00015957597666178689 0.10454570443670845 0 6.9882072217847065e-05 0.10451424864906583 0 -6.669797724190538e-07 0.10396341929944271 0 -0.00023270578873514256 0.10421922991617918 0 -0.0038028750930636014 0.054074137630459415 0 -0.0054230731191664411 0.051385872649882904 0 -0.0015756060835788372 0.052770644157651564 0 -0.0018403176544320072 0.051417974717120639 0 -0.0012207625919072563 0.052282838291839176 0 0.00034485328590342154 0.058806887273244832 0 -0.00048025051416576074 0.058671072234283028 0 -0.00027668991663052853 0.059078298190659767 0 0.00034485328590342154 0.058806887273244832 0 0.00019276274433161438 0.058921187973043944 0 -0.00027668991663052853 0.059078298190659767 0 0.00034485328590342154 0.058806887273244832 0 0.00020870509360949337 0.058624088633027732 0 0.00019276274433161438 0.058921187973043944 0 0.00034485328590342154 0.058806887273244832 0 0.00031224342642633708 0.057962149121599492 0 0.00053435285191749411 0.058990591299761835 0 0.00034485328590342154 0.058806887273244832 0 0.00031224342642633708 0.057962149121599492 0 -0.00048025051416576074 0.058671072234283028 0 -0.0038028750930636014 0.054074137630459415 0 -0.0032684693301400823 0.054535951319633957 0 0.00031224342642633708 0.057962149121599492 0 -0.00048025051416576074 0.058671072234283028 0 -0.00046536856234212135 0.055505568224410128 0 -0.0015756060835788372 0.052770644157651564 0 -0.00046536856234212135 0.055505568224410128 0 -0.00035394104756846819 0.053438251087899333 0 -0.00046536856234212135 0.055505568224410128 0 1.19852220623533e-06 0.053905753786281256 0 0.00035540397664361343 0.057793280113544912 0 -0.00046536856234212135 0.055505568224410128 0 1.19852220623533e-06 0.053905753786281256 0 -5.3294303019401039e-06 0.052676835439894799 0 1.19852220623533e-06 0.053905753786281256 0 0.00035540397664361343 0.057793280113544912 0 1.0765753538887822e-06 0.059668411075010773 0 0.00031224342642633708 0.057962149121599492 0 -0.00046536856234212135 0.055505568224410128 0 0.00035540397664361343 0.057793280113544912 0 0.00031224342642633708 0.057962149121599492 0 0.00035540397664361343 0.057793280113544912 0 0.00053435285191749411 0.058990591299761835 0 0.00053435285191749411 0.058990591299761835 0 0.00022741504072415096 0.06080983209268008 0 7.1074598005524715e-05 0.060456085551400446 0 0.00035540397664361343 0.057793280113544912 0 0.00053435285191749411 0.058990591299761835 0 0.00022741504072415096 0.06080983209268008 0 1.0765753538887822e-06 0.059668411075010773 0 0.00022741504072415096 0.06080983209268008 0 -1.3679284754137215e-06 0.065429942388875326 0 0.00035540397664361343 0.057793280113544912 0 1.0765753538887822e-06 0.059668411075010773 0 0.00022741504072415096 0.06080983209268008 0 0.00022741504072415096 0.06080983209268008 0 -1.3679284754137215e-06 0.065429942388875326 0 -0.00043963201953072575 0.063139436896725354 0 -0.00043963201953072575 0.063139436896725354 0 7.1074598005524715e-05 0.060456085551400446 0 -0.0016286761250648108 0.061168505617995084 0 0.00022741504072415096 0.06080983209268008 0 -0.00043963201953072575 0.063139436896725354 0 7.1074598005524715e-05 0.060456085551400446 0 7.1074598005524715e-05 0.060456085551400446 0 -0.00076052149373743289 0.059778662240132063 0 -0.0016286761250648108 0.061168505617995084 0 -0.00076052149373743289 0.059778662240132063 0 -0.00053990324939744887 0.058820555954755008 0 -0.0014508916023195373 0.059196670412693553 0 -0.00076052149373743289 0.059778662240132063 0 0.00023554178428947863 0.059169011199736915 0 -0.00053990324939744887 0.058820555954755008 0 7.1074598005524715e-05 0.060456085551400446 0 -0.00076052149373743289 0.059778662240132063 0 0.00023554178428947863 0.059169011199736915 0 0.00034485328590342154 0.058806887273244832 0 0.00053435285191749411 0.058990591299761835 0 0.00023554178428947863 0.059169011199736915 0 0.00053435285191749411 0.058990591299761835 0 7.1074598005524715e-05 0.060456085551400446 0 0.00023554178428947863 0.059169011199736915 0 0.0003448532859034215