<?xml version="1.0"?>
<VTKFile type="UnstructuredGrid" version="0.1" byte_order="LittleEndian">
<UnstructuredGrid>
<Piece NumberOfPoints="30618" NumberOfCells="10744">
<Points>
<DataArray type="Float64" NumberOfComponents="3" format="ascii">
-0.49427958746526202 -0.49999999999999512 0 -0.4943900888896422 -0.47349089190363358 0 -0.49427958746526202 -0.49999999999999512 0 -0.5 -0.5 0 -0.4943900888896422 -0.47349089190363358 0 -0.5 -0.5 0 -0.4943900888896422 -0.47349089190363358 0 -0.5 -0.44150235328842258 0 -0.49427958746526202 -0.49999999999999512 0 -0.4943900888896422 -0.47349089190363358 0 -0.48436842240857858 -0.48714093788813112 0 -0.49427958746526202 -0.49999999999999512 0 -0.47650045540741742 -0.5 0 -0.48436842240857858 -0.48714093788813112 0 -0.4943900888896422 -0.47349089190363358 0 -0.47066899942757451 -0.47576530412887819 0 -0.48436842240857858 -0.48714093788813112 0 -0.47066899942757451 -0.47576530412887819 0 -0.47650045540741742 -0.5 0 -0.48436842240857858 -0.48714093788813112 0 -0.47066899942757451 -0.47576530412887819 0 -0.45872132334957288 -0.49999999999999928 0 -0.45242967983978871 -0.4846708604340636 0 -0.47066899942757451 -0.47576530412887819 0 -0.47650045540741742 -0.5 0 -0.45872132334957288 -0.49999999999999928 0 -0.47066899942757451 -0.47576530412887819 0 -0.45872132334957288 -0.49999999999999928 0 -0.47066899942757451 -0.47576530412887819 0 -0.45242967983978871 -0.4846708604340636 0 -0.45249717469141032 -0.46588444847215849 0 -0.43763952177061649 -0.47770500498713542 0 -0.45242967983978871 -0.4846708604340636 0 -0.45249717469141032 -0.46588444847215849 0 -0.43763952177061649 -0.47770500498713542 0 -0.44291044788006362 -0.49999999999999939 0 -0.45242967983978871 -0.4846708604340636 0 -0.43763952177061649 -0.47770500498713542 0 -0.44291044788006362 -0.49999999999999939 0 -0.45872132334957288 -0.49999999999999928 0 -0.44291044788006362 -0.49999999999999939 0 -0.45242967983978871 -0.4846708604340636 0 -0.44838221886832419 -0.4464230337388379 0 -0.4323685956611692 -0.45541000997427139 0 -0.435988539966085 -0.44148905847597392 0 -0.44838221886832419 -0.4464230337388379 0 -0.44213238819953832 -0.43491600865963681 0 -0.435988539966085 -0.44148905847597392 0 -0.44838221886832419 -0.4464230337388379 0 -0.45249717469141032 -0.46588444847215849 0 -0.45755175660874181 -0.45423607616472811 0 -0.44838221886832419 -0.4464230337388379 0 -0.45249717469141032 -0.46588444847215849 0 -0.4323685956611692 -0.45541000997427139 0 -0.43763952177061649 -0.47770500498713542 0 -0.45249717469141032 -0.46588444847215849 0 -0.4323685956611692 -0.45541000997427139 0 -0.47066899942757451 -0.47576530412887819 0 -0.45249717469141032 -0.46588444847215849 0 -0.4675747862741928 -0.45726336772241771 0 -0.45249717469141032 -0.46588444847215849 0 -0.45755175660874181 -0.45423607616472811 0 -0.4675747862741928 -0.45726336772241771 0 -0.44838221886832419 -0.4464230337388379 0 -0.46897642374787268 -0.44262015471777721 0 -0.45660235518767722 -0.42786105997071933 0 -0.44838221886832419 -0.4464230337388379 0 -0.45755175660874181 -0.45423607616472811 0 -0.46897642374787268 -0.44262015471777721 0 -0.45755175660874181 -0.45423607616472811 0 -0.4675747862741928 -0.45726336772241771 0 -0.46897642374787268 -0.44262015471777721 0 -0.4943900888896422 -0.47349089190363358 0 -0.5 -0.44150235328842258 0 -0.49450059031402238 -0.44698178380727199 0 -0.46897642374787268 -0.44262015471777721 0 -0.48473746643246862 -0.43972512984246093 0 -0.48043585850414389 -0.43127077967876992 0 -0.46897642374787268 -0.44262015471777721 0 -0.4826166755055763 -0.45153060825775743 0 -0.48473746643246862 -0.43972512984246093 0 -0.4675747862741928 -0.45726336772241771 0 -0.46897642374787268 -0.44262015471777721 0 -0.4826166755055763 -0.45153060825775743 0 -0.47066899942757451 -0.47576530412887819 0 -0.4826166755055763 -0.45153060825775743 0 -0.4943900888896422 -0.47349089190363358 0 -0.47066899942757451 -0.47576530412887819 0 -0.4826166755055763 -0.45153060825775743 0 -0.47066899942757451 -0.47576530412887819 0 -0.4675747862741928 -0.45726336772241771 0 -0.4826166755055763 -0.45153060825775743 0 -0.4943900888896422 -0.47349089190363358 0 -0.49450059031402238 -0.44698178380727199 0 -0.4943900888896422 -0.47349089190363358 0 -0.4826166755055763 -0.45153060825775743 0 -0.49450059031402238 -0.44698178380727199 0 -0.4826166755055763 -0.45153060825775743 0 -0.48473746643246862 -0.43972512984246093 0 -0.49450059031402238 -0.44698178380727199 0 -0.5 -0.44150235328842258 0 -0.49461109173840262 -0.42047267571091063 0 -0.5 -0.39656953661894012 0 -0.49450059031402238 -0.44698178380727199 0 -0.49461109173840262 -0.42047267571091063 0 -0.48473746643246862 -0.43972512984246093 0 -0.49461109173840262 -0.42047267571091063 0 -0.48043585850414389 -0.43127077967876992 0 -0.5 -0.44150235328842258 0 -0.49450059031402238 -0.44698178380727199 0 -0.49461109173840262 -0.42047267571091063 0 -0.48473746643246862 -0.43972512984246093 0 -0.49450059031402238 -0.44698178380727199 0 -0.49461109173840262 -0.42047267571091063 0 -0.49461109173840262 -0.42047267571091063 0 -0.4947215931627828 -0.39396356761454909 0 -0.49461109173840262 -0.42047267571091063 0 -0.48393842445605872 -0.40713040098299402 0 -0.4947215931627828 -0.39396356761454909 0 -0.49461109173840262 -0.42047267571091063 0 -0.48393842445605872 -0.40713040098299402 0 -0.47214510592166908 -0.41939033492402211 0 -0.48393842445605872 -0.40713040098299402 0 -0.47214510592166908 -0.41939033492402211 0 -0.47427590700138023 -0.39469502568249409 0 -0.46897642374787268 -0.44262015471777721 0 -0.47214510592166908 -0.41939033492402211 0 -0.48043585850414389 -0.43127077967876992 0 -0.49461109173840262 -0.42047267571091063 0 -0.47214510592166908 -0.41939033492402211 0 -0.48043585850414389 -0.43127077967876992 0 -0.5 -0.39656953661894012 0 -0.4947215931627828 -0.39396356761454909 0 -0.48030453056746109 -0.36861144308094029 0 -0.49461109173840262 -0.42047267571091063 0 -0.5 -0.39656953661894012 0 -0.4947215931627828 -0.39396356761454909 0 -0.48393842445605872 -0.40713040098299402 0 -0.4947215931627828 -0.39396356761454909 0 -0.47427590700138023 -0.39469502568249409 0 -0.47427590700138023 -0.39469502568249409 0 -0.48030453056746109 -0.36861144308094029 0 -0.4947215931627828 -0.39396356761454909 0 -0.47427590700138023 -0.39469502568249409 0 -0.48030453056746109 -0.36861144308094029 0 -0.47427590700138023 -0.39469502568249409 0 -0.46334377193483078 -0.37842983215876019 0 -0.48030453056746109 -0.36861144308094029 0 -0.46334377193483078 -0.37842983215876019 0 -0.45726543839001688 -0.40541672899881109 0 -0.44416021803808919 -0.38243724496113263 0 -0.47427590700138023 -0.39469502568249409 0 -0.46334377193483078 -0.37842983215876019 0 -0.45726543839001688 -0.40541672899881109 0 -0.45726543839001688 -0.40541672899881109 0 -0.43814282409564848 -0.40387353522152758 0 -0.44416021803808919 -0.38243724496113263 0 -0.43814282409564848 -0.40387353522152758 0 -0.44416021803808919 -0.38243724496113263 0 -0.4329908326547659 -0.40007252460533121 0 -0.43814282409564848 -0.40387353522152758 0 -0.44416021803808919 -0.38243724496113263 0 -0.46897642374787268 -0.44262015471777721 0 -0.47214510592166908 -0.41939033492402211 0 -0.45660235518767722 -0.42786105997071933 0 -0.47214510592166908 -0.41939033492402211 0 -0.47427590700138023 -0.39469502568249409 0 -0.45726543839001688 -0.40541672899881109 0 -0.47214510592166908 -0.41939033492402211 0 -0.45726543839001688 -0.40541672899881109 0 -0.45660235518767722 -0.42786105997071933 0 -0.45726543839001688 -0.40541672899881109 0 -0.45660235518767722 -0.42786105997071933 0 -0.44309263043645408 -0.41812298423377797 0 -0.45726543839001688 -0.40541672899881109 0 -0.43814282409564848 -0.40387353522152758 0 -0.44309263043645408 -0.41812298423377797 0 -0.43814282409564848 -0.40387353522152758 0 -0.44309263043645408 -0.41812298423377797 0 -0.43209373842114163 -0.42530092927673752 0 -0.44838221886832419 -0.4464230337388379 0 -0.45660235518767722 -0.42786105997071933 0 -0.44213238819953832 -0.43491600865963681 0 -0.45660235518767722 -0.42786105997071933 0 -0.44213238819953832 -0.43491600865963681 0 -0.43132710435572019 -0.42815377149591122 0 -0.45660235518767722 -0.42786105997071933 0 -0.44309263043645408 -0.41812298423377797 0 -0.43132710435572019 -0.42815377149591122 0 -0.45660235518767722 -0.42786105997071933 0 -0.43132710435572019 -0.42815377149591122 0 -0.44213238819953832 -0.43491600865963681 0 -0.42986244815509678 -0.43337144475258638 0 -0.435988539966085 -0.44148905847597392 0 -0.44213238819953832 -0.43491600865963681 0 -0.42986244815509678 -0.43337144475258638 0 -0.43132710435572019 -0.42815377149591122 0 -0.42986244815509678 -0.43337144475258638 0 -0.43132710435572019 -0.42815377149591122 0 -0.42986244815509678 -0.43337144475258638 0 -0.42494843276815808 -0.42822764260015772 0 -0.42026026496879931 -0.43681168621285732 0 -0.42986244815509678 -0.43337144475258638 0 -0.42494843276815808 -0.42822764260015772 0 -0.43132710435572019 -0.42815377149591122 0 -0.42494843276815808 -0.42822764260015772 0 -0.43209373842114163 -0.42530092927673752 0 -0.42214799869492048 -0.41876725226122891 0 -0.42494843276815808 -0.42822764260015772 0 -0.43209373842114163 -0.42530092927673752 0 -0.42494843276815808 -0.42822764260015772 0 -0.43209373842114163 -0.42530092927673752 0 -0.43132710435572019 -0.42815377149591122 0 -0.42494843276815808 -0.42822764260015772 0 -0.43132710435572019 -0.42815377149591122 0 -0.44309263043645408 -0.41812298423377797 0 -0.43209373842114163 -0.42530092927673752 0 -0.43132710435572019 -0.42815377149591122 0 -0.43209373842114163 -0.42530092927673752 0 -0.43132710435572019 -0.42815377149591122 0 -0.43814282409564848 -0.40387353522152758 0 -0.43209373842114163 -0.42530092927673752 0 -0.43814282409564848 -0.40387353522152758 0 -0.43209373842114163 -0.42530092927673752 0 -0.42736227186559528 -0.41250939947999687 0 -0.43814282409564848 -0.40387353522152758 0 -0.42736227186559528 -0.41250939947999687 0 -0.42798743510346321 -0.40461924019690898 0
[...]
<PointData Scalars="" Vectors="displacement," Tensors="">
<DataArray type="Float64" Name="displacement" NumberOfComponents="3" format="ascii">
0.0049427519915982241 -2.2070127552739445e-08 0 0.0048094275222415753 -4.083038406525961e-05 0 0.0049433886266989887 -6.4142318565205718e-08 0 0.0049996112101053794 4.6757634813152711e-08 0 0.0049988846482188114 -1.6133697434953561e-07 0 0.0049996112101053794 4.6757634813152711e-08 0 0.0049988846482188114 -1.6133697434953561e-07 0 0.0050001642295816797 -4.3049404752383845e-08 0 0.0049425255455880727 -2.4227847267650418e-07 0 0.0046246992891064952 -9.612279123835462e-05 0 0.0047639329528488374 8.7218206378974749e-06 0 0.0049425255455880727 -2.4227847267650418e-07 0 0.0047648919178901886 1.4263114411707702e-07 0 0.0047639329528488374 8.7218206378974749e-06 0 0.0046246992891064952 -9.612279123835462e-05 0 0.0046803712015814018 7.4939380364477486e-05 0 0.0047639329528488374 8.7218206378974749e-06 0 0.0046803712015814018 7.4939380364477486e-05 0 0.0047648919178901886 1.4263114411707702e-07 0 0.0047639329528488374 8.7218206378974749e-06 0 0.0043721033709148271 -8.9821064017156992e-05 0 0.0045865980011089262 -2.4007581227551977e-07 0 0.0044421153306423641 -2.5838067671967749e-06 0 0.0046803712015814018 7.4939380364477486e-05 0 0.0047648919178901886 1.4263114411707702e-07 0 0.0045876263744731591 -2.4854745198553435e-08 0 0.0045222554526955609 -5.3381777833469332e-06 0 0.0045872020775273234 5.5273837022133551e-10 0 0.0043721033709148271 -8.9821064017156992e-05 0 0.0044421153306423641 -2.5838067671967749e-06 0 0.0043487477963605791 -5.1687667281847733e-05 0 0.0044098409939963088 1.8284245099715893e-05 0 0.0044421153306423641 -2.5838067671967749e-06 0 0.0043487477963605791 -5.1687667281847733e-05 0 0.0044098409939963088 1.8284245099715893e-05 0 0.0044296435748039896 1.8761027100850765e-07 0 0.0044421153306423641 -2.5838067671967749e-06 0 0.0042885880223383233 7.7097722209071349e-06 0 0.0044290528140790248 1.3471537840660443e-09 0 0.0045865980011089262 -2.4007581227551977e-07 0 0.0044296435748039896 1.8761027100850765e-07 0 0.0044421153306423641 -2.5838067671967749e-06 0 0.0043097383997760304 -7.158068065461671e-05 0 0.004227013798347775 -1.6696050888296007e-06 0 0.0042611293756113213 -4.2534478973408566e-05 0 0.0043097383997760304 -7.158068065461671e-05 0 0.0043081356434234216 -7.5573626513745969e-05 0 0.0042611293756113213 -4.2534478973408566e-05 0 0.0043097383997760304 -7.158068065461671e-05 0 0.0043487477963605791 -5.1687667281847733e-05 0 0.0043450781332318531 -6.6693668212279474e-05 0 0.0043097383997760304 -7.158068065461671e-05 0 0.0043487477963605791 -5.1687667281847733e-05 0 0.004227013798347775 -1.6696050888296007e-06 0 0.0044098409939963088 1.8284245099715893e-05 0 0.0043487477963605791 -5.1687667281847733e-05 0 0.004227013798347775 -1.6696050888296007e-06 0 0.0043721033709148271 -8.9821064017156992e-05 0 0.0043487477963605791 -5.1687667281847733e-05 0 0.0043698440414247806 -6.6109258985839908e-05 0 0.0043487477963605791 -5.1687667281847733e-05 0 0.0043450781332318531 -6.6693668212279474e-05 0 0.0043698440414247806 -6.6109258985839908e-05 0 0.0043097383997760304 -7.158068065461671e-05 0 0.0043896507106286706 -6.8886935916840126e-05 0 0.0044315953723936324 -0.00014585742143247458 0 0.0043097383997760304 -7.158068065461671e-05 0 0.0043450781332318531 -6.6693668212279474e-05 0 0.0043896507106286706 -6.8886935916840126e-05 0 0.0043450781332318531 -6.6693668212279474e-05 0 0.0043698440414247806 -6.6109258985839908e-05 0 0.0043896507106286706 -6.8886935916840126e-05 0 0.0049988846482188114 -1.6133697434953561e-07 0 0.0050001642295816797 -4.3049404752383845e-08 0 0.0049994324403688584 -2.5134885530973407e-07 0 0.0043896507106286706 -6.8886935916840126e-05 0 0.0044349742562579987 -1.1730698909056105e-05 0 0.004486955671520537 -2.0621721720557694e-05 0 0.0043896507106286706 -6.8886935916840126e-05 0 0.0044112011022895475 -8.6108741300596404e-06 0 0.0044349742562579987 -1.1730698909056105e-05 0 0.0043698440414247806 -6.6109258985839908e-05 0 0.0043896507106286706 -6.8886935916840126e-05 0 0.0044112011022895475 -8.6108741300596404e-06 0 0.0045222554526955609 -5.3381777833469332e-06 0 0.0044215835003361932 -1.3952543980276495e-05 0 0.0046246992891064952 -9.612279123835462e-05 0 0.0046803712015814018 7.4939380364477486e-05 0 0.0044112011022895475 -8.6108741300596404e-06 0 0.0043721033709148271 -8.9821064017156992e-05 0 0.0043698440414247806 -6.6109258985839908e-05 0 0.0044112011022895475 -8.6108741300596404e-06 0 0.0048094275222415753 -4.083038406525961e-05 0 0.0047119926602920631 -8.1540902367067585e-06 0 0.0046246992891064952 -9.612279123835462e-05 0 0.0044112011022895475 -8.6108741300596404e-06 0 0.0044025750315900194 -1.9925206382881278e-05 0 0.0044112011022895475 -8.6108741300596404e-06 0 0.0044349742562579987 -1.1730698909056105e-05 0 0.0044025750315900194 -1.9925206382881278e-05 0 0.0050001642295816797 -4.3049404752383845e-08 0 0.0050008492087813203 3.3961389054336723e-07 0 0.004999715122516955 1.2702249495137854e-07 0 0.0047119926602920631 -8.1540902367067585e-06 0 0.0047957075619729358 3.772236802307074e-05 0 0.0044349742562579987 -1.1730698909056105e-05 0 0.0045813611736367985 9.4191349838187546e-05 0 0.004486955671520537 -2.0621721720557694e-05 0 0.0050001642295816797 -4.3049404752383845e-08 0 0.0049994324403688584 -2.5134885530973407e-07 0 0.0050008492087813203 3.3961389054336723e-07 0 0.0044349742562579987 -1.1730698909056105e-05 0 0.0044025750315900194 -1.9925206382881278e-05 0 0.0045813611736367985 9.4191349838187546e-05 0 0.0047957075619729358 3.772236802307074e-05 0 0.0049627433108952821 1.9453751499925133e-05 0 0.0045813611736367985 9.4191349838187546e-05 0 0.0047616457024370938 -1.630091041860629e-05 0 0.0049807322166469702 1.0699556175574117e-05 0 0.0045813611736367985 9.4191349838187546e-05 0 0.0047616457024370938 -1.630091041860629e-05 0 0.004578210545116806 -7.6604594799609048e-05 0 0.0047616457024370938 -1.630091041860629e-05 0 0.004578210545116806 -7.6604594799609048e-05 0 0.0048847768832742172 -7.1992522666448029e-05 0 0.0043896507106286706 -6.8886935916840126e-05 0 0.004578210545116806 -7.6604594799609048e-05 0 0.004486955671520537 -2.0621721720557694e-05 0 0.0045813611736367985 9.4191349838187546e-05 0 0.004578210545116806 -7.6604594799609048e-05 0 0.004486955671520537 -2.0621721720557694e-05 0 0.004999715122516955 1.2702249495137854e-07 0 0.0049807322166469702 1.0699556175574117e-05 0 0.0049938352490164189 -6.3068228727678729e-06 0 0.0050008492087813203 3.3961389054336723e-07 0 0.004999715122516955 1.2702249495137854e-07 0 0.0049807322166469702 1.0699556175574117e-05 0 0.0047616457024370938 -1.630091041860629e-05 0 0.0049807322166469702 1.0699556175574117e-05 0 0.0048847768832742172 -7.1992522666448029e-05 0 0.0048828150095061142 -6.8835403969619218e-05 0 0.0050522739397279182 -1.7563803840434287e-05 0 0.0049807322166469702 1.0699556175574117e-05 0 0.0048847768832742172 -7.1992522666448029e-05 0 0.0049938352490164189 -6.3068228727678729e-06 0 0.0048847768832742172 -7.1992522666448029e-05 0 0.0050058005115722806 -0.00016002245141345087 0 0.0050810919582265392 -3.1358700268184877e-05 0 0.0050058005115722806 -0.00016002245141345087 0 0.0047400903856541941 -0.00020480263284033129 0 0.0049645935450897656 -0.0003343129655632682 0 0.0048847768832742172 -7.1992522666448029e-05 0 0.0050058005115722806 -0.00016002245141345087 0 0.0047400903856541941 -0.00020480263284033129 0 0.0047400903856541941 -0.00020480263284033129 0 0.0047477378965755587 -0.00040591408112723254 0 0.0049645935450897656 -0.0003343129655632682 0 0.0038454210828177612 -0.00012207623570656051 0 0.0040518606795976473 -4.535974719012276e-05 0 0.0038708957770793168 -0.00015619994223439428 0 0.0042978198283397081 -0.00026952821343874628 0 0.0045171575392007829 -0.00019197219845958771 0 0.0043896507106286706 -6.8886935916840126e-05 0 0.004578210545116806 -7.6604594799609048e-05 0 0.0044315953723936324 -0.00014585742143247458 0 0.004578210545116806 -7.6604594799609048e-05 0 0.0048847768832742172 -7.1992522666448029e-05 0 0.0047400903856541941 -0.00020480263284033129 0 0.004578210545116806 -7.6604594799609048e-05 0 0.0047400903856541941 -0.00020480263284033129 0 0.0044315953723936324 -0.00014585742143247458 0 0.0047400903856541941 -0.00020480263284033129 0 0.0044315953723936324 -0.00014585742143247458 0 0.0045707761299806507 -0.0003483184608631376 0 0.0047400903856541941 -0.00020480263284033129 0 0.0047477378965755587 -0.00040591408112723254 0 0.0045707761299806507 -0.0003483184608631376 0 0.0047477378965755587 -0.00040591408112723254 0 0.0045707761299806507 -0.0003483184608631376 0 0.0044716424437986537 -0.00049876939677819844 0 0.0043097383997760304 -7.158068065461671e-05 0 0.0044315953723936324 -0.00014585742143247458 0 0.0043081356434234216 -7.5573626513745969e-05 0 0.0044315953723936324 -0.00014585742143247458 0 0.0043081356434234216 -7.5573626513745969e-05 0 0.0042256802153758056 -3.4632669622728506e-05 0 0.0044315953723936324 -0.00014585742143247458 0 0.0045707761299806507 -0.0003483184608631376 0 0.0044316166429561521 -0.00051020247591222084 0 0.0044349076059942167 -0.00016410582992834754 0 0.0042231529314923815 -0.00020895966582989373 0 0.0043081356434234216 -7.5573626513745969e-05 0 0.0042289876653848904 -2.6771112569640206e-05 0 0.0042611293756113213 -4.2534478973408566e-05 0 0.0043081356434234216 -7.5573626513745969e-05 0 0.0042289876653848904 -2.6771112569640206e-05 0 0.0042256802153758056 -3.4632669622728506e-05 0 0.0042443878466922776 -0.00015900816503130241 0 0.0042231529314923815 -0.00020895966582989373 0 0.0042289876653848904 -2.6771112569640206e-05 0 0.0042065139184207945 -1.3523736179777821e-05 0 0.0041839148516261701 -8.1688570672303651e-06 0 0.0042289876653848904 -2.6771112569640206e-05 0 0.0042065139184207945 -1.3523736179777821e-05 0 0.0042085844418642011 -3.4201415990459114e-05 0 0.0037953902361230799 -0.00016805489642209026 0 0.0037999525605327297 -0.00015309999042134107 0 0.0038145167238867882 -0.00017367506093670206 0 0.0040001319697758027 -0.00011015174112230763 0 0.0041198049793138543 -0.00025249851563646086 0 0.0040905128046006285 -0.00016659143290999066 0 0.0040917258505514522 -0.00016463289675502647 0 0.0040908275660077693 -0.00016480984681239947 0 0.0040001319697758027 -0.00011015174112230763 0 0.0042231529314923815 -0.00020895966582989373 0 0.0045707761299806507 -0.0003483184608631376 0 0.0044716424437986537 -0.00049876939677819844 0 0.0044316166429561521 -0.00051020247591222084 0 0.0041198049793138543 -0.00025249851563646086 0 0.0042231529314923815 -0.00020895966582989373 0 0.0042978198283397081 -0.00026952821343874628 0 0.0041198049793138543 -0.00025249851563646086 0 0.0038454210828177612 -0.00012207623570656051 0 0.0037999525605327297 -0.00015309999042134107 0 0.0038278454108361818 -0.00016236848872062923 0 0.0038454210828177612 -0.00012207623570656051 0 0.0038278454108361818 -0.00016236848872062923 0 0.0038507245401889702 -0.00016440899302313266 0 0.0038278454108361818 -0.00016236848872062923 0 0.0038145167238867882 -0.00017367506093670206 0 0.0038335554359026358 -0.00018615974016325041 0 0.0038278454108361818 -0.00016236848872062923 0 0.0038335554359026358 -0.00018615974016325041 0 0.0038507245401889702 -0.00016440899302313266 0 0.0037999525605327297 -0.00015309999042134107 0 0.0038278454108361818 -0.00016236848872062923 0 0.0038145167238867882 -0.00017367506093670206 0 0.0038335554359026358 -0.00018615974016325041 0 0.0038128805056889549 -0.0001917540829508313 0 0.0038232666951079947 -0.00021470582151571937 0 0.0038335554359026358 -0.00018615974016325041 0 0.0038459681585794334 -0.00020764583216313569 0 0.0038232666951079947 -0.00021470582151571937 0 0.0038145167238867882 -0.00017367506093670206 0 0.0038335554359026358 -0.00018615974016325041 0 0.0038128805056889549 -0.0001917540829508313 0 0.0042065139184207945 -1.3523736179777821e-05 0 0.0041839148516261701 -8.1688570672303651e-06 0 0.0041209454318500635 -2.9606883616541012e-06 0 0.0040001319697758027 -0.00011015174112230763 0 0.0039418548055709032 -7.8853391793957512e-06 0 0.0037553308280035293 -7.5314080285859169e-05 0 0.0037613144765199164 -4.8845262269669447e-05 0 0.0037506926575741903 -4.6749768390598662e-05 0 0.0040001319697758027 -0.00011015174112230763 0 0.0037531177685435468 -0.00013304953713935881 0 0.0037953902361230799 -0.00016805489642209026 0 0.0038128805056889549 -0.0001917540829508313 0 0.0037972258638248962 -0.00021290396785448866 0 0.0037953902361230799 -0.00016805489642209026 0 0.0038145167238867882 -0.00017367506093670206 0 0.0038128805056889549 -0.0001917540829508313 0 0.0038794860000952946 -0.00014708117879040416 0 0.003976995811646262 -0.00029960444857305644 0 0.0038708957770793168 -0.00015619994223439428 0 0.0038717363568794043 -0.00018245187208957328 0 0.0038862714057359389 -0.00018371429124662179 0 0.0040564437001078309 -0.00016345448351982094 0 0.0038708957770793168 -0.00015619994223439428 0 0.0041099625696557418 -0.00030680261324716291 0 0.0040518606795976473 -4.535974719012276e-05 0 0.0040564437001078309 -0.00016345448351982094 0 0.0038708957770793168 -0.00015619994223439428 0 0.0040564437001078309 -0.00016345448351982094 0 0.0041099625696557418 -0.00030680261324716291 0 0.0041962565009595835 -0.00014524808639400369 0 0.0040518606795976473 -4.535974719012276e-05 0 0.0040564437001078309 -0.00016345448351982094 0 0.0041962565009595835 -0.00014524808639400369 0 0.0038708957770793168 -0.00015619994223439428 0 0.0038560528746163433 -0.00017659629877452501 0 0.0038717363568794043 -0.00018245187208957328 0 0.0038454210828177612 -0.00012207623570656051 0 0.0038708957770793168 -0.00015619994223439428 0 0.0038507245401889702 -0.00016440899302313266 0 0.0038708957770793168 -0.00015619994223439428 0 0.0038507245401889702 -0.00016440899302313266 0 0.0038560528746163433 -0.00017659629877452501 0 0.0038335554359026358 -0.00018615974016325041 0 0.0038507245401889702 -0.00016440899302313266 0 0.0038560528746163433 -0.00017659629877452501 0 0.0038600851456082538 -0.00020385679579343501 0 0.0038717363568794043 -0.00018245187208957328 0 0.0038757958934090577 -0.00021282415527324819 0 0.0038335554359026358 -0.00018615974016325041 0 0.0038560528746163433 -0.00017659629877452501 0 0.0038539518315545804 -0.00019122829948421335 0 0.0038335554359026358 -0.00018615974016325041 0 0.0038539518315545804 -0.00019122829948421335 0 0.0038459681585794334 -0.00020764583216313569 0 0.0038539518315545804 -0.00019122829948421335 0 0.0038600851456082538 -0.00020385679579343501 0 0.0038459681585794334 -0.00020764583216313569 0 0.0038539518315545804 -0.00019122829948421335 0 0.0038600851456082538 -0.00020385679579343501 0 0.0038717363568794043 -0.00018245187208957328 0 0.0038560528746163433 -0.00017659629877452501 0 0.0038539518315545804 -0.00019122829948421335 0 0.0038717363568794043 -0.00018245187208957328 0 0.0038754602451082508 -0.00019850493578861514 0 0.0037069951744405708 -0.00021783606751633156 0 0.0038717363568794043 -0.00018245187208957328 0 0.0038811725921234132 -0.00019254996678681125 0 0.0038750661070939673 -0.00020304502253259475 0 0.0038717363568794043 -0.00018245187208957328 0 0.0038814626933392779 -0.00018609792664158332 0 0.0038862714057359389 -0.00018371429124662179 0 0.0038717363568794043 -0.00018245187208957328 0 0.0038812996964527557 -0.0001897223037151612 0 0.0038814626933392779 -0.00018609792664158332 0 0.0038717363568794043 -0.00018245187208957328 0 0.0038812996964527557 -0.0001897223037151612 0 0.0038811725921234132 -0.00019254996678681125 0 0.0037596603694487929 -0.00030159948387386849 0 0.0036942626334393667 -0.00025333247147301389 0 0.0038812996964527557 -0.0001897223037151612 0 0.0038834696031160745 -0.00018823095782257836 0 0.0038810645974433557 -0.00019266348542522056 0 0.0035145734018745762 -0.00029971410932418943 0 0.0035190537725234079 -0.00029031032876756249 0 0.0034823187985154659 -0.00027051292366742183 0 0.0037056623860335443 -0.00023960847283238274 0 0.0036942626334393667 -0.00025333247147301389 0 0.0037596603694487929 -0.00030159948387386849 0 0.003976995811646262 -0.00029960444857305644 0 0.0038833366562551772 -0.00018816735297214911 0 0.0038814626933392779 -0.00018609792664158332 0 0.0038862714057359389 -0.00018371429124662179 0 0.0038812996964527557 -0.0001897223037151612 0 0.0038834696031160745 -0.00018823095782257836 0 0.0038814626933392779 -0.00018609792664158332 0 0.0037596603694487929 -0.00030159948387386849 0 0.0037700398766161154 -0.00029441057435900219 0 0.0035424236993738195 -0.00024078368718046577 0 0.0035401278900651714 -0.00019971267848070427 0 0.0035511273636490803 -0.0002216237092089351 0 0.0035330113763454322 -0.00021482802519449549 0 0.003534134838202667 -0.00021589148177741344 0 0.0035345169797696536 -0.00021375411092345559 0 0.0035190537725234079 -0.00029031032876756249 0 0.0035176964337790008 -0.00024556279477592802 0 0.0034823187985154659 -0.00027051292366742183 0 0.0036942626334393667 -0.00025333247147301389 0 0.0033162582715969007 -0.00020747058861397062 0 0.0036942626334393667 -0.00025333247147301389 0 0.0037069951744405708 -0.00021783606751633156 0 0.0033162582715969007 -0.00020747058861397062 0 0.0037069951744405708 -0.00021783606751633156 0 0.0038757958934090577 -0.00021282415527324819 0 0.0038538924095307234 -0.000224972076225258 0 0.0038526089007186125 -0.00025220648491973847 0 0.0037069951744405708 -0.00021783606751633156 0 0.0035145096559349169 -0.00019423587796723243 0 0.0038600851456082538 -0.00020385679579343501 0 0.0038538924095307234 -0.000224972076225258 0 0.0038459681585794334 -0.00020764583216313569 0 0.0038600851456082538 -0.00020385679579343501 0 0.0038757958934090577 -0.00021282415527324819 0 0.0038538924095307234 -0.000224972076225258 0 0.0038538924095307234 -0.000224972076225258 0 0.0038459681585794334 -0.00020764583216313569 0 0.0038398639962201751 -0.00022177792707456822 0 0.0038459681585794334 -0.00020764583216313569 0 0.0038398639962201751 -0.00022177792707456822 0 0.0038232666951079947 -0.00021470582151571937 0 0.0038398639962201751 -0.00022177792707456822 0 0.0038436494169553095 -0.00023976670259585073 0 0.0038277213369863395 -0.00023376907483277891 0 0.0038538924095307234 -0.000224972076225258 0 0.0038398639962201751 -0.00022177792707456822 0 0.0038436494169553095 -0.00023976670259585073 0 0.0038218839386562281 -0.00023874000383628286 0 0.0038220528144068196 -0.00023854457322544642 0 0.0038277213369863395 -0.00023376907483277891 0 0.0038220528144068196 -0.00023854457322544642 0 0.0038197493355690967 -0.00024004524270129614 0 0.0038277213369863395 -0.00023376907483277891 0 0.0038436494169553095 -0.00023976670259585073 0 0.0038484020218744518 -0.00025538224358565519 0 0.0038277213369863395 -0.00023376907483277891 0 0.0035002604506734771 -0.00020773929756525097 0 0.0038464369561068395 -0.00030792493290856881 0 0.0035002604506734771 -0.00020773929756525097 0 0.0031487624924344312 -9.5992042184137692e-05 0 0.0038201794508475949 -0.00023974364778483627 0 0.0038202474477207031 -0.00023913280890844674 0 0.0038195837713463398 -0.00024043990594360985 0 0.0038218839386562281 -0.00023874000383628286 0 0.0038220528144068196 -0.00023854457322544642 0 0.0038208454548822623 -0.0002393182280050348 0 0.0038218839386562281 -0.00023874000383628286 0 0.0038198441444152269 -0.0002399484256316083 0 0.0038208454548822623 -0.0002393182280050348 0 0.0038198441444152269 -0.0002399484256316083 0 0.0038208454548822623 -0.0002393182280050348 0 0.0038201794508475949 -0.00023974364778483627 0 0.0038208454548822623 -0.0002393182280050348 0 0.0038201794508475949 -0.00023974364778483627 0 0.0038203254280041936 -0.0002393761194263247 0 0.0038201794508475949 -0.00023974364778483627 0 0.0038203254280041936 -0.0002393761194263247 0 0.0038202474477207031 -0.00023913280890844674 0 0.0035443135826207692 -0.00019053769357721989 0 0.0035002604506734771 -0.00020773929756525097 0 0.0038220528144068196 -0.00023854457322544642 0 0.0038203254280041936 -0.0002393761194263247 0 0.0038