<?xml version="1.0"?>
<VTKFile type="UnstructuredGrid" version="0.1" byte_order="LittleEndian">
<UnstructuredGrid>
<Piece NumberOfPoints="31898" NumberOfCells="11152">
<Points>
<DataArray type="Float64" NumberOfComponents="3" format="ascii">
-0.5 -0.5 0 -0.47620991077874902 -0.44978878706170539 0 -0.49999999999999473 -0.42132396840504388 0 -0.5 -0.5 0 -0.47160970827802529 -0.4793630013852106 0 -0.47620991077874902 -0.44978878706170539 0 -0.5 -0.5 0 -0.47160970827802529 -0.4793630013852106 0 -0.44860394795025399 -0.5 0 -0.47160970827802529 -0.4793630013852106 0 -0.44860394795025399 -0.5 0 -0.4490820238307246 -0.45820516232899983 0 -0.44860394795025399 -0.5 0 -0.4490820238307246 -0.45820516232899983 0 -0.42881687682924802 -0.47781464288736519 0 -0.4490820238307246 -0.45820516232899983 0 -0.45555437223955858 -0.42914059360647611 0 -0.4490820238307246 -0.45820516232899983 0 -0.45555437223955858 -0.42914059360647611 0 -0.43867285131603428 -0.4271457417558665 0 -0.4490820238307246 -0.45820516232899983 0 -0.43867285131603428 -0.4271457417558665 0 -0.4263356171060747 -0.44269880333887462 0 -0.47160970827802529 -0.4793630013852106 0 -0.4490820238307246 -0.45820516232899983 0 -0.47620991077874902 -0.44978878706170539 0 -0.4490820238307246 -0.45820516232899983 0 -0.47620991077874902 -0.44978878706170539 0 -0.45555437223955858 -0.42914059360647611 0 -0.47620991077874902 -0.44978878706170539 0 -0.48101336032419229 -0.41069999664450008 0 -0.45555437223955858 -0.42914059360647611 0 -0.47620991077874902 -0.44978878706170539 0 -0.49999999999999473 -0.42132396840504388 0 -0.48101336032419229 -0.41069999664450008 0 -0.49999999999999473 -0.42132396840504388 0 -0.48101336032419229 -0.41069999664450008 0 -0.5 -0.393886241813306 0 -0.49999999999999473 -0.42132396840504388 0 -0.48101336032419229 -0.41069999664450008 0 -0.5 -0.393886241813306 0 -0.47854472220918332 -0.38978458738689759 0 -0.48422759779560409 -0.37130120630367158 0 -0.5 -0.393886241813306 0 -0.5 -0.36644851522156802 0 -0.48422759779560409 -0.37130120630367158 0 -0.48101336032419229 -0.41069999664450008 0 -0.5 -0.393886241813306 0 -0.47854472220918332 -0.38978458738689759 0 -0.48101336032419229 -0.41069999664450008 0 -0.47854472220918332 -0.38978458738689759 0 -0.46202672064839212 -0.40007602488395211 0 -0.48101336032419229 -0.41069999664450008 0 -0.46202672064839212 -0.40007602488395211 0 -0.47854472220918332 -0.38978458738689759 0 -0.46725442735267431 -0.37660061361585562 0 -0.46202672064839212 -0.40007602488395211 0 -0.47854472220918332 -0.38978458738689759 0 -0.46725442735267431 -0.37660061361585562 0 -0.48422759779560409 -0.37130120630367158 0 -0.46725442735267431 -0.37660061361585562 0 -0.46202672064839212 -0.40007602488395211 0 -0.46725442735267431 -0.37660061361585562 0 -0.45645674801697989 -0.38644133236760531 0 -0.46202672064839212 -0.40007602488395211 0 -0.46725442735267431 -0.37660061361585562 0 -0.45645674801697989 -0.38644133236760531 0 -0.4540003998136638 -0.37455519391687309 0 -0.45645674801697989 -0.38644133236760531 0 -0.46202672064839212 -0.40007602488395211 0 -0.44257020456291563 -0.38918913383950271 0 -0.46202672064839212 -0.40007602488395211 0 -0.44257020456291563 -0.38918913383950271 0 -0.44727608925983742 -0.41095911152778891 0 -0.46202672064839212 -0.40007602488395211 0 -0.44257020456291563 -0.38918913383950271 0 -0.44257020456291563 -0.38918913383950271 0 -0.44727608925983742 -0.41095911152778891 0 -0.43479358559901082 -0.4041454901736512 0 -0.44257020456291563 -0.38918913383950271 0 -0.4540003998136638 -0.37455519391687309 0 -0.44172858264042247 -0.37082207246888088 0 -0.45645674801697989 -0.38644133236760531 0 -0.44257020456291563 -0.38918913383950271 0 -0.4540003998136638 -0.37455519391687309 0 -0.46202672064839212 -0.40007602488395211 0 -0.45555437223955858 -0.42914059360647611 0 -0.44727608925983742 -0.41095911152778891 0 -0.46202672064839212 -0.40007602488395211 0 -0.45555437223955858 -0.42914059360647611 0 -0.48101336032419229 -0.41069999664450008 0 -0.46202672064839212 -0.40007602488395211 0 -0.45555437223955858 -0.42914059360647611 0 -0.44727608925983742 -0.41095911152778891 0 -0.43867285131603428 -0.4271457417558665 0 -0.43676601469929588 -0.41441201227470881 0 -0.44727608925983742 -0.41095911152778891 0 -0.43676601469929588 -0.41441201227470881 0 -0.43479358559901082 -0.4041454901736512 0 -0.45555437223955858 -0.42914059360647611 0 -0.44727608925983742 -0.41095911152778891 0 -0.43867285131603428 -0.4271457417558665 0 -0.43867285131603428 -0.4271457417558665 0 -0.42681803064840879 -0.42717069814352421 0 -0.4263356171060747 -0.44269880333887462 0 -0.42681803064840879 -0.42717069814352421 0 -0.41531815884496182 -0.42985383783075998 0 -0.4263356171060747 -0.44269880333887462 0 -0.42681803064840879 -0.42717069814352421 0 -0.42624289495594048 -0.42089725947505818 0 -0.42083332353326591 -0.42146747131641099 0 -0.42681803064840879 -0.42717069814352421 0 -0.43096994786351572 -0.41951492446283251 0 -0.42624289495594048 -0.42089725947505818 0 -0.43867285131603428 -0.4271457417558665 0 -0.42681803064840879 -0.42717069814352421 0 -0.43096994786351572 -0.41951492446283251 0 -0.43867285131603428 -0.4271457417558665 0 -0.43676601469929588 -0.41441201227470881 0 -0.43096994786351572 -0.41951492446283251 0 -0.43676601469929588 -0.41441201227470881 0 -0.43096994786351572 -0.41951492446283251 0 -0.42907264086257813 -0.41311715872526122 0 -0.43676601469929588 -0.41441201227470881 0 -0.42907264086257813 -0.41311715872526122 0 -0.43479358559901082 -0.4041454901736512 0 -0.42907264086257813 -0.41311715872526122 0 -0.43479358559901082 -0.4041454901736512 0 -0.42460885511582858 -0.40417321677700252 0 -0.42907264086257813 -0.41311715872526122 0 -0.41997834854398469 -0.41180534796019508 0 -0.42907264086257813 -0.41311715872526122 0 -0.42635027777857132 -0.41543594397746519 0 -0.41997834854398469 -0.41180534796019508 0 -0.42907264086257813 -0.41311715872526122 0 -0.41997834854398469 -0.41180534796019508 0 -0.42460885511582858 -0.40417321677700252 0 -0.42635027777857132 -0.41543594397746519 0 -0.41997834854398469 -0.41180534796019508 0 -0.42635027777857132 -0.41543594397746519 0 -0.42083332353326591 -0.42146747131641099 0 -0.41997834854398469 -0.41180534796019508 0 -0.43096994786351572 -0.41951492446283251 0 -0.42624289495594048 -0.42089725947505818 0 -0.42635027777857132 -0.41543594397746519 0 -0.43096994786351572 -0.41951492446283251 0 -0.42907264086257813 -0.41311715872526122 0 -0.42635027777857132 -0.41543594397746519 0 -0.42624289495594048 -0.42089725947505818 0 -0.42635027777857132 -0.41543594397746519 0 -0.42083332353326591 -0.42146747131641099 0 -0.42083332353326591 -0.42146747131641099 0 -0.41997834854398469 -0.41180534796019508 0 -0.40992282953163789 -0.42011435591993562 0 -0.41997834854398469 -0.41180534796019508 0 -0.39756877647335259 -0.40857286797681719 0 -0.41997834854398469 -0.41180534796019508 0 -0.40992282953163789 -0.42011435591993562 0 -0.39756877647335259 -0.40857286797681719 0 -0.40992282953163789 -0.42011435591993562 0 -0.41531815884496182 -0.42985383783075998 0 -0.39591554026262499 -0.42887225451549271 0 -0.41531815884496182 -0.42985383783075998 0 -0.39591554026262499 -0.42887225451549271 0 -0.41160927495564159 -0.44339431233754628 0 -0.42083332353326591 -0.42146747131641099 0 -0.40992282953163789 -0.42011435591993562 0 -0.41531815884496182 -0.42985383783075998 0 -0.42681803064840879 -0.42717069814352421 0 -0.42083332353326591 -0.42146747131641099 0 -0.41531815884496182 -0.42985383783075998 0 -0.44257020456291563 -0.38918913383950271 0 -0.42311368847744002 -0.37830224279505142 0 -0.42594061475171041 -0.39368797999533162 0 -0.44257020456291563 -0.38918913383950271 0 -0.42311368847744002 -0.37830224279505142 0 -0.44172858264042247 -0.37082207246888088 0 -0.44257020456291563 -0.38918913383950271 0 -0.42311368847744002 -0.37830224279505142 0 -0.42311368847744002 -0.37830224279505142 0 -0.42594061475171041 -0.39368797999533162 0 -0.416587075656149 -0.38785930376960043 0 -0.44257020456291563 -0.38918913383950271 0 -0.42594061475171041 -0.39368797999533162 0 -0.43479358559901082 -0.4041454901736512 0 -0.42594061475171041 -0.39368797999533162 0 -0.43479358559901082 -0.4041454901736512 0 -0.42460885511582858 -0.40417321677700252 0 -0.41997834854398469 -0.41180534796019508 0 -0.41325908582185972 -0.39811010703057192 0 -0.39770572831670092 -0.39911486077581648 0 -0.41997834854398469 -0.41180534796019508 0 -0.39770572831670092 -0.39911486077581648 0 -0.42594061475171041 -0.39368797999533162 0 -0.42460885511582858 -0.40417321677700252 0 -0.41325908582185972 -0.39811010703057192 0 -0.41997834854398469 -0.41180534796019508 0 -0.42460885511582858 -0.40417321677700252 0 -0.41325908582185972 -0.39811010703057192 0 -0.42594061475171041 -0.39368797999533162 0 -0.41325908582185972 -0.39811010703057192 0 -0.416587075656149 -0.38785930376960043 0 -0.41325908582185972 -0.39811010703057192 0 -0.416587075656149 -0.38785930376960043 0 -0.40403491357358612 -0.38133688525744702 0 -0.42311368847744002 -0.37830224279505142 0 -0.40403491357358612 -0.38133688525744702 0 -0.40365717239196519 -0.36741535175059892 0 -0.42311368847744002 -0.37830224279505142 0 -0.416587075656149 -0.38785930376960043 0 -0.40403491357358612 -0.38133688525744702 0 -0.40403491357358612 -0.38133688525744702 0 -0.39190790742475001 -0.38540387676521748 0 -0.39770572831670092 -0.39911486077581648 0 -0.40403491357358612 -0.38133688525744702 0 -0.39190790742475001 -0.38540387676521748 0 -0.3904578797192948 -0.37473938743617019 0 -0.41325908582185972 -0.39811010703057192 0 -0.40403491357358612 -0.38133688525744702 0 -0.39770572831670092 -0.39911486077581648 0 -0.39770572831670092 -0.39911486077581648 0 -0.37543310808941849 -0.38642437359143528 0 -0.39770572831670092 -0.39911486077581648 0 -0.37515920440272033 -0.40534038799344108 0 -0.37543310808941849 -0.38642437359143528 0 -0.39770572831670092 -0.39911486077581648 0 -0.37515920440272033 -0.40534038799344108 0 -0.39756877647335259 -0.40857286797681719
[...]
<PointData Scalars="" Vectors="displacement," Tensors="">
<DataArray type="Float64" Name="displacement" NumberOfComponents="3" format="ascii">
0.044996297572766866 3.4421395373013592e-07 0 0.043861533352681469 0.00022849663059911851 0 0.044996986923952563 9.5318281403169455e-07 0 0.044996297572766866 3.4421395373013592e-07 0 0.043030570657171072 0.00015144121941024783 0 0.043861533352681469 0.00022849663059911851 0 0.044996297572766866 3.4421395373013592e-07 0 0.043030570657171072 0.00015144121941024783 0 0.040376842154618051 3.3375841743242659e-07 0 0.043030570657171072 0.00015144121941024783 0 0.040376842154618051 3.3375841743242659e-07 0 0.042228514799647253 -0.00010579609979306999 0 0.040376842154618051 3.3375841743242659e-07 0 0.042228514799647253 -0.00010579609979306999 0 0.040125597702071726 8.6667865094449e-05 0 0.042652840125048663 -0.00028167315615245086 0 0.042875060336234845 -0.00028262354321462364 0 0.042228514799647253 -0.00010579609979306999 0 0.041449928217489496 -0.00044843994368447135 0 0.041378939757178344 -0.00014421646910698767 0 0.042228514799647253 -0.00010579609979306999 0 0.041378939757178344 -0.00014421646910698767 0 0.041448889020081425 -1.3905604925510311e-05 0 0.043030570657171072 0.00015144121941024783 0 0.042228514799647253 -0.00010579609979306999 0 0.043861533352681469 0.00022849663059911851 0 0.042228514799647253 -0.00010579609979306999 0 0.043861533352681469 0.00022849663059911851 0 0.044284356933704173 -0.00034854056976028284 0 0.043861533352681469 0.00022849663059911851 0 0.044851794423937198 3.6744891554386428e-05 0 0.044284356933704173 -0.00034854056976028284 0 0.043861533352681469 0.00022849663059911851 0 0.044996986923952563 9.5318281403169455e-07 0 0.044851794423937198 3.6744891554386428e-05 0 0.044999998468626887 -1.2841413085077826e-10 0 0.044998098321220328 5.4144162426859385e-07 0 0.044999997674360859 6.9456663007275363e-10 0 0.044998614861827609 -5.4508148374080828e-07 0 0.044314843344190079 -0.00017396339111889586 0 0.044999997674360859 6.9456663007275363e-10 0 0.044997754828870994 9.8721565984080471e-07 0 0.04499904805343731 1.6112884990646782e-06 0 0.044999997674360859 6.9456663007275363e-10 0 0.044999996165920902 2.4379451326169913e-09 0 0.04499904805343731 1.6112884990646782e-06 0 0.044998098321220328 5.4144162426859385e-07 0 0.044999997674360859 6.9456663007275363e-10 0 0.044997754828870994 9.8721565984080471e-07 0 0.044998098321220328 5.4144162426859385e-07 0 0.044997754828870994 9.8721565984080471e-07 0 0.044995305617314241 7.7549299153249543e-07 0 0.044314843344190079 -0.00017396339111889586 0 0.043259198338982861 -0.00020660948084395524 0 0.044997754828870994 9.8721565984080471e-07 0 0.044997219673708261 1.0649549361645264e-06 0 0.044995305617314241 7.7549299153249543e-07 0 0.044997754828870994 9.8721565984080471e-07 0 0.044997219673708261 1.0649549361645264e-06 0 0.04499904805343731 1.6112884990646782e-06 0 0.043938126111135886 -8.6126781380834448e-05 0 0.043259198338982861 -0.00020660948084395524 0 0.043053070103045536 -0.00018799323791946813 0 0.042817509503911742 -0.00046592778067009122 0 0.042482335716997131 -0.00032981139716074955 0 0.043053070103045536 -0.00018799323791946813 0 0.042817509503911742 -0.00046592778067009122 0 0.043117484391054207 -0.00053311049046823162 0 0.042817509503911742 -0.00046592778067009122 0 0.042482335716997131 -0.00032981139716074955 0 0.042755615373642232 -0.00080877702532961818 0 0.041044999185032786 -0.00052576221009771921 0 0.040889886677933092 -0.00027024859058406094 0 0.041195096561916562 -0.00031708486947743854 0 0.043259198338982861 -0.00020660948084395524 0 0.042147329748815063 -0.00048704261099275338 0 0.040889886677933092 -0.00027024859058406094 0 0.041195096561916562 -0.00031708486947743854 0 0.041108448705589481 -0.00016016284988074135 0 0.042755615373642232 -0.00080877702532961818 0 0.043117484391054207 -0.00053311049046823162 0 0.043208406937180956 -0.00083069211247536806 0 0.042817509503911742 -0.00046592778067009122 0 0.042755615373642232 -0.00080877702532961818 0 0.043117484391054207 -0.00053311049046823162 0 0.041044999185032786 -0.00052576221009771921 0 0.041449928217489496 -0.00044843994368447135 0 0.041195096561916562 -0.00031708486947743854 0 0.043259198338982861 -0.00020660948084395524 0 0.042875060336234845 -0.00028262354321462364 0 0.044851794423937198 3.6744891554386428e-05 0 0.045009389301068112 -0.00031075647667620093 0 0.044284356933704173 -0.00034854056976028284 0 0.041195096561916562 -0.00031708486947743854 0 0.041378939757178344 -0.00014421646910698767 0 0.041257393042502893 -0.0001738780956046633 0 0.041195096561916562 -0.00031708486947743854 0 0.041257393042502893 -0.0001738780956046633 0 0.041108448705589481 -0.00016016284988074135 0 0.041449928217489496 -0.00044843994368447135 0 0.041195096561916562 -0.00031708486947743854 0 0.041378939757178344 -0.00014421646910698767 0 0.041378939757178344 -0.00014421646910698767 0 0.041378027802562875 -8.684221943217815e-05 0 0.041448889020081425 -1.3905604925510311e-05 0 0.041378027802562875 -8.684221943217815e-05 0 0.041385636609924052 -0.00014363092080926898 0 0.041448889020081425 -1.3905604925510311e-05 0 0.041378027802562875 -8.684221943217815e-05 0 0.041345092977049358 -9.3080948570077937e-05 0 0.041357503066756542 -0.00010858412700800432 0 0.041378027802562875 -8.684221943217815e-05 0 0.041327383944536791 -0.00011142964157134661 0 0.041345092977049358 -9.3080948570077937e-05 0 0.041378939757178344 -0.00014421646910698767 0 0.041378027802562875 -8.684221943217815e-05 0 0.041327383944536791 -0.00011142964157134661 0 0.041378939757178344 -0.00014421646910698767 0 0.041257393042502893 -0.0001738780956046633 0 0.041327383944536791 -0.00011142964157134661 0 0.041257393042502893 -0.0001738780956046633 0 0.041327383944536791 -0.00011142964157134661 0 0.041265031859600843 -9.4816671453669515e-05 0 0.041257393042502893 -0.0001738780956046633 0 0.041265031859600843 -9.4816671453669515e-05 0 0.041108448705589481 -0.00016016284988074135 0 0.041265031859600843 -9.4816671453669515e-05 0 0.041108448705589481 -0.00016016284988074135 0 0.041107368047889004 -1.2563410939731692e-05 0 0.037151557837773956 -0.0010499663491864723 0 0.037016858849713202 -0.0011231697328965761 0 0.041265031859600843 -9.4816671453669515e-05 0 0.041314835316702728 -7.7336467684612886e-05 0 0.041273937540640661 -6.9709708805594323e-06 0 0.041265031859600843 -9.4816671453669515e-05 0 0.041230877361663198 6.008310240526645e-05 0 0.041107368047889004 -1.2563410939731692e-05 0 0.037145239063213466 -0.0011661274055354725 0 0.037016858849713202 -0.0011231697328965761 0 0.041314835316702728 -7.7336467684612886e-05 0 0.041357503066756542 -0.00010858412700800432 0 0.04136804958016238 -0.00011462330584822091 0 0.041327383944536791 -0.00011142964157134661 0 0.041345092977049358 -9.3080948570077937e-05 0 0.041314835316702728 -7.7336467684612886e-05 0 0.041327383944536791 -0.00011142964157134661 0 0.041265031859600843 -9.4816671453669515e-05 0 0.041314835316702728 -7.7336467684612886e-05 0 0.041345092977049358 -9.3080948570077937e-05 0 0.041314835316702728 -7.7336467684612886e-05 0 0.041357503066756542 -0.00010858412700800432 0 0.041357503066756542 -0.00010858412700800432 0 0.04136804958016238 -0.00011462330584822091 0 0.041367190280343732 -0.00015068969084530416 0 0.037016858849713202 -0.0011231697328965761 0 0.036024859617474821 -0.00088267802683123962 0 0.04136804958016238 -0.00011462330584822091 0 0.041367190280343732 -0.00015068969084530416 0 0.041383706903981 -0.00019141937670809426 0 0.041367190280343732 -0.00015068969084530416 0 0.041385636609924052 -0.00014363092080926898 0 0.041350268564951644 -0.00020315496312872997 0 0.041385636609924052 -0.00014363092080926898 0 0.041350268564951644 -0.00020315496312872997 0 0.041357658543862322 -0.0002316368442095012 0 0.041357503066756542 -0.00010858412700800432 0 0.041367190280343732 -0.00015068969084530416 0 0.041385636609924052 -0.00014363092080926898 0 0.041378027802562875 -8.684221943217815e-05 0 0.041357503066756542 -0.00010858412700800432 0 0.041385636609924052 -0.00014363092080926898 0 0.040889886677933092 -0.00027024859058406094 0 0.040696072277773408 1.0109128615905884e-05 0 0.040942716623466775 -3.1151339678994798e-05 0 0.042755615373642232 -0.00080877702532961818 0 0.043025934977581518 -0.0012696382051073719 0 0.043208406937180956 -0.00083069211247536806 0 0.042147329748815063 -0.00048704261099275338 0 0.041283582961352018 -0.00094039474194163302 0 0.040696072277773408 1.0109128615905884e-05 0 0.040942716623466775 -3.1151339678994798e-05 0 0.040841824564777099 0.00011112803756918425 0 0.040889886677933092 -0.00027024859058406094 0 0.040942716623466775 -3.1151339678994798e-05 0 0.041108448705589481 -0.00016016284988074135 0 0.040942716623466775 -3.1151339678994798e-05 0 0.041108448705589481 -0.00016016284988074135 0 0.041107368047889004 -1.2563410939731692e-05 0 0.041230877361663198 6.008310240526645e-05 0 0.041005902118254507 0.00016441861344353132 0 0.041017471085926828 0.0004141036471431047 0 0.037016858849713202 -0.0011231697328965761 0 0.036177773839839486 -0.0012480804715335721 0 0.040942716623466775 -3.1151339678994798e-05 0 0.041107368047889004 -1.2563410939731692e-05 0 0.041005902118254507 0.00016441861344353132 0 0.041230877361663198 6.008310240526645e-05 0 0.041107368047889004 -1.2563410939731692e-05 0 0.041005902118254507 0.00016441861344353132 0 0.040942716623466775 -3.1151339678994798e-05 0 0.041005902118254507 0.00016441861344353132 0 0.040841824564777099 0.00011112803756918425 0 0.041005902118254507 0.00016441861344353132 0 0.040841824564777099 0.00011112803756918425 0 0.040723392534036729 0.00030302294038513284 0 0.040696072277773408 1.0109128615905884e-05 0 0.040723392534036729 0.00030302294038513284 0 0.040514253831061206 0.00030590072553807256 0 0.040696072277773408 1.0109128615905884e-05 0 0.040841824564777099 0.00011112803756918425 0 0.040723392534036729 0.00030302294038513284 0 0.040723392534036729 0.00030302294038513284 0 0.040780436698150478 0.00051707536757344432 0 0.041017471085926828 0.0004141036471431047 0 0.040723392534036729 0.00030302294038513284 0 0.040780436698150478 0.00051707536757344432 0 0.040587240954129841 0.00054358240067478548 0 0.041005902118254507 0.00016441861344353132 0 0.040723392534036729 0.00030302294038513284 0 0.041017471085926828 0.0004141036471431047 0 0.036177773839839486 -0.0012480804715335721 0 0.033936655469799286 -0.001439108700004237 0 0.035307204865378201 -0.0011094700727797154 0 0.035424830931232762 -0.00067030405831098802 0 0.03505597605222608 -0.00067615727699042792 0 0.035307204865378201 -0.0011094700727797154 0 0.035424830931232762 -0.00067030405831098802 0 0.035491913517525141 -0.0011065871636878849 0 0.033943262807332987 -0.00054960963041539659 0 0.033936655469799286 -0.001439108700004237 0 0.040790465210688624 0.00081107484593290766 0 0.040587240954129841 0.00054358240067478548 0 0.040477233053338647 0.00081232676968401936 0 0.040780436698150478 0.00051707536757344432 0 0.040790465210688624 0.00081107484593290766 0 0.040587240954129841 0.00054358240067478548 0 0.033936655469799286 -0.001439108700004237 0 0.03594564303478695 -0.0013260802401027531 0 0.040780436698150478 0.00051707536757344432 0 0.041017471085926828 0.0004141036471431047 0 0.040790465210688624 0.00081107484593290766 0 0.035560757520367532 -0.0015421276473820836 0 0.035307204865378201 -0.0011094700727797154 0 0.035491913517525141 -0.0011065871636878849 0 0.041367190280343732 -0.00015068969084530416 0 0.041350268564951644 -0.00020315496312872997 0 0.041383706903981 -0.00019141937670809426 0 0.041371459013224525 -0.00023346877662656581 0 0.041350268564951644 -0.00020315496312872997 0 0.041383706903981 -0.00019141937670809426 0 0.033943262807332987 -0.00054960963041539659 0 0.036024859617474821 -0.00088267802683123962 0 0.041371459013224525 -0.00023346877662656581 0 0.041350268564951644 -0.00020315496312872997 0 0.041333748295335947 -0.00023636730731783516 0 0.041350268564951644 -0.00020315496312872997 0 0.041333574184669972 -0.00021894533479975472 0 0.041333748295335947 -0.00023636730731783516 0 0.041333574184669972 -0.00021894533479975472 0 0.041294496520069203 -0.00024385924727204339 0 0.041333748295335947 -0.00023636730731783516 0 0.041350268564951644 -0.00020315496312872997 0 0.041333574184669972 -0.00021894533479975472 0 0.041357658543862322 -0.0002316368442095012 0 0.041333574184669972 -0.00021894533479975472 0 0.041327341209916491 -0.00021893103883504226 0 0.041357658543862322 -0.0002316368442095012 0 0.040736978399678388 -0.00079762609739918514 0 0.038189227964933341 -0.00094445960214085088 0 0.039942823141137895 -0.00027427837245988079 0 0.030558399028536656 -0.0021305727474328112 0 0.030830441909278701 -0.0010963417217813706 0 0.032045611677070221 -0.0013486999033162734 0 0.036391697731132586 0.00072269802938547466 0 0.035231687710189134 5.5931302948742844e-05 0 0.036391697731132586 0.00072269802938547466 0 0.036403698328232315 0.0007182897580159433 0 0.036391697731132586 0.00072269802938547466 0 0.035409211599055156 -0.000226446479237306 0 0.041333574184669972 -0.00021894533479975472 0 0.041327341209916491 -0.00021893103883504226 0 0.041309340163713279 -0.00022535730386226687 0 0.041333574184669972 -0.00021894533479975472 0 0.041309340163713279 -0.00022535730386226687 0 0.041294496520069203 -0.00024385924727204339 0 0.035409211599055156 -0.000226446479237306 0 0.034340826042519763 -0.00093192313270910561 0 0.030830441909278701 -0.0010963417217813706 0 0.031534064989124942 -0.00071592824479552121 0 0.031105688709554775 -3.5535813026151493e-05 0 0.031534064989124942 -0.00071592824479552121 0 0.032045611677070221 -0.0013486999033162734 0 0.031937085107478003 -9.8479205770170929e-06 0 0.032045611677070221 -0.0013486999033162734 0 0.032825675564433866 0.00016297451335227166 0 0.031937085107478003 -9.8479205770170929e-06 0 0.031534064989124942 -0.00071592824479552121 0 0.031937085107478003 -9.8479205770170929e-06 0 0.031105688709554775 -3.5535813026151493e-05 0 0.030830441909278701 -0.0010963417217813706 0 0.031534064989124942 -0.00071592824479552121 0 0.032045611677070221 -0.0013486999033162734 0 0.034286866217016709 -2.4625073501037683e-07 0 0.035231687710189134 5.5931302948742844e-05 0 0.034281445895325856 -2.3044194138345972e-06 0 0.032045611677070221 -0.0013486999033162734 0 0.032825675564433866 0.00016297451335227166 0 0.034289661778339482 -3.6371369332632726e-06 0 0.038189227964933341 -0.00094445960214085088 0 0.036898377415206338 6.5040150544077605e-07 0 0.038189227964933341 -0.00094445960214085088 0 0.039942823141137895 -0.00027427837245988079 0 0.036898377415206338 6.5040150544077605e-07 0 0.039942823141137895 -0.00027427837245988079 0 0.036898377415206338 6.5040150544077605e-07 0 0.040125597702071726 8.6667865094449e-05 0 0.040376842154618051 3.3375841743242659e-07 0 0.036898377415206338 6.5040150544077605e-07 0 0.040125597702071726 8.6667865094449e-05 0 0.039942823141137895 -0.00027427837245988079 0 0.040125597702071726 8.6667865094449e-05 0 0.041059543288631095 -3.2443192890819888e-05 0 0.042228514799647253 -0.00010579609979306999 0 0.040125597702071726 8.6667865094449e-05 0 0.041059543288631095 -3.2443192890819888e-05 0 0.042228514799647253 -0.00010579609979306999 0 0.041059543288631095 -3.2443192890819888e-05 0 0.041448889020081425 -1.3905604925510311e-05 0 0.041059543288631095 -3.2443192890819888e-05 0 0.041448889020081425 -1.3905604925510311e-05 0 0.041067811961433005 -0.00018234206990367093 0 0.041448889020081425 -1.3905604925510311e-05 0 0.041357658543862322 -0.0002316368442095012 0 0.041067811961433005 -0.00018234206990367093 0 0.041385636609924052 -0.00014363092080926898 0 0.041448889020081425 -1.3905604925510311e-05 0 0.041357658543862322 -0.0002316368442095012 0 0.04078929227629715 -0.00075936422150341804 0 0.041357658543862322 -0.0002316368442095012 0 0.040814552059745976 -0.00062773627412539561 0 0.041357658543862322 -0.0002316368442095012 0 0.040814552059745976 -0.00062773627412539561 0 0.041067811961433005 -0.00018234206990367093 0 0.036391697731132586 0.00072269802938547466 0 0.037592557921498959 0.0010183737656422219 0 0.039942823141137895 -0.00027427837245988079 0 0.040814552059745976 -0.00062773627412539561 0 0.041067811961433005 -0.00018234206990367093 0 0.040736978399678388 -0.00079762609739918514 0 0.039942823141137895 -0.00027427837245988079 0 0.040814552059745976 -0.00062773627412539561 0 0.039942823141137895 -0.00027427837245988079 0 0.041059543288631095 -3.2443192890819888e-05 0 0.041067811961433005 -0.00018234206990367093 0 0.041510543649374655 -0.00047888868355541151 0 0.039583665455233993 -0.0016892659351752126 0 0.044711020808832963 0.00043514116831484768 0 0.044772881495876632 0.0018895718066980454 0 0.043996080803043965 0.00071392023279714066 0 0.04491621983485649 -0.00013353107174423121 0 0.044943354030159158 -0.00010249903322565493 0 0.044949826237352768 -0.00017362356961929612 0 0.04491621983485649 -0.00013353107174423121 0 0.044908464091261611 -0.00019326833696236707 0 0.044949826237352768 -0.00017362356961929612 0 0.04491621983485649 -0.00013353107174423121 0 0.044877331001006049 -0.00018942990753041081 0 0.044908464091261611 -0.00019326833696236707 0 0.04491621983485649 -0.00013353107174423121 0 0.044921591460488838 -7.3750924190258031e-05 0 0.044928507778878621 -6.8632466090223237e-05 0 0.04491621983485649 -0.00013353107174423121 0 0.044921591460488838 -7.3750924190258031e-05 0 0.044943354030159158 -0.00010249903322565493 0 0.041510543649374655 -0.00047888868355541151 0 0.042090294010363044 -0.00034713010790401436 0 0.044921591460488838 -7.3750924190258031e-05 0 0.044943354030159158 -0.00010249903322565493 0 0.044861310281077559 -7.2408944923444993e-05 0 0.044711020808832963 0.00043514116831484768 0 0.044861310281077559 -7.2408944923444993e-05 0 0.044084187979250261 -6.2628563624514327e-05 0 0.044861310281077559 -7.2408944923444993e-05 0 0.044999870305037055 -1.4619747462115713e-07 0 0.044946857997675664 -4.5808188423235733e-05 0 0.044861310281077559 -7.2408944923444993e-05 0 0.044999870305037055 -1.4619747462115713e-07 0 0.044646421549086143 -8.7951232765194786e-05 0 0.044999870305037055 -1.4619747462115713e-07 0 0.044946857997675664 -4.5808188423235733e-05 0 0.044999911494504136 4.9463651974724941e-09 0 0.044921591460488838 -7.3750924190258031e-05 0 0.044861310281077559 -7.2408944923444993e-05 0 0.044946857997675664 -4.5808188423235733e-05 0 0.044921591460488838 -7.3750924190258031e-05 0 0.044946857997675664 -4.5808188423235733e-05 0 0.044928507778878621 -6.8632466090223237e-05 0 0.044928507778878621 -6.8632466090223237e-05 0 0.044953702903422939 -1.327538613875957e-05 0 0.044911171202632737 -5.1722856262983325e-05 0 0.044946857997675664 -4.5808188423235733e-05 0 0.044928507778878621 -6.8632466090223237e-05 0 0.044953702903422939 -1.327538613875957e-05 0 0.044999911494504136 4.9463651974724941e-09 0 0.044953702903422939 -1.327538613875957e-05 0 0.044999906277555582 -1.2388972614396983e-08 0 0.044946857997675664 -4.5808188423235733e-05 0 0.044999911494504136 4.9463651974724941e-09 0 0.044953702903422939 -1.327538613875957e-05 0 0.044953702903422939 -1.327538613875957e-05 0 0.044999906277555582 -1.2388972614396983e-08 0 0.044932422117441376 1.2014898533791224e-05 0 0.044932422117441376 1.2014898533791224e-05 0 0.044911171202632737 -5.1722856262983325e-05 0 0.044802394697524728 -4.336986685828042e-05 0 0.044953702903422939 -1.327538613875957e-05 0 0.044932422117441376 1.2014898533791224e-05 0 0.044911171202632737 -5.1722856262983325e-05 0 0.044911171202632737 -5.1722856262983325e-05 0 0.044834376755489902 -0.00011923287582745612 0 0.044802394697524728 -4.336986685828042e-05 0 0.044834376755489902 -0.00011923287582745612 0 0.044828043966759698 -0.00018282043958241616 0 0.044766655153182629 -0.00017819624712511593 0 0.044834376755489902 -0.00011923287582745612 0 0.044892231469717291 -0.00012349227330611925 0 0.044828043966759698 -0.00018282043958241616 0 0.044911