<?xml version="1.0"?>
<VTKFile type="UnstructuredGrid" version="0.1" byte_order="LittleEndian">
<UnstructuredGrid>
<Piece NumberOfPoints="27484" NumberOfCells="9606">
<Points>
<DataArray type="Float64" NumberOfComponents="3" format="ascii">
-0.5 -0.5 0 -0.47612779279856948 -0.48307293842341731 0 -0.5 -0.45121029455530248 0 -0.5 -0.5 0 -0.47612779279856948 -0.48307293842341731 0 -0.466067310823158 -0.50000000000000122 0 -0.47612779279856948 -0.48307293842341731 0 -0.46147209626126973 -0.47246915419113961 0 -0.47246533241247662 -0.46349665100113002 0 -0.466067310823158 -0.50000000000000122 0 -0.45662967450936642 -0.48582286467248359 0 -0.44674108473084267 -0.49999999999999972 0 -0.466067310823158 -0.50000000000000122 0 -0.45662967450936642 -0.48582286467248359 0 -0.47612779279856948 -0.48307293842341731 0 -0.466067310823158 -0.50000000000000122 0 -0.45662967450936642 -0.48582286467248359 0 -0.47612779279856948 -0.48307293842341731 0 -0.45662967450936642 -0.48582286467248359 0 -0.46147209626126973 -0.47246915419113961 0 -0.45662967450936642 -0.48582286467248359 0 -0.46147209626126973 -0.47246915419113961 0 -0.4471920381955754 -0.47164572934496551 0 -0.45662967450936642 -0.48582286467248359 0 -0.4471920381955754 -0.47164572934496551 0 -0.4471920381955754 -0.47164572934496551 0 -0.44674108473084267 -0.49999999999999972 0 -0.42949081604070988 -0.47718801963799079 0 -0.4471920381955754 -0.47164572934496551 0 -0.44674108473084267 -0.49999999999999972 0 -0.45662967450936642 -0.48582286467248359 0 -0.4471920381955754 -0.47164572934496551 0 -0.44674108473084267 -0.49999999999999972 0 -0.44766432780042181 -0.44194992183795379 0 -0.45711460573364382 -0.44222964531902381 0 -0.4471920381955754 -0.47164572934496551 0 -0.44766432780042181 -0.44194992183795379 0 -0.45772767783510759 -0.45787240859338818 0 -0.4471920381955754 -0.47164572934496551 0 -0.42949081604070988 -0.47718801963799079 0 -0.43710445430208239 -0.45649224840644298 0 -0.4471920381955754 -0.47164572934496551 0 -0.44766432780042181 -0.44194992183795379 0 -0.43710445430208239 -0.45649224840644298 0 -0.4471920381955754 -0.47164572934496551 0 -0.44766432780042181 -0.44194992183795379 0 -0.4471920381955754 -0.47164572934496551 0 -0.43710445430208239 -0.45649224840644298 0 -0.46147209626126973 -0.47246915419113961 0 -0.4471920381955754 -0.47164572934496551 0 -0.45772767783510759 -0.45787240859338818 0 -0.46147209626126973 -0.47246915419113961 0 -0.45772767783510759 -0.45787240859338818 0 -0.47246533241247662 -0.46349665100113002 0 -0.45772767783510759 -0.45787240859338818 0 -0.4697786824296511 -0.44859597372789412 0 -0.47246533241247662 -0.46349665100113002 0 -0.44766432780042181 -0.44194992183795379 0 -0.45772767783510759 -0.45787240859338818 0 -0.45711460573364382 -0.44222964531902381 0 -0.45772767783510759 -0.45787240859338818 0 -0.45711460573364382 -0.44222964531902381 0 -0.4697786824296511 -0.44859597372789412 0 -0.44766432780042181 -0.44194992183795379 0 -0.45711460573364382 -0.44222964531902381 0 -0.45573007022931572 -0.43167121872836961 0 -0.45711460573364382 -0.44222964531902381 0 -0.4697786824296511 -0.44859597372789412 0 -0.4658735671707861 -0.43590833345207869 0 -0.4697786824296511 -0.44859597372789412 0 -0.47964036621454897 -0.43841480636365487 0 -0.5 -0.45121029455530248 0 -0.4697786824296511 -0.44859597372789412 0 -0.47964036621454897 -0.43841480636365487 0 -0.4658735671707861 -0.43590833345207869 0 -0.47612779279856948 -0.48307293842341731 0 -0.47246533241247662 -0.46349665100113002 0 -0.5 -0.45121029455530248 0 -0.4697786824296511 -0.44859597372789412 0 -0.47246533241247662 -0.46349665100113002 0 -0.5 -0.45121029455530248 0 -0.47964036621454897 -0.43841480636365487 0 -0.5 -0.45121029455530248 0 -0.49311446202793441 -0.40928350884617959 0 -0.5 -0.45121029455530248 0 -0.49311446202793441 -0.40928350884617959 0 -0.49999999999999412 -0.3861935438035704 0 -0.49311446202793441 -0.40928350884617959 0 -0.47418110132762692 -0.41623014255297369 0 -0.47255323664437882 -0.42839477968960882 0 -0.49311446202793441 -0.40928350884617959 0 -0.47391311569059602 -0.40985976062988938 0 -0.49311446202793441 -0.40928350884617959 0 -0.47391311569059602 -0.40985976062988938 0 -0.47418110132762692 -0.41623014255297369 0 -0.47418110132762692 -0.41623014255297369 0 -0.47255323664437882 -0.42839477968960882 0 -0.46411879318334948 -0.42049002703325922 0 -0.47964036621454897 -0.43841480636365487 0 -0.49311446202793441 -0.40928350884617959 0 -0.47255323664437882 -0.42839477968960882 0 -0.47964036621454897 -0.43841480636365487 0 -0.47255323664437882 -0.42839477968960882 0 -0.4658735671707861 -0.43590833345207869 0 -0.49999999999999412 -0.3861935438035704 0 -0.48269015159314238 -0.38140079204273158 0 -0.49070719048340339 -0.36732335307375691 0 -0.49999999999999412 -0.3861935438035704 0 -0.47735588467662471 -0.39831477810858201 0 -0.48269015159314238 -0.38140079204273158 0 -0.49311446202793441 -0.40928350884617959 0 -0.49999999999999412 -0.3861935438035704 0 -0.47735588467662471 -0.39831477810858201 0 -0.49999999999999412 -0.3861935438035704 0 -0.47735588467662471 -0.39831477810858201 0 -0.49311446202793441 -0.40928350884617959 0 -0.47391311569059602 -0.40985976062988938 0 -0.47735588467662471 -0.39831477810858201 0 -0.47735588467662471 -0.39831477810858201 0 -0.47473532216977787 -0.39020014126176289 0 -0.46662980299668322 -0.39849110817723271 0 -0.47735588467662471 -0.39831477810858201 0 -0.47473532216977787 -0.39020014126176289 0 -0.48269015159314238 -0.38140079204273158 0 -0.47473532216977787 -0.39020014126176289 0 -0.47190120554758053 -0.3801575868902729 0 -0.48269015159314238 -0.38140079204273158 0 -0.47190120554758053 -0.3801575868902729 0 -0.48269015159314238 -0.38140079204273158 0 -0.47344652270633231 -0.36864076809020141 0 -0.47473532216977787 -0.39020014126176289 0 -0.47190120554758053 -0.3801575868902729 0 -0.4567328257210691 -0.38038864616639539 0 -0.47190120554758053 -0.3801575868902729 0 -0.4567328257210691 -0.38038864616639539 0 -0.47344652270633231 -0.36864076809020141 0 -0.47473532216977787 -0.39020014126176289 0 -0.4567328257210691 -0.38038864616639539 0 -0.45971623578707249 -0.39501350092498688 0 -0.47473532216977787 -0.39020014126176289 0 -0.4567328257210691 -0.38038864616639539 0 -0.4567328257210691 -0.38038864616639539 0 -0.45971623578707249 -0.39501350092498688 0 -0.44781156267635031 -0.38998415719909529 0 -0.47391311569059602 -0.40985976062988938 0 -0.47735588467662471 -0.39831477810858201 0 -0.45471176935325758 -0.41043601241359751 0 -0.47735588467662471 -0.39831477810858201 0 -0.45471176935325758 -0.41043601241359751 0 -0.47735588467662471 -0.39831477810858201 0 -0.46662980299668322 -0.39849110817723271 0 -0.45471176935325758 -0.41043601241359751 0 -0.47473532216977787 -0.39020014126176289 0 -0.45971623578707249 -0.39501350092498688 0 -0.46662980299668322 -0.39849110817723271 0 -0.45971623578707249 -0.39501350092498688 0 -0.46662980299668322 -0.39849110817723271 0 -0.45471176935325758 -0.41043601241359751 0 -0.45971623578707249 -0.39501350092498688 0 -0.45155859642489232 -0.39929931093230508 0 -0.45471176935325758 -0.41043601241359751 0 -0.45155859642489232 -0.39929931093230508 0 -0.44824946450714342 -0.40515870977251628 0 -0.45471176935325758 -0.41043601241359751 0 -0.45155859642489232 -0.39929931093230508 0 -0.44824946450714342 -0.40515870977251628 0 -0.44449793567222617 -0.39779982631050159 0 -0.44824946450714342 -0.40515870977251628 0 -0.44449793567222617 -0.39779982631050159 0 -0.43745157503684018 -0.40095680411820112 0 -0.44824946450714342 -0.40515870977251628 0 -0.43462506675538343 -0.41103883463228708 0 -0.43745157503684018 -0.40095680411820112 0 -0.44449793567222617 -0.39779982631050159 0 -0.43385099614431999 -0.39052119427556342 0 -0.43745157503684018 -0.40095680411820112 0 -0.44449793567222617 -0.39779982631050159 0 -0.44781156267635031 -0.38998415719909529 0 -0.43385099614431999 -0.39052119427556342 0 -0.45155859642489232 -0.39929931093230508 0 -0.44449793567222617 -0.39779982631050159 0 -0.44781156267635031 -0.38998415719909529 0 -0.45971623578707249 -0.39501350092498688 0 -0.45155859642489232 -0.39929931093230508 0 -0.44781156267635031 -0.38998415719909529 0 -0.4567328257210691 -0.38038864616639539 0 -0.44781156267635031 -0.38998415719909529 0 -0.43873032927236028 -0.37057715107102801 0 -0.44781156267635031 -0.38998415719909529 0 -0.43385099614431999 -0.39052119427556342 0 -0.43873032927236028 -0.37057715107102801 0 -0.4567328257210691 -0.38038864616639539 0 -0.43873032927236028 -0.37057715107102801 0 -0.45988852696780758 -0.42429793817488981 0 -0.45573007022931572 -0.43167121872836961 0 -0.44812776183651393 -0.41281091944016318 0 -0.45711460573364382 -0.44222964531902381 0 -0.45573007022931572 -0.43167121872836961 0 -0.4658735671707861 -0.43590833345207869 0 -0.45988852696780758 -0.42429793817488981 0 -0.45573007022931572 -0.43167121872836961 0 -0.4658735671707861 -0.43590833345207869 0 -0.47255323664437882 -0.42839477968960882 0 -0.45988852696780758 -0.42429793817488981 0 -0.4658735671707861 -0.43590833345207869 0 -0.47255323664437882 -0.42839477968960882 0 -0.45988852696780758 -0.42429793817488981 0 -0.46411879318334948 -0.42049002703325922 0 -0.47418110132762692 -0.41623014255297369 0 -0.4498523077935852 -0.41303724771556549 0 -0.47391311569059602 -0.40985976062988938 0 -0.47418110132762692 -0.41623014255297369 0 -0.45471176935325758 -0.41043601241359751 0 -0.47418110132762692 -0.41623014255297369 0 -0.46411879318334948 -0.42049002703325922 0 -0.4498523077935852 -0.41303724771556549 0 -0.47418110132762692 -0.41623014255297369 0 -0.45471176935325758 -0.41043601241359751 0 -0.4498523077935852 -0.41303724771556549 0 -0.47391311569059602 -0.40985976062988938 0 -0.45471176935325758 -0.41043601241359751 0 -0.45988852696780758 -0.42429793817488981 0 -0.46411879318334948 -0.42049002703325922 0 -0.4498523077935852 -0.41303724771556549 0 -0.45988852696780758 -0.42429793817488981 0 -0.4498523077935852 -0.41303724771556549 0 -0.44812776183651393 -0.412
[...]
<PointData Scalars="" Vectors="displacement," Tensors="">
<DataArray type="Float64" Name="displacement" NumberOfComponents="3" format="ascii">
-0.034997455158029322 -8.072281163230066e-07 0 -0.03429474896908416 -8.8118016191355886e-05 0 -0.034999961567508217 7.8499520938196034e-08 0 -0.034997455158029322 -8.072281163230066e-07 0 -0.03429474896908416 -8.8118016191355886e-05 0 -0.032629559671996829 1.3723378732722447e-06 0 -0.03429474896908416 -8.8118016191355886e-05 0 -0.034454442604377855 0.00038617273157137753 0 -0.034673777787625648 0.00013638030788056286 0 -0.032621583773635894 3.5943217467982612e-09 0 -0.031804519367565162 -0.00011125836935743121 0 -0.031275008732484989 4.7797056522282013e-09 0 -0.032624508263245242 -7.5238403355226131e-08 0 -0.033067900049825572 0.00036725075799980486 0 -0.03429474896908416 -8.8118016191355886e-05 0 -0.032629559671996829 1.3723378732722447e-06 0 -0.033945303411641752 0.00065150057310442802 0 -0.03429474896908416 -8.8118016191355886e-05 0 -0.033945303411641752 0.00065150057310442802 0 -0.034454442604377855 0.00038617273157137753 0 -0.033945303411641752 0.00065150057310442802 0 -0.034454442604377855 0.00038617273157137753 0 -0.03444788680950598 0.00070605774639113993 0 -0.033067900049825572 0.00036725075799980486 0 -0.031531958939490116 0.00049643140600759601 0 -0.028359835638832286 0.001048168558721456 0 -0.031268011328767956 2.8807830894915527e-06 0 -0.028573073101550422 4.9075459693061679e-05 0 -0.031531958939490116 0.00049643140600759601 0 -0.031269419922569965 3.3079506811339699e-07 0 -0.031804519367565162 -0.00011125836935743121 0 -0.032251494681042908 0.00022311313304673887 0 -0.031275008732484989 4.7797056522282013e-09 0 -0.033056504187344175 0.00029364817019042374 0 -0.034106749847841157 0.00039653715282401356 0 -0.03444788680950598 0.00070605774639113993 0 -0.03494913316427066 0.00050551212732890204 0 -0.034711726308683688 0.00040334611190062154 0 -0.028359835638832286 0.001048168558721456 0 -0.028573073101550422 4.9075459693061679e-05 0 -0.027515611048219916 0.00048673923188472169 0 -0.031348241504968274 0.00036053010082277555 0 -0.03058862039481533 0.00036969389818216893 0 -0.030954373560074609 9.7606666241856593e-05 0 -0.031531958939490116 0.00049643140600759601 0 -0.033056504187344175 0.00029364817019042374 0 -0.031531958939490116 0.00049643140600759601 0 -0.029067328975920237 0.00019864408262230794 0 -0.034454442604377855 0.00038617273157137753 0 -0.03444788680950598 0.00070605774639113993 0 -0.034711726308683688 0.00040334611190062154 0 -0.034454442604377855 0.00038617273157137753 0 -0.034711726308683688 0.00040334611190062154 0 -0.034673777787625648 0.00013638030788056286 0 -0.034711726308683688 0.00040334611190062154 0 -0.034861463933494499 0.00018245632949182334 0 -0.034673777787625648 0.00013638030788056286 0 -0.03494913316427066 0.00050551212732890204 0 -0.034711726308683688 0.00040334611190062154 0 -0.034927478171460177 0.00033223695962631967 0 -0.034711726308683688 0.00040334611190062154 0 -0.034927478171460177 0.00033223695962631967 0 -0.034861463933494499 0.00018245632949182334 0 -0.034909951319799487 0.00032882372074191651 0 -0.034927478171460177 0.00033223695962631967 0 -0.034951829536204085 0.00028910160205315852 0 -0.034927478171460177 0.00033223695962631967 0 -0.034861463933494499 0.00018245632949182334 0 -0.034953816120589433 0.00022247263584164321 0 -0.034861463933494499 0.00018245632949182334 0 -0.034958600697352286 0.00010812471292055145 0 -0.034999961567508217 7.8499520938196034e-08 0 -0.034861463933494499 0.00018245632949182334 0 -0.034958600697352286 0.00010812471292055145 0 -0.034953816120589433 0.00022247263584164321 0 -0.03429474896908416 -8.8118016191355886e-05 0 -0.034673777787625648 0.00013638030788056286 0 -0.034999961567508217 7.8499520938196034e-08 0 -0.034861463933494499 0.00018245632949182334 0 -0.034673777787625648 0.00013638030788056286 0 -0.034999961567508217 7.8499520938196034e-08 0 -0.034958600697352286 0.00010812471292055145 0 -0.034999961567508217 7.8499520938196034e-08 0 -0.035003336861364427 1.9800540820767771e-05 0 -0.034999961567508217 7.8499520938196034e-08 0 -0.035003336861364427 1.9800540820767771e-05 0 -0.035000070942222614 7.5743416243764018e-08 0 -0.035003336861364427 1.9800540820767771e-05 0 -0.035014018443664231 0.00014653910153709002 0 -0.034981021419033975 0.00015930680136521722 0 -0.034998077255675407 3.0767154393297279e-05 0 -0.035066984098495804 0.00010378208304083475 0 -0.035003336861364427 1.9800540820767771e-05 0 -0.035034543229888158 0.000145586009453384 0 -0.035014018443664231 0.00014653910153709002 0 -0.035014018443664231 0.00014653910153709002 0 -0.034981021419033975 0.00015930680136521722 0 -0.034998085207543966 0.00021417767941209708 0 -0.034958600697352286 0.00010812471292055145 0 -0.035003336861364427 1.9800540820767771e-05 0 -0.034981021419033975 0.00015930680136521722 0 -0.034958600697352286 0.00010812471292055145 0 -0.034981021419033975 0.00015930680136521722 0 -0.034953816120589433 0.00022247263584164321 0 -0.034997061244351861 -1.3354904981365392e-06 0 -0.034099963214318373 -0.00013323592557747623 0 -0.034663743321791091 -3.2225604368047718e-05 0 -0.034997061244351861 -1.3354904981365392e-06 0 -0.032416780670016451 -0.00017169951747582736 0 -0.034099963214318373 -0.00013323592557747623 0 -0.035003336861364427 1.9800540820767771e-05 0 -0.035000070942222614 7.5743416243764018e-08 0 -0.034994116309587722 3.5144426829667274e-05 0 -0.034999340395027487 2.0849182615889286e-07 0 -0.033688396884691059 7.509113089036188e-05 0 -0.035003336861364427 1.9800540820767771e-05 0 -0.034964610010097021 4.5110973151415923e-05 0 -0.034994116309587722 3.5144426829667274e-05 0 -0.032416780670016451 -0.00017169951747582736 0 -0.032902930216594274 2.2063380076156656e-05 0 -0.031829060154799492 2.1702003541547189e-05 0 -0.032416780670016451 -0.00017169951747582736 0 -0.032902930216594274 2.2063380076156656e-05 0 -0.034099963214318373 -0.00013323592557747623 0 -0.032902930216594274 2.2063380076156656e-05 0 -0.033891337361180149 -1.9244114577112494e-05 0 -0.034099963214318373 -0.00013323592557747623 0 -0.033891337361180149 -1.9244114577112494e-05 0 -0.034099963214318373 -0.00013323592557747623 0 -0.034234257511464375 -8.3041222666724177e-05 0 -0.032902930216594274 2.2063380076156656e-05 0 -0.033891337361180149 -1.9244114577112494e-05 0 -0.034103528375874215 8.5010250172792273e-05 0 -0.033891337361180149 -1.9244114577112494e-05 0 -0.034103528375874215 8.5010250172792273e-05 0 -0.034234257511464375 -8.3041222666724177e-05 0 -0.032902930216594274 2.2063380076156656e-05 0 -0.031030474188201831 6.2761331095300961e-05 0 -0.031489845055570911 8.5926565616719914e-05 0 -0.032740873353394657 -9.1238107575968867e-05 0 -0.032526438358510559 -7.9345366038146726e-05 0 -0.031030474188201831 6.2761331095300961e-05 0 -0.031489845055570911 8.5926565616719914e-05 0 -0.03078162113619547 5.1679393383504697e-05 0 -0.034964610010097021 4.5110973151415923e-05 0 -0.034994116309587722 3.5144426829667274e-05 0 -0.034936205313141615 9.8667070336197393e-05 0 -0.033688396884691059 7.509113089036188e-05 0 -0.032778647272721409 4.701462197580309e-05 0 -0.032416780670016451 -0.00017169951747582736 0 -0.031829060154799492 2.1702003541547189e-05 0 -0.030721960265848565 0.00011556729151388915 0 -0.032902930216594274 2.2063380076156656e-05 0 -0.031489845055570911 8.5926565616719914e-05 0 -0.031829060154799492 2.1702003541547189e-05 0 -0.031489845055570911 8.5926565616719914e-05 0 -0.031829060154799492 2.1702003541547189e-05 0 -0.030721960265848565 0.00011556729151388915 0 -0.031489845055570911 8.5926565616719914e-05 0 -0.030887035502661073 9.5342662478191319e-05 0 -0.030721960265848565 0.00011556729151388915 0 -0.030887035502661073 9.5342662478191319e-05 0 -0.030548421228955378 8.0598144029560891e-05 0 -0.030721960265848565 0.00011556729151388915 0 -0.030887035502661073 9.5342662478191319e-05 0 -0.030548421228955378 8.0598144029560891e-05 0 -0.03052987767645671 0.00010765336887627988 0 -0.030548421228955378 8.0598144029560891e-05 0 -0.03052987767645671 0.00010765336887627988 0 -0.030099996321747279 0.00021717456717653677 0 -0.030548421228955378 8.0598144029560891e-05 0 -0.029719293829668852 0.0002803124353738443 0 -0.030099996321747279 0.00021717456717653677 0 -0.03052987767645671 0.00010765336887627988 0 -0.030225150261519711 0.00022566938438019167 0 -0.030099996321747279 0.00021717456717653677 0 -0.03052987767645671 0.00010765336887627988 0 -0.03078162113619547 5.1679393383504697e-05 0 -0.030225150261519711 0.00022566938438019167 0 -0.030887035502661073 9.5342662478191319e-05 0 -0.03052987767645671 0.00010765336887627988 0 -0.03078162113619547 5.1679393383504697e-05 0 -0.031489845055570911 8.5926565616719914e-05 0 -0.030887035502661073 9.5342662478191319e-05 0 -0.03078162113619547 5.1679393383504697e-05 0 -0.031030474188201831 6.2761331095300961e-05 0 -0.03078162113619547 5.1679393383504697e-05 0 -0.03068246834758652 8.9584239135496603e-05 0 -0.03078162113619547 5.1679393383504697e-05 0 -0.030225150261519711 0.00022566938438019167 0 -0.03068246834758652 8.9584239135496603e-05 0 -0.032526438358510559 -7.9345366038146726e-05 0 -0.032638868765605268 -9.7782120387707412e-06 0 -0.03498233178080503 0.00024838646626422728 0 -0.034951829536204085 0.00028910160205315852 0 -0.035012234452727997 0.00030463266387892394 0 -0.034927478171460177 0.00033223695962631967 0 -0.034951829536204085 0.00028910160205315852 0 -0.034953816120589433 0.00022247263584164321 0 -0.03498233178080503 0.00024838646626422728 0 -0.034951829536204085 0.00028910160205315852 0 -0.034953816120589433 0.00022247263584164321 0 -0.034981021419033975 0.00015930680136521722 0 -0.03498233178080503 0.00024838646626422728 0 -0.034953816120589433 0.00022247263584164321 0 -0.034981021419033975 0.00015930680136521722 0 -0.03498233178080503 0.00024838646626422728 0 -0.034998085207543966 0.00021417767941209708 0 -0.035594298069693116 0.00030583358564610305 0 -0.03214422717234891 8.1025364507365376e-05 0 -0.035034543229888158 0.000145586009453384 0 -0.035014018443664231 0.00014653910153709002 0 -0.034985269386902766 0.00020348382759964638 0 -0.035014018443664231 0.00014653910153709002 0 -0.034998085207543966 0.00021417767941209708 0 -0.035014329513485314 0.00029662375785606093 0 -0.035014018443664231 0.00014653910153709002 0 -0.034985269386902766 0.00020348382759964638 0 -0.034966554506477586 0.00021753776474439898 0 -0.035066984098495804 0.00010378208304083475 0 -0.032778647272721409 4.701462197580309e-05 0 -0.03498233178080503 0.00024838646626422728 0 -0.034998085207543966 0.00021417767941209708 0 -0.035014329513485314 0.00029662375785606093 0 -0.03498233178080503 0.00024838646626422728 0 -0.035014329513485314 0.00029662375785606093 0 -0.035012234452727997 0.00030463266387892394 0 -0.030548421228955378 8.0598144029560891e-05 0 -0.030721960265848565 0.00011556729151388915 0 -0.030674298526744189 4.9328353128969614e-05 0 -0.032778647272721409 4.701462197580309e-05 0 -0.030639223364769146 -0.00035345933366192858 0 -0.032778647272721409 4.701462197580309e-05 0 -0.03214422717234891 8.1025364507365376e-05 0 -0.031660800998315225 -0.00023442026770744188 0 -0.031582071759262552 -9.6633687522422438e-05 0 -0.031649713657804203 -4.8720786483238318e-05 0 -0.031582071759262552 -9.6633687522422438e-05 0 -0.031587390915484057 -4.7736215377227729e-05 0 -0.031649713657804203 -4.8720786483238318e-05 0 -0.03214422717234891 8.1025364507365376e-05 0 -0.030603490814320955 -0.00050663153320091995 0 -0.030603490814320955 -0.00050663153320091995 0 -0.030639223364769146 -0.00035345933366192858 0 -0.030555880217268773 -0.00024714275956834393 0 -0.030639223364769146 -0.00035345933366192858 0 -0.030603490814320955 -0.00050663153320091995 0 -0.027025297284423426 -0.0012782263508751821 0 -0.030548421228955378 8.0598144029560891e-05 0 -0.030262887066221284 4.0567289775472626e-05 0 -0.029719293829668852 0.0002803124353738443 0 -0.030639223364769146 -0.00035345933366192858 0 -0.027025297284423426 -0.0012782263508751821 0 -0.029112474026400759 -0.00036999760938963793 0 -0.028959441917102237 -0.00036754037764860067 0 -0.028959496833028273 -0.0013185735313644557 0 -0.030603490814320955 -0.00050663153320091995 0 -0.026937743098130705 -0.00072478258886624145 0 -0.024601715955197046 -0.0019360355190427448 0 -0.024305309233637204 -0.0015589754578767658 0 -0.024604724146372325 -0.0015824463702907136 0 -0.030152507617083164 -5.2961944997233619e-05 0 -0.029525823928781565 -5.0926980311396011e-05 0 -0.029935588253274983 -0.00028925441108264299 0 -0.029525823928781565 -5.0926980311396011e-05 0 -0.029935588253274983 -0.00028925441108264299 0 -0.029703623158293616 -0.00035491488202254507 0 -0.033056504187344175 0.00029364817019042374 0 -0.030603490814320955 -0.00050663153320091995 0 -0.034909951319799487 0.00032882372074191651 0 -0.034951829536204085 0.00028910160205315852 0 -0.035012234452727997 0.00030463266387892394 0 -0.029935588253274983 -0.00028925441108264299 0 -0.029853531039827769 -0.00066312055856666146 0 -0.030117942955954099 -0.00049473968703640022 0 -0.029935588253274983 -0.00028925441108264299 0 -0.029703623158293616 -0.00035491488202254507 0 -0.029853531039827769 -0.00066312055856666146 0 -0.027106558908618846 -0.00069350198531685362 0 -0.028767408234221845 -0.00013343917624236687 0 -0.026937743098130705 -0.00072478258886624145 0 -0.027106558908618846 -0.00069350198531685362 0 -0.024305309233637204 -0.0015589754578767658 0 -0.024294317699270134 -0.0012092417981035305 0 -0.024043138518053623 -0.0011697040300228817 0 -0.024305309233637204 -0.0015589754578767658 0 -0.024604724146372325 -0.0015824463702907136 0 -0.024426678446880401 -0.0012834898183963072 0 -0.029719293829668852 0.0002803124353738443 0 -0.028564947718345272 0.00090634019612123953 0 -0.029497079878211544 0.00049542440581196948 0 -0.027025297284423426 -0.0012782263508751821 0 -0.026754977048046018 -0.00020422631936491199 0 -0.024305309233637204 -0.0015589754578767658 0 -0.024426678446880401 -0.0012834898183963072 0 -0.024294317699270134 -0.0012092417981035305 0 -0.024426678446880401 -0.0012834898183963072 0 -0.024294317699270134 -0.0012092417981035305 0 -0.024501771476181763 -0.00078589627744655825 0 -0.024604724146372325 -0.0015824463702907136 0 -0.024426678446880401 -0.0012834898183963072 0 -0.024501771476181763 -0.00078589627744655825 0 -0.024881114818068858 -0.0023253488076813017 0 -0.02488868206612015 -0.0016051561791828252 0 -0.024723358725809861 -0.0012726037759329394 0 -0.027025297284423426 -0.0012782263508751821 0 -0.024275246156328437 -0.0011653885073477637 0 -0.024294317699270134 -0.0012092417981035305 0 -0.024276215143355911 -0.00097506166131247987 0 -0.024501771476181763 -0.00078589627744655825 0 -0.024276215143355911 -0.00097506166131247987 0 -0.024280187103546735 -0.00079759835312445345 0 -0.024501771476181763 -0.00078589627744655825 0 -0.026800503279452579 -0.00045038495385249413 0 -0.026907834592646829 -0.00068884107731241606 0 -0.026945096511072242 -0.00035777981643767633 0 -0.027106558908618846 -0.00069350198531685362 0 -0.024992609640006522 -0.0008297998968902475 0 -0.024090590402968012 -0.0008098281277924323 0 -0.024043138518053623 -0.0011697040300228817 0 -0.02369501159771879 -0.00057736338894596518 0 -0.024276215143355911 -0.00097506166131247987 0 -0.024090590402968012 -0.0008098281277924323 0 -0.024280187103546735 -0.00079759835312445345 0 -0.024276215143355911 -0.00097506166131247987 0 -0.024090590402968012 -0.0008098281277924323 0 -0.024043138518053623 -0.0011697040300228817 0 -0.024294317699270134 -0.0012092417981035305 0 -0.024276215143355911 -0.00097506166131247987 0 -0.024043138518053623 -0.0011697040300228817 0 -0.030396531026436305 0.0004587737593533082 0 -0.030225150261519711 0.00022566938438019167 0 -0.03068246834758652 8.9584239135496603e-05 0 -0.030396531026436305 0.0004587737593533082 0 -0.030225150261519711 0.00022566938438019167 0 -0.029780476502752878 0.00057350691833310118 0 -0.030225150261519711 0.00022566938438019167 0 -0.029497079878211544 0.00049542440581196948 0 -0.029780476502752878 0.00057350691833310118 0 -0.030225150261519711 0.00022566938438019167 0 -0.030099996321747279 0.00021717456717653677 0 -0.029497079878211544 0.00049542440581196948 0 -0.029719293829668852 0.0002803124353738443 0 -0.030099996321747279 0.00021717456717653677 0 -0.029497079878211544 0.00049542440581196948 0 -0.028564947718345272 0.00090634019612123953 0 -0.029497079878211544 0.00049542440581196948 0 -0.02874752224194051 0.00099203036683107515 0 -0.028564947718345272 0.00090634019612123953 0 -0.02874752224194051 0.00099203036683107515 0 -0.027911871495568563 0.0012679704024639361 0 -0.029497079878211544 0.00049542440581196948 0 -0.02874752224194051 0.00099203036683107515 0 -0.029780476502752878 0.00057350691833310118 0 -0.030396531026436305 0.0004587737593533082 0 -0.029780476502752878 0.00057350691833310118 0 -0.030138507376329629 0.0012239901346302172 0 -0.02874752224194051 0.00099203036683107515 0 -0.029780476502752878 0.00057350691833310118 0 -0.030138507376329629 0.0012239901346302172 0 -0.025688738512908173 0.0011407656874820307 0 -0.025726549202070265 0.0012288070644763814 0 -0.027198600690368578 0.0015455188842944103 0 -0.027748915551022758 0.0011925272971840884 0 -0.027465904153657301 0.0014116959842772189 0 -0.025688738512908173 0.0011407656874820307 0 -0.025726549202070265 0.0012288070644763814 0 -0.026149390641771679 0.0013360513498612305 0 -0.025726549202070265 0.0012288070644763814 0 -0.027198600690368578 0.0015455188842944103 0 -0.026397694304271822 0.0011841792143367259 0 -0.028564947718345272 0.00090634019612123953 0 -0.027911871495568563 0.0012679704024639361 0 -0.02726066438157693 0.0014721582239038658 0 -0.02874752224194051 0.00099203036683107515 0 -0.030138507376329629 0.0012239901346302172 0 -0.027198600690368578 0.0015455188842944103 0 -0.02874752224194051 0.00099203036683107515 0 -0.027911871495568563 0.0012679704024639361 0 -0.027198600690368578 0.0015455188842944103 0 -0.027911871495568563 0.0012679704024639361 0 -0.027198600690368578 0.0015455188842944103 0 -0.02726066438157693 0.0014721582239038658 0 -0.027198600690368578 0.0015455188842944103 0 -0.02726066438157693 0.0014721582239038658 0 -0.026397694304271822 0.0011841792143367259 0 -0.026075350088545002 0.00040232798440236893 0 -0.025465094054532043 0.00050287607271095008 0 -0.02726066438157693 0.0014721582239038658 0 -0.026025662579167764 0.00091343603383869834 0 -0.025213193798960386 0.00038266650304300101 0 -0.02726066438157693 0.0014721582239038658 0 -0.026397694304271822 0.0011841792143367259 0 -0.026025662579167764 0.00091343603383869834 0 -0.025466355681829481 0.00071902642135581287 0 -0.026025662579167764 0.00091343603383869834 0 -0.025637124085763897 0.00096538014877640607 0 -0.025466355681829481 0.00071902642135581287 0 -0.026025662579167764 0.00091343603383869834 0 -0.025213193798960386 0.00038266650304300101 0 -0.026397694304271822 0.0011841792143367259 0 -0.026025662579167764 0.00091343603383869834 0 -0.025637124085763897 0.00096538014877640607 0 -0.025726549202070265 0.0012288070644763814 0 -0.025637124085763897 0.00096538014877640607 0 -0.025416059582737391 0.001275462071782734 0 -0.025726549202070265 0.0012288070644763814 0 -0.026397694304271822 0.0011841792143367259 0 -0.025637124085763897 0.00096538014877640607 0 -0.025637124085763897 0.00096538014877640607 0 -0.025416059582737391 0.001275462071782734 0 -0.025318988673257117 0.00092854363121414756 0 -0.025466355681829481 0.00071902642135581287 0 -0.025637124085763897 0.00096538014877640607 0 -0.025318988673257117 0.00092854363121414756 0 -0.024090590402968012 -0.0008098281277924323 0 -0.024250417614629129 -0.00061866843950099935 0 -0.02397436146843851 -0.00033457150551716999 0 -0.024090590402968012 -0.0008098281277924323 0 -0.02397436146843851 -0.00033457150551716999 0 -0.02369501159771879 -0.00057736338894596518 0 -0.024250417614629129 -0.00061866843950099935 0 -0.024283084653980672 -0.0003544969967450664