<?xml version="1.0"?>
<VTKFile type="UnstructuredGrid" version="0.1" byte_order="LittleEndian">
<UnstructuredGrid>
<Piece NumberOfPoints="27484" NumberOfCells="9606">
<Points>
<DataArray type="Float64" NumberOfComponents="3" format="ascii">
-0.5 -0.5 0 -0.47612779279856948 -0.48307293842341731 0 -0.5 -0.45121029455530248 0 -0.5 -0.5 0 -0.47612779279856948 -0.48307293842341731 0 -0.466067310823158 -0.50000000000000122 0 -0.47612779279856948 -0.48307293842341731 0 -0.46147209626126973 -0.47246915419113961 0 -0.47246533241247662 -0.46349665100113002 0 -0.466067310823158 -0.50000000000000122 0 -0.45662967450936642 -0.48582286467248359 0 -0.44674108473084267 -0.49999999999999972 0 -0.466067310823158 -0.50000000000000122 0 -0.45662967450936642 -0.48582286467248359 0 -0.47612779279856948 -0.48307293842341731 0 -0.466067310823158 -0.50000000000000122 0 -0.45662967450936642 -0.48582286467248359 0 -0.47612779279856948 -0.48307293842341731 0 -0.45662967450936642 -0.48582286467248359 0 -0.46147209626126973 -0.47246915419113961 0 -0.45662967450936642 -0.48582286467248359 0 -0.46147209626126973 -0.47246915419113961 0 -0.4471920381955754 -0.47164572934496551 0 -0.45662967450936642 -0.48582286467248359 0 -0.4471920381955754 -0.47164572934496551 0 -0.4471920381955754 -0.47164572934496551 0 -0.44674108473084267 -0.49999999999999972 0 -0.42949081604070988 -0.47718801963799079 0 -0.4471920381955754 -0.47164572934496551 0 -0.44674108473084267 -0.49999999999999972 0 -0.45662967450936642 -0.48582286467248359 0 -0.4471920381955754 -0.47164572934496551 0 -0.44674108473084267 -0.49999999999999972 0 -0.44766432780042181 -0.44194992183795379 0 -0.45711460573364382 -0.44222964531902381 0 -0.4471920381955754 -0.47164572934496551 0 -0.44766432780042181 -0.44194992183795379 0 -0.45772767783510759 -0.45787240859338818 0 -0.4471920381955754 -0.47164572934496551 0 -0.42949081604070988 -0.47718801963799079 0 -0.43710445430208239 -0.45649224840644298 0 -0.4471920381955754 -0.47164572934496551 0 -0.44766432780042181 -0.44194992183795379 0 -0.43710445430208239 -0.45649224840644298 0 -0.4471920381955754 -0.47164572934496551 0 -0.44766432780042181 -0.44194992183795379 0 -0.4471920381955754 -0.47164572934496551 0 -0.43710445430208239 -0.45649224840644298 0 -0.46147209626126973 -0.47246915419113961 0 -0.4471920381955754 -0.47164572934496551 0 -0.45772767783510759 -0.45787240859338818 0 -0.46147209626126973 -0.47246915419113961 0 -0.45772767783510759 -0.45787240859338818 0 -0.47246533241247662 -0.46349665100113002 0 -0.45772767783510759 -0.45787240859338818 0 -0.4697786824296511 -0.44859597372789412 0 -0.47246533241247662 -0.46349665100113002 0 -0.44766432780042181 -0.44194992183795379 0 -0.45772767783510759 -0.45787240859338818 0 -0.45711460573364382 -0.44222964531902381 0 -0.45772767783510759 -0.45787240859338818 0 -0.45711460573364382 -0.44222964531902381 0 -0.4697786824296511 -0.44859597372789412 0 -0.44766432780042181 -0.44194992183795379 0 -0.45711460573364382 -0.44222964531902381 0 -0.45573007022931572 -0.43167121872836961 0 -0.45711460573364382 -0.44222964531902381 0 -0.4697786824296511 -0.44859597372789412 0 -0.4658735671707861 -0.43590833345207869 0 -0.4697786824296511 -0.44859597372789412 0 -0.47964036621454897 -0.43841480636365487 0 -0.5 -0.45121029455530248 0 -0.4697786824296511 -0.44859597372789412 0 -0.47964036621454897 -0.43841480636365487 0 -0.4658735671707861 -0.43590833345207869 0 -0.47612779279856948 -0.48307293842341731 0 -0.47246533241247662 -0.46349665100113002 0 -0.5 -0.45121029455530248 0 -0.4697786824296511 -0.44859597372789412 0 -0.47246533241247662 -0.46349665100113002 0 -0.5 -0.45121029455530248 0 -0.47964036621454897 -0.43841480636365487 0 -0.5 -0.45121029455530248 0 -0.49311446202793441 -0.40928350884617959 0 -0.5 -0.45121029455530248 0 -0.49311446202793441 -0.40928350884617959 0 -0.49999999999999412 -0.3861935438035704 0 -0.49311446202793441 -0.40928350884617959 0 -0.47418110132762692 -0.41623014255297369 0 -0.47255323664437882 -0.42839477968960882 0 -0.49311446202793441 -0.40928350884617959 0 -0.47391311569059602 -0.40985976062988938 0 -0.49311446202793441 -0.40928350884617959 0 -0.47391311569059602 -0.40985976062988938 0 -0.47418110132762692 -0.41623014255297369 0 -0.47418110132762692 -0.41623014255297369 0 -0.47255323664437882 -0.42839477968960882 0 -0.46411879318334948 -0.42049002703325922 0 -0.47964036621454897 -0.43841480636365487 0 -0.49311446202793441 -0.40928350884617959 0 -0.47255323664437882 -0.42839477968960882 0 -0.47964036621454897 -0.43841480636365487 0 -0.47255323664437882 -0.42839477968960882 0 -0.4658735671707861 -0.43590833345207869 0 -0.49999999999999412 -0.3861935438035704 0 -0.48269015159314238 -0.38140079204273158 0 -0.49070719048340339 -0.36732335307375691 0 -0.49999999999999412 -0.3861935438035704 0 -0.47735588467662471 -0.39831477810858201 0 -0.48269015159314238 -0.38140079204273158 0 -0.49311446202793441 -0.40928350884617959 0 -0.49999999999999412 -0.3861935438035704 0 -0.47735588467662471 -0.39831477810858201 0 -0.49999999999999412 -0.3861935438035704 0 -0.47735588467662471 -0.39831477810858201 0 -0.49311446202793441 -0.40928350884617959 0 -0.47391311569059602 -0.40985976062988938 0 -0.47735588467662471 -0.39831477810858201 0 -0.47735588467662471 -0.39831477810858201 0 -0.47473532216977787 -0.39020014126176289 0 -0.46662980299668322 -0.39849110817723271 0 -0.47735588467662471 -0.39831477810858201 0 -0.47473532216977787 -0.39020014126176289 0 -0.48269015159314238 -0.38140079204273158 0 -0.47473532216977787 -0.39020014126176289 0 -0.47190120554758053 -0.3801575868902729 0 -0.48269015159314238 -0.38140079204273158 0 -0.47190120554758053 -0.3801575868902729 0 -0.48269015159314238 -0.38140079204273158 0 -0.47344652270633231 -0.36864076809020141 0 -0.47473532216977787 -0.39020014126176289 0 -0.47190120554758053 -0.3801575868902729 0 -0.4567328257210691 -0.38038864616639539 0 -0.47190120554758053 -0.3801575868902729 0 -0.4567328257210691 -0.38038864616639539 0 -0.47344652270633231 -0.36864076809020141 0 -0.47473532216977787 -0.39020014126176289 0 -0.4567328257210691 -0.38038864616639539 0 -0.45971623578707249 -0.39501350092498688 0 -0.47473532216977787 -0.39020014126176289 0 -0.4567328257210691 -0.38038864616639539 0 -0.4567328257210691 -0.38038864616639539 0 -0.45971623578707249 -0.39501350092498688 0 -0.44781156267635031 -0.38998415719909529 0 -0.47391311569059602 -0.40985976062988938 0 -0.47735588467662471 -0.39831477810858201 0 -0.45471176935325758 -0.41043601241359751 0 -0.47735588467662471 -0.39831477810858201 0 -0.45471176935325758 -0.41043601241359751 0 -0.47735588467662471 -0.39831477810858201 0 -0.46662980299668322 -0.39849110817723271 0 -0.45471176935325758 -0.41043601241359751 0 -0.47473532216977787 -0.39020014126176289 0 -0.45971623578707249 -0.39501350092498688 0 -0.46662980299668322 -0.39849110817723271 0 -0.45971623578707249 -0.39501350092498688 0 -0.46662980299668322 -0.39849110817723271 0 -0.45471176935325758 -0.41043601241359751 0 -0.45971623578707249 -0.39501350092498688 0 -0.45155859642489232 -0.39929931093230508 0 -0.45471176935325758 -0.41043601241359751 0 -0.45155859642489232 -0.39929931093230508 0 -0.44824946450714342 -0.40515870977251628 0 -0.45471176935325758 -0.41043601241359751 0 -0.45155859642489232 -0.39929931093230508 0 -0.44824946450714342 -0.40515870977251628 0 -0.44449793567222617 -0.39779982631050159 0 -0.44824946450714342 -0.40515870977251628 0 -0.44449793567222617 -0.39779982631050159 0 -0.43745157503684018 -0.40095680411820112 0 -0.44824946450714342 -0.40515870977251628 0 -0.43462506675538343 -0.41103883463228708 0 -0.43745157503684018 -0.40095680411820112 0 -0.44449793567222617 -0.39779982631050159 0 -0.43385099614431999 -0.39052119427556342 0 -0.43745157503684018 -0.40095680411820112 0 -0.44449793567222617 -0.39779982631050159 0 -0.44781156267635031 -0.38998415719909529 0 -0.43385099614431999 -0.39052119427556342 0 -0.45155859642489232 -0.39929931093230508 0 -0.44449793567222617 -0.39779982631050159 0 -0.44781156267635031 -0.38998415719909529 0 -0.45971623578707249 -0.39501350092498688 0 -0.45155859642489232 -0.39929931093230508 0 -0.44781156267635031 -0.38998415719909529 0 -0.4567328257210691 -0.38038864616639539 0 -0.44781156267635031 -0.38998415719909529 0 -0.43873032927236028 -0.37057715107102801 0 -0.44781156267635031 -0.38998415719909529 0 -0.43385099614431999 -0.39052119427556342 0 -0.43873032927236028 -0.37057715107102801 0 -0.4567328257210691 -0.38038864616639539 0 -0.43873032927236028 -0.37057715107102801 0 -0.45988852696780758 -0.42429793817488981 0 -0.45573007022931572 -0.43167121872836961 0 -0.44812776183651393 -0.41281091944016318 0 -0.45711460573364382 -0.44222964531902381 0 -0.45573007022931572 -0.43167121872836961 0 -0.4658735671707861 -0.43590833345207869 0 -0.45988852696780758 -0.42429793817488981 0 -0.45573007022931572 -0.43167121872836961 0 -0.4658735671707861 -0.43590833345207869 0 -0.47255323664437882 -0.42839477968960882 0 -0.45988852696780758 -0.42429793817488981 0 -0.4658735671707861 -0.43590833345207869 0 -0.47255323664437882 -0.42839477968960882 0 -0.45988852696780758 -0.42429793817488981 0 -0.46411879318334948 -0.42049002703325922 0 -0.47418110132762692 -0.41623014255297369 0 -0.4498523077935852 -0.41303724771556549 0 -0.47391311569059602 -0.40985976062988938 0 -0.47418110132762692 -0.41623014255297369 0 -0.45471176935325758 -0.41043601241359751 0 -0.47418110132762692 -0.41623014255297369 0 -0.46411879318334948 -0.42049002703325922 0 -0.4498523077935852 -0.41303724771556549 0 -0.47418110132762692 -0.41623014255297369 0 -0.45471176935325758 -0.41043601241359751 0 -0.4498523077935852 -0.41303724771556549 0 -0.47391311569059602 -0.40985976062988938 0 -0.45471176935325758 -0.41043601241359751 0 -0.45988852696780758 -0.42429793817488981 0 -0.46411879318334948 -0.42049002703325922 0 -0.4498523077935852 -0.41303724771556549 0 -0.45988852696780758 -0.42429793817488981 0 -0.4498523077935852 -0.41303724771556549 0 -0.44812776183651393 -0.412
[...]
<PointData Scalars="" Vectors="displacement," Tensors="">
<DataArray type="Float64" Name="displacement" NumberOfComponents="3" format="ascii">
-2.5391499263062055e-08 -0.034999343083018532 0 -0.00018405906427629599 -0.034033329579735004 0 -1.1925577694113756e-06 -0.03158535509803799 0 -2.5391499263062055e-08 -0.034999343083018532 0 -0.00018405906427629599 -0.034033329579735004 0 6.7850587624037125e-08 -0.034995975805969526 0 -0.00018405906427629599 -0.034033329579735004 0 -0.00029944196750215587 -0.033342580121249216 0 -0.00026016080790674558 -0.032984264633028788 0 -5.5328397016000378e-09 -0.035000019083199808 0 -1.0323446293641169e-05 -0.034996781498809318 0 -8.0287135007500228e-10 -0.034999966129524558 0 -1.0044747014073873e-07 -0.03499958019025104 0 -0.00017351097613666909 -0.03434897452871867 0 -0.00018405906427629599 -0.034033329579735004 0 6.7850587624037125e-08 -0.034995975805969526 0 -0.00015080821898357351 -0.033695207384869363 0 -0.00018405906427629599 -0.034033329579735004 0 -0.00015080821898357351 -0.033695207384869363 0 -0.00029944196750215587 -0.033342580121249216 0 -0.00015080821898357351 -0.033695207384869363 0 -0.00029944196750215587 -0.033342580121249216 0 -0.00032815537609732771 -0.033140600129385307 0 -0.00017351097613666909 -0.03434897452871867 0 -0.00013452948806110324 -0.034221264580119939 0 -3.1214021310307101e-06 -0.034983849473736825 0 -7.4588376673329518e-10 -0.034999983723437114 0 -1.259171000855534e-06 -0.034985143230090353 0 -0.00013452948806110324 -0.034221264580119939 0 1.9009202417008158e-07 -0.035000441417258776 0 -1.0323446293641169e-05 -0.034996781498809318 0 -2.3411631232964933e-05 -0.03498000727172907 0 -8.0287135007500228e-10 -0.034999966129524558 0 4.6233542646047279e-06 -0.032646178881452437 0 -0.00012459306217022764 -0.032631784668480213 0 -0.00032815537609732771 -0.033140600129385307 0 -0.00022895619033337335 -0.032757559878671391 0 -0.0003205623877004781 -0.032903833905963201 0 -3.1214021310307101e-06 -0.034983849473736825 0 -1.259171000855534e-06 -0.034985143230090353 0 -4.7842074837259665e-06 -0.034974683712016542 0 -1.1936680213274416e-06 -0.033596449224876521 0 1.6452069115295804e-06 -0.033585622162595113 0 4.762973895229294e-07 -0.033592161359507301 0 -0.00013452948806110324 -0.034221264580119939 0 4.6233542646047279e-06 -0.032646178881452437 0 -0.00013452948806110324 -0.034221264580119939 0 7.577880740238271e-05 -0.034348038100965567 0 -0.00029944196750215587 -0.033342580121249216 0 -0.00032815537609732771 -0.033140600129385307 0 -0.0003205623877004781 -0.032903833905963201 0 -0.00029944196750215587 -0.033342580121249216 0 -0.0003205623877004781 -0.032903833905963201 0 -0.00026016080790674558 -0.032984264633028788 0 -0.0003205623877004781 -0.032903833905963201 0 -0.00023592376350045215 -0.032396813883436973 0 -0.00026016080790674558 -0.032984264633028788 0 -0.00022895619033337335 -0.032757559878671391 0 -0.0003205623877004781 -0.032903833905963201 0 -0.00020668782884067404 -0.032565465066844074 0 -0.0003205623877004781 -0.032903833905963201 0 -0.00020668782884067404 -0.032565465066844074 0 -0.00023592376350045215 -0.032396813883436973 0 -0.00029971302917508125 -0.03273944016133782 0 -0.00020668782884067404 -0.032565465066844074 0 2.9847906408710015e-05 -0.032448854475744936 0 -0.00020668782884067404 -0.032565465066844074 0 -0.00023592376350045215 -0.032396813883436973 0 -8.7949764262908054e-05 -0.03214780743023446 0 -0.00023592376350045215 -0.032396813883436973 0 -0.00011465319002041873 -0.031606104536400302 0 -1.1925577694113756e-06 -0.03158535509803799 0 -0.00023592376350045215 -0.032396813883436973 0 -0.00011465319002041873 -0.031606104536400302 0 -8.7949764262908054e-05 -0.03214780743023446 0 -0.00018405906427629599 -0.034033329579735004 0 -0.00026016080790674558 -0.032984264633028788 0 -1.1925577694113756e-06 -0.03158535509803799 0 -0.00023592376350045215 -0.032396813883436973 0 -0.00026016080790674558 -0.032984264633028788 0 -1.1925577694113756e-06 -0.03158535509803799 0 -0.00011465319002041873 -0.031606104536400302 0 -1.1925577694113756e-06 -0.03158535509803799 0 0.00010146341736366948 -0.02898608346005498 0 -1.1925577694113756e-06 -0.03158535509803799 0 0.00010146341736366948 -0.02898608346005498 0 2.3747052564553441e-06 -0.02703753224882265 0 0.00010146341736366948 -0.02898608346005498 0 0.00050957803943203414 -0.03126304138121834 0 6.4946700779146732e-05 -0.031658570897159684 0 0.00024812713531659707 -0.029064093444242538 0 0.00048794932901090863 -0.030327441527093081 0 0.00010146341736366948 -0.02898608346005498 0 0.00096180148187032682 -0.031249614308941159 0 0.00050957803943203414 -0.03126304138121834 0 0.00050957803943203414 -0.03126304138121834 0 6.4946700779146732e-05 -0.031658570897159684 0 0.00038044399510832203 -0.031931059043933896 0 -0.00011465319002041873 -0.031606104536400302 0 0.00010146341736366948 -0.02898608346005498 0 6.4946700779146732e-05 -0.031658570897159684 0 -0.00011465319002041873 -0.031606104536400302 0 6.4946700779146732e-05 -0.031658570897159684 0 -8.7949764262908054e-05 -0.03214780743023446 0 1.3608582372612129e-06 -0.027030013357072422 0 -6.2123499750441091e-05 -0.025344952417077085 0 -0.00027006852826002014 -0.02537697787695915 0 1.3608582372612129e-06 -0.027030013357072422 0 0.00059109933523312889 -0.024951810380787295 0 -6.2123499750441091e-05 -0.025344952417077085 0 0.00010146341736366948 -0.02898608346005498 0 2.3747052564553441e-06 -0.02703753224882265 0 0.00014480046940597806 -0.028859681273770258 0 -1.1405152524917531e-07 -0.027034175555379954 0 0.00029202731319751614 -0.02663826173765315 0 0.00010146341736366948 -0.02898608346005498 0 0.00017494435027161961 -0.028858711960408786 0 0.00014480046940597806 -0.028859681273770258 0 0.00059109933523312889 -0.024951810380787295 0 0.0003915884455710506 -0.024918499707556489 0 0.00027896147606715579 -0.025228407197802782 0 0.00059109933523312889 -0.024951810380787295 0 0.0003915884455710506 -0.024918499707556489 0 -6.2123499750441091e-05 -0.025344952417077085 0 0.0003915884455710506 -0.024918499707556489 0 -8.870110332935205e-05 -0.024689778510697508 0 -6.2123499750441091e-05 -0.025344952417077085 0 -8.870110332935205e-05 -0.024689778510697508 0 -6.2123499750441091e-05 -0.025344952417077085 0 -0.00046965774367904549 -0.024567048210899313 0 0.0003915884455710506 -0.024918499707556489 0 -8.870110332935205e-05 -0.024689778510697508 0 -0.00017400805993419765 -0.024067896725412662 0 -8.870110332935205e-05 -0.024689778510697508 0 -0.00017400805993419765 -0.024067896725412662 0 -0.00046965774367904549 -0.024567048210899313 0 0.0003915884455710506 -0.024918499707556489 0 0.0008643611964162252 -0.025583241569247909 0 0.0003000456011323599 -0.025461887433106838 0 0.00038792643809961802 -0.024906028008153929 0 0.00035561612752031376 -0.024879872095355141 0 0.0008643611964162252 -0.025583241569247909 0 0.0003000456011323599 -0.025461887433106838 0 0.00043509168069246108 -0.025994349490098666 0 0.00017494435027161961 -0.028858711960408786 0 0.00014480046940597806 -0.028859681273770258 0 0.00017645529236699138 -0.028811164662557572 0 0.00029202731319751614 -0.02663826173765315 0 0.00033486730303952493 -0.029059207456411603 0 0.00059109933523312889 -0.024951810380787295 0 0.00027896147606715579 -0.025228407197802782 0 -0.00044758416592399346 -0.025645342166114846 0 0.0003915884455710506 -0.024918499707556489 0 0.0003000456011323599 -0.025461887433106838 0 0.00027896147606715579 -0.025228407197802782 0 0.0003000456011323599 -0.025461887433106838 0 0.00027896147606715579 -0.025228407197802782 0 -0.00044758416592399346 -0.025645342166114846 0 0.0003000456011323599 -0.025461887433106838 0 4.0203893144180875e-05 -0.025820056166592709 0 -0.00044758416592399346 -0.025645342166114846 0 4.0203893144180875e-05 -0.025820056166592709 0 -0.00026748466084839669 -0.025970216221193696 0 -0.00044758416592399346 -0.025645342166114846 0 4.0203893144180875e-05 -0.025820056166592709 0 -0.00026748466084839669 -0.025970216221193696 0 5.864521960767977e-05 -0.026160086201704433 0 -0.00026748466084839669 -0.025970216221193696 0 5.864521960767977e-05 -0.026160086201704433 0 -0.00014392272024766952 -0.026523009866147626 0 -0.00026748466084839669 -0.025970216221193696 0 -0.00068559994098783643 -0.026679894981948258 0 -0.00014392272024766952 -0.026523009866147626 0 5.864521960767977e-05 -0.026160086201704433 0 0.00036162178385342283 -0.026699190145892338 0 -0.00014392272024766952 -0.026523009866147626 0 5.864521960767977e-05 -0.026160086201704433 0 0.00043509168069246108 -0.025994349490098666 0 0.00036162178385342283 -0.026699190145892338 0 4.0203893144180875e-05 -0.025820056166592709 0 5.864521960767977e-05 -0.026160086201704433 0 0.00043509168069246108 -0.025994349490098666 0 0.0003000456011323599 -0.025461887433106838 0 4.0203893144180875e-05 -0.025820056166592709 0 0.00043509168069246108 -0.025994349490098666 0 0.0008643611964162252 -0.025583241569247909 0 0.00043509168069246108 -0.025994349490098666 0 0.0013515103454358344 -0.02644135762729009 0 0.00043509168069246108 -0.025994349490098666 0 0.00036162178385342283 -0.026699190145892338 0 0.0013515103454358344 -0.02644135762729009 0 0.00035561612752031376 -0.024879872095355141 0 0.00042112992909022263 -0.024983552089615686 0 0.00025933411132837171 -0.032205232322752658 0 2.9847906408710015e-05 -0.032448854475744936 0 0.00076374843230288768 -0.032770096610569739 0 -0.00020668782884067404 -0.032565465066844074 0 2.9847906408710015e-05 -0.032448854475744936 0 -8.7949764262908054e-05 -0.03214780743023446 0 0.00025933411132837171 -0.032205232322752658 0 2.9847906408710015e-05 -0.032448854475744936 0 -8.7949764262908054e-05 -0.03214780743023446 0 6.4946700779146732e-05 -0.031658570897159684 0 0.00025933411132837171 -0.032205232322752658 0 -8.7949764262908054e-05 -0.03214780743023446 0 6.4946700779146732e-05 -0.031658570897159684 0 0.00025933411132837171 -0.032205232322752658 0 0.00038044399510832203 -0.031931059043933896 0 0.00068317897214058808 -0.03202855377647023 0 0.0002269367965981294 -0.031038007988012099 0 0.00096180148187032682 -0.031249614308941159 0 0.00050957803943203414 -0.03126304138121834 0 0.00088371046913759456 -0.032378038716889108 0 0.00050957803943203414 -0.03126304138121834 0 0.00038044399510832203 -0.031931059043933896 0 0.00076120950832873457 -0.032693960863902 0 0.00050957803943203414 -0.03126304138121834 0 0.00088371046913759456 -0.032378038716889108 0 0.00073979992970944211 -0.032654545880634683 0 0.00048794932901090863 -0.030327441527093081 0 0.00033486730303952493 -0.029059207456411603 0 0.00025933411132837171 -0.032205232322752658 0 0.00038044399510832203 -0.031931059043933896 0 0.00076120950832873457 -0.032693960863902 0 0.00025933411132837171 -0.032205232322752658 0 0.00076120950832873457 -0.032693960863902 0 0.00076374843230288768 -0.032770096610569739 0 -0.00026748466084839669 -0.025970216221193696 0 -0.00044758416592399346 -0.025645342166114846 0 -0.00048873287654459436 -0.025964563810591049 0 0.00033486730303952493 -0.029059207456411603 0 -0.0001881424615900305 -0.028726159843821559 0 0.00033486730303952493 -0.029059207456411603 0 0.0002269367965981294 -0.031038007988012099 0 0.00045016697658426116 -0.029364243985592516 0 0.00016981623354345851 -0.029883436565566718 0 0.00042580076471724287 -0.030062669381171671 0 0.00016981623354345851 -0.029883436565566718 0 0.00019323069345910247 -0.030067165899946485 0 0.00042580076471724287 -0.030062669381171671 0 0.0002269367965981294 -0.031038007988012099 0 -1.9622055973843625e-05 -0.030188025691842368 0 -1.9622055973843625e-05 -0.030188025691842368 0 -0.0001881424615900305 -0.028726159843821559 0 -0.00028073386611818788 -0.028038504394078807 0 -0.0001881424615900305 -0.028726159843821559 0 -1.9622055973843625e-05 -0.030188025691842368 0 -0.00059243637986310181 -0.028399184213643725 0 -0.00026748466084839669 -0.025970216221193696 0 -0.00058082817437769124 -0.025975044860312813 0 -0.00068559994098783643 -0.026679894981948258 0 -0.0001881424615900305 -0.028726159843821559 0 -0.00059243637986310181 -0.028399184213643725 0 -0.00043266597316046198 -0.029407330695605891 0 -0.00058204459014928403 -0.029409234447190909 0 -0.00055920631500748963 -0.028479477302418937 0 -1.9622055973843625e-05 -0.030188025691842368 0 -0.00031183860022569005 -0.030627990201832857 0 -0.00063398025118826097 -0.029357653018279459 0 -0.0007125726257981922 -0.029464194119005648 0 -0.00062596810205680351 -0.029451726096364601 0 -9.9027280693844645e-05 -0.031623696839275642 0 0.00016258930188899282 -0.031599798859247796 0 -1.3867168339613538e-05 -0.031717176019941264 0 0.00016258930188899282 -0.031599798859247796 0 -1.3867168339613538e-05 -0.031717176019941264 0 8.224368650766539e-05 -0.031739175770641066 0 4.6233542646047279e-06 -0.032646178881452437 0 -1.9622055973843625e-05 -0.030188025691842368 0 -0.00029971302917508125 -0.03273944016133782 0 2.9847906408710015e-05 -0.032448854475744936 0 0.00076374843230288768 -0.032770096610569739 0 -1.3867168339613538e-05 -0.031717176019941264 0 1.1034191609042834e-05 -0.031871983982678771 0 -9.2976110235202638e-05 -0.031808415174360845 0 -1.3867168339613538e-05 -0.031717176019941264 0 8.224368650766539e-05 -0.031739175770641066 0 1.1034191609042834e-05 -0.031871983982678771 0 -0.00029627587154313701 -0.031005236991811326 0 1.2318669577976804e-05 -0.033478261818404915 0 -0.00031183860022569005 -0.030627990201832857 0 -0.00029627587154313701 -0.031005236991811326 0 -0.0007125726257981922 -0.029464194119005648 0 -0.00071141973249719379 -0.029572387811866663 0 -0.00079095946235283217 -0.029584750159452534 0 -0.0007125726257981922 -0.029464194119005648 0 -0.00062596810205680351 -0.029451726096364601 0 -0.00067079461287037365 -0.029549462432245852 0 -0.00068559994098783643 -0.026679894981948258 0 -0.00069702726507533865 -0.027782066025141799 0 -0.00015571781599466324 -0.027162405011836751 0 -0.00059243637986310181 -0.028399184213643725 0 -0.00062969397430681466 -0.028444986798560647 0 -0.0007125726257981922 -0.029464194119005648 0 -0.00067079461287037365 -0.029549462432245852 0 -0.00071141973249719379 -0.029572387811866663 0 -0.00067079461287037365 -0.029549462432245852 0 -0.00071141973249719379 -0.029572387811866663 0 -0.00062508415558249343 -0.029716440227127234 0 -0.00062596810205680351 -0.029451726096364601 0 -0.00067079461287037365 -0.029549462432245852 0 -0.00062508415558249343 -0.029716440227127234 0 -0.00059499706858476059 -0.028897029810812158 0 -0.00053744384018816836 -0.029327791155239376 0 -0.00061036040615308393 -0.029516717267067734 0 -0.00059243637986310181 -0.028399184213643725 0 -0.00061786912617411689 -0.029807854000327927 0 -0.00071141973249719379 -0.029572387811866663 0 -0.00071046583270770387 -0.029648427345345181 0 -0.00062508415558249343 -0.029716440227127234 0 -0.00071046583270770387 -0.029648427345345181 0 -0.0007013218616310382 -0.029707528313011402 0 -0.00062508415558249343 -0.029716440227127234 0 -0.00041086214925543289 -0.032345117412668961 0 -0.0002476342184912688 -0.032034261596601082 0 -0.00022871454715274619 -0.032470386078456565 0 -0.00029627587154313701 -0.031005236991811326 0 -0.00050449518553682428 -0.032231482789101186 0 -0.00077590923617423607 -0.029696924943908756 0 -0.00079095946235283217 -0.029584750159452534 0 -0.00095280910347325871 -0.029764252523776635 0 -0.00071046583270770387 -0.029648427345345181 0 -0.00077590923617423607 -0.029696924943908756 0 -0.0007013218616310382 -0.029707528313011402 0 -0.00071046583270770387 -0.029648427345345181 0 -0.00077590923617423607 -0.029696924943908756 0 -0.00079095946235283217 -0.029584750159452534 0 -0.00071141973249719379 -0.029572387811866663 0 -0.00071046583270770387 -0.029648427345345181 0 -0.00079095946235283217 -0.029584750159452534 0 0.0010537873821011626 -0.027182021588585976 0 0.00036162178385342283 -0.026699190145892338 0 0.0013515103454358344 -0.02644135762729009 0 0.0010537873821011626 -0.027182021588585976 0 0.00036162178385342283 -0.026699190145892338 0 0.00043377253854411438 -0.027404585201436647 0 0.00036162178385342283 -0.026699190145892338 0 -0.00015571781599466324 -0.027162405011836751 0 0.00043377253854411438 -0.027404585201436647 0 0.00036162178385342283 -0.026699190145892338 0 -0.00014392272024766952 -0.026523009866147626 0 -0.00015571781599466324 -0.027162405011836751 0 -0.00068559994098783643 -0.026679894981948258 0 -0.00014392272024766952 -0.026523009866147626 0 -0.00015571781599466324 -0.027162405011836751 0 -0.00069702726507533865 -0.027782066025141799 0 -0.00015571781599466324 -0.027162405011836751 0 -2.8549354982309485e-05 -0.027973741704628706 0 -0.00069702726507533865 -0.027782066025141799 0 -2.8549354982309485e-05 -0.027973741704628706 0 -0.00045855760048260457 -0.028365847542286819 0 -0.00015571781599466324 -0.027162405011836751 0 -2.8549354982309485e-05 -0.027973741704628706 0 0.00043377253854411438 -0.027404585201436647 0 0.0010537873821011626 -0.027182021588585976 0 0.00043377253854411438 -0.027404585201436647 0 0.00086201004820597033 -0.028074368633574463 0 -2.8549354982309485e-05 -0.027973741704628706 0 0.00043377253854411438 -0.027404585201436647 0 0.00086201004820597033 -0.028074368633574463 0 -0.00019660236317550899 -0.028623367016591243 0 -0.00021640939890075318 -0.028834600743367765 0 -0.00039264036219390208 -0.028800620522873466 0 0.00042869702188249773 -0.028463431980650794 0 -0.00035750994103863389 -0.028750605117175733 0 -0.00019660236317550899 -0.028623367016591243 0 -0.00021640939890075318 -0.028834600743367765 0 -0.00026887506485325391 -0.028496260857264099 0 -0.00021640939890075318 -0.028834600743367765 0 -0.00039264036219390208 -0.028800620522873466 0 -0.00034013186531906133 -0.029010787069467237 0 -0.00069702726507533865 -0.027782066025141799 0 -0.00045855760048260457 -0.028365847542286819 0 -0.00068715362760457218 -0.028890662935063916 0 -2.8549354982309485e-05 -0.027973741704628706 0 0.00086201004820597033 -0.028074368633574463 0 -0.00039264036219390208 -0.028800620522873466 0 -2.8549354982309485e-05 -0.027973741704628706 0 -0.00045855760048260457 -0.028365847542286819 0 -0.00039264036219390208 -0.028800620522873466 0 -0.00045855760048260457 -0.028365847542286819 0 -0.00039264036219390208 -0.028800620522873466 0 -0.00068715362760457218 -0.028890662935063916 0 -0.00039264036219390208 -0.028800620522873466 0 -0.00068715362760457218 -0.028890662935063916 0 -0.00034013186531906133 -0.029010787069467237 0 -0.00057840266339434293 -0.029330856744888761 0 -0.00052432866818199456 -0.029821871396202917 0 -0.00068715362760457218 -0.028890662935063916 0 -0.00042876192541019937 -0.029329136624808939 0 -0.00051487444880210672 -0.02988608537866945 0 -0.00068715362760457218 -0.028890662935063916 0 -0.00034013186531906133 -0.029010787069467237 0 -0.00042876192541019937 -0.029329136624808939 0 -0.00033379498707559487 -0.029587094930717785 0 -0.00042876192541019937 -0.029329136624808939 0 -0.00025998394249656206 -0.029272856960476809 0 -0.00033379498707559487 -0.029587094930717785 0 -0.00042876192541019937 -0.029329136624808939 0 -0.00051487444880210672 -0.02988608537866945 0 -0.00034013186531906133 -0.029010787069467237 0 -0.00042876192541019937 -0.029329136624808939 0 -0.00025998394249656206 -0.029272856960476809 0 -0.00021640939890075318 -0.028834600743367765 0 -0.00025998394249656206 -0.029272856960476809 0 -0.00015402325710725645 -0.029300100661266947 0 -0.00021640939890075318 -0.028834600743367765 0 -0.00034013186531906133 -0.029010787069467237 0 -0.00025998394249656206 -0.029272856960476809 0 -0.00025998394249656206 -0.029272856960476809 0 -0.00015402325710725645 -0.029300100661266947 0 -0.00022103584393476754 -0.029581289412905738 0 -0.00033379498707559487 -0.029587094930717785 0 -0.00025998394249656206 -0.029272856960476809 0 -0.00022103584393476754 -0.029581289412905738 0 -0.00077590923617423607 -0.029696924943908756 0 -0.00070089916095088071 -0.029769561865327775 0 -0.00080534843389009562 -0.029875922278929073 0 -0.00077590923617423607 -0.029696924943908756 0 -0.0008