<?xml version="1.0"?>
<VTKFile type="UnstructuredGrid" version="0.1" byte_order="LittleEndian">
<UnstructuredGrid>
<Piece NumberOfPoints="27484" NumberOfCells="9606">
<Points>
<DataArray type="Float64" NumberOfComponents="3" format="ascii">
-0.5 -0.5 0 -0.47612779279856948 -0.48307293842341731 0 -0.5 -0.45121029455530248 0 -0.5 -0.5 0 -0.47612779279856948 -0.48307293842341731 0 -0.466067310823158 -0.50000000000000122 0 -0.47612779279856948 -0.48307293842341731 0 -0.46147209626126973 -0.47246915419113961 0 -0.47246533241247662 -0.46349665100113002 0 -0.466067310823158 -0.50000000000000122 0 -0.45662967450936642 -0.48582286467248359 0 -0.44674108473084267 -0.49999999999999972 0 -0.466067310823158 -0.50000000000000122 0 -0.45662967450936642 -0.48582286467248359 0 -0.47612779279856948 -0.48307293842341731 0 -0.466067310823158 -0.50000000000000122 0 -0.45662967450936642 -0.48582286467248359 0 -0.47612779279856948 -0.48307293842341731 0 -0.45662967450936642 -0.48582286467248359 0 -0.46147209626126973 -0.47246915419113961 0 -0.45662967450936642 -0.48582286467248359 0 -0.46147209626126973 -0.47246915419113961 0 -0.4471920381955754 -0.47164572934496551 0 -0.45662967450936642 -0.48582286467248359 0 -0.4471920381955754 -0.47164572934496551 0 -0.4471920381955754 -0.47164572934496551 0 -0.44674108473084267 -0.49999999999999972 0 -0.42949081604070988 -0.47718801963799079 0 -0.4471920381955754 -0.47164572934496551 0 -0.44674108473084267 -0.49999999999999972 0 -0.45662967450936642 -0.48582286467248359 0 -0.4471920381955754 -0.47164572934496551 0 -0.44674108473084267 -0.49999999999999972 0 -0.44766432780042181 -0.44194992183795379 0 -0.45711460573364382 -0.44222964531902381 0 -0.4471920381955754 -0.47164572934496551 0 -0.44766432780042181 -0.44194992183795379 0 -0.45772767783510759 -0.45787240859338818 0 -0.4471920381955754 -0.47164572934496551 0 -0.42949081604070988 -0.47718801963799079 0 -0.43710445430208239 -0.45649224840644298 0 -0.4471920381955754 -0.47164572934496551 0 -0.44766432780042181 -0.44194992183795379 0 -0.43710445430208239 -0.45649224840644298 0 -0.4471920381955754 -0.47164572934496551 0 -0.44766432780042181 -0.44194992183795379 0 -0.4471920381955754 -0.47164572934496551 0 -0.43710445430208239 -0.45649224840644298 0 -0.46147209626126973 -0.47246915419113961 0 -0.4471920381955754 -0.47164572934496551 0 -0.45772767783510759 -0.45787240859338818 0 -0.46147209626126973 -0.47246915419113961 0 -0.45772767783510759 -0.45787240859338818 0 -0.47246533241247662 -0.46349665100113002 0 -0.45772767783510759 -0.45787240859338818 0 -0.4697786824296511 -0.44859597372789412 0 -0.47246533241247662 -0.46349665100113002 0 -0.44766432780042181 -0.44194992183795379 0 -0.45772767783510759 -0.45787240859338818 0 -0.45711460573364382 -0.44222964531902381 0 -0.45772767783510759 -0.45787240859338818 0 -0.45711460573364382 -0.44222964531902381 0 -0.4697786824296511 -0.44859597372789412 0 -0.44766432780042181 -0.44194992183795379 0 -0.45711460573364382 -0.44222964531902381 0 -0.45573007022931572 -0.43167121872836961 0 -0.45711460573364382 -0.44222964531902381 0 -0.4697786824296511 -0.44859597372789412 0 -0.4658735671707861 -0.43590833345207869 0 -0.4697786824296511 -0.44859597372789412 0 -0.47964036621454897 -0.43841480636365487 0 -0.5 -0.45121029455530248 0 -0.4697786824296511 -0.44859597372789412 0 -0.47964036621454897 -0.43841480636365487 0 -0.4658735671707861 -0.43590833345207869 0 -0.47612779279856948 -0.48307293842341731 0 -0.47246533241247662 -0.46349665100113002 0 -0.5 -0.45121029455530248 0 -0.4697786824296511 -0.44859597372789412 0 -0.47246533241247662 -0.46349665100113002 0 -0.5 -0.45121029455530248 0 -0.47964036621454897 -0.43841480636365487 0 -0.5 -0.45121029455530248 0 -0.49311446202793441 -0.40928350884617959 0 -0.5 -0.45121029455530248 0 -0.49311446202793441 -0.40928350884617959 0 -0.49999999999999412 -0.3861935438035704 0 -0.49311446202793441 -0.40928350884617959 0 -0.47418110132762692 -0.41623014255297369 0 -0.47255323664437882 -0.42839477968960882 0 -0.49311446202793441 -0.40928350884617959 0 -0.47391311569059602 -0.40985976062988938 0 -0.49311446202793441 -0.40928350884617959 0 -0.47391311569059602 -0.40985976062988938 0 -0.47418110132762692 -0.41623014255297369 0 -0.47418110132762692 -0.41623014255297369 0 -0.47255323664437882 -0.42839477968960882 0 -0.46411879318334948 -0.42049002703325922 0 -0.47964036621454897 -0.43841480636365487 0 -0.49311446202793441 -0.40928350884617959 0 -0.47255323664437882 -0.42839477968960882 0 -0.47964036621454897 -0.43841480636365487 0 -0.47255323664437882 -0.42839477968960882 0 -0.4658735671707861 -0.43590833345207869 0 -0.49999999999999412 -0.3861935438035704 0 -0.48269015159314238 -0.38140079204273158 0 -0.49070719048340339 -0.36732335307375691 0 -0.49999999999999412 -0.3861935438035704 0 -0.47735588467662471 -0.39831477810858201 0 -0.48269015159314238 -0.38140079204273158 0 -0.49311446202793441 -0.40928350884617959 0 -0.49999999999999412 -0.3861935438035704 0 -0.47735588467662471 -0.39831477810858201 0 -0.49999999999999412 -0.3861935438035704 0 -0.47735588467662471 -0.39831477810858201 0 -0.49311446202793441 -0.40928350884617959 0 -0.47391311569059602 -0.40985976062988938 0 -0.47735588467662471 -0.39831477810858201 0 -0.47735588467662471 -0.39831477810858201 0 -0.47473532216977787 -0.39020014126176289 0 -0.46662980299668322 -0.39849110817723271 0 -0.47735588467662471 -0.39831477810858201 0 -0.47473532216977787 -0.39020014126176289 0 -0.48269015159314238 -0.38140079204273158 0 -0.47473532216977787 -0.39020014126176289 0 -0.47190120554758053 -0.3801575868902729 0 -0.48269015159314238 -0.38140079204273158 0 -0.47190120554758053 -0.3801575868902729 0 -0.48269015159314238 -0.38140079204273158 0 -0.47344652270633231 -0.36864076809020141 0 -0.47473532216977787 -0.39020014126176289 0 -0.47190120554758053 -0.3801575868902729 0 -0.4567328257210691 -0.38038864616639539 0 -0.47190120554758053 -0.3801575868902729 0 -0.4567328257210691 -0.38038864616639539 0 -0.47344652270633231 -0.36864076809020141 0 -0.47473532216977787 -0.39020014126176289 0 -0.4567328257210691 -0.38038864616639539 0 -0.45971623578707249 -0.39501350092498688 0 -0.47473532216977787 -0.39020014126176289 0 -0.4567328257210691 -0.38038864616639539 0 -0.4567328257210691 -0.38038864616639539 0 -0.45971623578707249 -0.39501350092498688 0 -0.44781156267635031 -0.38998415719909529 0 -0.47391311569059602 -0.40985976062988938 0 -0.47735588467662471 -0.39831477810858201 0 -0.45471176935325758 -0.41043601241359751 0 -0.47735588467662471 -0.39831477810858201 0 -0.45471176935325758 -0.41043601241359751 0 -0.47735588467662471 -0.39831477810858201 0 -0.46662980299668322 -0.39849110817723271 0 -0.45471176935325758 -0.41043601241359751 0 -0.47473532216977787 -0.39020014126176289 0 -0.45971623578707249 -0.39501350092498688 0 -0.46662980299668322 -0.39849110817723271 0 -0.45971623578707249 -0.39501350092498688 0 -0.46662980299668322 -0.39849110817723271 0 -0.45471176935325758 -0.41043601241359751 0 -0.45971623578707249 -0.39501350092498688 0 -0.45155859642489232 -0.39929931093230508 0 -0.45471176935325758 -0.41043601241359751 0 -0.45155859642489232 -0.39929931093230508 0 -0.44824946450714342 -0.40515870977251628 0 -0.45471176935325758 -0.41043601241359751 0 -0.45155859642489232 -0.39929931093230508 0 -0.44824946450714342 -0.40515870977251628 0 -0.44449793567222617 -0.39779982631050159 0 -0.44824946450714342 -0.40515870977251628 0 -0.44449793567222617 -0.39779982631050159 0 -0.43745157503684018 -0.40095680411820112 0 -0.44824946450714342 -0.40515870977251628 0 -0.43462506675538343 -0.41103883463228708 0 -0.43745157503684018 -0.40095680411820112 0 -0.44449793567222617 -0.39779982631050159 0 -0.43385099614431999 -0.39052119427556342 0 -0.43745157503684018 -0.40095680411820112 0 -0.44449793567222617 -0.39779982631050159 0 -0.44781156267635031 -0.38998415719909529 0 -0.43385099614431999 -0.39052119427556342 0 -0.45155859642489232 -0.39929931093230508 0 -0.44449793567222617 -0.39779982631050159 0 -0.44781156267635031 -0.38998415719909529 0 -0.45971623578707249 -0.39501350092498688 0 -0.45155859642489232 -0.39929931093230508 0 -0.44781156267635031 -0.38998415719909529 0 -0.4567328257210691 -0.38038864616639539 0 -0.44781156267635031 -0.38998415719909529 0 -0.43873032927236028 -0.37057715107102801 0 -0.44781156267635031 -0.38998415719909529 0 -0.43385099614431999 -0.39052119427556342 0 -0.43873032927236028 -0.37057715107102801 0 -0.4567328257210691 -0.38038864616639539 0 -0.43873032927236028 -0.37057715107102801 0 -0.45988852696780758 -0.42429793817488981 0 -0.45573007022931572 -0.43167121872836961 0 -0.44812776183651393 -0.41281091944016318 0 -0.45711460573364382 -0.44222964531902381 0 -0.45573007022931572 -0.43167121872836961 0 -0.4658735671707861 -0.43590833345207869 0 -0.45988852696780758 -0.42429793817488981 0 -0.45573007022931572 -0.43167121872836961 0 -0.4658735671707861 -0.43590833345207869 0 -0.47255323664437882 -0.42839477968960882 0 -0.45988852696780758 -0.42429793817488981 0 -0.4658735671707861 -0.43590833345207869 0 -0.47255323664437882 -0.42839477968960882 0 -0.45988852696780758 -0.42429793817488981 0 -0.46411879318334948 -0.42049002703325922 0 -0.47418110132762692 -0.41623014255297369 0 -0.4498523077935852 -0.41303724771556549 0 -0.47391311569059602 -0.40985976062988938 0 -0.47418110132762692 -0.41623014255297369 0 -0.45471176935325758 -0.41043601241359751 0 -0.47418110132762692 -0.41623014255297369 0 -0.46411879318334948 -0.42049002703325922 0 -0.4498523077935852 -0.41303724771556549 0 -0.47418110132762692 -0.41623014255297369 0 -0.45471176935325758 -0.41043601241359751 0 -0.4498523077935852 -0.41303724771556549 0 -0.47391311569059602 -0.40985976062988938 0 -0.45471176935325758 -0.41043601241359751 0 -0.45988852696780758 -0.42429793817488981 0 -0.46411879318334948 -0.42049002703325922 0 -0.4498523077935852 -0.41303724771556549 0 -0.45988852696780758 -0.42429793817488981 0 -0.4498523077935852 -0.41303724771556549 0 -0.44812776183651393 -0.412
[...]
<PointData Scalars="" Vectors="displacement," Tensors="">
<DataArray type="Float64" Name="displacement" NumberOfComponents="3" format="ascii">
-0.034999098340968163 -0.03499650328955714 0 -0.034183603765381237 -0.034370083811008381 0 -0.03158616528241006 -0.034998793777820343 0 -0.034999098340968163 -0.03499650328955714 0 -0.034183603765381237 -0.034370083811008381 0 -0.034998413953049194 -0.032634165373530054 0 -0.034183603765381237 -0.034370083811008381 0 -0.033293745609330745 -0.035451414100128531 0 -0.032609815799701874 -0.035219334547742634 0 -0.034999968991714335 -0.032624581393338584 0 -0.035926472680475642 -0.03196030838174603 0 -0.034999985442830117 -0.031272041103030154 0 -0.034999972221004295 -0.032625297695647863 0 -0.034805144475093613 -0.033611495576522647 0 -0.034183603765381237 -0.034370083811008381 0 -0.034998413953049194 -0.032634165373530054 0 -0.034206686461249997 -0.035127767578945784 0 -0.034183603765381237 -0.034370083811008381 0 -0.034206686461249997 -0.035127767578945784 0 -0.033293745609330745 -0.035451414100128531 0 -0.034206686461249997 -0.035127767578945784 0 -0.033293745609330745 -0.035451414100128531 0 -0.033202655518009952 -0.036514199446755505 0 -0.034805144475093613 -0.033611495576522647 0 -0.035362931889730838 -0.032755337813019814 0 -0.036890406601272199 -0.031241886336161526 0 -0.034999963367369137 -0.031271744776467165 0 -0.036526716127391036 -0.030036628609581482 0 -0.035362931889730838 -0.032755337813019814 0 -0.035002827842477331 -0.031271051642563795 0 -0.035926472680475642 -0.03196030838174603 0 -0.036833413534847564 -0.031370550113729773 0 -0.034999985442830117 -0.031272041103030154 0 -0.031774748669803211 -0.034320218590914831 0 -0.031393478070079868 -0.036703710822852689 0 -0.033202655518009952 -0.036514199446755505 0 -0.031155499173049567 -0.036902754676292969 0 -0.03222107546279792 -0.036071396154687185 0 -0.036890406601272199 -0.031241886336161526 0 -0.036526716127391036 -0.030036628609581482 0 -0.037899804027109248 -0.030540996948298364 0 -0.03463404805956468 -0.032206396417071674 0 -0.034264720713000199 -0.032202473225348957 0 -0.034447704464791139 -0.032318758047337852 0 -0.035362931889730838 -0.032755337813019814 0 -0.031774748669803211 -0.034320218590914831 0 -0.035362931889730838 -0.032755337813019814 0 -0.036515185599129113 -0.031222701261216314 0 -0.033293745609330745 -0.035451414100128531 0 -0.033202655518009952 -0.036514199446755505 0 -0.03222107546279792 -0.036071396154687185 0 -0.033293745609330745 -0.035451414100128531 0 -0.03222107546279792 -0.036071396154687185 0 -0.032609815799701874 -0.035219334547742634 0 -0.03222107546279792 -0.036071396154687185 0 -0.031577388873590899 -0.035664740885430965 0 -0.032609815799701874 -0.035219334547742634 0 -0.031155499173049567 -0.036902754676292969 0 -0.03222107546279792 -0.036071396154687185 0 -0.031168498619537636 -0.036389166133343975 0 -0.03222107546279792 -0.036071396154687185 0 -0.031168498619537636 -0.036389166133343975 0 -0.031577388873590899 -0.035664740885430965 0 -0.031089719105479207 -0.036999247159958365 0 -0.031168498619537636 -0.036389166133343975 0 -0.030509244670660258 -0.036589781437840967 0 -0.031168498619537636 -0.036389166133343975 0 -0.031577388873590899 -0.035664740885430965 0 -0.030754861452542213 -0.036062179555991447 0 -0.031577388873590899 -0.035664740885430965 0 -0.030887881387373303 -0.035577332510761193 0 -0.03158616528241006 -0.034998793777820343 0 -0.031577388873590899 -0.035664740885430965 0 -0.030887881387373303 -0.035577332510761193 0 -0.030754861452542213 -0.036062179555991447 0 -0.034183603765381237 -0.034370083811008381 0 -0.032609815799701874 -0.035219334547742634 0 -0.03158616528241006 -0.034998793777820343 0 -0.031577388873590899 -0.035664740885430965 0 -0.032609815799701874 -0.035219334547742634 0 -0.03158616528241006 -0.034998793777820343 0 -0.030887881387373303 -0.035577332510761193 0 -0.03158616528241006 -0.034998793777820343 0 -0.028762782252869806 -0.035334068505022131 0 -0.03158616528241006 -0.034998793777820343 0 -0.028762782252869806 -0.035334068505022131 0 -0.027034102776199748 -0.03499973489731948 0 -0.028762782252869806 -0.035334068505022131 0 -0.029547578485063022 -0.035889176868433008 0 -0.030283397963112232 -0.035899761402600268 0 -0.028824778995199921 -0.035272501010341711 0 -0.028996463050926024 -0.03652799386038056 0 -0.028762782252869806 -0.035334068505022131 0 -0.029280148037470179 -0.035903772870109173 0 -0.029547578485063022 -0.035889176868433008 0 -0.029547578485063022 -0.035889176868433008 0 -0.030283397963112232 -0.035899761402600268 0 -0.029856516906942694 -0.036285431148597364 0 -0.030887881387373303 -0.035577332510761193 0 -0.028762782252869806 -0.035334068505022131 0 -0.030283397963112232 -0.035899761402600268 0 -0.030887881387373303 -0.035577332510761193 0 -0.030283397963112232 -0.035899761402600268 0 -0.030754861452542213 -0.036062179555991447 0 -0.027031832296588128 -0.034998865137962396 0 -0.02664759180096983 -0.03512446761788339 0 -0.025772255367445141 -0.035012474476073002 0 -0.027031832296588128 -0.034998865137962396 0 -0.02714691384610033 -0.035181741616620625 0 -0.02664759180096983 -0.03512446761788339 0 -0.028762782252869806 -0.035334068505022131 0 -0.027034102776199748 -0.03499973489731948 0 -0.027988219914646461 -0.036418794011451629 0 -0.027033751519933424 -0.035000211481437796 0 -0.027441337596283845 -0.035763197211795619 0 -0.028762782252869806 -0.035334068505022131 0 -0.028734357071185209 -0.036621817185405255 0 -0.027988219914646461 -0.036418794011451629 0 -0.02714691384610033 -0.035181741616620625 0 -0.027139899168470032 -0.03517210763434768 0 -0.027171656098715545 -0.034587907017421093 0 -0.02714691384610033 -0.035181741616620625 0 -0.027139899168470032 -0.03517210763434768 0 -0.02664759180096983 -0.03512446761788339 0 -0.027139899168470032 -0.03517210763434768 0 -0.026465494185548978 -0.035251091018625225 0 -0.02664759180096983 -0.03512446761788339 0 -0.026465494185548978 -0.035251091018625225 0 -0.02664759180096983 -0.03512446761788339 0 -0.025836093386389807 -0.035149851759009552 0 -0.027139899168470032 -0.03517210763434768 0 -0.026465494185548978 -0.035251091018625225 0 -0.026265424188204781 -0.035688686932821984 0 -0.026465494185548978 -0.035251091018625225 0 -0.026265424188204781 -0.035688686932821984 0 -0.025836093386389807 -0.035149851759009552 0 -0.027139899168470032 -0.03517210763434768 0 -0.02882283935216097 -0.03389814895594534 0 -0.027499641292736753 -0.034133115498847857 0 -0.027237980880691407 -0.035095031628129304 0 -0.027571765844463431 -0.034672405422212331 0 -0.02882283935216097 -0.03389814895594534 0 -0.027499641292736753 -0.034133115498847857 0 -0.028161838832994033 -0.033157585632153819 0 -0.028734357071185209 -0.036621817185405255 0 -0.027988219914646461 -0.036418794011451629 0 -0.028777817629745989 -0.037768875009451149 0 -0.027441337596283845 -0.035763197211795619 0 -0.028586952558547769 -0.035654657984950162 0 -0.02714691384610033 -0.035181741616620625 0 -0.027171656098715545 -0.034587907017421093 0 -0.02658892820005803 -0.033799943681448723 0 -0.027139899168470032 -0.03517210763434768 0 -0.027499641292736753 -0.034133115498847857 0 -0.027171656098715545 -0.034587907017421093 0 -0.027499641292736753 -0.034133115498847857 0 -0.027171656098715545 -0.034587907017421093 0 -0.02658892820005803 -0.033799943681448723 0 -0.027499641292736753 -0.034133115498847857 0 -0.027378055158702307 -0.033496864110607198 0 -0.02658892820005803 -0.033799943681448723 0 -0.027378055158702307 -0.033496864110607198 0 -0.027023575741908334 -0.03323134985112941 0 -0.02658892820005803 -0.033799943681448723 0 -0.027378055158702307 -0.033496864110607198 0 -0.027023575741908334 -0.03323134985112941 0 -0.027621010366192321 -0.032901423027626768 0 -0.027023575741908334 -0.03323134985112941 0 -0.027621010366192321 -0.032901423027626768 0 -0.027503872731239359 -0.032323458882952787 0 -0.027023575741908334 -0.03323134985112941 0 -0.026758289672732683 -0.032089815581013904 0 -0.027503872731239359 -0.032323458882952787 0 -0.027621010366192321 -0.032901423027626768 0 -0.028337056294190505 -0.032009882466381673 0 -0.027503872731239359 -0.032323458882952787 0 -0.027621010366192321 -0.032901423027626768 0 -0.028161838832994033 -0.033157585632153819 0 -0.028337056294190505 -0.032009882466381673 0 -0.027378055158702307 -0.033496864110607198 0 -0.027621010366192321 -0.032901423027626768 0 -0.028161838832994033 -0.033157585632153819 0 -0.027499641292736753 -0.034133115498847857 0 -0.027378055158702307 -0.033496864110607198 0 -0.028161838832994033 -0.033157585632153819 0 -0.02882283935216097 -0.03389814895594534 0 -0.028161838832994033 -0.033157585632153819 0 -0.029850449748349623 -0.032385563593781135 0 -0.028161838832994033 -0.033157585632153819 0 -0.028337056294190505 -0.032009882466381673 0 -0.029850449748349623 -0.032385563593781135 0 -0.027571765844463431 -0.034672405422212331 0 -0.027737447374125222 -0.034590531485275765 0 -0.030086790429957145 -0.036437808145308545 0 -0.030509244670660258 -0.036589781437840967 0 -0.029528082882533658 -0.036981876774974914 0 -0.031168498619537636 -0.036389166133343975 0 -0.030509244670660258 -0.036589781437840967 0 -0.030754861452542213 -0.036062179555991447 0 -0.030086790429957145 -0.036437808145308545 0 -0.030509244670660258 -0.036589781437840967 0 -0.030754861452542213 -0.036062179555991447 0 -0.030283397963112232 -0.035899761402600268 0 -0.030086790429957145 -0.036437808145308545 0 -0.030754861452542213 -0.036062179555991447 0 -0.030283397963112232 -0.035899761402600268 0 -0.030086790429957145 -0.036437808145308545 0 -0.029856516906942694 -0.036285431148597364 0 -0.029524028744377984 -0.036610556331878562 0 -0.02938305778914161 -0.035180838631417702 0 -0.029280148037470179 -0.035903772870109173 0 -0.029547578485063022 -0.035889176868433008 0 -0.029306862689514421 -0.036605290175796411 0 -0.029547578485063022 -0.035889176868433008 0 -0.029856516906942694 -0.036285431148597364 0 -0.029543732063509773 -0.036901130761778748 0 -0.029547578485063022 -0.035889176868433008 0 -0.029306862689514421 -0.036605290175796411 0 -0.029398401880880907 -0.036782297932930148 0 -0.028996463050926024 -0.03652799386038056 0 -0.028586952558547769 -0.035654657984950162 0 -0.030086790429957145 -0.036437808145308545 0 -0.029856516906942694 -0.036285431148597364 0 -0.029543732063509773 -0.036901130761778748 0 -0.030086790429957145 -0.036437808145308545 0 -0.029543732063509773 -0.036901130761778748 0 -0.029528082882533658 -0.036981876774974914 0 -0.027023575741908334 -0.03323134985112941 0 -0.02658892820005803 -0.033799943681448723 0 -0.026568262997987747 -0.033232693763987506 0 -0.028586952558547769 -0.035654657984950162 0 -0.02846051625550973 -0.033480221636229004 0 -0.028586952558547769 -0.035654657984950162 0 -0.02938305778914161 -0.035180838631417702 0 -0.029093329900962143 -0.035178184128259848 0 -0.02864024514184528 -0.034319521844274822 0 -0.029063041022428439 -0.034020709320896514 0 -0.02864024514184528 -0.034319521844274822 0 -0.028681043807736228 -0.034014751027012916 0 -0.029063041022428439 -0.034020709320896514 0 -0.02938305778914161 -0.035180838631417702 0 -0.029776507392418571 -0.03335124370906873 0 -0.029776507392418571 -0.03335124370906873 0 -0.02846051625550973 -0.033480221636229004 0 -0.027411489325244752 -0.03340679682503999 0 -0.02846051625550973 -0.033480221636229004 0 -0.029776507392418571 -0.03335124370906873 0 -0.028977780831306543 -0.029676598712827341 0 -0.027023575741908334 -0.03323134985112941 0 -0.026634899271097079 -0.033209802712841421 0 -0.026758289672732683 -0.032089815581013904 0 -0.02846051625550973 -0.033480221636229004 0 -0.028977780831306543 -0.029676598712827341 0 -0.028632256611140525 -0.033612027325754044 0 -0.029250306147137785 -0.033621862986526474 0 -0.02913231259530805 -0.029769288438287984 0 -0.029776507392418571 -0.03335124370906873 0 -0.030363492173100498 -0.030187138412064822 0 -0.030017554908121899 -0.030224275660238078 0 -0.029467150375451345 -0.029262002598012645 0 -0.03012971604621887 -0.02932507298295671 0 -0.030966533620694042 -0.031906788515366089 0 -0.031707385573818983 -0.031915049058955286 0 -0.031212571950382132 -0.031607450580699296 0 -0.031707385573818983 -0.031915049058955286 0 -0.031212571950382132 -0.031607450580699296 0 -0.031487261744643835 -0.031523756560847264 0 -0.031774748669803211 -0.034320218590914831 0 -0.029776507392418571 -0.03335124370906873 0 -0.031089719105479207 -0.036999247159958365 0 -0.030509244670660258 -0.036589781437840967 0 -0.029528082882533658 -0.036981876774974914 0 -0.031212571950382132 -0.031607450580699296 0 -0.031292250017465315 -0.031125997833307883 0 -0.030985132292313994 -0.03134432302412659 0 -0.031212571950382132 -0.031607450580699296 0 -0.031487261744643835 -0.031523756560847264 0 -0.031292250017465315 -0.031125997833307883 0 -0.030887349780033067 -0.029345617250757929 0 -0.034498132183777792 -0.030512149178005918 0 -0.030363492173100498 -0.030187138412064822 0 -0.030887349780033067 -0.029345617250757929 0 -0.029467150375451345 -0.029262002598012645 0 -0.02953188666987808 -0.028492513424498038 0 -0.029067773202385173 -0.028385207427759965 0 -0.029467150375451345 -0.029262002598012645 0 -0.03012971604621887 -0.02932507298295671 0 -0.02978614564403639 -0.028658329894255496 0 -0.026758289672732683 -0.032089815581013904 0 -0.027384614739764168 -0.030474831860068236 0 -0.027823223485838714 -0.031344301883790365 0 -0.028977780831306543 -0.029676598712827341 0 -0.028416755449710993 -0.028891065522124563 0 -0.029467150375451345 -0.029262002598012645 0 -0.02978614564403639 -0.028658329894255496 0 -0.02953188666987808 -0.028492513424498038 0 -0.02978614564403639 -0.028658329894255496 0 -0.02953188666987808 -0.028492513424498038 0 -0.02997846558265168 -0.02757230486512087 0 -0.03012971604621887 -0.02932507298295671 0 -0.02978614564403639 -0.028658329894255496 0 -0.02997846558265168 -0.02757230486512087 0 -0.029443883264076154 -0.027766209580192863 0 -0.029562539557525847 -0.027105713869684033 0 -0.029466985695827747 -0.026825691156634676 0 -0.028977780831306543 -0.029676598712827341 0 -0.029836651822367773 -0.026944197505666175 0 -0.02953188666987808 -0.028492513424498038 0 -0.029528410557121888 -0.028002936010844894 0 -0.02997846558265168 -0.02757230486512087 0 -0.029528410557121888 -0.028002936010844894 0 -0.029565789185370374 -0.027657246510064036 0 -0.02997846558265168 -0.02757230486512087 0 -0.033651245380578204 -0.029033713075611582 0 -0.032534456707398872 -0.026931625713973444 0 -0.032456469175242461 -0.02983917654397051 0 -0.030887349780033067 -0.029345617250757929 0 -0.032712810292225419 -0.026143761396579906 0 -0.02922888861244265 -0.027710989355855451 0 -0.029067773202385173 -0.028385207427759965 0 -0.028576977069261971 -0.027336756935795247 0 -0.029528410557121888 -0.028002936010844894 0 -0.02922888861244265 -0.027710989355855451 0 -0.029565789185370374 -0.027657246510064036 0 -0.029528410557121888 -0.028002936010844894 0 -0.02922888861244265 -0.027710989355855451 0 -0.029067773202385173 -0.028385207427759965 0 -0.02953188666987808 -0.028492513424498038 0 -0.029528410557121888 -0.028002936010844894 0 -0.029067773202385173 -0.028385207427759965 0 -0.029472421604518032 -0.031282062541298242 0 -0.028337056294190505 -0.032009882466381673 0 -0.029850449748349623 -0.032385563593781135 0 -0.029472421604518032 -0.031282062541298242 0 -0.028337056294190505 -0.032009882466381673 0 -0.028710613744117021 -0.030956121982431799 0 -0.028337056294190505 -0.032009882466381673 0 -0.027823223485838714 -0.031344301883790365 0 -0.028710613744117021 -0.030956121982431799 0 -0.028337056294190505 -0.032009882466381673 0 -0.027503872731239359 -0.032323458882952787 0 -0.027823223485838714 -0.031344301883790365 0 -0.026758289672732683 -0.032089815581013904 0 -0.027503872731239359 -0.032323458882952787 0 -0.027823223485838714 -0.031344301883790365 0 -0.027384614739764168 -0.030474831860068236 0 -0.027823223485838714 -0.031344301883790365 0 -0.028461967597314074 -0.030186442032642431 0 -0.027384614739764168 -0.030474831860068236 0 -0.028461967597314074 -0.030186442032642431 0 -0.028165797376782934 -0.029655651326903742 0 -0.027823223485838714 -0.031344301883790365 0 -0.028461967597314074 -0.030186442032642431 0 -0.028710613744117021 -0.030956121982431799 0 -0.029472421604518032 -0.031282062541298242 0 -0.028710613744117021 -0.030956121982431799 0 -0.029269079403093902 -0.03013065021512944 0 -0.028461967597314074 -0.030186442032642431 0 -0.028710613744117021 -0.030956121982431799 0 -0.029269079403093902 -0.03013065021512944 0 -0.029741373571949545 -0.028886829528866394 0 -0.029692507714124891 -0.028822842942356361 0 -0.028669771125089307 -0.029047391481592466 0 -0.029709065196197634 -0.029311227128515343 0 -0.028598764793505562 -0.029042289169901994 0 -0.029741373571949545 -0.028886829528866394 0 -0.029692507714124891 -0.028822842942356361 0 -0.029177137896600609 -0.02936310242590983 0 -0.029692507714124891 -0.028822842942356361 0 -0.028669771125089307 -0.029047391481592466 0 -0.029155926358411736 -0.028523631680910579 0 -0.027384614739764168 -0.030474831860068236 0 -0.028165797376782934 -0.029655651326903742 0 -0.028135540173339298 -0.028862622346786951 0 -0.028461967597314074 -0.030186442032642431 0 -0.029269079403093902 -0.03013065021512944 0 -0.028669771125089307 -0.029047391481592466 0 -0.028461967597314074 -0.030186442032642431 0 -0.028165797376782934 -0.029655651326903742 0 -0.028669771125089307 -0.029047391481592466 0 -0.028165797376782934 -0.029655651326903742 0 -0.028669771125089307 -0.029047391481592466 0 -0.028135540173339298 -0.028862622346786951 0 -0.028669771125089307 -0.029047391481592466 0 -0.028135540173339298 -0.028862622346786951 0 -0.029155926358411736 -0.028523631680910579 0 -0.028901644237394563 -0.027748144716455796 0 -0.029294175778605613 -0.026831289450493189 0 -0.028135540173339298 -0.028862622346786951 0 -0.029183229940125045 -0.027863732396460093 0 -0.02942444208495101 -0.026664781809028208 0 -0.028135540173339298 -0.028862622346786951 0 -0.029155926358411736 -0.028523631680910579 0 -0.029183229940125045 -0.027863732396460093 0 -0.029618942233420334 -0.027345501147852832 0 -0.029183229940125045 -0.027863732396460093 0 -0.029672996426319896 -0.028007920721551258 0 -0.029618942233420334 -0.027345501147852832 0 -0.029183229940125045 -0.027863732396460093 0 -0.02942444208495101 -0.026664781809028208 0 -0.029155926358411736 -0.028523631680910579 0 -0.029183229940125045 -0.027863732396460093 0 -0.029672996426319896 -0.028007920721551258 0 -0.029692507714124891 -0.028822842942356361 0 -0.029672996426319896 -0.028007920721551258 0 -0.029955961763869665 -0.028197526926154799 0 -0.029692507714124891 -0.028822842942356361 0 -0.029155926358411736 -0.028523631680910579 0 -0.029672996426319896 -0.028007920721551258 0 -0.029672996426319896 -0.028007920721551258 0 -0.029955961763869665 -0.028197526926154799 0 -0.029896706681955765 -0.027482158508926893 0 -0.029618942233420334 -0.027345501147852832 0 -0.029672996426319896 -0.028007920721551258 0 -0.029896706681955765 -0.027482158508926893 0 -0.02922888861244265 -0.027710989355855451 0 -0.029536711982393087 -0.027351912692012485 0 -0.029137463563052104 -0.026903644151451703 0 -0.02922888861244265 -0.027710989355855451 0 -0.029137463563052104 -0.026903644151451703 0 -0.028576977069261971 -0.027336756935795247 0 -0.029536711982393087 -0.027351912692012485 0 -0.029588882761501633 -0.026942417376602801 0 -0.029137463563052104 -0.026903644151451703 0 -0.02922888861244265 -0.027710989355855451 0 -0.029565789185370374 -0.027657246510064036 0 -0.029536711982393087 -0.027351912692012485 0 -0.029565789185370374 -0.027657246510064036 0 -0.029536711982393087 -0.027351912692012485 0 -0.02997846558265168 -0.02757230486512087 0 -0.029562539557525847 -0.027105713869684033 0 -0.029618602450742406 -0.026595506315333133 0 -0.029466985695827747 -0.026825691156634676 0 -0.029618602450742406 -0.026595506315333133 0 -0.029