<?xml version="1.0"?>
<VTKFile type="UnstructuredGrid" version="0.1" byte_order="LittleEndian">
<UnstructuredGrid>
<Piece NumberOfPoints="30618" NumberOfCells="10744">
<Points>
<DataArray type="Float64" NumberOfComponents="3" format="ascii">
-0.49427958746526202 -0.49999999999999512 0 -0.4943900888896422 -0.47349089190363358 0 -0.49427958746526202 -0.49999999999999512 0 -0.5 -0.5 0 -0.4943900888896422 -0.47349089190363358 0 -0.5 -0.5 0 -0.4943900888896422 -0.47349089190363358 0 -0.5 -0.44150235328842258 0 -0.49427958746526202 -0.49999999999999512 0 -0.4943900888896422 -0.47349089190363358 0 -0.48436842240857858 -0.48714093788813112 0 -0.49427958746526202 -0.49999999999999512 0 -0.47650045540741742 -0.5 0 -0.48436842240857858 -0.48714093788813112 0 -0.4943900888896422 -0.47349089190363358 0 -0.47066899942757451 -0.47576530412887819 0 -0.48436842240857858 -0.48714093788813112 0 -0.47066899942757451 -0.47576530412887819 0 -0.47650045540741742 -0.5 0 -0.48436842240857858 -0.48714093788813112 0 -0.47066899942757451 -0.47576530412887819 0 -0.45872132334957288 -0.49999999999999928 0 -0.45242967983978871 -0.4846708604340636 0 -0.47066899942757451 -0.47576530412887819 0 -0.47650045540741742 -0.5 0 -0.45872132334957288 -0.49999999999999928 0 -0.47066899942757451 -0.47576530412887819 0 -0.45872132334957288 -0.49999999999999928 0 -0.47066899942757451 -0.47576530412887819 0 -0.45242967983978871 -0.4846708604340636 0 -0.45249717469141032 -0.46588444847215849 0 -0.43763952177061649 -0.47770500498713542 0 -0.45242967983978871 -0.4846708604340636 0 -0.45249717469141032 -0.46588444847215849 0 -0.43763952177061649 -0.47770500498713542 0 -0.44291044788006362 -0.49999999999999939 0 -0.45242967983978871 -0.4846708604340636 0 -0.43763952177061649 -0.47770500498713542 0 -0.44291044788006362 -0.49999999999999939 0 -0.45872132334957288 -0.49999999999999928 0 -0.44291044788006362 -0.49999999999999939 0 -0.45242967983978871 -0.4846708604340636 0 -0.44838221886832419 -0.4464230337388379 0 -0.4323685956611692 -0.45541000997427139 0 -0.435988539966085 -0.44148905847597392 0 -0.44838221886832419 -0.4464230337388379 0 -0.44213238819953832 -0.43491600865963681 0 -0.435988539966085 -0.44148905847597392 0 -0.44838221886832419 -0.4464230337388379 0 -0.45249717469141032 -0.46588444847215849 0 -0.45755175660874181 -0.45423607616472811 0 -0.44838221886832419 -0.4464230337388379 0 -0.45249717469141032 -0.46588444847215849 0 -0.4323685956611692 -0.45541000997427139 0 -0.43763952177061649 -0.47770500498713542 0 -0.45249717469141032 -0.46588444847215849 0 -0.4323685956611692 -0.45541000997427139 0 -0.47066899942757451 -0.47576530412887819 0 -0.45249717469141032 -0.46588444847215849 0 -0.4675747862741928 -0.45726336772241771 0 -0.45249717469141032 -0.46588444847215849 0 -0.45755175660874181 -0.45423607616472811 0 -0.4675747862741928 -0.45726336772241771 0 -0.44838221886832419 -0.4464230337388379 0 -0.46897642374787268 -0.44262015471777721 0 -0.45660235518767722 -0.42786105997071933 0 -0.44838221886832419 -0.4464230337388379 0 -0.45755175660874181 -0.45423607616472811 0 -0.46897642374787268 -0.44262015471777721 0 -0.45755175660874181 -0.45423607616472811 0 -0.4675747862741928 -0.45726336772241771 0 -0.46897642374787268 -0.44262015471777721 0 -0.4943900888896422 -0.47349089190363358 0 -0.5 -0.44150235328842258 0 -0.49450059031402238 -0.44698178380727199 0 -0.46897642374787268 -0.44262015471777721 0 -0.48473746643246862 -0.43972512984246093 0 -0.48043585850414389 -0.43127077967876992 0 -0.46897642374787268 -0.44262015471777721 0 -0.4826166755055763 -0.45153060825775743 0 -0.48473746643246862 -0.43972512984246093 0 -0.4675747862741928 -0.45726336772241771 0 -0.46897642374787268 -0.44262015471777721 0 -0.4826166755055763 -0.45153060825775743 0 -0.47066899942757451 -0.47576530412887819 0 -0.4826166755055763 -0.45153060825775743 0 -0.4943900888896422 -0.47349089190363358 0 -0.47066899942757451 -0.47576530412887819 0 -0.4826166755055763 -0.45153060825775743 0 -0.47066899942757451 -0.47576530412887819 0 -0.4675747862741928 -0.45726336772241771 0 -0.4826166755055763 -0.45153060825775743 0 -0.4943900888896422 -0.47349089190363358 0 -0.49450059031402238 -0.44698178380727199 0 -0.4943900888896422 -0.47349089190363358 0 -0.4826166755055763 -0.45153060825775743 0 -0.49450059031402238 -0.44698178380727199 0 -0.4826166755055763 -0.45153060825775743 0 -0.48473746643246862 -0.43972512984246093 0 -0.49450059031402238 -0.44698178380727199 0 -0.5 -0.44150235328842258 0 -0.49461109173840262 -0.42047267571091063 0 -0.5 -0.39656953661894012 0 -0.49450059031402238 -0.44698178380727199 0 -0.49461109173840262 -0.42047267571091063 0 -0.48473746643246862 -0.43972512984246093 0 -0.49461109173840262 -0.42047267571091063 0 -0.48043585850414389 -0.43127077967876992 0 -0.5 -0.44150235328842258 0 -0.49450059031402238 -0.44698178380727199 0 -0.49461109173840262 -0.42047267571091063 0 -0.48473746643246862 -0.43972512984246093 0 -0.49450059031402238 -0.44698178380727199 0 -0.49461109173840262 -0.42047267571091063 0 -0.49461109173840262 -0.42047267571091063 0 -0.4947215931627828 -0.39396356761454909 0 -0.49461109173840262 -0.42047267571091063 0 -0.48393842445605872 -0.40713040098299402 0 -0.4947215931627828 -0.39396356761454909 0 -0.49461109173840262 -0.42047267571091063 0 -0.48393842445605872 -0.40713040098299402 0 -0.47214510592166908 -0.41939033492402211 0 -0.48393842445605872 -0.40713040098299402 0 -0.47214510592166908 -0.41939033492402211 0 -0.47427590700138023 -0.39469502568249409 0 -0.46897642374787268 -0.44262015471777721 0 -0.47214510592166908 -0.41939033492402211 0 -0.48043585850414389 -0.43127077967876992 0 -0.49461109173840262 -0.42047267571091063 0 -0.47214510592166908 -0.41939033492402211 0 -0.48043585850414389 -0.43127077967876992 0 -0.5 -0.39656953661894012 0 -0.4947215931627828 -0.39396356761454909 0 -0.48030453056746109 -0.36861144308094029 0 -0.49461109173840262 -0.42047267571091063 0 -0.5 -0.39656953661894012 0 -0.4947215931627828 -0.39396356761454909 0 -0.48393842445605872 -0.40713040098299402 0 -0.4947215931627828 -0.39396356761454909 0 -0.47427590700138023 -0.39469502568249409 0 -0.47427590700138023 -0.39469502568249409 0 -0.48030453056746109 -0.36861144308094029 0 -0.4947215931627828 -0.39396356761454909 0 -0.47427590700138023 -0.39469502568249409 0 -0.48030453056746109 -0.36861144308094029 0 -0.47427590700138023 -0.39469502568249409 0 -0.46334377193483078 -0.37842983215876019 0 -0.48030453056746109 -0.36861144308094029 0 -0.46334377193483078 -0.37842983215876019 0 -0.45726543839001688 -0.40541672899881109 0 -0.44416021803808919 -0.38243724496113263 0 -0.47427590700138023 -0.39469502568249409 0 -0.46334377193483078 -0.37842983215876019 0 -0.45726543839001688 -0.40541672899881109 0 -0.45726543839001688 -0.40541672899881109 0 -0.43814282409564848 -0.40387353522152758 0 -0.44416021803808919 -0.38243724496113263 0 -0.43814282409564848 -0.40387353522152758 0 -0.44416021803808919 -0.38243724496113263 0 -0.4329908326547659 -0.40007252460533121 0 -0.43814282409564848 -0.40387353522152758 0 -0.44416021803808919 -0.38243724496113263 0 -0.46897642374787268 -0.44262015471777721 0 -0.47214510592166908 -0.41939033492402211 0 -0.45660235518767722 -0.42786105997071933 0 -0.47214510592166908 -0.41939033492402211 0 -0.47427590700138023 -0.39469502568249409 0 -0.45726543839001688 -0.40541672899881109 0 -0.47214510592166908 -0.41939033492402211 0 -0.45726543839001688 -0.40541672899881109 0 -0.45660235518767722 -0.42786105997071933 0 -0.45726543839001688 -0.40541672899881109 0 -0.45660235518767722 -0.42786105997071933 0 -0.44309263043645408 -0.41812298423377797 0 -0.45726543839001688 -0.40541672899881109 0 -0.43814282409564848 -0.40387353522152758 0 -0.44309263043645408 -0.41812298423377797 0 -0.43814282409564848 -0.40387353522152758 0 -0.44309263043645408 -0.41812298423377797 0 -0.43209373842114163 -0.42530092927673752 0 -0.44838221886832419 -0.4464230337388379 0 -0.45660235518767722 -0.42786105997071933 0 -0.44213238819953832 -0.43491600865963681 0 -0.45660235518767722 -0.42786105997071933 0 -0.44213238819953832 -0.43491600865963681 0 -0.43132710435572019 -0.42815377149591122 0 -0.45660235518767722 -0.42786105997071933 0 -0.44309263043645408 -0.41812298423377797 0 -0.43132710435572019 -0.42815377149591122 0 -0.45660235518767722 -0.42786105997071933 0 -0.43132710435572019 -0.42815377149591122 0 -0.44213238819953832 -0.43491600865963681 0 -0.42986244815509678 -0.43337144475258638 0 -0.435988539966085 -0.44148905847597392 0 -0.44213238819953832 -0.43491600865963681 0 -0.42986244815509678 -0.43337144475258638 0 -0.43132710435572019 -0.42815377149591122 0 -0.42986244815509678 -0.43337144475258638 0 -0.43132710435572019 -0.42815377149591122 0 -0.42986244815509678 -0.43337144475258638 0 -0.42494843276815808 -0.42822764260015772 0 -0.42026026496879931 -0.43681168621285732 0 -0.42986244815509678 -0.43337144475258638 0 -0.42494843276815808 -0.42822764260015772 0 -0.43132710435572019 -0.42815377149591122 0 -0.42494843276815808 -0.42822764260015772 0 -0.43209373842114163 -0.42530092927673752 0 -0.42214799869492048 -0.41876725226122891 0 -0.42494843276815808 -0.42822764260015772 0 -0.43209373842114163 -0.42530092927673752 0 -0.42494843276815808 -0.42822764260015772 0 -0.43209373842114163 -0.42530092927673752 0 -0.43132710435572019 -0.42815377149591122 0 -0.42494843276815808 -0.42822764260015772 0 -0.43132710435572019 -0.42815377149591122 0 -0.44309263043645408 -0.41812298423377797 0 -0.43209373842114163 -0.42530092927673752 0 -0.43132710435572019 -0.42815377149591122 0 -0.43209373842114163 -0.42530092927673752 0 -0.43132710435572019 -0.42815377149591122 0 -0.43814282409564848 -0.40387353522152758 0 -0.43209373842114163 -0.42530092927673752 0 -0.43814282409564848 -0.40387353522152758 0 -0.43209373842114163 -0.42530092927673752 0 -0.42736227186559528 -0.41250939947999687 0 -0.43814282409564848 -0.40387353522152758 0 -0.42736227186559528 -0.41250939947999687 0 -0.42798743510346321 -0.40461924019690898 0
[...]
<PointData Scalars="" Vectors="displacement," Tensors="">
<DataArray type="Float64" Name="displacement" NumberOfComponents="3" format="ascii">
-0.044484767952551449 1.986071257842757e-07 0 -0.043284901748827369 0.00036741581588630671 0 -0.044490497625314609 5.7728431128457492e-07 0 -0.044996500922141233 -4.208260493381283e-07 0 -0.044989961948375179 1.4518842582460676e-06 0 -0.044996500922141233 -4.208260493381283e-07 0 -0.044989961948375179 1.4518842582460676e-06 0 -0.045001477958512476 3.8746921490390726e-07 0 -0.044482729900090938 2.1803853313001217e-06 0 -0.041622388290804425 0.00086498507882042683 0 -0.042875431487638942 -7.8528801209301776e-05 0 -0.044482729900090938 2.1803853313001217e-06 0 -0.042884027282354589 -1.2837051467715398e-06 0 -0.042875431487638942 -7.8528801209301776e-05 0 -0.041622388290804425 0.00086498507882042683 0 -0.042123412879704357 -0.00067445032218390981 0 -0.042875431487638942 -7.8528801209301776e-05 0 -0.042123412879704357 -0.00067445032218390981 0 -0.042884027282354589 -1.2837051467715398e-06 0 -0.042875431487638942 -7.8528801209301776e-05 0 -0.039349069104286455 0.00080824906729943353 0 -0.041279382043994554 2.1603756075588578e-06 0 -0.039979116621433011 2.3213697758727573e-05 0 -0.042123412879704357 -0.00067445032218390981 0 -0.042884027282354589 -1.2837051467715398e-06 0 -0.041288637372779852 2.2376010606256138e-07 0 -0.040700408264701615 4.7975136750006752e-05 0 -0.041284818733198794 -4.9991654830401625e-09 0 -0.039349069104286455 0.00080824906729943353 0 -0.039979116621433011 2.3213697758727573e-05 0 -0.039138903830662923 0.00046510624269544183 0 -0.039688688924258239 -0.00016457605830013075 0 -0.039979116621433011 2.3213697758727573e-05 0 -0.039138903830662923 0.00046510624269544183 0 -0.039688688924258239 -0.00016457605830013075 0 -0.039866792212152835 -1.6883183642900545e-06 0 -0.039979116621433011 2.3213697758727573e-05 0 -0.038597399243598535 -6.9433354721770983e-05 0 -0.039861475363278991 -1.2146478469752803e-08 0 -0.041279382043994554 2.1603756075588578e-06 0 -0.039866792212152835 -1.6883183642900545e-06 0 -0.039979116621433011 2.3213697758727573e-05 0 -0.038787878665239875 0.00064410827794596638 0 -0.038043317198534578 1.4940241987529772e-05 0 -0.038350404343323312 0.00038269780675858093 0 -0.038787878665239875 0.00064410827794596638 0 -0.038773489770648012 0.00068003370410616706 0 -0.038350404343323312 0.00038269780675858093 0 -0.038787878665239875 0.00064410827794596638 0 -0.039138903830662923 0.00046510624269544183 0 -0.039105918201060692 0.00060012797207352844 0 -0.038787878665239875 0.00064410827794596638 0 -0.039138903830662923 0.00046510624269544183 0 -0.038043317198534578 1.4940241987529772e-05 0 -0.039688688924258239 -0.00016457605830013075 0 -0.039138903830662923 0.00046510624269544183 0 -0.038043317198534578 1.4940241987529772e-05 0 -0.039349069104286455 0.00080824906729943353 0 -0.039138903830662923 0.00046510624269544183 0 -0.039328805500651952 0.00059485275345038996 0 -0.039138903830662923 0.00046510624269544183 0 -0.039105918201060692 0.00060012797207352844 0 -0.039328805500651952 0.00059485275345038996 0 -0.038787878665239875 0.00064410827794596638 0 -0.039507117633611186 0.00061983456753535225 0 -0.039884673747063185 0.0013125467802491745 0 -0.038787878665239875 0.00064410827794596638 0 -0.039105918201060692 0.00060012797207352844 0 -0.039507117633611186 0.00061983456753535225 0 -0.039105918201060692 0.00060012797207352844 0 -0.039328805500651952 0.00059485275345038996 0 -0.039507117633611186 0.00061983456753535225 0 -0.044989961948375179 1.4518842582460676e-06 0 -0.045001477958512476 3.8746921490390726e-07 0 -0.044994892087263948 2.2619824502674462e-06 0 -0.039507117633611186 0.00061983456753535225 0 -0.039915038619714904 0.0001054290153891217 0 -0.040382886044350488 0.00018544299390321178 0 -0.039507117633611186 0.00061983456753535225 0 -0.03970104010171227 7.7369967499347684e-05 0 -0.039915038619714904 0.0001054290153891217 0 -0.039328805500651952 0.00059485275345038996 0 -0.039507117633611186 0.00061983456753535225 0 -0.03970104010171227 7.7369967499347684e-05 0 -0.040700408264701615 4.7975136750006752e-05 0 -0.039794468073854727 0.00012545100562282488 0 -0.041622388290804425 0.00086498507882042683 0 -0.042123412879704357 -0.00067445032218390981 0 -0.03970104010171227 7.7369967499347684e-05 0 -0.039349069104286455 0.00080824906729943353 0 -0.039328805500651952 0.00059485275345038996 0 -0.03970104010171227 7.7369967499347684e-05 0 -0.043284901748827369 0.00036741581588630671 0 -0.042408058755222973 7.3304775182306666e-05 0 -0.041622388290804425 0.00086498507882042683 0 -0.03970104010171227 7.7369967499347684e-05 0 -0.039623425976931963 0.0001791544419815633 0 -0.03970104010171227 7.7369967499347684e-05 0 -0.039915038619714904 0.0001054290153891217 0 -0.039623425976931963 0.0001791544419815633 0 -0.045001477958512476 3.8746921490390726e-07 0 -0.045007643218291378 -3.0561419950026616e-06 0 -0.044997436513811467 -1.1432943221129767e-06 0 -0.042408058755222973 7.3304775182306666e-05 0 -0.043161511938845112 -0.00033955974293947043 0 -0.039915038619714904 0.0001054290153891217 0 -0.041232557762940429 -0.00084784133548716225 0 -0.040382886044350488 0.00018544299390321178 0 -0.045001477958512476 3.8746921490390726e-07 0 -0.044994892087263948 2.2619824502674462e-06 0 -0.045007643218291378 -3.0561419950026616e-06 0 -0.039915038619714904 0.0001054290153891217 0 -0.039623425976931963 0.0001791544419815633 0 -0.041232557762940429 -0.00084784133548716225 0 -0.043161511938845112 -0.00033955974293947043 0 -0.044664725353553293 -0.00017511423673871913 0 -0.041232557762940429 -0.00084784133548716225 0 -0.042855038781517411 0.0001465483170571678 0 -0.044826623165402264 -9.6320132953220955e-05 0 -0.041232557762940429 -0.00084784133548716225 0 -0.042855038781517411 0.0001465483170571678 0 -0.041204188633021395 0.0006892593121108142 0 -0.042855038781517411 0.0001465483170571678 0 -0.041204188633021395 0.0006892593121108142 0 -0.043963215063166715 0.00064769630640918764 0 -0.039507117633611186 0.00061983456753535225 0 -0.041204188633021395 0.0006892593121108142 0 -0.040382886044350488 0.00018544299390321178 0 -0.041232557762940429 -0.00084784133548716225 0 -0.041204188633021395 0.0006892593121108142 0 -0.040382886044350488 0.00018544299390321178 0 -0.044997436513811467 -1.1432943221129767e-06 0 -0.044826623165402264 -9.6320132953220955e-05 0 -0.044944516770422535 5.6702151669167148e-05 0 -0.045007643218291378 -3.0561419950026616e-06 0 -0.044997436513811467 -1.1432943221129767e-06 0 -0.044826623165402264 -9.6320132953220955e-05 0 -0.042855038781517411 0.0001465483170571678 0 -0.044826623165402264 -9.6320132953220955e-05 0 -0.043963215063166715 0.00064769630640918764 0 -0.043945617447532365 0.00061927005371134418 0 -0.045470640472152192 0.00015785552837605977 0 -0.044826623165402264 -9.6320132953220955e-05 0 -0.043963215063166715 0.00064769630640918764 0 -0.044944516770422535 5.6702151669167148e-05 0 -0.043963215063166715 0.00064769630640918764 0 -0.045052644463308908 0.0014399638861748048 0 -0.045730374126703173 0.00028180664027736564 0 -0.045052644463308908 0.0014399638861748048 0 -0.042661119091014332 0.0018430073406012816 0 -0.044681810595313606 0.0030086353212619289 0 -0.043963215063166715 0.00064769630640918764 0 -0.045052644463308908 0.0014399638861748048 0 -0.042661119091014332 0.0018430073406012816 0 -0.042661119091014332 0.0018430073406012816 0 -0.042730024230938531 0.0036530002249364067 0 -0.044681810595313606 0.0030086353212619289 0 -0.034627256201727852 0.0010873070409045881 0 -0.036482920023964215 0.00039782232544417154 0 -0.034856252908947033 0.0013940238867739235 0 -0.03869015347249373 0.0024199046879156806 0 -0.040662109025464174 0.0017225208785647628 0 -0.039507117633611186 0.00061983456753535225 0 -0.041204188633021395 0.0006892593121108142 0 -0.039884673747063185 0.0013125467802491745 0 -0.041204188633021395 0.0006892593121108142 0 -0.043963215063166715 0.00064769630640918764 0 -0.042661119091014332 0.0018430073406012816 0 -0.041204188633021395 0.0006892593121108142 0 -0.042661119091014332 0.0018430073406012816 0 -0.039884673747063185 0.0013125467802491745 0 -0.042661119091014332 0.0018430073406012816 0 -0.039884673747063185 0.0013125467802491745 0 -0.041137347727555458 0.0031346302880297292 0 -0.042661119091014332 0.0018430073406012816 0 -0.042730024230938531 0.0036530002249364067 0 -0.041137347727555458 0.0031346302880297292 0 -0.042730024230938531 0.0036530002249364067 0 -0.041137347727555458 0.0031346302880297292 0 -0.04024520453069292 0.0044886212605520044 0 -0.038787878665239875 0.00064410827794596638 0 -0.039884673747063185 0.0013125467802491745 0 -0.038773489770648012 0.00068003370410616706 0 -0.039884673747063185 0.0013125467802491745 0 -0.038773489770648012 0.00068003370410616706 0 -0.038031401766325391 0.000311576164083208 0 -0.039884673747063185 0.0013125467802491745 0 -0.041137347727555458 0.0031346302880297292 0 -0.03988499001233535 0.0045915149053630646 0 -0.039913844528928433 0.0014778908254332247 0 -0.038011723027538448 0.0018777499054174439 0 -0.038773489770648012 0.00068003370410616706 0 -0.038061152377292233 0.00024082006721870292 0 -0.038350404343323312 0.00038269780675858093 0 -0.038773489770648012 0.00068003370410616706 0 -0.038061152377292233 0.00024082006721870292 0 -0.038031401766325391 0.000311576164083208 0 -0.038200609538470202 0.0014292785014552039 0 -0.038011723027538448 0.0018777499054174439 0 -0.038061152377292233 0.00024082006721870292 0 -0.037858906211475432 0.00012158901258827227 0 -0.037655470192507756 7.3412692635076052e-05 0 -0.038061152377292233 0.00024082006721870292 0 -0.037858906211475432 0.00012158901258827227 0 -0.037877552229687167 0.00030767079218965281 0 -0.034177523697212914 0.0015005713320110918 0 -0.034218520316711333 0.0013661622164655601 0 -0.034349456013431257 0.0015510633439458582 0 -0.03600729821483422 0.00098517920253958979 0 -0.03708648089587642 0.0022663834953466442 0 -0.036820646915520817 0.0014933505258732816 0 -0.036830516280325576 0.0014783186467881466 0 -0.0368234606841445 0.0014796338153247393 0 -0.03600729821483422 0.00098517920253958979 0 -0.038011723027538448 0.0018777499054174439 0 -0.041137347727555458 0.0031346302880297292 0 -0.04024520453069292 0.0044886212605520044 0 -0.03988499001233535 0.0045915149053630646 0 -0.03708648089587642 0.0022663834953466442 0 -0.038011723027538448 0.0018777499054174439 0 -0.03869015347249373 0.0024199046879156806 0 -0.03708648089587642 0.0022663834953466442 0 -0.034627256201727852 0.0010873070409045881 0 -0.034218520316711333 0.0013661622164655601 0 -0.034469270444130347 0.0014494467595736675 0 -0.034627256201727852 0.0010873070409045881 0 -0.034469270444130347 0.0014494467595736675 0 -0.034674940848654884 0.0014677856558325886 0 -0.034469270444130347 0.0014494467595736675 0 -0.034349456013431257 0.0015510633439458582 0 -0.034520610256358983 0.0016632482620012063 0 -0.034469270444130347 0.0014494467595736675 0 -0.034520610256358983 0.0016632482620012063 0 -0.034674940848654884 0.0014677856558325886 0 -0.034218520316711333 0.0013661622164655601 0 -0.034469270444130347 0.0014494467595736675 0 -0.034349456013431257 0.0015510633439458582 0 -0.034520610256358983 0.0016632482620012063 0 -0.034334751473082931 0.0017135286840672106 0 -0.034428131968295875 0.0019197829932519163 0 -0.034520610256358983 0.0016632482620012063 0 -0.034632212553260135 0.0018563309593795621 0 -0.034428131968295875 0.0019197829932519163 0 -0.034349456013431257 0.0015510633439458582 0 -0.034520610256358983 0.0016632482620012063 0 -0.034334751473082931 0.0017135286840672106 0 -0.037858906211475432 0.00012158901258827227 0 -0.037655470192507756 7.3412692635076052e-05 0 -0.037088705577550847 2.6551610778473334e-05 0 -0.03600729821483422 0.00098517920253958979 0 -0.03547726981642349 6.9145037936238436e-05 0 -0.033801089398165216 0.00067061947539943305 0 -0.033853895016495307 0.00043471367764004199 0 -0.033759220935639059 0.00041605942785352207 0 -0.03600729821483422 0.00098517920253958979 0 -0.033789509488284221 0.0011879738354906302 0 -0.034177523697212914 0.0015005713320110918 0 -0.034334751473082931 0.0017135286840672106 0 -0.034194027141490453 0.0019035880127433703 0 -0.034177523697212914 0.0015005713320110918 0 -0.034349456013431257 0.0015510633439458582 0 -0.034334751473082931 0.0017135286840672106 0 -0.03493112315975401 0.0013119477991314402 0 -0.035816619589160881 0.002681559055014081 0 -0.034856252908947033 0.0013940238867739235 0 -0.034863873757631704 0.0016298904915488109 0 -0.034994590103506827 0.0016411839443254482 0 -0.036524122803801441 0.0014592940836908382 0 -0.034856252908947033 0.0013940238867739235 0 -0.037005221380748861 0.0027478150145080513 0 -0.036482920023964215 0.00039782232544417154 0 -0.036524122803801441 0.0014592940836908382 0 -0.034856252908947033 0.0013940238867739235 0 -0.036524122803801441 0.0014592940836908382 0 -0.037005221380748861 0.0027478150145080513 0 -0.037780844208264996 0.0012956665974027132 0 -0.036482920023964215 0.00039782232544417154 0 -0.036524122803801441 0.0014592940836908382 0 -0.037780844208264996 0.0012956665974027132 0 -0.034856252908947033 0.0013940238867739235 0 -0.034722851529621873 0.0015772964621058327 0 -0.034863873757631704 0.0016298904915488109 0 -0.034627256201727852 0.0010873070409045881 0 -0.034856252908947033 0.0013940238867739235 0 -0.034674940848654884 0.0014677856558325886 0 -0.034856252908947033 0.0013940238867739235 0 -0.034674940848654884 0.0014677856558325886 0 -0.034722851529621873 0.0015772964621058327 0 -0.034520610256358983 0.0016632482620012063 0 -0.034674940848654884 0.0014677856558325886 0 -0.034722851529621873 0.0015772964621058327 0 -0.034759116980400281 0.0018222740097025571 0 -0.034863873757631704 0.0016298904915488109 0 -0.034900334056376665 0.0019028528543333834 0 -0.034520610256358983 0.0016632482620012063 0 -0.034722851529621873 0.0015772964621058327 0 -0.034703974816665747 0.0017087862081982131 0 -0.034520610256358983 0.0016632482620012063 0 -0.034703974816665747 0.0017087862081982131 0 -0.034632212553260135 0.0018563309593795621 0 -0.034703974816665747 0.0017087862081982131 0 -0.034759116980400281 0.0018222740097025571 0 -0.034632212553260135 0.0018563309593795621 0 -0.034703974816665747 0.0017087862081982131 0 -0.034759116980400281 0.0018222740097025571 0 -0.034863873757631704 0.0016298904915488109 0 -0.034722851529621873 0.0015772964621058327 0 -0.034703974816665747 0.0017087862081982131 0 -0.034863873757631704 0.0016298904915488109 0 -0.034897517323331115 0.0017746704005471958 0 -0.03338838236788947 0.0019445102188841898 0 -0.034863873757631704 0.0016298904915488109 0 -0.034948749917657861 0.001720591595156133 0 -0.034893906089252059 0.0018148746152113647 0 -0.034863873757631704 0.0016298904915488109 0 -0.034951349227843341 0.0016626231287517875 0 -0.034994590103506827 0.0016411839443254482 0 -0.034863873757631704 0.0016298904915488109 0 -0.034949889884643578 0.0016951840173638148 0 -0.034951349227843341 0.0016626231287517875 0 -0.034863873757631704 0.0016298904915488109 0 -0.034949889884643578 0.0016951840173638148 0 -0.034948749917657861 0.001720591595156133 0 -0.033865277254130688 0.0026960533273332273 0 -0.033276839277607696 0.0022627095572318292 0 -0.034949889884643578 0.0016951840173638148 0 -0.034969386829479421 0.0016817851964596284 0 -0.034947785255073929 0.0017215958667619973 0 -0.031668958111213744 0.0026748046437182625 0 -0.031709469427250843 0.0025898150355333173 0 -0.031377561342746774 0.0024108519274639983 0 -0.033378808774954721 0.0021402734592418158 0 -0.033276839277607696 0.0022627095572318292 0 -0.033865277254130688 0.0026960533273332273 0 -0.035816619589160881 0.002681559055014081 0 -0.034968213442337047 0.0016812276264439978 0 -0.034951349227843341 0.0016626231287517875 0 -0.034994590103506827 0.0016411839443254482 0 -0.034949889884643578 0.0016951840173638148 0 -0.034969386829479421 0.0016817851964596284 0 -0.034951349227843341 0.0016626231287517875 0 -0.033865277254130688 0.0026960533273332273 0 -0.033957516839223767 0.0026313971054189663 0 -0.031914463620672157 0.0021508075788831812 0 -0.031893919447826914 0.0017736026162148207 0 -0.031994619217048187 0.0019748447104214898 0 -0.031828069263281036 0.0019125817519118091 0 -0.03183792533752907 0.0019216262504826731 0 -0.031840790112255518 0.0019034601915442863 0 -0.031709469427250843 0.0025898150355333173 0 -0.031697310347845863 0.0021853719948685514 0 -0.031377561342746774 0.0024108519274639983 0 -0.033276839277607696 0.0022627095572318292 0 -0.029887697787926409 0.0018406445164509567 0 -0.033276839277607696 0.0022627095572318292 0 -0.03338838236788947 0.0019445102188841898 0 -0.029887697787926409 0.0018406445164509567 0 -0.03338838236788947 0.0019445102188841898 0 -0.034900334056376665 0.0019028528543333834 0 -0.034703457203893354 0.0020120351103262886 0 -0.034691934691252646 0.0022567803755824843 0 -0.03338838236788947 0.0019445102188841898 0 -0.031658633472564562 0.0017287620778340712 0 -0.034759116980400281 0.0018222740097025571 0 -0.034703457203893354 0.0020120351103262886 0 -0.034632212553260135 0.0018563309593795621 0 -0.034759116980400281 0.0018222740097025571 0 -0.034900334056376665 0.0019028528543333834 0 -0.034703457203893354 0.0020120351103262886 0 -0.034703457203893354 0.0020120351103262886 0 -0.034632212553260135 0.0018563309593795621 0 -0.034577349291192293 0.0019833373394541306 0 -0.034632212553260135 0.0018563309593795621 0 -0.034577349291192293 0.0019833373394541306 0 -0.034428131968295875 0.0019197829932519163 0 -0.034577349291192293 0.0019833373394541306 0 -0.034611390806116908 0.0021449979480080913 0 -0.034468199233495748 0.0020911151524081475 0 -0.034703457203893354 0.0020120351103262886 0 -0.034577349291192293 0.0019833373394541306 0 -0.034611390806116908 0.0021449979480080913 0 -0.034415662616124644 0.0021356491347436679 0 -0.034417105844167503 0.0021338716626553311 0 -0.034468199233495748 0.0020911151524081475 0 -0.034417105844167503 0.0021338716626553311 0 -0.034396270682670843 0.0021473101526856011 0 -0.034468199233495748 0.0020911151524081475 0 -0.034611390806116908 0.0021449979480080913 0 -0.034654129718798887 0.002285320633934467 0 -0.034468199233495748 0.0020911151524081475 0 -0.031529702292058051 0.0018499460099603469 0 -0.034637711139282434 0.0027568782258460818 0 -0.031529702292058051 0.0018499460099603469 0 -0.028370730394028879 0.00084052340081122842 0 -0.034400209144106339 0.0021444553737379793 0 -0.034400742952531635 0.0021390980584843782 0 -0.034394816037499346 0.0021505482730546934 0 -0.034415662616124644 0.0021356491347436679 0 -0.034417105844167503 0.0021338716626553311 0 -0.034406252377636524 0.0021407238387190705 0 -0.034415662616124644 0.0021356491347436679 0 -0.034397320642693241 0.0021463037460295823 0 -0.034406252377636524 0.0021407238387190705 0 -0.034397320642693241 0.0021463037460295823 0 -0.034406252377636524 0.0021407238387190705 0 -0.034400209144106339 0.0021444553737379793 0 -0.034406252377636524 0.0021407238387190705 0 -0.034400209144106339 0.0021444553737379793 0 -0.034401492609430623 0.0021412428224961678 0 -0.034400209144106339 0.0021444553737379793 0 -0.034401492609430623 0.0021412428224961678 0 -0.034400742952531635 0.0021390980584843782 0 -0.031924499280883332 0.0016963094134358426 0 -0.031529702292058051 0.0018499460099603469 0 -0.034417105844167503 0.0021338716626553311 0 -0.034401492609430623 0.0021412428224961678 0 -0.034396270682670843 0.0021473101526856011 0 -0.034417105844167503 0.0021338716626553311 0 -0.034406252377636524 0.0021407238387190705 0 -0.034401492609430623 0.0021412428224961678 0 -0.029317813961796713 0.00052993931194024902 0 -0.029595980002049566 0.00081756177556417469 0 -0.029108346965266981 0.0011086060851002168 0 -0.028766522655990626 0.0012978755994329412 0 -0.028704594279121653 0.0011439996500446415 0 -0.028346244061082288 0.0013538393976689827 0 -0.028766522655990626 0.0012978755994329412 0 -0.028823163270425715 0.0012607661387497636 0 -0.