<?xml version="1.0"?>
<VTKFile type="UnstructuredGrid" version="0.1" byte_order="LittleEndian">
<UnstructuredGrid>
<Piece NumberOfPoints="30618" NumberOfCells="10744">
<Points>
<DataArray type="Float64" NumberOfComponents="3" format="ascii">
-0.49427958746526202 -0.49999999999999512 0 -0.4943900888896422 -0.47349089190363358 0 -0.49427958746526202 -0.49999999999999512 0 -0.5 -0.5 0 -0.4943900888896422 -0.47349089190363358 0 -0.5 -0.5 0 -0.4943900888896422 -0.47349089190363358 0 -0.5 -0.44150235328842258 0 -0.49427958746526202 -0.49999999999999512 0 -0.4943900888896422 -0.47349089190363358 0 -0.48436842240857858 -0.48714093788813112 0 -0.49427958746526202 -0.49999999999999512 0 -0.47650045540741742 -0.5 0 -0.48436842240857858 -0.48714093788813112 0 -0.4943900888896422 -0.47349089190363358 0 -0.47066899942757451 -0.47576530412887819 0 -0.48436842240857858 -0.48714093788813112 0 -0.47066899942757451 -0.47576530412887819 0 -0.47650045540741742 -0.5 0 -0.48436842240857858 -0.48714093788813112 0 -0.47066899942757451 -0.47576530412887819 0 -0.45872132334957288 -0.49999999999999928 0 -0.45242967983978871 -0.4846708604340636 0 -0.47066899942757451 -0.47576530412887819 0 -0.47650045540741742 -0.5 0 -0.45872132334957288 -0.49999999999999928 0 -0.47066899942757451 -0.47576530412887819 0 -0.45872132334957288 -0.49999999999999928 0 -0.47066899942757451 -0.47576530412887819 0 -0.45242967983978871 -0.4846708604340636 0 -0.45249717469141032 -0.46588444847215849 0 -0.43763952177061649 -0.47770500498713542 0 -0.45242967983978871 -0.4846708604340636 0 -0.45249717469141032 -0.46588444847215849 0 -0.43763952177061649 -0.47770500498713542 0 -0.44291044788006362 -0.49999999999999939 0 -0.45242967983978871 -0.4846708604340636 0 -0.43763952177061649 -0.47770500498713542 0 -0.44291044788006362 -0.49999999999999939 0 -0.45872132334957288 -0.49999999999999928 0 -0.44291044788006362 -0.49999999999999939 0 -0.45242967983978871 -0.4846708604340636 0 -0.44838221886832419 -0.4464230337388379 0 -0.4323685956611692 -0.45541000997427139 0 -0.435988539966085 -0.44148905847597392 0 -0.44838221886832419 -0.4464230337388379 0 -0.44213238819953832 -0.43491600865963681 0 -0.435988539966085 -0.44148905847597392 0 -0.44838221886832419 -0.4464230337388379 0 -0.45249717469141032 -0.46588444847215849 0 -0.45755175660874181 -0.45423607616472811 0 -0.44838221886832419 -0.4464230337388379 0 -0.45249717469141032 -0.46588444847215849 0 -0.4323685956611692 -0.45541000997427139 0 -0.43763952177061649 -0.47770500498713542 0 -0.45249717469141032 -0.46588444847215849 0 -0.4323685956611692 -0.45541000997427139 0 -0.47066899942757451 -0.47576530412887819 0 -0.45249717469141032 -0.46588444847215849 0 -0.4675747862741928 -0.45726336772241771 0 -0.45249717469141032 -0.46588444847215849 0 -0.45755175660874181 -0.45423607616472811 0 -0.4675747862741928 -0.45726336772241771 0 -0.44838221886832419 -0.4464230337388379 0 -0.46897642374787268 -0.44262015471777721 0 -0.45660235518767722 -0.42786105997071933 0 -0.44838221886832419 -0.4464230337388379 0 -0.45755175660874181 -0.45423607616472811 0 -0.46897642374787268 -0.44262015471777721 0 -0.45755175660874181 -0.45423607616472811 0 -0.4675747862741928 -0.45726336772241771 0 -0.46897642374787268 -0.44262015471777721 0 -0.4943900888896422 -0.47349089190363358 0 -0.5 -0.44150235328842258 0 -0.49450059031402238 -0.44698178380727199 0 -0.46897642374787268 -0.44262015471777721 0 -0.48473746643246862 -0.43972512984246093 0 -0.48043585850414389 -0.43127077967876992 0 -0.46897642374787268 -0.44262015471777721 0 -0.4826166755055763 -0.45153060825775743 0 -0.48473746643246862 -0.43972512984246093 0 -0.4675747862741928 -0.45726336772241771 0 -0.46897642374787268 -0.44262015471777721 0 -0.4826166755055763 -0.45153060825775743 0 -0.47066899942757451 -0.47576530412887819 0 -0.4826166755055763 -0.45153060825775743 0 -0.4943900888896422 -0.47349089190363358 0 -0.47066899942757451 -0.47576530412887819 0 -0.4826166755055763 -0.45153060825775743 0 -0.47066899942757451 -0.47576530412887819 0 -0.4675747862741928 -0.45726336772241771 0 -0.4826166755055763 -0.45153060825775743 0 -0.4943900888896422 -0.47349089190363358 0 -0.49450059031402238 -0.44698178380727199 0 -0.4943900888896422 -0.47349089190363358 0 -0.4826166755055763 -0.45153060825775743 0 -0.49450059031402238 -0.44698178380727199 0 -0.4826166755055763 -0.45153060825775743 0 -0.48473746643246862 -0.43972512984246093 0 -0.49450059031402238 -0.44698178380727199 0 -0.5 -0.44150235328842258 0 -0.49461109173840262 -0.42047267571091063 0 -0.5 -0.39656953661894012 0 -0.49450059031402238 -0.44698178380727199 0 -0.49461109173840262 -0.42047267571091063 0 -0.48473746643246862 -0.43972512984246093 0 -0.49461109173840262 -0.42047267571091063 0 -0.48043585850414389 -0.43127077967876992 0 -0.5 -0.44150235328842258 0 -0.49450059031402238 -0.44698178380727199 0 -0.49461109173840262 -0.42047267571091063 0 -0.48473746643246862 -0.43972512984246093 0 -0.49450059031402238 -0.44698178380727199 0 -0.49461109173840262 -0.42047267571091063 0 -0.49461109173840262 -0.42047267571091063 0 -0.4947215931627828 -0.39396356761454909 0 -0.49461109173840262 -0.42047267571091063 0 -0.48393842445605872 -0.40713040098299402 0 -0.4947215931627828 -0.39396356761454909 0 -0.49461109173840262 -0.42047267571091063 0 -0.48393842445605872 -0.40713040098299402 0 -0.47214510592166908 -0.41939033492402211 0 -0.48393842445605872 -0.40713040098299402 0 -0.47214510592166908 -0.41939033492402211 0 -0.47427590700138023 -0.39469502568249409 0 -0.46897642374787268 -0.44262015471777721 0 -0.47214510592166908 -0.41939033492402211 0 -0.48043585850414389 -0.43127077967876992 0 -0.49461109173840262 -0.42047267571091063 0 -0.47214510592166908 -0.41939033492402211 0 -0.48043585850414389 -0.43127077967876992 0 -0.5 -0.39656953661894012 0 -0.4947215931627828 -0.39396356761454909 0 -0.48030453056746109 -0.36861144308094029 0 -0.49461109173840262 -0.42047267571091063 0 -0.5 -0.39656953661894012 0 -0.4947215931627828 -0.39396356761454909 0 -0.48393842445605872 -0.40713040098299402 0 -0.4947215931627828 -0.39396356761454909 0 -0.47427590700138023 -0.39469502568249409 0 -0.47427590700138023 -0.39469502568249409 0 -0.48030453056746109 -0.36861144308094029 0 -0.4947215931627828 -0.39396356761454909 0 -0.47427590700138023 -0.39469502568249409 0 -0.48030453056746109 -0.36861144308094029 0 -0.47427590700138023 -0.39469502568249409 0 -0.46334377193483078 -0.37842983215876019 0 -0.48030453056746109 -0.36861144308094029 0 -0.46334377193483078 -0.37842983215876019 0 -0.45726543839001688 -0.40541672899881109 0 -0.44416021803808919 -0.38243724496113263 0 -0.47427590700138023 -0.39469502568249409 0 -0.46334377193483078 -0.37842983215876019 0 -0.45726543839001688 -0.40541672899881109 0 -0.45726543839001688 -0.40541672899881109 0 -0.43814282409564848 -0.40387353522152758 0 -0.44416021803808919 -0.38243724496113263 0 -0.43814282409564848 -0.40387353522152758 0 -0.44416021803808919 -0.38243724496113263 0 -0.4329908326547659 -0.40007252460533121 0 -0.43814282409564848 -0.40387353522152758 0 -0.44416021803808919 -0.38243724496113263 0 -0.46897642374787268 -0.44262015471777721 0 -0.47214510592166908 -0.41939033492402211 0 -0.45660235518767722 -0.42786105997071933 0 -0.47214510592166908 -0.41939033492402211 0 -0.47427590700138023 -0.39469502568249409 0 -0.45726543839001688 -0.40541672899881109 0 -0.47214510592166908 -0.41939033492402211 0 -0.45726543839001688 -0.40541672899881109 0 -0.45660235518767722 -0.42786105997071933 0 -0.45726543839001688 -0.40541672899881109 0 -0.45660235518767722 -0.42786105997071933 0 -0.44309263043645408 -0.41812298423377797 0 -0.45726543839001688 -0.40541672899881109 0 -0.43814282409564848 -0.40387353522152758 0 -0.44309263043645408 -0.41812298423377797 0 -0.43814282409564848 -0.40387353522152758 0 -0.44309263043645408 -0.41812298423377797 0 -0.43209373842114163 -0.42530092927673752 0 -0.44838221886832419 -0.4464230337388379 0 -0.45660235518767722 -0.42786105997071933 0 -0.44213238819953832 -0.43491600865963681 0 -0.45660235518767722 -0.42786105997071933 0 -0.44213238819953832 -0.43491600865963681 0 -0.43132710435572019 -0.42815377149591122 0 -0.45660235518767722 -0.42786105997071933 0 -0.44309263043645408 -0.41812298423377797 0 -0.43132710435572019 -0.42815377149591122 0 -0.45660235518767722 -0.42786105997071933 0 -0.43132710435572019 -0.42815377149591122 0 -0.44213238819953832 -0.43491600865963681 0 -0.42986244815509678 -0.43337144475258638 0 -0.435988539966085 -0.44148905847597392 0 -0.44213238819953832 -0.43491600865963681 0 -0.42986244815509678 -0.43337144475258638 0 -0.43132710435572019 -0.42815377149591122 0 -0.42986244815509678 -0.43337144475258638 0 -0.43132710435572019 -0.42815377149591122 0 -0.42986244815509678 -0.43337144475258638 0 -0.42494843276815808 -0.42822764260015772 0 -0.42026026496879931 -0.43681168621285732 0 -0.42986244815509678 -0.43337144475258638 0 -0.42494843276815808 -0.42822764260015772 0 -0.43132710435572019 -0.42815377149591122 0 -0.42494843276815808 -0.42822764260015772 0 -0.43209373842114163 -0.42530092927673752 0 -0.42214799869492048 -0.41876725226122891 0 -0.42494843276815808 -0.42822764260015772 0 -0.43209373842114163 -0.42530092927673752 0 -0.42494843276815808 -0.42822764260015772 0 -0.43209373842114163 -0.42530092927673752 0 -0.43132710435572019 -0.42815377149591122 0 -0.42494843276815808 -0.42822764260015772 0 -0.43132710435572019 -0.42815377149591122 0 -0.44309263043645408 -0.41812298423377797 0 -0.43209373842114163 -0.42530092927673752 0 -0.43132710435572019 -0.42815377149591122 0 -0.43209373842114163 -0.42530092927673752 0 -0.43132710435572019 -0.42815377149591122 0 -0.43814282409564848 -0.40387353522152758 0 -0.43209373842114163 -0.42530092927673752 0 -0.43814282409564848 -0.40387353522152758 0 -0.43209373842114163 -0.42530092927673752 0 -0.42736227186559528 -0.41250939947999687 0 -0.43814282409564848 -0.40387353522152758 0 -0.42736227186559528 -0.41250939947999687 0 -0.42798743510346321 -0.40461924019690898 0
[...]
<PointData Scalars="" Vectors="displacement," Tensors="">
<DataArray type="Float64" Name="displacement" NumberOfComponents="3" format="ascii">
-0.044999525344579065 -0.044485128513730203 0 -0.044301843779826933 -0.044320079355150845 0 -0.044998938159134909 -0.044490843475610935 0 -0.045000681212149243 -0.044996254320612473 0 -0.042665968392234938 -0.045463008649353633 0 -0.045000681212149243 -0.044996254320612473 0 -0.042665968392234938 -0.045463008649353633 0 -0.039734320464687257 -0.045001953497756625 0 -0.045000137656891502 -0.044483810035536211 0 -0.046185759384897648 -0.043234539887590455 0 -0.045719041367060662 -0.043356745778342337 0 -0.045000137656891502 -0.044483810035536211 0 -0.044999780716913136 -0.042885088698587821 0 -0.045719041367060662 -0.043356745778342337 0 -0.046185759384897648 -0.043234539887590455 0 -0.046221003173681281 -0.042886461690955835 0 -0.045719041367060662 -0.043356745778342337 0 -0.046221003173681281 -0.042886461690955835 0 -0.044999780716913136 -0.042885088698587821 0 -0.045719041367060662 -0.043356745778342337 0 -0.045409818665278961 -0.042575083512231805 0 -0.044999174585822081 -0.041283409500554001 0 -0.045277705669613068 -0.041385386190725799 0 -0.046221003173681281 -0.042886461690955835 0 -0.044999780716913136 -0.042885088698587821 0 -0.044999933132440148 -0.041285804854380555 0 -0.045798495976461899 -0.042681281308691303 0 -0.045000134297167552 -0.041285392424732191 0 -0.045409818665278961 -0.042575083512231805 0 -0.045277705669613068 -0.041385386190725799 0 -0.045487530302201082 -0.042190132500508959 0 -0.045210264548134496 -0.041091706797962348 0 -0.045277705669613068 -0.041385386190725799 0 -0.045487530302201082 -0.042190132500508959 0 -0.045210264548134496 -0.041091706797962348 0 -0.044999742652362999 -0.039865623219036909 0 -0.045277705669613068 -0.041385386190725799 0 -0.045567668927621541 -0.04027666228888295 0 -0.04499983418831132 -0.039862231739769403 0 -0.044999174585822081 -0.041283409500554001 0 -0.044999742652362999 -0.039865623219036909 0 -0.045277705669613068 -0.041385386190725799 0 -0.045942155085492854 -0.042814549001808699 0 -0.04615376216094088 -0.040521523957662148 0 -0.046611553446873788 -0.041510508710205882 0 -0.045942155085492854 -0.042814549001808699 0 -0.046349084287149032 -0.042627127443658985 0 -0.046611553446873788 -0.041510508710205882 0 -0.045942155085492854 -0.042814549001808699 0 -0.045487530302201082 -0.042190132500508959 0 -0.045650913634144218 -0.042876297967249552 0 -0.045942155085492854 -0.042814549001808699 0 -0.045487530302201082 -0.042190132500508959 0 -0.04615376216094088 -0.040521523957662148 0 -0.045210264548134496 -0.041091706797962348 0 -0.045487530302201082 -0.042190132500508959 0 -0.04615376216094088 -0.040521523957662148 0 -0.045409818665278961 -0.042575083512231805 0 -0.045487530302201082 -0.042190132500508959 0 -0.045587284820341446 -0.043031047045693147 0 -0.045487530302201082 -0.042190132500508959 0 -0.045650913634144218 -0.042876297967249552 0 -0.045587284820341446 -0.043031047045693147 0 -0.045942155085492854 -0.042814549001808699 0 -0.045313155911962527 -0.043783290037172358 0 -0.044633615063777089 -0.045165506718826673 0 -0.045942155085492854 -0.042814549001808699 0 -0.045650913634144218 -0.042876297967249552 0 -0.045313155911962527 -0.043783290037172358 0 -0.045650913634144218 -0.042876297967249552 0 -0.045587284820341446 -0.043031047045693147 0 -0.045313155911962527 -0.043783290037172358 0 -0.042665968392234938 -0.045463008649353633 0 -0.039734320464687257 -0.045001953497756625 0 -0.040240582652438781 -0.045494541569429857 0 -0.045313155911962527 -0.043783290037172358 0 -0.044600137975588976 -0.04302924752488816 0 -0.043625760788072267 -0.043422057152676323 0 -0.045313155911962527 -0.043783290037172358 0 -0.045601429328400785 -0.043088328490512667 0 -0.044600137975588976 -0.04302924752488816 0 -0.045587284820341446 -0.043031047045693147 0 -0.045313155911962527 -0.043783290037172358 0 -0.045601429328400785 -0.043088328490512667 0 -0.045798495976461899 -0.042681281308691303 0 -0.045639705947253466 -0.04303833118384881 0 -0.046185759384897648 -0.043234539887590455 0 -0.046221003173681281 -0.042886461690955835 0 -0.045601429328400785 -0.043088328490512667 0 -0.045409818665278961 -0.042575083512231805 0 -0.045587284820341446 -0.043031047045693147 0 -0.045601429328400785 -0.043088328490512667 0 -0.044301843779826933 -0.044320079355150845 0 -0.042749207060952685 -0.043909673671204665 0 -0.046185759384897648 -0.043234539887590455 0 -0.045601429328400785 -0.043088328490512667 0 -0.045354792318661699 -0.042301831354030747 0 -0.045601429328400785 -0.043088328490512667 0 -0.044600137975588976 -0.04302924752488816 0 -0.045354792318661699 -0.042301831354030747 0 -0.039734320464687257 -0.045001953497756625 0 -0.037809226036552845 -0.045479365573140036 0 -0.035694599372935711 -0.044995504199200523 0 -0.042749207060952685 -0.043909673671204665 0 -0.039834036014568273 -0.04388076068593285 0 -0.044600137975588976 -0.04302924752488816 0 -0.041872531528809591 -0.041988805635517816 0 -0.043625760788072267 -0.043422057152676323 0 -0.039734320464687257 -0.045001953497756625 0 -0.040240582652438781 -0.045494541569429857 0 -0.037809226036552845 -0.045479365573140036 0 -0.044600137975588976 -0.04302924752488816 0 -0.045354792318661699 -0.042301831354030747 0 -0.041872531528809591 -0.041988805635517816 0 -0.039834036014568273 -0.04388076068593285 0 -0.036158054729163808 -0.044674369844093224 0 -0.041872531528809591 -0.041988805635517816 0 -0.039050359751805361 -0.044308288479489782 0 -0.035709854941663781 -0.044918518877442221 0 -0.041872531528809591 -0.041988805635517816 0 -0.039050359751805361 -0.044308288479489782 0 -0.042062801306834562 -0.044613227707355839 0 -0.039050359751805361 -0.044308288479489782 0 -0.042062801306834562 -0.044613227707355839 0 -0.03708438812611093 -0.045501745093405412 0 -0.045313155911962527 -0.043783290037172358 0 -0.042062801306834562 -0.044613227707355839 0 -0.043625760788072267 -0.043422057152676323 0 -0.041872531528809591 -0.041988805635517816 0 -0.042062801306834562 -0.044613227707355839 0 -0.043625760788072267 -0.043422057152676323 0 -0.035694599372935711 -0.044995504199200523 0 -0.035709854941663781 -0.044918518877442221 0 -0.033621484759853715 -0.046090215542203224 0 -0.037809226036552845 -0.045479365573140036 0 -0.035694599372935711 -0.044995504199200523 0 -0.035709854941663781 -0.044918518877442221 0 -0.039050359751805361 -0.044308288479489782 0 -0.035709854941663781 -0.044918518877442221 0 -0.03708438812611093 -0.045501745093405412 0 -0.036785581333684404 -0.045561510607463815 0 -0.034068911209939948 -0.045306619526282205 0 -0.035709854941663781 -0.044918518877442221 0 -0.03708438812611093 -0.045501745093405412 0 -0.033621484759853715 -0.046090215542203224 0 -0.03708438812611093 -0.045501745093405412 0 -0.035434994946300674 -0.046474409266109559 0 -0.034358869865078627 -0.044689670055499099 0 -0.035434994946300674 -0.046474409266109559 0 -0.039340735068677565 -0.046769688752996953 0 -0.035973124984192563 -0.048850663280153292 0 -0.03708438812611093 -0.045501745093405412 0 -0.035434994946300674 -0.046474409266109559 0 -0.039340735068677565 -0.046769688752996953 0 -0.039340735068677565 -0.046769688752996953 0 -0.039195154828632187 -0.04982486937197983 0 -0.035973124984192563 -0.048850663280153292 0 -0.038042563482269635 -0.040255709319442355 0 -0.037849710661845712 -0.040096244194796828 0 -0.038118270174236135 -0.040129208598574891 0 -0.038216548006907221 -0.045228493450952707 0 -0.037497704785814892 -0.044438363857113368 0 -0.045313155911962527 -0.043783290037172358 0 -0.042062801306834562 -0.044613227707355839 0 -0.044633615063777089 -0.045165506718826673 0 -0.042062801306834562 -0.044613227707355839 0 -0.03708438812611093 -0.045501745093405412 0 -0.039340735068677565 -0.046769688752996953 0 -0.042062801306834562 -0.044613227707355839 0 -0.039340735068677565 -0.046769688752996953 0 -0.044633615063777089 -0.045165506718826673 0 -0.039340735068677565 -0.046769688752996953 0 -0.044633615063777089 -0.045165506718826673 0 -0.042143667479410535 -0.048842849873461526 0 -0.039340735068677565 -0.046769688752996953 0 -0.039195154828632187 -0.04982486937197983 0 -0.042143667479410535 -0.048842849873461526 0 -0.039195154828632187 -0.04982486937197983 0 -0.042143667479410535 -0.048842849873461526 0 -0.043819441812563108 -0.051430273900024463 0 -0.045942155085492854 -0.042814549001808699 0 -0.044633615063777089 -0.045165506718826673 0 -0.046349084287149032 -0.042627127443658985 0 -0.044633615063777089 -0.045165506718826673 0 -0.046349084287149032 -0.042627127443658985 0 -0.048321985678711071 -0.040960876671053845 0 -0.044633615063777089 -0.045165506718826673 0 -0.042143667479410535 -0.048842849873461526 0 -0.044513762660562749 -0.051636645077701611 0 -0.045327326609801509 -0.046149097144919916 0 -0.044775877334538514 -0.043431451187523215 0 -0.046349084287149032 -0.042627127443658985 0 -0.047728289473338618 -0.040678656619301749 0 -0.046611553446873788 -0.041510508710205882 0 -0.046349084287149032 -0.042627127443658985 0 -0.047728289473338618 -0.040678656619301749 0 -0.048321985678711071 -0.040960876671053845 0 -0.046485255944034007 -0.043037234545382747 0 -0.044775877334538514 -0.043431451187523215 0 -0.047728289473338618 -0.040678656619301749 0 -0.048625339097039477 -0.039924762139416418 0 -0.047917589780408811 -0.039316855409998512 0 -0.047728289473338618 -0.040678656619301749 0 -0.048625339097039477 -0.039924762139416418 0 -0.04859405607290665 -0.040942770048965509 0 -0.036303115955858216 -0.039478046769897357 0 -0.036543443212721571 -0.039995324010350733 0 -0.036964233074682183 -0.039268641986883554 0 -0.044813605031778586 -0.039412138768338392 0 -0.042209279463576124 -0.04274992522577338 0 -0.043748478712163759 -0.040482636541926027 0 -0.044837254802250585 -0.043178549847980106 0 -0.043768343726245537 -0.042889073258971538 0 -0.044813605031778586 -0.039412138768338392 0 -0.044775877334538514 -0.043431451187523215 0 -0.042143667479410535 -0.048842849873461526 0 -0.043819441812563108 -0.051430273900024463 0 -0.044513762660562749 -0.051636645077701611 0 -0.042209279463576124 -0.04274992522577338 0 -0.044775877334538514 -0.043431451187523215 0 -0.038216548006907221 -0.045228493450952707 0 -0.042209279463576124 -0.04274992522577338 0 -0.038042563482269635 -0.040255709319442355 0 -0.036543443212721571 -0.039995324010350733 0 -0.037410242561359601 -0.039649036513711856 0 -0.038042563482269635 -0.040255709319442355 0 -0.037410242561359601 -0.039649036513711856 0 -0.037894484991813582 -0.039734083275679524 0 -0.037410242561359601 -0.039649036513711856 0 -0.036964233074682183 -0.039268641986883554 0 -0.037555902995326122 -0.038856712720060534 0 -0.037410242561359601 -0.039649036513711856 0 -0.037555902995326122 -0.038856712720060534 0 -0.037894484991813582 -0.039734083275679524 0 -0.036543443212721571 -0.039995324010350733 0 -0.037410242561359601 -0.039649036513711856 0 -0.036964233074682183 -0.039268641986883554 0 -0.037555902995326122 -0.038856712720060534 0 -0.036877330633973839 -0.038597606381018661 0 -0.037368143640239035 -0.037634964541554274 0 -0.037555902995326122 -0.038856712720060534 0 -0.038137613898736385 -0.037930247636008892 0 -0.037368143640239035 -0.037634964541554274 0 -0.036964233074682183 -0.039268641986883554 0 -0.037555902995326122 -0.038856712720060534 0 -0.036877330633973839 -0.038597606381018661 0 -0.048625339097039477 -0.039924762139416418 0 -0.047917589780408811 -0.039316855409998512 0 -0.048511869089481269 -0.037345199571477139 0 -0.044813605031778586 -0.039412138768338392 0 -0.049130908755715262 -0.036481539674413067 0 -0.049513925181875661 -0.037255417691256142 0 -0.048984572790303986 -0.035622905967872223 0 -0.04959152339539661 -0.035476624054787263 0 -0.044813605031778586 -0.039412138768338392 0 -0.042715597197401922 -0.036299724480199566 0 -0.036303115955858216 -0.039478046769897357 0 -0.036877330633973839 -0.038597606381018661 0 -0.036199004402839845 -0.037711356204849028 0 -0.036303115955858216 -0.039478046769897357 0 -0.036964233074682183 -0.039268641986883554 0 -0.036877330633973839 -0.038597606381018661 0 -0.040116808880568712 -0.03904604813874378 0 -0.034099751028976652 -0.042186246537111602 0 -0.038118270174236135 -0.040129208598574891 0 -0.038845228636123899 -0.038975474483283624 0 -0.03988184195579289 -0.03906357337917396 0 -0.037818874902517355 -0.040253146558909159 0 -0.038118270174236135 -0.040129208598574891 0 -0.037710577182277327 -0.040531209642285987 0 -0.037849710661845712 -0.040096244194796828 0 -0.037818874902517355 -0.040253146558909159 0 -0.038118270174236135 -0.040129208598574891 0 -0.037818874902517355 -0.040253146558909159 0 -0.037710577182277327 -0.040531209642285987 0 -0.037562778440791894 -0.040265667433758104 0 -0.037849710661845712 -0.040096244194796828 0 -0.037818874902517355 -0.040253146558909159 0 -0.037562778440791894 -0.040265667433758104 0 -0.038118270174236135 -0.040129208598574891 0 -0.03812891432610227 -0.039263761044957921 0 -0.038845228636123899 -0.038975474483283624 0 -0.038042563482269635 -0.040255709319442355 0 -0.038118270174236135 -0.040129208598574891 0 -0.037894484991813582 -0.039734083275679524 0 -0.038118270174236135 -0.040129208598574891 0 -0.037894484991813582 -0.039734083275679524 0 -0.03812891432610227 -0.039263761044957921 0 -0.037555902995326122 -0.038856712720060534 0 -0.037894484991813582 -0.039734083275679524 0 -0.03812891432610227 -0.039263761044957921 0 -0.03861490502392486 -0.038081148056021634 0 -0.038845228636123899 -0.038975474483283624 0 -0.039323505944305198 -0.037687006206991253 0 -0.037555902995326122 -0.038856712720060534 0 -0.03812891432610227 -0.039263761044957921 0 -0.038254086639707793 -0.038623132327131826 0 -0.037555902995326122 -0.038856712720060534 0 -0.038254086639707793 -0.038623132327131826 0 -0.038137613898736385 -0.037930247636008892 0 -0.038254086639707793 -0.038623132327131826 0 -0.03861490502392486 -0.038081148056021634 0 -0.038137613898736385 -0.037930247636008892 0 -0.038254086639707793 -0.038623132327131826 0 -0.03861490502392486 -0.038081148056021634 0 -0.038845228636123899 -0.038975474483283624 0 -0.03812891432610227 -0.039263761044957921 0 -0.038254086639707793 -0.038623132327131826 0 -0.038845228636123899 -0.038975474483283624 0 -0.038877757482095605 -0.03889339689894495 0 -0.036718327860021535 -0.036700397730641869 0 -0.038845228636123899 -0.038975474483283624 0 -0.039531453072682819 -0.038400598335071361 0 -0.039191839822089944 -0.037754559052779357 0 -0.038845228636123899 -0.038975474483283624 0 -0.039541535082474877 -0.038834282073672517 0 -0.03988184195579289 -0.03906357337917396 0 -0.038845228636123899 -0.038975474483283624 0 -0.039536378575479675 -0.038586799723375885 0 -0.039541535082474877 -0.038834282073672517 0 -0.038845228636123899 -0.038975474483283624 0 -0.039536378575479675 -0.038586799723375885 0 -0.039531453072682819 -0.038400598335071361 0 -0.034314213166670299 -0.038931896729262692 0 -0.03504978935114049 -0.037803695478244158 0 -0.039536378575479675 -0.038586799723375885 0 -0.039680951356126891 -0.03869131832939298 0 -0.039528079538906441 -0.038401121554929876 0 -0.031461059944507423 -0.036573985034407036 0 -0.031312321231994907 -0.036282692615709336 0 -0.032393967372356176 -0.035657939589793852 0 -0.035322422000412003 -0.037963748319327618 0 -0.03504978935114049 -0.037803695478244158 0 -0.034314213166670299 -0.038931896729262692 0 -0.034099751028976652 -0.042186246537111602 0 -0.039682446900607869 -0.038696708568063447 0 -0.039541535082474877 -0.038834282073672517 0 -0.03988184195579289 -0.03906357337917396 0 -0.039536378575479675 -0.038586799723375885 0 -0.039680951356126891 -0.03869131832939298 0 -0.039541535082474877 -0.038834282073672517 0 -0.034314213166670299 -0.038931896729262692 0 -0.035226393726359287 -0.038426519786067211 0 -0.034282424149052602 -0.037769112267640119 0 -0.034236617612710636 -0.0333982464983223 0 -0.033238430930240863 -0.035732326155213052 0 -0.0354963130511919 -0.034079425190136507 0 -0.03534365031236375 -0.034450152859453319 0 -0.034986536107478677 -0.033714938895159696 0 -0.031312321231994907 -0.036282692615709336 0 -0.031293516169711044 -0.034882464291313753 0 -0.032393967372356176 -0.035657939589793852 0 -0.03504978935114049 -0.037803695478244158 0 -0.031737908537142839 -0.032384726638790162 0 -0.03504978935114049 -0.037803695478244158 0 -0.036718327860021535 -0.036700397730641869 0 -0.031737908537142839 -0.032384726638790162 0 -0.036718327860021535 -0.036700397730641869 0 -0.039323505944305198 -0.037687006206991253 0 -0.038546627314065593 -0.037198120894011893 0 -0.038574643565866165 -0.036176354276353753 0 -0.036718327860021535 -0.036700397730641869 0 -0.036233591130113575 -0.033443476806469911 0 -0.03861490502392486 -0.038081148056021634 0 -0.038546627314065593 -0.037198120894011893 0 -0.038137613898736385 -0.037930247636008892 0 -0.03861490502392486 -0.038081148056021634 0 -0.039323505944305198 -0.037687006206991253 0 -0.038546627314065593 -0.037198120894011893 0 -0.038546627314065593 -0.037198120894011893 0 -0.038137613898736385 -0.037930247636008892 0 -0.038051592518653157 -0.037311689368846018 0 -0.038137613898736385 -0.037930247636008892 0 -0.038051592518653157 -0.037311689368846018 0 -0.037368143640239035 -0.037634964541554274 0 -0.038051592518653157 -0.037311689368846018 0 -0.038258541402171026 -0.036615070410311423 0 -0.03777983293169826 -0.036789112436973227 0 -0.038546627314065593 -0.037198120894011893 0 -0.038051592518653157 -0.037311689368846018 0 -0.038258541402171026 -0.036615070410311423 0 -0.037976810484434055 -0.036008040874725027 0 -0.038271179410508831 -0.036017577127570394 0 -0.03777983293169826 -0.036789112436973227 0 -0.038271179410508831 -0.036017577127570394 0 -0.03876848670505486 -0.035853823855051328 0 -0.03777983293169826 -0.036789112436973227 0 -0.038258541402171026 -0.036615070410311423 0 -0.038429932246108758 -0.036083502149317777 0 -0.03777983293169826 -0.036789112436973227 0 -0.036568610083386702 -0.032967253892501817 0 -0.037365764433900606 -0.036347398141398479 0 -0.036568610083386702 -0.032967253892501817 0 -0.03661322429904857 -0.02919685574008293 0 -0.038432871418790718 -0.035457836360675433 0 -0.038762667543959108 -0.035845831739207606 0 -0.038501427155558467 -0.03502301377436056 0 -0.037976810484434055 -0.036008040874725027 0 -0.038271179410508831 -0.036017577127570394 0 -0.03825157848317888 -0.035694505656409463 0 -0.037976810484434055 -0.036008040874725027 0 -0.038014693766279334 -0.035439376511183097 0 -0.03825157848317888 -0.035694505656409463 0 -0.038014693766279334 -0.035439376511183097 0 -0.03825157848317888 -0.035694505656409463 0 -0.038432871418790718 -0.035457836360675433 0 -0.03825157848317888 -0.035694505656409463 0 -0.038432871418790718 -0.035457836360675433 0 -0.03857701275686528 -0.035714798122672607 0 -0.038432871418790718 -0.035457836360675433 0 -0.03857701275686528 -0.035714798122672607 0 -0.038762667543959108 -0.035845831739207606 0 -0.037042291553745645 -0.033361948619395093 0 -0.036568610083386702 -0.032967253892501817 0 -0.038271179410508831 -0.036017577127570394 0 -0.03857701275686528 -0.035714798122672607 0 -0.03876848670505486 -0.035853823855051328 0 -0.038271179410508831 -0.036017577127570394 0 -0.03825157848317888 -0.035694505656409463 0 -0.03857701275686528 -0.035714798122672607 0 -0.036413265341454636 -0.029770684624283405 0 -0.036547830102415579 -0.02962647985582571 0 -0.036318959404605979 -0.029486640637401852 0 -0.034381441373928998 -0.030340302685291094 0 -0.033956842317334902 -0.031482771706209951 0 -0.031251322981418299 -0.029891315477339295 0 -0.034381441373928998 -0.030340302685291094 0 -0.034804494071044315 -0.03062846230557776 0 -0.033956842317334902 -0.031482771706209951 0 -0.036233591130113575 -0.033443476806469911 0 -0.036568610083386702 -0.032967253892501817 0 -0.036568610083386702 -0.032967253892501817 0 -0.035102447728531064 -0.028139957666748538 0 -0.038546627314