<?xml version="1.0"?>
<VTKFile type="UnstructuredGrid" version="0.1" byte_order="LittleEndian">
<UnstructuredGrid>
<Piece NumberOfPoints="30618" NumberOfCells="10744">
<Points>
<DataArray type="Float64" NumberOfComponents="3" format="ascii">
-0.49427958746526202 -0.49999999999999512 0 -0.4943900888896422 -0.47349089190363358 0 -0.49427958746526202 -0.49999999999999512 0 -0.5 -0.5 0 -0.4943900888896422 -0.47349089190363358 0 -0.5 -0.5 0 -0.4943900888896422 -0.47349089190363358 0 -0.5 -0.44150235328842258 0 -0.49427958746526202 -0.49999999999999512 0 -0.4943900888896422 -0.47349089190363358 0 -0.48436842240857858 -0.48714093788813112 0 -0.49427958746526202 -0.49999999999999512 0 -0.47650045540741742 -0.5 0 -0.48436842240857858 -0.48714093788813112 0 -0.4943900888896422 -0.47349089190363358 0 -0.47066899942757451 -0.47576530412887819 0 -0.48436842240857858 -0.48714093788813112 0 -0.47066899942757451 -0.47576530412887819 0 -0.47650045540741742 -0.5 0 -0.48436842240857858 -0.48714093788813112 0 -0.47066899942757451 -0.47576530412887819 0 -0.45872132334957288 -0.49999999999999928 0 -0.45242967983978871 -0.4846708604340636 0 -0.47066899942757451 -0.47576530412887819 0 -0.47650045540741742 -0.5 0 -0.45872132334957288 -0.49999999999999928 0 -0.47066899942757451 -0.47576530412887819 0 -0.45872132334957288 -0.49999999999999928 0 -0.47066899942757451 -0.47576530412887819 0 -0.45242967983978871 -0.4846708604340636 0 -0.45249717469141032 -0.46588444847215849 0 -0.43763952177061649 -0.47770500498713542 0 -0.45242967983978871 -0.4846708604340636 0 -0.45249717469141032 -0.46588444847215849 0 -0.43763952177061649 -0.47770500498713542 0 -0.44291044788006362 -0.49999999999999939 0 -0.45242967983978871 -0.4846708604340636 0 -0.43763952177061649 -0.47770500498713542 0 -0.44291044788006362 -0.49999999999999939 0 -0.45872132334957288 -0.49999999999999928 0 -0.44291044788006362 -0.49999999999999939 0 -0.45242967983978871 -0.4846708604340636 0 -0.44838221886832419 -0.4464230337388379 0 -0.4323685956611692 -0.45541000997427139 0 -0.435988539966085 -0.44148905847597392 0 -0.44838221886832419 -0.4464230337388379 0 -0.44213238819953832 -0.43491600865963681 0 -0.435988539966085 -0.44148905847597392 0 -0.44838221886832419 -0.4464230337388379 0 -0.45249717469141032 -0.46588444847215849 0 -0.45755175660874181 -0.45423607616472811 0 -0.44838221886832419 -0.4464230337388379 0 -0.45249717469141032 -0.46588444847215849 0 -0.4323685956611692 -0.45541000997427139 0 -0.43763952177061649 -0.47770500498713542 0 -0.45249717469141032 -0.46588444847215849 0 -0.4323685956611692 -0.45541000997427139 0 -0.47066899942757451 -0.47576530412887819 0 -0.45249717469141032 -0.46588444847215849 0 -0.4675747862741928 -0.45726336772241771 0 -0.45249717469141032 -0.46588444847215849 0 -0.45755175660874181 -0.45423607616472811 0 -0.4675747862741928 -0.45726336772241771 0 -0.44838221886832419 -0.4464230337388379 0 -0.46897642374787268 -0.44262015471777721 0 -0.45660235518767722 -0.42786105997071933 0 -0.44838221886832419 -0.4464230337388379 0 -0.45755175660874181 -0.45423607616472811 0 -0.46897642374787268 -0.44262015471777721 0 -0.45755175660874181 -0.45423607616472811 0 -0.4675747862741928 -0.45726336772241771 0 -0.46897642374787268 -0.44262015471777721 0 -0.4943900888896422 -0.47349089190363358 0 -0.5 -0.44150235328842258 0 -0.49450059031402238 -0.44698178380727199 0 -0.46897642374787268 -0.44262015471777721 0 -0.48473746643246862 -0.43972512984246093 0 -0.48043585850414389 -0.43127077967876992 0 -0.46897642374787268 -0.44262015471777721 0 -0.4826166755055763 -0.45153060825775743 0 -0.48473746643246862 -0.43972512984246093 0 -0.4675747862741928 -0.45726336772241771 0 -0.46897642374787268 -0.44262015471777721 0 -0.4826166755055763 -0.45153060825775743 0 -0.47066899942757451 -0.47576530412887819 0 -0.4826166755055763 -0.45153060825775743 0 -0.4943900888896422 -0.47349089190363358 0 -0.47066899942757451 -0.47576530412887819 0 -0.4826166755055763 -0.45153060825775743 0 -0.47066899942757451 -0.47576530412887819 0 -0.4675747862741928 -0.45726336772241771 0 -0.4826166755055763 -0.45153060825775743 0 -0.4943900888896422 -0.47349089190363358 0 -0.49450059031402238 -0.44698178380727199 0 -0.4943900888896422 -0.47349089190363358 0 -0.4826166755055763 -0.45153060825775743 0 -0.49450059031402238 -0.44698178380727199 0 -0.4826166755055763 -0.45153060825775743 0 -0.48473746643246862 -0.43972512984246093 0 -0.49450059031402238 -0.44698178380727199 0 -0.5 -0.44150235328842258 0 -0.49461109173840262 -0.42047267571091063 0 -0.5 -0.39656953661894012 0 -0.49450059031402238 -0.44698178380727199 0 -0.49461109173840262 -0.42047267571091063 0 -0.48473746643246862 -0.43972512984246093 0 -0.49461109173840262 -0.42047267571091063 0 -0.48043585850414389 -0.43127077967876992 0 -0.5 -0.44150235328842258 0 -0.49450059031402238 -0.44698178380727199 0 -0.49461109173840262 -0.42047267571091063 0 -0.48473746643246862 -0.43972512984246093 0 -0.49450059031402238 -0.44698178380727199 0 -0.49461109173840262 -0.42047267571091063 0 -0.49461109173840262 -0.42047267571091063 0 -0.4947215931627828 -0.39396356761454909 0 -0.49461109173840262 -0.42047267571091063 0 -0.48393842445605872 -0.40713040098299402 0 -0.4947215931627828 -0.39396356761454909 0 -0.49461109173840262 -0.42047267571091063 0 -0.48393842445605872 -0.40713040098299402 0 -0.47214510592166908 -0.41939033492402211 0 -0.48393842445605872 -0.40713040098299402 0 -0.47214510592166908 -0.41939033492402211 0 -0.47427590700138023 -0.39469502568249409 0 -0.46897642374787268 -0.44262015471777721 0 -0.47214510592166908 -0.41939033492402211 0 -0.48043585850414389 -0.43127077967876992 0 -0.49461109173840262 -0.42047267571091063 0 -0.47214510592166908 -0.41939033492402211 0 -0.48043585850414389 -0.43127077967876992 0 -0.5 -0.39656953661894012 0 -0.4947215931627828 -0.39396356761454909 0 -0.48030453056746109 -0.36861144308094029 0 -0.49461109173840262 -0.42047267571091063 0 -0.5 -0.39656953661894012 0 -0.4947215931627828 -0.39396356761454909 0 -0.48393842445605872 -0.40713040098299402 0 -0.4947215931627828 -0.39396356761454909 0 -0.47427590700138023 -0.39469502568249409 0 -0.47427590700138023 -0.39469502568249409 0 -0.48030453056746109 -0.36861144308094029 0 -0.4947215931627828 -0.39396356761454909 0 -0.47427590700138023 -0.39469502568249409 0 -0.48030453056746109 -0.36861144308094029 0 -0.47427590700138023 -0.39469502568249409 0 -0.46334377193483078 -0.37842983215876019 0 -0.48030453056746109 -0.36861144308094029 0 -0.46334377193483078 -0.37842983215876019 0 -0.45726543839001688 -0.40541672899881109 0 -0.44416021803808919 -0.38243724496113263 0 -0.47427590700138023 -0.39469502568249409 0 -0.46334377193483078 -0.37842983215876019 0 -0.45726543839001688 -0.40541672899881109 0 -0.45726543839001688 -0.40541672899881109 0 -0.43814282409564848 -0.40387353522152758 0 -0.44416021803808919 -0.38243724496113263 0 -0.43814282409564848 -0.40387353522152758 0 -0.44416021803808919 -0.38243724496113263 0 -0.4329908326547659 -0.40007252460533121 0 -0.43814282409564848 -0.40387353522152758 0 -0.44416021803808919 -0.38243724496113263 0 -0.46897642374787268 -0.44262015471777721 0 -0.47214510592166908 -0.41939033492402211 0 -0.45660235518767722 -0.42786105997071933 0 -0.47214510592166908 -0.41939033492402211 0 -0.47427590700138023 -0.39469502568249409 0 -0.45726543839001688 -0.40541672899881109 0 -0.47214510592166908 -0.41939033492402211 0 -0.45726543839001688 -0.40541672899881109 0 -0.45660235518767722 -0.42786105997071933 0 -0.45726543839001688 -0.40541672899881109 0 -0.45660235518767722 -0.42786105997071933 0 -0.44309263043645408 -0.41812298423377797 0 -0.45726543839001688 -0.40541672899881109 0 -0.43814282409564848 -0.40387353522152758 0 -0.44309263043645408 -0.41812298423377797 0 -0.43814282409564848 -0.40387353522152758 0 -0.44309263043645408 -0.41812298423377797 0 -0.43209373842114163 -0.42530092927673752 0 -0.44838221886832419 -0.4464230337388379 0 -0.45660235518767722 -0.42786105997071933 0 -0.44213238819953832 -0.43491600865963681 0 -0.45660235518767722 -0.42786105997071933 0 -0.44213238819953832 -0.43491600865963681 0 -0.43132710435572019 -0.42815377149591122 0 -0.45660235518767722 -0.42786105997071933 0 -0.44309263043645408 -0.41812298423377797 0 -0.43132710435572019 -0.42815377149591122 0 -0.45660235518767722 -0.42786105997071933 0 -0.43132710435572019 -0.42815377149591122 0 -0.44213238819953832 -0.43491600865963681 0 -0.42986244815509678 -0.43337144475258638 0 -0.435988539966085 -0.44148905847597392 0 -0.44213238819953832 -0.43491600865963681 0 -0.42986244815509678 -0.43337144475258638 0 -0.43132710435572019 -0.42815377149591122 0 -0.42986244815509678 -0.43337144475258638 0 -0.43132710435572019 -0.42815377149591122 0 -0.42986244815509678 -0.43337144475258638 0 -0.42494843276815808 -0.42822764260015772 0 -0.42026026496879931 -0.43681168621285732 0 -0.42986244815509678 -0.43337144475258638 0 -0.42494843276815808 -0.42822764260015772 0 -0.43132710435572019 -0.42815377149591122 0 -0.42494843276815808 -0.42822764260015772 0 -0.43209373842114163 -0.42530092927673752 0 -0.42214799869492048 -0.41876725226122891 0 -0.42494843276815808 -0.42822764260015772 0 -0.43209373842114163 -0.42530092927673752 0 -0.42494843276815808 -0.42822764260015772 0 -0.43209373842114163 -0.42530092927673752 0 -0.43132710435572019 -0.42815377149591122 0 -0.42494843276815808 -0.42822764260015772 0 -0.43132710435572019 -0.42815377149591122 0 -0.44309263043645408 -0.41812298423377797 0 -0.43209373842114163 -0.42530092927673752 0 -0.43132710435572019 -0.42815377149591122 0 -0.43209373842114163 -0.42530092927673752 0 -0.43132710435572019 -0.42815377149591122 0 -0.43814282409564848 -0.40387353522152758 0 -0.43209373842114163 -0.42530092927673752 0 -0.43814282409564848 -0.40387353522152758 0 -0.43209373842114163 -0.42530092927673752 0 -0.42736227186559528 -0.41250939947999687 0 -0.43814282409564848 -0.40387353522152758 0 -0.42736227186559528 -0.41250939947999687 0 -0.42798743510346321 -0.40461924019690898 0
[...]
<PointData Scalars="" Vectors="displacement," Tensors="">
<DataArray type="Float64" Name="displacement" NumberOfComponents="3" format="ascii">
-1.7759446115816292e-07 -0.04499929334346426 0 -0.00012621531185206446 -0.04308990957556167 0 2.9035851648808595e-10 -0.044999303305890706 0 -1.1817863444567513e-09 -0.044999888542034829 0 -2.9451785057307708e-07 -0.04261877004635177 0 -1.1817863444567513e-09 -0.044999888542034829 0 -2.9451785057307708e-07 -0.04261877004635177 0 -7.7196284764975386e-09 -0.039734847374355467 0 -1.217810817150703e-07 -0.044999371560552892 0 -0.00015029457271566681 -0.043590027672870492 0 -9.424296960018776e-05 -0.04440062072107917 0 -1.217810817150703e-07 -0.044999371560552892 0 -1.4313160898360978e-07 -0.044998989240704307 0 -9.424296960018776e-05 -0.04440062072107917 0 -0.00015029457271566681 -0.043590027672870492 0 -0.0001167494491181517 -0.044109001790890189 0 -9.424296960018776e-05 -0.04440062072107917 0 -0.0001167494491181517 -0.044109001790890189 0 -1.4313160898360978e-07 -0.044998989240704307 0 -9.424296960018776e-05 -0.04440062072107917 0 -0.00059635300736547996 -0.043207370087341802 0 -8.352635742688027e-07 -0.044998894210836179 0 -0.00039763613179374723 -0.044164903381368734 0 -0.0001167494491181517 -0.044109001790890189 0 -1.4313160898360978e-07 -0.044998989240704307 0 4.9077972279007229e-08 -0.045000093606766399 0 -0.00034205857416489061 -0.043611596205750766 0 1.0148547555063746e-08 -0.044999454177677659 0 -0.00059635300736547996 -0.043207370087341802 0 -0.00039763613179374723 -0.044164903381368734 0 -0.0005814448245011352 -0.043312622718863929 0 -0.00058666669672843505 -0.043829867888491504 0 -0.00039763613179374723 -0.044164903381368734 0 -0.0005814448245011352 -0.043312622718863929 0 -0.00058666669672843505 -0.043829867888491504 0 -1.6322400327644756e-08 -0.044998420386225618 0 -0.00039763613179374723 -0.044164903381368734 0 -0.00039626859470433924 -0.044286873444281651 0 -2.4088492554178874e-07 -0.044999653451070654 0 -8.352635742688027e-07 -0.044998894210836179 0 -1.6322400327644756e-08 -0.044998420386225618 0 -0.00039763613179374723 -0.044164903381368734 0 -0.00033830541248720261 -0.042792361532745217 0 -0.00038953017441644528 -0.043897981449911111 0 -0.00010201270166940185 -0.043424039556622107 0 -0.00033830541248720261 -0.042792361532745217 0 2.5830176599468893e-05 -0.042843129163214665 0 -0.00010201270166940185 -0.043424039556622107 0 -0.00033830541248720261 -0.042792361532745217 0 -0.0005814448245011352 -0.043312622718863929 0 -0.00046727138377328882 -0.042690851910302474 0 -0.00033830541248720261 -0.042792361532745217 0 -0.0005814448245011352 -0.043312622718863929 0 -0.00038953017441644528 -0.043897981449911111 0 -0.00058666669672843505 -0.043829867888491504 0 -0.0005814448245011352 -0.043312622718863929 0 -0.00038953017441644528 -0.043897981449911111 0 -0.00059635300736547996 -0.043207370087341802 0 -0.0005814448245011352 -0.043312622718863929 0 -0.00046961241812110588 -0.042507507680468716 0 -0.0005814448245011352 -0.043312622718863929 0 -0.00046727138377328882 -0.042690851910302474 0 -0.00046961241812110588 -0.042507507680468716 0 -0.00033830541248720261 -0.042792361532745217 0 -0.00041906343289171071 -0.041668087195106118 0 -0.0001232904554834533 -0.041338187879367279 0 -0.00033830541248720261 -0.042792361532745217 0 -0.00046727138377328882 -0.042690851910302474 0 -0.00041906343289171071 -0.041668087195106118 0 -0.00046727138377328882 -0.042690851910302474 0 -0.00046961241812110588 -0.042507507680468716 0 -0.00041906343289171071 -0.041668087195106118 0 -2.9451785057307708e-07 -0.04261877004635177 0 -7.7196284764975386e-09 -0.039734847374355467 0 1.2224480183896608e-06 -0.040231828539411978 0 -0.00041906343289171071 -0.041668087195106118 0 -0.00049000610926604388 -0.041257398921326904 0 -0.00049194786194199647 -0.040704828821961012 0 -0.00041906343289171071 -0.041668087195106118 0 -0.00039166570002166148 -0.042095778089620624 0 -0.00049000610926604388 -0.041257398921326904 0 -0.00046961241812110588 -0.042507507680468716 0 -0.00041906343289171071 -0.041668087195106118 0 -0.00039166570002166148 -0.042095778089620624 0 -0.00034205857416489061 -0.043611596205750766 0 -0.00038324063971064288 -0.042370512106067022 0 -0.00015029457271566681 -0.043590027672870492 0 -0.0001167494491181517 -0.044109001790890189 0 -0.00039166570002166148 -0.042095778089620624 0 -0.00059635300736547996 -0.043207370087341802 0 -0.00046961241812110588 -0.042507507680468716 0 -0.00039166570002166148 -0.042095778089620624 0 -0.00012621531185206446 -0.04308990957556167 0 -0.00024345242620116105 -0.041009206778944284 0 -0.00015029457271566681 -0.043590027672870492 0 -0.00039166570002166148 -0.042095778089620624 0 -0.00044980797807726446 -0.041814963746144788 0 -0.00039166570002166148 -0.042095778089620624 0 -0.00049000610926604388 -0.041257398921326904 0 -0.00044980797807726446 -0.041814963746144788 0 -7.7196284764975386e-09 -0.039734847374355467 0 -2.5805485726475535e-05 -0.037846641532571682 0 -3.5250120266008593e-07 -0.035692979158470479 0 -0.00024345242620116105 -0.041009206778944284 0 -0.00023815511670918283 -0.038558434095953539 0 -0.00049000610926604388 -0.041257398921326904 0 -0.00055449305375789254 -0.039442630825348587 0 -0.00049194786194199647 -0.040704828821961012 0 -7.7196284764975386e-09 -0.039734847374355467 0 1.2224480183896608e-06 -0.040231828539411978 0 -2.5805485726475535e-05 -0.037846641532571682 0 -0.00049000610926604388 -0.041257398921326904 0 -0.00044980797807726446 -0.041814963746144788 0 -0.00055449305375789254 -0.039442630825348587 0 -0.00023815511670918283 -0.038558434095953539 0 9.5520935666390809e-05 -0.036430947575744943 0 -0.00055449305375789254 -0.039442630825348587 0 -0.00029397255396804617 -0.038456549799348663 0 2.5178792605608406e-05 -0.035934435807675143 0 -0.00055449305375789254 -0.039442630825348587 0 -0.00029397255396804617 -0.038456549799348663 0 -0.00040138517553837353 -0.040131570853052585 0 -0.00029397255396804617 -0.038456549799348663 0 -0.00040138517553837353 -0.040131570853052585 0 0.00025212734407693995 -0.038280573034236549 0 -0.00041906343289171071 -0.041668087195106118 0 -0.00040138517553837353 -0.040131570853052585 0 -0.00049194786194199647 -0.040704828821961012 0 -0.00055449305375789254 -0.039442630825348587 0 -0.00040138517553837353 -0.040131570853052585 0 -0.00049194786194199647 -0.040704828821961012 0 -3.5250120266008593e-07 -0.035692979158470479 0 2.5178792605608406e-05 -0.035934435807675143 0 0.000292364356847533 -0.034637668788559006 0 -2.5805485726475535e-05 -0.037846641532571682 0 -3.5250120266008593e-07 -0.035692979158470479 0 2.5178792605608406e-05 -0.035934435807675143 0 -0.00029397255396804617 -0.038456549799348663 0 2.5178792605608406e-05 -0.035934435807675143 0 0.00025212734407693995 -0.038280573034236549 0 0.00010607555064907669 -0.037886934718360264 0 0.0012812363993224872 -0.036701913390731401 0 2.5178792605608406e-05 -0.035934435807675143 0 0.00025212734407693995 -0.038280573034236549 0 0.000292364356847533 -0.034637668788559006 0 0.00025212734407693995 -0.038280573034236549 0 0.0016963656303538748 -0.039320362632482488 0 0.0025340067420609618 -0.037760266717691948 0 0.0016963656303538748 -0.039320362632482488 0 -0.00011078741059810786 -0.040283096230735671 0 0.0013601221731959724 -0.040838868684398379 0 0.00025212734407693995 -0.038280573034236549 0 0.0016963656303538748 -0.039320362632482488 0 -0.00011078741059810786 -0.040283096230735671 0 -0.00011078741059810786 -0.040283096230735671 0 4.9672336539379123e-05 -0.041154872522108837 0 0.0013601221731959724 -0.040838868684398379 0 -0.0010711331113043847 -0.035694835378976705 0 -0.00014056373803840745 -0.035380004478003983 0 -0.000893896956648206 -0.035926564245985566 0 -0.00061104351657276798 -0.038243810403982982 0 0.00068874295652131485 -0.038599891824306912 0 -0.00041906343289171071 -0.041668087195106118 0 -0.00040138517553837353 -0.040131570853052585 0 -0.0001232904554834533 -0.041338187879367279 0 -0.00040138517553837353 -0.040131570853052585 0 0.00025212734407693995 -0.038280573034236549 0 -0.00011078741059810786 -0.040283096230735671 0 -0.00040138517553837353 -0.040131570853052585 0 -0.00011078741059810786 -0.040283096230735671 0 -0.0001232904554834533 -0.041338187879367279 0 -0.00011078741059810786 -0.040283096230735671 0 -0.0001232904554834533 -0.041338187879367279 0 -0.00022076276064125324 -0.041022020524672249 0 -0.00011078741059810786 -0.040283096230735671 0 4.9672336539379123e-05 -0.041154872522108837 0 -0.00022076276064125324 -0.041022020524672249 0 4.9672336539379123e-05 -0.041154872522108837 0 -0.00022076276064125324 -0.041022020524672249 0 -0.00022022828448788425 -0.040985629327217853 0 -0.00033830541248720261 -0.042792361532745217 0 -0.0001232904554834533 -0.041338187879367279 0 2.5830176599468893e-05 -0.042843129163214665 0 -0.0001232904554834533 -0.041338187879367279 0 2.5830176599468893e-05 -0.042843129163214665 0 0.00078121353479089289 -0.043754972051538735 0 -0.0001232904554834533 -0.041338187879367279 0 -0.00022076276064125324 -0.041022020524672249 0 -0.00020022001267098254 -0.040966939382114882 0 3.2558663890655113e-05 -0.041750707925411329 0 -7.2625872272186477e-05 -0.041677230114462317 0 2.5830176599468893e-05 -0.042843129163214665 0 0.00032898865393273652 -0.043836310114832022 0 -0.00010201270166940185 -0.043424039556622107 0 2.5830176599468893e-05 -0.042843129163214665 0 0.00032898865393273652 -0.043836310114832022 0 0.00078121353479089289 -0.043754972051538735 0 2.3868941251799317e-05 -0.042209878307358985 0 -7.2625872272186477e-05 -0.041677230114462317 0 0.00032898865393273652 -0.043836310114832022 0 0.00050084323898606439 -0.044033745290790745 0 0.00020549797427665123 -0.044199718906624219 0 0.00032898865393273652 -0.043836310114832022 0 0.00050084323898606439 -0.044033745290790745 0 0.00051583065834389654 -0.043781389712690209 0 -0.002305047732466653 -0.036389524762894657 0 -0.0021552703851455538 -0.036027816072329383 0 -0.0018332174002273019 -0.036515020500761559 0 -0.00027180481542452256 -0.041003041941579506 0 -0.0001995264370314721 -0.040325732778733699 0 -0.00046875772668627846 -0.041025207888195345 0 -0.00041029053267493883 -0.040885876586437109 0 -0.00046614224154218963 -0.040901358805083235 0 -0.00027180481542452256 -0.041003041941579506 0 -7.2625872272186477e-05 -0.041677230114462317 0 -0.00022076276064125324 -0.041022020524672249 0 -0.00022022828448788425 -0.040985629327217853 0 -0.00020022001267098254 -0.040966939382114882 0 -0.0001995264370314721 -0.040325732778733699 0 -7.2625872272186477e-05 -0.041677230114462317 0 -0.00061104351657276798 -0.038243810403982982 0 -0.0001995264370314721 -0.040325732778733699 0 -0.0010711331113043847 -0.035694835378976705 0 -0.0021552703851455538 -0.036027816072329383 0 -0.0015147022157050122 -0.036240643679701409 0 -0.0010711331113043847 -0.035694835378976705 0 -0.0015147022157050122 -0.036240643679701409 0 -0.001121456624952936 -0.036190354549624187 0 -0.0015147022157050122 -0.036240643679701409 0 -0.0018332174002273019 -0.036515020500761559 0 -0.0013957514486712347 -0.036787598299259566 0 -0.0015147022157050122 -0.036240643679701409 0 -0.0013957514486712347 -0.036787598299259566 0 -0.001121456624952936 -0.036190354549624187 0 -0.0021552703851455538 -0.036027816072329383 0 -0.0015147022157050122 -0.036240643679701409 0 -0.0018332174002273019 -0.036515020500761559 0 -0.0013957514486712347 -0.036787598299259566 0 -0.0018848600547390483 -0.036969333673279557 0 -0.0015404064176112093 -0.037605601744204763 0 -0.0013957514486712347 -0.036787598299259566 0 -0.00099124105983041571 -0.037398555305636023 0 -0.0015404064176112093 -0.037605601744204763 0 -0.0018332174002273019 -0.036515020500761559 0 -0.0013957514486712347 -0.036787598299259566 0 -0.0018848600547390483 -0.036969333673279557 0 0.00050084323898606439 -0.044033745290790745 0 0.00020549797427665123 -0.044199718906624219 0 0.00015628646459675481 -0.044673442141757426 0 -0.00027180481542452256 -0.041003041941579506 0 0.00012303371637978935 -0.044416463317273676 0 0.00049493906222374494 -0.042371681281972572 0 0.00010315588807523607 -0.043424558376602758 0 0.00047812249845489231 -0.043508767849144231 0 -0.00027180481542452256 -0.041003041941579506 0 -0.00099079091016469694 -0.040169286646811179 0 -0.002305047732466653 -0.036389524762894657 0 -0.0018848600547390483 -0.036969333673279557 0 -0.0023406140273561815 -0.037562235618542036 0 -0.002305047732466653 -0.036389524762894657 0 -0.0018332174002273019 -0.036515020500761559 0 -0.0018848600547390483 -0.036969333673279557 0 -2.6602519029225141e-05 -0.037193444099948944 0 -0.0012066842843481435 -0.032616267405973162 0 -0.000893896956648206 -0.035926564245985566 0 -0.00046222551980950374 -0.036665610766994421 0 0.00018652415140473129 -0.036593563340759479 0 -0.00012881758208903662 -0.035871657184668108 0 -0.000893896956648206 -0.035926564245985566 0 8.5112764918868881e-05 -0.036407017051394625 0 -0.00014056373803840745 -0.035380004478003983 0 -0.00012881758208903662 -0.035871657184668108 0 -0.000893896956648206 -0.035926564245985566 0 -0.00012881758208903662 -0.035871657184668108 0 8.5112764918868881e-05 -0.036407017051394625 0 0.00043272280866829023 -0.035764324337329768 0 -0.00014056373803840745 -0.035380004478003983 0 -0.00012881758208903662 -0.035871657184668108 0 0.00043272280866829023 -0.035764324337329768 0 -0.000893896956648206 -0.035926564245985566 0 -0.00095655588173384565 -0.036501067272524598 0 -0.00046222551980950374 -0.036665610766994421 0 -0.0010711331113043847 -0.035694835378976705 0 -0.000893896956648206 -0.035926564245985566 0 -0.001121456624952936 -0.036190354549624187 0 -0.000893896956648206 -0.035926564245985566 0 -0.001121456624952936 -0.036190354549624187 0 -0.00095655588173384565 -0.036501067272524598 0 -0.0013957514486712347 -0.036787598299259566 0 -0.001121456624952936 -0.036190354549624187 0 -0.00095655588173384565 -0.036501067272524598 0 -0.00065106498581752551 -0.037290467448208436 0 -0.00046222551980950374 -0.036665610766994421 0 -0.00016687126514987295 -0.037552725193453262 0 -0.0013957514486712347 -0.036787598299259566 0 -0.00095655588173384565 -0.036501067272524598 0 -0.0008916341255527135 -0.036927390903435248 0 -0.0013957514486712347 -0.036787598299259566 0 -0.0008916341255527135 -0.036927390903435248 0 -0.00099124105983041571 -0.037398555305636023 0 -0.0008916341255527135 -0.036927390903435248 0 -0.00065106498581752551 -0.037290467448208436 0 -0.00099124105983041571 -0.037398555305636023 0 -0.0008916341255527135 -0.036927390903435248 0 -0.00065106498581752551 -0.037290467448208436 0 -0.00046222551980950374 -0.036665610766994421 0 -0.00095655588173384565 -0.036501067272524598 0 -0.0008916341255527135 -0.036927390903435248 0 -0.00046222551980950374 -0.036665610766994421 0 -0.00031202918046465859 -0.037120563709967476 0 -0.0010477215061279555 -0.036494243466451214 0 -0.00046222551980950374 -0.036665610766994421 0 -3.8884083810398036e-05 -0.036978291063226414 0 -0.00022879055768239507 -0.037338838746320213 0 -0.00046222551980950374 -0.036665610766994421 0 -2.9085386872897328e-05 -0.036733297586768444 0 0.00018652415140473129 -0.036593563340759479 0 -0.00046222551980950374 -0.036665610766994421 0 -3.451197537348947e-05 -0.036871618838691847 0 -2.9085386872897328e-05 -0.036733297586768444 0 -0.00046222551980950374 -0.036665610766994421 0 -3.451197537348947e-05 -0.036871618838691847 0 -3.8884083810398036e-05 -0.036978291063226414 0 -0.0013758549582496152 -0.034157369642771586 0 -0.0014231297460908165 -0.03524122145452209 0 -3.451197537348947e-05 -0.036871618838691847 0 4.603233974727662e-05 -0.036813016341364621 0 -3.9573845203231902e-05 -0.036967496006131792 0 -0.0024629103037095228 -0.033888471633122856 0 -0.0023703472413982487 -0.033705172335205577 0 -0.0030791151771038055 -0.033302168352849645 0 -0.0013406733986411868 -0.035599866069590966 0 -0.0014231297460908165 -0.03524122145452209 0 -0.0013758549582496152 -0.034157369642771586 0 -0.0012066842843481435 -0.032616267405973162 0 6.1038196350903656e-05 -0.036815225235452678 0 -2.9085386872897328e-05 -0.036733297586768444 0 0.00018652415140473129 -0.036593563340759479 0 -3.451197537348947e-05 -0.036871618838691847 0 4.603233974727662e-05 -0.036813016341364621 0 -2.9085386872897328e-05 -0.036733297586768444 0 -0.0013758549582496152 -0.034157369642771586 0 -0.0009040326717813334 -0.034699576949452637 0 -0.0019825460292119822 -0.035723552083484857 0 -0.0019901785633123508 -0.034388356482382199 0 -0.0016722017466944343 -0.035102624692906752 0 -0.0015959847403757706 -0.035723948891793547 0 -0.0017035930091847539 -0.035471602953940314 0 -0.0019699017192308485 -0.035983858756647176 0 -0.0023703472413982487 -0.033705172335205577 0 -0.0023721302784781772 -0.032829834099621619 0 -0.0030791151771038055 -0.033302168352849645 0 -0.0014231297460908165 -0.03524122145452209 0 -0.0028062493885122825 -0.033733408599864526 0 -0.0014231297460908165 -0.03524122145452209 0 -0.0010477215061279555 -0.036494243466451214 0 -0.0028062493885122825 -0.033733408599864526 0 -0.0010477215061279555 -0.036494243466451214 0 -0.00016687126514987295 -0.037552725193453262 0 -0.00071198171421524238 -0.037886614799005555 0 -0.00069837730671347897 -0.038572468183077475 0 -0.0010477215061279555 -0.036494243466451214 0 -0.0018976412062849156 -0.036646091078710592 0 -0.00065106498581752551 -0.037290467448208436 0 -0.00071198171421524238 -0.037886614799005555 0 -0.00099124105983041571 -0.037398555305636023 0 -0.00065106498581752551 -0.037290467448208436 0 -0.00016687126514987295 -0.037552725193453262 0 -0.00071198171421524238 -0.037886614799005555 0 -0.00071198171421524238 -0.037886614799005555 0 -0.00099124105983041571 -0.037398555305636023 0 -0.0010620951221208021 -0.037814487118298053 0 -0.00099124105983041571 -0.037398555305636023 0 -0.0010620951221208021 -0.037814487118298053 0 -0.0015404064176112093 -0.037605601744204763 0 -0.0010620951221208021 -0.037814487118298053 0 -0.00092029835718123397 -0.038280920669033131 0 -0.0012673583438058342 -0.038168988864121914 0 -0.00071198171421524238 -0.037886614799005555 0 -0.0010620951221208021 -0.037814487118298053 0 -0.00092029835718123397 -0.038280920669033131 0 -0.0012026349870262688 -0.038581249279412637 0 -0.0010648076296417557 -0.038565396959553265 0 -0.0012673583438058342 -0.038168988864121914 0 -0.0010648076296417557 -0.038565396959553265 0 -0.00084199477064684722 -0.038644786825922671 0 -0.0012673583438058342 -0.038168988864121914 0 -0.00092029835718123397 -0.038280920669033131 0 -0.00079580877490832648 -0.038635787223436739 0 -0.0012673583438058342 -0.038168988864121914 0 -0.0017304272242421555 -0.036972907781869187 0 -0.00081730207739383462 -0.038508057881732227 0 -0.0017304272242421555 -0.036972907781869187 0 -0.0025533675105561902 -0.036852776407047386 0 -0.0010035571603806636 -0.038809274751941257 0 -0.00084802697497295587 -0.038641540093680468 0 -0.00098333278314802447 -0.038990273038593794 0 -0.0012026349870262688 -0.038581249279412637 0 -0.0010648076296417557 -0.038565396959553265 0 -0.0010807904960192225 -0.038711294164691809 0 -0.0012026349870262688 -0.038581249279412637 0 -0.0011905124246013314 -0.038824089327456665 0 -0.0010807904960192225 -0.038711294164691809 0 -0.0011905124246013314 -0.038824089327456665 0 -0.0010807904960192225 -0.038711294164691809 0 -0.0010035571603806636 -0.038809274751941257 0 -0.0010807904960192225 -0.038711294164691809 0 -0.0010035571603806636 -0.038809274751941257 0 -0.00093262216276277844 -0.038699630531574068 0 -0.0010035571603806636 -0.038809274751941257 0 -0.00093262216276277844 -0.038699630531574068 0 -0.00084802697497295587 -0.038641540093680468 0 -0.0017186811150334837 -0.037082041696938253 0 -0.0017304272242421555 -0.036972907781869187 0 -0.0010648076296417557 -0.038565396959553265 0 -0.00093262216276277844 -0.038699630531574068 0 -0.00084199477064684722 -0.038644786825922671 0 -0.0010648076296417557 -0.038565396959553265 0 -0.0010807904960192225 -0.038711294164691809 0 