<?xml version="1.0"?>
<VTKFile type="UnstructuredGrid" version="0.1" byte_order="LittleEndian">
<UnstructuredGrid>
<Piece NumberOfPoints="31654" NumberOfCells="11089">
<Points>
<DataArray type="Float64" NumberOfComponents="3" format="ascii">
-0.5 -0.5 0 -0.4732451585137879 -0.47682807702931651 0 -0.49999999999999589 -0.46823444459058577 0 -0.5 -0.5 0 -0.4732451585137879 -0.47682807702931651 0 -0.43874771323925571 -0.500000000000001 0 -0.4732451585137879 -0.47682807702931651 0 -0.44886940929137248 -0.47646658065203418 0 -0.43874771323925571 -0.500000000000001 0 -0.4732451585137879 -0.47682807702931651 0 -0.44886940929137248 -0.47646658065203418 0 -0.46314426659889912 -0.46019175248200039 0 -0.44886940929137248 -0.47646658065203418 0 -0.4289222659274402 -0.48282780253622748 0 -0.43509480535000561 -0.4590958846834251 0 -0.44886940929137248 -0.47646658065203418 0 -0.43874771323925571 -0.500000000000001 0 -0.43459455198384589 -0.49274140882206791 0 -0.44886940929137248 -0.47646658065203418 0 -0.43459455198384589 -0.49274140882206791 0 -0.44126734477257151 -0.43536396683062278 0 -0.43509480535000561 -0.4590958846834251 0 -0.45635136321272551 -0.44412501524972731 0 -0.44126734477257151 -0.43536396683062278 0 -0.43509480535000561 -0.4590958846834251 0 -0.44886940929137248 -0.47646658065203418 0 -0.46314426659889912 -0.46019175248200039 0 -0.43509480535000561 -0.4590958846834251 0 -0.46314426659889912 -0.46019175248200039 0 -0.45635136321272551 -0.44412501524972731 0 -0.43509480535000561 -0.4590958846834251 0 -0.44886940929137248 -0.47646658065203418 0 -0.46314426659889912 -0.46019175248200039 0 -0.46314426659889912 -0.46019175248200039 0 -0.45635136321272551 -0.44412501524972731 0 -0.47741912390642088 -0.44391692431196261 0 -0.45635136321272551 -0.44412501524972731 0 -0.47741912390642088 -0.44391692431196261 0 -0.46242950405078193 -0.42777448664489159 0 -0.46314426659889912 -0.46019175248200039 0 -0.47741912390642088 -0.44391692431196261 0 -0.47741912390642088 -0.44391692431196261 0 -0.48870956195320708 -0.45607568445127539 0 -0.47741912390642088 -0.44391692431196261 0 -0.48846863947279479 -0.4313193225755223 0 -0.46314426659889912 -0.46019175248200039 0 -0.47741912390642088 -0.44391692431196261 0 -0.48870956195320708 -0.45607568445127539 0 -0.4732451585137879 -0.47682807702931651 0 -0.46314426659889912 -0.46019175248200039 0 -0.48870956195320708 -0.45607568445127539 0 -0.4732451585137879 -0.47682807702931651 0 -0.48870956195320708 -0.45607568445127539 0 -0.49999999999999589 -0.46823444459058577 0 -0.48870956195320708 -0.45607568445127539 0 -0.49999999999999589 -0.46823444459058577 0 -0.5 -0.44320340592566271 0 -0.48870956195320708 -0.45607568445127539 0 -0.49999999999999589 -0.46823444459058577 0 -0.47741912390642088 -0.44391692431196261 0 -0.48937206834784253 -0.44495466013401358 0 -0.49049276831072891 -0.43535915194495772 0 -0.47741912390642088 -0.44391692431196261 0 -0.48870956195320708 -0.45607568445127539 0 -0.48937206834784253 -0.44495466013401358 0 -0.48870956195320708 -0.45607568445127539 0 -0.48937206834784253 -0.44495466013401358 0 -0.5 -0.44320340592566271 0 -0.48937206834784253 -0.44495466013401358 0 -0.5 -0.44320340592566271 0 -0.49049276831072891 -0.43535915194495772 0 -0.49049276831072891 -0.43535915194495772 0 -0.48846863947279479 -0.4313193225755223 0 -0.50000000000000022 -0.41817236726073959 0 -0.5 -0.44320340592566271 0 -0.49049276831072891 -0.43535915194495772 0 -0.50000000000000022 -0.41817236726073959 0 -0.47741912390642088 -0.44391692431196261 0 -0.49049276831072891 -0.43535915194495772 0 -0.48846863947279479 -0.4313193225755223 0 -0.49049276831072891 -0.43535915194495772 0 -0.48846863947279479 -0.4313193225755223 0 -0.48846863947279479 -0.4313193225755223 0 -0.50000000000000022 -0.41817236726073959 0 -0.48846863947279479 -0.4313193225755223 0 -0.50000000000000022 -0.41817236726073959 0 -0.47669969369162829 -0.4078304359379693 0 -0.48846863947279479 -0.4313193225755223 0 -0.47669969369162829 -0.4078304359379693 0 -0.47741912390642088 -0.44391692431196261 0 -0.48846863947279479 -0.4313193225755223 0 -0.46242950405078193 -0.42777448664489159 0 -0.47741912390642088 -0.44391692431196261 0 -0.46242950405078193 -0.42777448664489159 0 -0.48846863947279479 -0.4313193225755223 0 -0.47669969369162829 -0.4078304359379693 0 -0.46242950405078193 -0.42777448664489159 0 -0.47669969369162829 -0.4078304359379693 0 -0.5 -0.38868731074238871 0 -0.48375721562598878 -0.37608957771036389 0 -0.47669969369162829 -0.4078304359379693 0 -0.48375721562598878 -0.37608957771036389 0 -0.46493074791046218 -0.38434154930041609 0 -0.50000000000000022 -0.41817236726073959 0 -0.47669969369162829 -0.4078304359379693 0 -0.5 -0.38868731074238871 0 -0.47669969369162829 -0.4078304359379693 0 -0.46493074791046218 -0.38434154930041609 0 -0.46493074791046218 -0.38434154930041609 0 -0.44555067367400492 -0.38224222509260541 0 -0.45316180212929608 -0.36085266266286281 0 -0.46493074791046218 -0.38434154930041609 0 -0.44915309548591592 -0.40504516684814063 0 -0.44555067367400492 -0.38224222509260541 0 -0.47669969369162829 -0.4078304359379693 0 -0.46493074791046218 -0.38434154930041609 0 -0.46122462095373062 -0.40961346283075728 0 -0.46493074791046218 -0.38434154930041609 0 -0.44915309548591592 -0.40504516684814063 0 -0.46122462095373062 -0.40961346283075728 0 -0.44743988419514152 -0.41163204897782169 0 -0.42940116786533511 -0.39220601571264879 0 -0.44915309548591592 -0.40504516684814063 0 -0.44555067367400492 -0.38224222509260541 0 -0.42940116786533511 -0.39220601571264879 0 -0.44743988419514152 -0.41163204897782169 0 -0.44015200157501472 -0.411277631760887 0 -0.42940116786533511 -0.39220601571264879 0 -0.44915309548591592 -0.40504516684814063 0 -0.44743988419514152 -0.41163204897782169 0 -0.42940116786533511 -0.39220601571264879 0 -0.45635136321272551 -0.44412501524972731 0 -0.46242950405078193 -0.42777448664489159 0 -0.44126734477257151 -0.43536396683062278 0 -0.46242950405078193 -0.42777448664489159 0 -0.44743988419514152 -0.41163204897782169 0 -0.46242950405078193 -0.42777448664489159 0 -0.46122462095373062 -0.40961346283075728 0 -0.44743988419514152 -0.41163204897782169 0 -0.47669969369162829 -0.4078304359379693 0 -0.46242950405078193 -0.42777448664489159 0 -0.46122462095373062 -0.40961346283075728 0 -0.44915309548591592 -0.40504516684814063 0 -0.46122462095373062 -0.40961346283075728 0 -0.44743988419514152 -0.41163204897782169 0 -0.44915309548591592 -0.40504516684814063 0 -0.44743988419514152 -0.41163204897782169 0 -0.44743988419514152 -0.41163204897782169 0 -0.44015200157501472 -0.411277631760887 0 -0.43582053511234642 -0.42354719600006779 0 -0.44743988419514152 -0.41163204897782169 0 -0.44126734477257151 -0.43536396683062278 0 -0.46242950405078193 -0.42777448664489159 0 -0.44743988419514152 -0.41163204897782169 0 -0.44126734477257151 -0.43536396683062278 0 -0.44743988419514152 -0.41163204897782169 0 -0.44126734477257151 -0.43536396683062278 0 -0.43582053511234642 -0.42354719600006779 0 -0.43582053511234642 -0.42354719600006779 0 -0.42342116587033379 -0.41960264903789002 0 -0.42488767794464982 -0.43823262806029611 0 -0.44126734477257151 -0.43536396683062278 0 -0.43582053511234642 -0.42354719600006779 0 -0.42488767794464982 -0.43823262806029611 0 -0.43582053511234642 -0.42354719600006779 0 -0.43075900464505068 -0.41614169475609569 0 -0.42342116587033379 -0.41960264903789002 0 -0.44015200157501472 -0.411277631760887 0 -0.42440039228766119 -0.41109654959367481 0 -0.42086078397803039 -0.40109126819785068 0 -0.44015200157501472 -0.411277631760887 0 -0.43075900464505068 -0.41614169475609569 0 -0.42440039228766119 -0.41109654959367481 0 -0.44015200157501472 -0.411277631760887 0 -0.43582053511234642 -0.42354719600006779 0 -0.43075900464505068 -0.41614169475609569 0 -0.43075900464505068 -0.41614169475609569 0 -0.42440039228766119 -0.41109654959367481 0 -0.42342116587033379 -0.41960264903789002 0 -0.42342116587033379 -0.41960264903789002 0 -0.4104477714426118 -0.4119642915827062 0 -0.41188317545024239 -0.42436285658791062 0 -0.42440039228766119 -0.41109654959367481 0 -0.42342116587033379 -0.41960264903789002 0 -0.4104477714426118 -0.4119642915827062 0 -0.42440039228766119 -0.41109654959367481 0 -0.4104477714426118 -0.4119642915827062 0 -0.42086078397803039 -0.40109126819785068 0 -0.4104477714426118 -0.4119642915827062 0 -0.41188317545024239 -0.42436285658791062 0 -0.39970241496547171 -0.42327770595292158 0 -0.41188317545024239 -0.42436285658791062 0 -0.40831074892188329 -0.43632206089057513 0 -0.39970241496547171 -0.42327770595292158 0 -0.41188317545024239 -0.42436285658791062 0 -0.40831074892188329 -0.43632206089057513 0 -0.42488767794464982 -0.43823262806029611 0 -0.42342116587033379 -0.41960264903789002 0 -0.41188317545024239 -0.42436285658791062 0 -0.42488767794464982 -0.43823262806029611 0 -0.42940116786533511 -0.39220601571264879 0 -0.43110655497901512 -0.36876573093895848 0 -0.4113624515355272 -0.37277998244747762 0 -0.44555067367400492 -0.38224222509260541 0 -0.42940116786533511 -0.39220601571264879 0 -0.43110655497901512 -0.36876573093895848 0 -0.44015200157501472 -0.411277631760887 0 -0.42086078397803039 -0.40109126819785068 0 -0.44015200157501472 -0.411277631760887 0 -0.42940116786533511 -0.39220601571264879 0 -0.42086078397803039 -0.40109126819785068 0 -0.42940116786533511 -0.39220601571264879 0 -0.42086078397803039 -0.40109126819785068 0 -0.41579849243998468 -0.38924554274819789 0 -0.42086078397803039 -0.40109126819785068 0 -0.40156956638104607 -0.39090490463481442 0 -0.4104477714426118 -0.4119642915827062 0 -0.42086078397803039 -0.40109126819785068 0 -0.40156956638104607 -0.39090490463481442 0 -0.42086078397803039 -0.40109126819785068 0 -0.41579849243998468 -0.38924554274819789 0 -0.40156956638104607 -0.39090490463481442 0 -0.42940116786533511 -0.39220601571264879 0 -0.41579849243998468 -0.38924554274819789 0 -0.4113624515355272 -0.37277998244747762 0 -0.41579849243998468 -0.38924554274819789 0 -0.40156956638104607 -0.390904904634
[...]
<PointData Scalars="" Vectors="displacement," Tensors="">
<DataArray type="Float64" Name="displacement" NumberOfComponents="3" format="ascii">
9.5952204091918109e-07 0.034996650909838278 0 3.7635082641211719e-05 0.03458500847421294 0 -1.6097844948057326e-06 0.032782000614496251 0 9.5952204091918109e-07 0.034996650909838278 0 3.7635082641211719e-05 0.03458500847421294 0 -3.0322009287087084e-07 0.035001001229212222 0 3.7635082641211719e-05 0.03458500847421294 0 -9.9006611451035631e-05 0.034922886213045234 0 -3.0322009287087084e-07 0.035001001229212222 0 3.7635082641211719e-05 0.03458500847421294 0 -9.9006611451035631e-05 0.034922886213045234 0 -0.0005279064497276365 0.034795561399194389 0 0.00068931926353370959 0.03179444426422786 0 0.00099547155169204139 0.032791006027245939 0 -0.00016955698667611954 0.032467021032663641 0 -9.9006611451035631e-05 0.034922886213045234 0 -3.0322009287087084e-07 0.035001001229212222 0 -3.0824234302647645e-05 0.035011025875034109 0 0.00025092391302606308 0.03328172898669586 0 0.00037583375612594983 0.034144198680973362 0 -0.00060224898420329547 0.033614648296013336 0 -9.4792779000217668e-05 0.033133527179716779 0 -0.00091544669543919559 0.031383765596005565 0 -0.0013482161380841448 0.032128905935836088 0 -0.00016955698667611954 0.032467021032663641 0 0.00068931926353370959 0.03179444426422786 0 -0.00011401618692740181 0.03106063727093572 0 -0.00016955698667611954 0.032467021032663641 0 -0.00011401618692740181 0.03106063727093572 0 -0.00091544669543919559 0.031383765596005565 0 -0.00016955698667611954 0.032467021032663641 0 0.00025092391302606308 0.03328172898669586 0 -0.00010258893844422766 0.033240683880572018 0 -0.00011401618692740181 0.03106063727093572 0 -0.00091544669543919559 0.031383765596005565 0 -0.00093079493963182426 0.030328041881855634 0 -0.00091544669543919559 0.031383765596005565 0 -0.00093079493963182426 0.030328041881855634 0 -0.0017293338908530001 0.031060506931066104 0 -0.00010258893844422766 0.033240683880572018 0 -0.0016430905954579016 0.029855900409099398 0 -0.0016430905954579016 0.029855900409099398 0 -0.00047555025564603764 0.032590571804152861 0 -0.0016430905954579016 0.029855900409099398 0 -0.0022398520012362022 0.028332614114103687 0 -0.0005279064497276365 0.034795561399194389 0 -0.0013492910708216091 0.034106347505276441 0 -0.00080435181265481109 0.033597649556564198 0 3.7635082641211719e-05 0.03458500847421294 0 -0.0005279064497276365 0.034795561399194389 0 -0.00080435181265481109 0.033597649556564198 0 3.7635082641211719e-05 0.03458500847421294 0 -0.00080435181265481109 0.033597649556564198 0 -1.6097844948057326e-06 0.032782000614496251 0 1.322129195309733e-06 0.031369941678390911 0 -7.9510569767730294e-07 0.032774703106052315 0 7.5922625542585907e-07 0.031024345011151845 0 -0.00047555025564603764 0.032590571804152861 0 5.0903902695668853e-08 0.03277596627059403 0 1.9169561692328746e-05 0.031046969396237179 0 9.0455643717985038e-06 0.031063784257994755 0 1.6459535947610889e-05 0.030791115796934044 0 1.9169561692328746e-05 0.031046969396237179 0 1.322129195309733e-06 0.031369941678390911 0 9.0455643717985038e-06 0.031063784257994755 0 1.322129195309733e-06 0.031369941678390911 0 9.0455643717985038e-06 0.031063784257994755 0 7.5922625542585907e-07 0.031024345011151845 0 9.0455643717985038e-06 0.031063784257994755 0 7.5922625542585907e-07 0.031024345011151845 0 1.6459535947610889e-05 0.030791115796934044 0 1.6459535947610889e-05 0.030791115796934044 0 -5.7227223092292672e-05 0.030715660409276851 0 -7.9011345409005639e-07 0.029273526294669026 0 7.5922625542585907e-07 0.031024345011151845 0 1.6459535947610889e-05 0.030791115796934044 0 -7.9011345409005639e-07 0.029273526294669026 0 1.9169561692328746e-05 0.031046969396237179 0 1.6459535947610889e-05 0.030791115796934044 0 -4.078979096877067e-05 0.030812657935861281 0 -0.0015449534586568728 0.028625847293275754 0 -0.0022398520012362022 0.028332614114103687 0 -0.0022398520012362022 0.028332614114103687 0 1.0530874865576281e-06 0.029273446500015815 0 -0.0014806291067292674 0.028087623388379456 0 -3.3971358163245262e-06 0.029267958294309018 0 -0.00025251038204909983 0.026572828601176029 0 -0.0022398520012362022 0.028332614114103687 0 -0.0020886467125045068 0.025306918321042829 0 -0.0059251985666610926 0.02461974485693446 0 -0.0051384785587096221 0.025306259902198997 0 -0.0049557852261795455 0.023614383443943003 0 -0.0016430905954579016 0.029855900409099398 0 -0.0035008676121568135 0.027046523876646134 0 -0.0051384785587096221 0.025306259902198997 0 -0.0036808831435720317 0.024512271991389112 0 -0.0049557852261795455 0.023614383443943003 0 -0.00025251038204909983 0.026572828601176029 0 8.1930208837110587e-07 0.027207975297682714 0 -7.0781664691408982e-05 0.025419157338454262 0 -0.00025251038204909983 0.026572828601176029 0 -7.0781664691408982e-05 0.025419157338454262 0 -0.0003611187776529285 0.024723374447164586 0 -3.3971358163245262e-06 0.029267958294309018 0 -0.00025251038204909983 0.026572828601176029 0 8.1930208837110587e-07 0.027207975297682714 0 -0.0020886467125045068 0.025306918321042829 0 -0.0011204792845367795 0.024164584564227154 0 -0.0021110584965165994 0.023698083623459588 0 -0.0019747888694005267 0.022255059522084078 0 -0.00030644195679762113 0.022752157652498023 0 -0.0021110584965165994 0.023698083623459588 0 -0.0035446241287987153 0.022628330202732944 0 -0.0019747888694005267 0.022255059522084078 0 -0.0036808831435720317 0.024512271991389112 0 -0.0021110584965165994 0.023698083623459588 0 -0.0038153094362673398 0.023477606327821816 0 -0.0021110584965165994 0.023698083623459588 0 -0.0035446241287987153 0.022628330202732944 0 -0.0038153094362673398 0.023477606327821816 0 -0.0023239925283033694 0.028254793645554888 0 -0.0010017645600845346 0.027159234099714234 0 -0.0035446241287987153 0.022628330202732944 0 -0.0019747888694005267 0.022255059522084078 0 -0.0027007509890321314 0.021120820742092653 0 -0.00049486856395753061 0.034176418226154914 0 -0.00044212117709656405 0.033919556475862221 0 0.00065877472744826156 0.033182749348141492 0 -0.0035446241287987153 0.022628330202732944 0 -0.0040099686724406379 0.02252739527513517 0 -0.0027007509890321314 0.021120820742092653 0 -0.00091544669543919559 0.031383765596005565 0 -0.0017293338908530001 0.031060506931066104 0 -0.0013482161380841448 0.032128905935836088 0 -0.0035008676121568135 0.027046523876646134 0 -0.0023239925283033694 0.028254793645554888 0 -0.0049557852261795455 0.023614383443943003 0 -0.0038153094362673398 0.023477606327821816 0 -0.0039597820856778973 0.022556581337928608 0 -0.0036808831435720317 0.024512271991389112 0 -0.0049557852261795455 0.023614383443943003 0 -0.0038153094362673398 0.023477606327821816 0 -0.0035446241287987153 0.022628330202732944 0 -0.0038153094362673398 0.023477606327821816 0 -0.0039597820856778973 0.022556581337928608 0 -0.0040684311473496142 0.025925419252994672 0 -0.0023239925283033694 0.028254793645554888 0 -0.00049486856395753061 0.034176418226154914 0 -0.00044212117709656405 0.033919556475862221 0 -0.00048374008614625617 0.034027873130249492 0 -0.0023239925283033694 0.028254793645554888 0 -0.00060224898420329547 0.033614648296013336 0 -0.0017293338908530001 0.031060506931066104 0 -0.0025223877416973924 0.031779966887696381 0 -0.0013482161380841448 0.032128905935836088 0 -0.00049486856395753061 0.034176418226154914 0 -0.00046843104248536798 0.03399654692929286 0 -0.00048374008614625617 0.034027873130249492 0 -0.00048374008614625617 0.034027873130249492 0 -0.00044428974275159612 0.034105932160647043 0 -0.00042477861008847226 0.03423112272366604 0 -0.00046843104248536798 0.03399654692929286 0 -0.00048374008614625617 0.034027873130249492 0 -0.00042477861008847226 0.03423112272366604 0 -0.00048374008614625617 0.034027873130249492 0 -0.00045104450121786691 0.034034017392575652 0 -0.00044428974275159612 0.034105932160647043 0 -0.00044212117709656405 0.033919556475862221 0 -0.00045117656875852359 0.034083675830175679 0 -0.00047762597476483837 0.034110757802199972 0 -0.00044212117709656405 0.033919556475862221 0 -0.00045104450121786691 0.034034017392575652 0 -0.00045117656875852359 0.034083675830175679 0 -0.00044212117709656405 0.033919556475862221 0 -0.00048374008614625617 0.034027873130249492 0 -0.00045104450121786691 0.034034017392575652 0 -0.00045104450121786691 0.034034017392575652 0 -0.00045117656875852359 0.034083675830175679 0 -0.00044428974275159612 0.034105932160647043 0 -0.00044428974275159612 0.034105932160647043 0 -0.00043958534409958307 0.034133873298963113 0 -0.00042108383350602667 0.034146576983638786 0 -0.00045117656875852359 0.034083675830175679 0 -0.00044428974275159612 0.034105932160647043 0 -0.00043958534409958307 0.034133873298963113 0 -0.00045117656875852359 0.034083675830175679 0 -0.00043958534409958307 0.034133873298963113 0 -0.00047762597476483837 0.034110757802199972 0 -0.00043958534409958307 0.034133873298963113 0 -0.00042108383350602667 0.034146576983638786 0 -0.00041907859634311061 0.034145454319634623 0 -0.00042108383350602667 0.034146576983638786 0 -0.00041963563303569235 0.034162327473625465 0 -0.00041907859634311061 0.034145454319634623 0 -0.00042108383350602667 0.034146576983638786 0 -0.00041963563303569235 0.034162327473625465 0 -0.00042477861008847226 0.03423112272366604 0 -0.00044428974275159612 0.034105932160647043 0 -0.00042108383350602667 0.034146576983638786 0 -0.00042477861008847226 0.03423112272366604 0 -0.0027007509890321314 0.021120820742092653 0 -0.0010784843490527242 0.021142001149755708 0 -0.0014671464076828065 0.019711397849329324 0 -0.0019747888694005267 0.022255059522084078 0 -0.0027007509890321314 0.021120820742092653 0 -0.0010784843490527242 0.021142001149755708 0 -0.00042733350127928507 0.033852178335246619 0 -0.00019968145059876891 0.033355065208203229 0 -0.00044212117709656405 0.033919556475862221 0 0.00065877472744826156 0.033182749348141492 0 5.1474573924914906e-05 0.032575796552054774 0 0.00065877472744826156 0.033182749348141492 0 5.1474573924914906e-05 0.032575796552054774 0 0.00089958426952515213 0.032142414253078018 0 -0.00019968145059876891 0.033355065208203229 0 9.1663354322091747e-05 0.032451595335906358 0 -0.00043958534409958307 0.034133873298963113 0 -0.00047762597476483837 0.034110757802199972 0 -0.00041812146393083313 0.034127474776906613 0 5.1474573924914906e-05 0.032575796552054774 0 0.00089958426952515213 0.032142414253078018 0 0.0007665356437267718 0.031041792704919663 0 0.00065877472744826156 0.033182749348141492 0 0.00089958426952515213 0.032142414253078018 0 0.002147219778518554 0.031754686117548482 0 0.00089958426952515213 0.032142414253078018 0 0.0007665356437267718 0.031041792704919663 0 0.002147219778518554 0.031754686117548482 0 -0.0010017645600845346 0.027159234099714234 0 0.00029980029624363864 0.025646508954934057 0 0.0007665356437267718 0.031041792704919663 0 0.0015414881579381636 0.0295794704550221 0 0.0020139214792520769 0.030679318948256661 0 0.0007665356437267718 0.031041792704919663 0 0.002147219778518554 0.031754686117548482 0 0.0020139214792520769 0.030679318948256661 0 9.1663354322091747e-05 0.032451595335906358 0 0.0021291971564069445 0.033083967250875208 0 -0.00041805772377809112 0.034133699285312818 0 -0.00041812146393083313 0.034127474776906613 0 -0.00038446179723247622 0.034115819809178681 0 -0.00043958534409958307 0.034133873298963113 0 -0.00041805772377809112 0.034133699285312818 0 -0.00041812146393083313 0.034127474776906613 0 -0.00041805772377809112 0.034133699285312818 0 -0.00038446179723247622 0.034115819809178681 0 -0.00040624368528711268 0.034128067994997874 0 0.0021291971564069445 0.033083967250875208 0 0.00070155349298724223 0.033656839845750512 0 -0.00041907859634311061 0.034145454319634623 0 -0.00041376326172445574 0.034139757482757424 0 -0.00041948612556765063 0.034146471008966763 0 -0.00041963563303569235 0.034162327473625465 0 -0.00041907859634311061 0.034145454319634623 0 -0.00041948612556765063 0.034146471008966763 0 -0.00041805772377809112 0.034133699285312818 0 -0.00041907859634311061 0.034145454319634623 0 -0.00041376326172445574 0.034139757482757424 0 -0.00043958534409958307 0.034133873298963113 0 -0.00041805772377809112 0.034133699285312818 0 -0.00041907859634311061 0.034145454319634623 0 -0.00041805772377809112 0.034133699285312818 0 -0.00041376326172445574 0.034139757482757424 0 -0.00040624368528711268 0.034128067994997874 0 -0.00041376326172445574 0.034139757482757424 0 -0.00041470987903137073 0.034144361081731529 0 -0.00041948612556765063 0.034146471008966763 0 -0.00041376326172445574 0.034139757482757424 0 -0.00041470987903137073 0.034144361081731529 0 -0.00040519438465777243 0.03414062067704858 0 -0.00041470987903137073 0.034144361081731529 0 -0.00041436687792550773 0.03414701592881448 0 -0.00042084548918055244 0.034147420801162759 0 -0.00041470987903137073 0.034144361081731529 0 -0.00042084548918055244 0.034147420801162759 0 -0.00041948612556765063 0.034146471008966763 0 -0.00042084548918055244 0.034147420801162759 0 -0.00041948612556765063 0.034146471008966763 0 -0.00043431605928771365 0.034151115273352212 0 -0.00041963563303569235 0.034162327473625465 0 -0.00041948612556765063 0.034146471008966763 0 -0.00043431605928771365 0.034151115273352212 0 -0.00015939661551494407 0.034899057427571357 0 -6.7311828805343806e-05 0.034931282080600888 0 -2.4132989254771604e-05 0.035004804177537853 0 -0.00031595896087008768 0.03448244423929251 0 -0.00011299080557080818 0.034704100086099011 0 -6.1906296867721581e-05 0.034855587663643051 0 -6.7311828805343806e-05 0.034931282080600888 0 -6.2580714850388137e-07 0.034877590477933068 0 -0.00015939661551494407 0.034899057427571357 0 -6.1906296867721581e-05 0.034855587663643051 0 -6.7311828805343806e-05 0.034931282080600888 0 -6.7311828805343806e-05 0.034931282080600888 0 -1.7214479193687285e-05 0.034944616296321993 0 -6.2580714850388137e-07 0.034877590477933068 0 -6.7311828805343806e-05 0.034931282080600888 0 -3.8757059483283325e-05 0.034956696850201564 0 -1.7214479193687285e-05 0.034944616296321993 0 -6.7311828805343806e-05 0.034931282080600888 0 -3.8757059483283325e-05 0.034956696850201564 0 -2.4132989254771604e-05 0.035004804177537853 0 -3.8757059483283325e-05 0.034956696850201564 0 -2.3733186888443443e-05 0.034985340501316943 0 -2.4132989254771604e-05 0.035004804177537853 0 -0.00042084548918055244 0.034147420801162759 0 -0.00043431605928771365 0.034151115273352212 0 -0.00041344563269497841 0.034149311250716116 0 -0.00041436687792550773 0.03414701592881448 0 -0.00042084548918055244 0.034147420801162759 0 -0.00041344563269497841 0.034149311250716116 0 -0.00012514560114900726 0.034800273442150829 0 -0.00011299080557080818 0.034704100086099011 0 -2.3733186888443443e-05 0.034985340501316943 0 -2.1702981188110175e-05 0.034987948938493017 0 -7.2677284640941865e-06 0.034987752933807542 0 -7.2677284640941865e-06 0.034987752933807542 0 -1.0665022452219205e-05 0.03497383913908745 0 5.6698780044021695e-06 0.034967624927786822 0 -7.2677284640941865e-06 0.034987752933807542 0 3.1424218174268242e-06 0.034991265167942716 0 5.6698780044021695e-06 0.034967624927786822 0 -2.3733186888443443e-05 0.034985340501316943 0 -7.2677284640941865e-06 0.034987752933807542 0 -1.0665022452219205e-05 0.03497383913908745 0 -3.8757059483283325e-05 0.034956696850201564 0 -2.3733186888443443e-05 0.034985340501316943 0 -1.0665022452219205e-05 0.03497383913908745 0 -3.8757059483283325e-05 0.034956696850201564 0 -1.0665022452219205e-05 0.03497383913908745 0 -1.7214479193687285e-05 0.034944616296321993 0 3.1424218174268242e-06 0.034991265167942716 0 2.731315703454e-08 0.034999961264617539 0 -8.1039838901252857e-09 0.03499992713489733 0 3.1424218174268242e-06 0.034991265167942716 0 2.731315703454e-08 0.034999961264617539 0 5.6698780044021695e-06 0.034967624927786822 0 2.731315703454e-08 0.034999961264617539 0 5.6698780044021695e-06 0.034967624927786822 0 9.3987224597346577e-06 0.034943364907388384 0 5.6698780044021695e-06 0.034967624927786822 0 -6.2580714850388137e-07 0.034877590477933068 0 9.3987224597346577e-06 0.034943364907388384 0 -1.7214479193687285e-05 0.034944616296321993 0 5.6698780044021695e-06 0.034967624927786822 0 -6.2580714850388137e-07 0.034877590477933068 0 -1.0665022452219205e-05 0.03497383913908745 0 -1.7214479193687285e-05 0.034944616296321993 0 5.6698780044021695e-06 0.034967624927786822 0 0.00045170391999756128 0.034308330404594391 0 -0.00010849437329975842 0.034790531429375444 0 -6.2580714850388137e-07 0.034877590477933068 0 1.6633017307300387e-05 0.034914716071054397 0 -5.8227324664461666e-05 0.034680960399668934 0 -6.2580714850388137e-07 0.034877590477933068 0 9.3987224597346577e-06 0.034943364907388384 0 1.6633017307300387e-05 0.034914716071054397 0 9.3987224597346577e-06 0.034943364907388384 0 1.3350644445816713e-08 0.034999797934025328 0 1.6633017307300387e-05 0.034914716071054397 0 2.731315703454e-08 0.034999961264617539 0 9.3987224597346577e-06 0.034943364907388384 0 1.3350644445816713e-08 0.034999797934025328 0 -2.3447082344896598e-07 0.034999930119056347 0 0.00045170391999756128 0.034308330404594391 0 4.099185661041687e-09 0.034999975808853584 0 1.8749073101097444e-06 0.034999838534055687 0 2.5053455540076695e-05 0.034990207123252723 0 1.0999193218171618e-05 0.035001964025538825 0 1.8749073101097444e-06 0.034999838534055687 0 2.5053455540076695e-05 0.034990207123252723 0 0.00037583375612594983 0.034144198680973362 0 0.00045170391999756128 0.034308330404594391 0 5.139486257947113e-09 0.035000009598408009 0 2.7184260782598604e-06 0.034997652017784847 0 1.8749073101097444e-06 0.034999838534055687 0 5.139486257947113e-09 0.035000009598408009 0 4.099185661041687e-09 0.034999975808853584 0 1.8749073101097444e-06 0.034999838534055687 0 0.00037583375612594983 0.034144198680973362 0 0.0003299789393351017 0.034581176476170594 0 -2.3326389890609874e-07 0.03499954611130026 0 0.00037583375612594983 0.034144198680973362 0 0.00045170391999756128 0.034308330404594391 0 -9.4792779000217668e-05 0.033133527179716779 0 0.00068931926353370959 0.03179444426422786 0 0.0014797359064344065 0.032517532703544502 0 0.00099547155169204139 0.032791006027245939 0 5.7879209390570137e-06 0.034075765129738575 0 -0.00018463772447138244 0.034312294207692898 0 -5.8227324664461666e-05 0.034680960399668934 0 0.0006799287518487985 0.034252803919507385 0 5.7879209390570137e-06 0.034075765129738575 0 -5.8227324664461666e-05 0.034680960399668934 0 -0.00046843104248536798 0.03399654692929286 0 5.7879209390570137e-06 0.034075765129738575 0 -0.00018463772447138244 0.034312294207692898 0 -0.00046843104248536798 0.03399654692929286 0 -0.00018463772447138244 0.034312294207692898 0 -0.00042477861008847226 0.03423112272366604 0 -0.00018463772447138244 0.034312294207692898 0 -0.00042477861008847226 0.03423112272366604 0 -5.8227324664461666e-05 0.034680960399668934 0 -0.00015939661551494407 0.034899057427571357 0 -0.00042477861008847226 0.03423112272366604 0 -5.8227324664461666e-05 0.034680960399668934 0 -0.00031595896087008768 0.03448244423929251 0 -0.0004081770311066237 0.034276788962952359 0 -0.00041963563303569235 0.034162327473625465 0 -0.00043431605928771365 0.034151115273352212 0 -0.00042477861008847226 0.03423112272366604 0 -0.00015939661551494407 0.034899057427571357 0 -6.1906296867721581e-05 0.034855587663643051 0 -5.8227324664461666e-05 0.034680960399668934 0 -6.1906296867721581e-05 0.034855587663643051 0 -6.2580714850388137e-07 0.034877590477933068 0 -5.8227324664461666e-05 0.034680960399668934 0 0.0013651992180745949 0.016951837259977245 0 0.00098902699359962104 0.015834718006512854 0 0.00057258350020116986 0.019039696929653609 0 0.00075828803819669144 0.020148490713083164 0 0.00028986315995018798 0.018987234113142539 0 0.00057258350020116986 0.019039696929653609 0 0.00078863709735294972 0.02008267864177532 0 0.00075828803819669144 0.020148490713083164 0 0.00057258350020116986 0.019039696929653609 0 0.00069626225039713186 0.019597437816499339 0 0.00078863709735294972 0.02008267864177532 0 0.00057258350020116986 0.019