<?xml version="1.0"?>
<VTKFile type="UnstructuredGrid" version="0.1" byte_order="LittleEndian">
<UnstructuredGrid>
<Piece NumberOfPoints="31654" NumberOfCells="11089">
<Points>
<DataArray type="Float64" NumberOfComponents="3" format="ascii">
-0.5 -0.5 0 -0.4732451585137879 -0.47682807702931651 0 -0.49999999999999589 -0.46823444459058577 0 -0.5 -0.5 0 -0.4732451585137879 -0.47682807702931651 0 -0.43874771323925571 -0.500000000000001 0 -0.4732451585137879 -0.47682807702931651 0 -0.44886940929137248 -0.47646658065203418 0 -0.43874771323925571 -0.500000000000001 0 -0.4732451585137879 -0.47682807702931651 0 -0.44886940929137248 -0.47646658065203418 0 -0.46314426659889912 -0.46019175248200039 0 -0.44886940929137248 -0.47646658065203418 0 -0.4289222659274402 -0.48282780253622748 0 -0.43509480535000561 -0.4590958846834251 0 -0.44886940929137248 -0.47646658065203418 0 -0.43874771323925571 -0.500000000000001 0 -0.43459455198384589 -0.49274140882206791 0 -0.44886940929137248 -0.47646658065203418 0 -0.43459455198384589 -0.49274140882206791 0 -0.44126734477257151 -0.43536396683062278 0 -0.43509480535000561 -0.4590958846834251 0 -0.45635136321272551 -0.44412501524972731 0 -0.44126734477257151 -0.43536396683062278 0 -0.43509480535000561 -0.4590958846834251 0 -0.44886940929137248 -0.47646658065203418 0 -0.46314426659889912 -0.46019175248200039 0 -0.43509480535000561 -0.4590958846834251 0 -0.46314426659889912 -0.46019175248200039 0 -0.45635136321272551 -0.44412501524972731 0 -0.43509480535000561 -0.4590958846834251 0 -0.44886940929137248 -0.47646658065203418 0 -0.46314426659889912 -0.46019175248200039 0 -0.46314426659889912 -0.46019175248200039 0 -0.45635136321272551 -0.44412501524972731 0 -0.47741912390642088 -0.44391692431196261 0 -0.45635136321272551 -0.44412501524972731 0 -0.47741912390642088 -0.44391692431196261 0 -0.46242950405078193 -0.42777448664489159 0 -0.46314426659889912 -0.46019175248200039 0 -0.47741912390642088 -0.44391692431196261 0 -0.47741912390642088 -0.44391692431196261 0 -0.48870956195320708 -0.45607568445127539 0 -0.47741912390642088 -0.44391692431196261 0 -0.48846863947279479 -0.4313193225755223 0 -0.46314426659889912 -0.46019175248200039 0 -0.47741912390642088 -0.44391692431196261 0 -0.48870956195320708 -0.45607568445127539 0 -0.4732451585137879 -0.47682807702931651 0 -0.46314426659889912 -0.46019175248200039 0 -0.48870956195320708 -0.45607568445127539 0 -0.4732451585137879 -0.47682807702931651 0 -0.48870956195320708 -0.45607568445127539 0 -0.49999999999999589 -0.46823444459058577 0 -0.48870956195320708 -0.45607568445127539 0 -0.49999999999999589 -0.46823444459058577 0 -0.5 -0.44320340592566271 0 -0.48870956195320708 -0.45607568445127539 0 -0.49999999999999589 -0.46823444459058577 0 -0.47741912390642088 -0.44391692431196261 0 -0.48937206834784253 -0.44495466013401358 0 -0.49049276831072891 -0.43535915194495772 0 -0.47741912390642088 -0.44391692431196261 0 -0.48870956195320708 -0.45607568445127539 0 -0.48937206834784253 -0.44495466013401358 0 -0.48870956195320708 -0.45607568445127539 0 -0.48937206834784253 -0.44495466013401358 0 -0.5 -0.44320340592566271 0 -0.48937206834784253 -0.44495466013401358 0 -0.5 -0.44320340592566271 0 -0.49049276831072891 -0.43535915194495772 0 -0.49049276831072891 -0.43535915194495772 0 -0.48846863947279479 -0.4313193225755223 0 -0.50000000000000022 -0.41817236726073959 0 -0.5 -0.44320340592566271 0 -0.49049276831072891 -0.43535915194495772 0 -0.50000000000000022 -0.41817236726073959 0 -0.47741912390642088 -0.44391692431196261 0 -0.49049276831072891 -0.43535915194495772 0 -0.48846863947279479 -0.4313193225755223 0 -0.49049276831072891 -0.43535915194495772 0 -0.48846863947279479 -0.4313193225755223 0 -0.48846863947279479 -0.4313193225755223 0 -0.50000000000000022 -0.41817236726073959 0 -0.48846863947279479 -0.4313193225755223 0 -0.50000000000000022 -0.41817236726073959 0 -0.47669969369162829 -0.4078304359379693 0 -0.48846863947279479 -0.4313193225755223 0 -0.47669969369162829 -0.4078304359379693 0 -0.47741912390642088 -0.44391692431196261 0 -0.48846863947279479 -0.4313193225755223 0 -0.46242950405078193 -0.42777448664489159 0 -0.47741912390642088 -0.44391692431196261 0 -0.46242950405078193 -0.42777448664489159 0 -0.48846863947279479 -0.4313193225755223 0 -0.47669969369162829 -0.4078304359379693 0 -0.46242950405078193 -0.42777448664489159 0 -0.47669969369162829 -0.4078304359379693 0 -0.5 -0.38868731074238871 0 -0.48375721562598878 -0.37608957771036389 0 -0.47669969369162829 -0.4078304359379693 0 -0.48375721562598878 -0.37608957771036389 0 -0.46493074791046218 -0.38434154930041609 0 -0.50000000000000022 -0.41817236726073959 0 -0.47669969369162829 -0.4078304359379693 0 -0.5 -0.38868731074238871 0 -0.47669969369162829 -0.4078304359379693 0 -0.46493074791046218 -0.38434154930041609 0 -0.46493074791046218 -0.38434154930041609 0 -0.44555067367400492 -0.38224222509260541 0 -0.45316180212929608 -0.36085266266286281 0 -0.46493074791046218 -0.38434154930041609 0 -0.44915309548591592 -0.40504516684814063 0 -0.44555067367400492 -0.38224222509260541 0 -0.47669969369162829 -0.4078304359379693 0 -0.46493074791046218 -0.38434154930041609 0 -0.46122462095373062 -0.40961346283075728 0 -0.46493074791046218 -0.38434154930041609 0 -0.44915309548591592 -0.40504516684814063 0 -0.46122462095373062 -0.40961346283075728 0 -0.44743988419514152 -0.41163204897782169 0 -0.42940116786533511 -0.39220601571264879 0 -0.44915309548591592 -0.40504516684814063 0 -0.44555067367400492 -0.38224222509260541 0 -0.42940116786533511 -0.39220601571264879 0 -0.44743988419514152 -0.41163204897782169 0 -0.44015200157501472 -0.411277631760887 0 -0.42940116786533511 -0.39220601571264879 0 -0.44915309548591592 -0.40504516684814063 0 -0.44743988419514152 -0.41163204897782169 0 -0.42940116786533511 -0.39220601571264879 0 -0.45635136321272551 -0.44412501524972731 0 -0.46242950405078193 -0.42777448664489159 0 -0.44126734477257151 -0.43536396683062278 0 -0.46242950405078193 -0.42777448664489159 0 -0.44743988419514152 -0.41163204897782169 0 -0.46242950405078193 -0.42777448664489159 0 -0.46122462095373062 -0.40961346283075728 0 -0.44743988419514152 -0.41163204897782169 0 -0.47669969369162829 -0.4078304359379693 0 -0.46242950405078193 -0.42777448664489159 0 -0.46122462095373062 -0.40961346283075728 0 -0.44915309548591592 -0.40504516684814063 0 -0.46122462095373062 -0.40961346283075728 0 -0.44743988419514152 -0.41163204897782169 0 -0.44915309548591592 -0.40504516684814063 0 -0.44743988419514152 -0.41163204897782169 0 -0.44743988419514152 -0.41163204897782169 0 -0.44015200157501472 -0.411277631760887 0 -0.43582053511234642 -0.42354719600006779 0 -0.44743988419514152 -0.41163204897782169 0 -0.44126734477257151 -0.43536396683062278 0 -0.46242950405078193 -0.42777448664489159 0 -0.44743988419514152 -0.41163204897782169 0 -0.44126734477257151 -0.43536396683062278 0 -0.44743988419514152 -0.41163204897782169 0 -0.44126734477257151 -0.43536396683062278 0 -0.43582053511234642 -0.42354719600006779 0 -0.43582053511234642 -0.42354719600006779 0 -0.42342116587033379 -0.41960264903789002 0 -0.42488767794464982 -0.43823262806029611 0 -0.44126734477257151 -0.43536396683062278 0 -0.43582053511234642 -0.42354719600006779 0 -0.42488767794464982 -0.43823262806029611 0 -0.43582053511234642 -0.42354719600006779 0 -0.43075900464505068 -0.41614169475609569 0 -0.42342116587033379 -0.41960264903789002 0 -0.44015200157501472 -0.411277631760887 0 -0.42440039228766119 -0.41109654959367481 0 -0.42086078397803039 -0.40109126819785068 0 -0.44015200157501472 -0.411277631760887 0 -0.43075900464505068 -0.41614169475609569 0 -0.42440039228766119 -0.41109654959367481 0 -0.44015200157501472 -0.411277631760887 0 -0.43582053511234642 -0.42354719600006779 0 -0.43075900464505068 -0.41614169475609569 0 -0.43075900464505068 -0.41614169475609569 0 -0.42440039228766119 -0.41109654959367481 0 -0.42342116587033379 -0.41960264903789002 0 -0.42342116587033379 -0.41960264903789002 0 -0.4104477714426118 -0.4119642915827062 0 -0.41188317545024239 -0.42436285658791062 0 -0.42440039228766119 -0.41109654959367481 0 -0.42342116587033379 -0.41960264903789002 0 -0.4104477714426118 -0.4119642915827062 0 -0.42440039228766119 -0.41109654959367481 0 -0.4104477714426118 -0.4119642915827062 0 -0.42086078397803039 -0.40109126819785068 0 -0.4104477714426118 -0.4119642915827062 0 -0.41188317545024239 -0.42436285658791062 0 -0.39970241496547171 -0.42327770595292158 0 -0.41188317545024239 -0.42436285658791062 0 -0.40831074892188329 -0.43632206089057513 0 -0.39970241496547171 -0.42327770595292158 0 -0.41188317545024239 -0.42436285658791062 0 -0.40831074892188329 -0.43632206089057513 0 -0.42488767794464982 -0.43823262806029611 0 -0.42342116587033379 -0.41960264903789002 0 -0.41188317545024239 -0.42436285658791062 0 -0.42488767794464982 -0.43823262806029611 0 -0.42940116786533511 -0.39220601571264879 0 -0.43110655497901512 -0.36876573093895848 0 -0.4113624515355272 -0.37277998244747762 0 -0.44555067367400492 -0.38224222509260541 0 -0.42940116786533511 -0.39220601571264879 0 -0.43110655497901512 -0.36876573093895848 0 -0.44015200157501472 -0.411277631760887 0 -0.42086078397803039 -0.40109126819785068 0 -0.44015200157501472 -0.411277631760887 0 -0.42940116786533511 -0.39220601571264879 0 -0.42086078397803039 -0.40109126819785068 0 -0.42940116786533511 -0.39220601571264879 0 -0.42086078397803039 -0.40109126819785068 0 -0.41579849243998468 -0.38924554274819789 0 -0.42086078397803039 -0.40109126819785068 0 -0.40156956638104607 -0.39090490463481442 0 -0.4104477714426118 -0.4119642915827062 0 -0.42086078397803039 -0.40109126819785068 0 -0.40156956638104607 -0.39090490463481442 0 -0.42086078397803039 -0.40109126819785068 0 -0.41579849243998468 -0.38924554274819789 0 -0.40156956638104607 -0.39090490463481442 0 -0.42940116786533511 -0.39220601571264879 0 -0.41579849243998468 -0.38924554274819789 0 -0.4113624515355272 -0.37277998244747762 0 -0.41579849243998468 -0.38924554274819789 0 -0.40156956638104607 -0.390904904634
[...]
<PointData Scalars="" Vectors="displacement," Tensors="">
<DataArray type="Float64" Name="displacement" NumberOfComponents="3" format="ascii">
0.03499813060652162 1.0922289248954682e-06 0 0.033931222488459548 0.0001974701174918918 0 0.034998127390593714 -2.3400043479797557e-07 0 0.03499813060652162 1.0922289248954682e-06 0 0.033931222488459548 0.0001974701174918918 0 0.030717890316023434 -1.9578536879909491e-06 0 0.033931222488459548 0.0001974701174918918 0 0.033161184779011144 -0.00026511402197552692 0 0.030717890316023434 -1.9578536879909491e-06 0 0.033931222488459548 0.0001974701174918918 0 0.033161184779011144 -0.00026511402197552692 0 0.034163288800069108 -4.9347360428661738e-06 0 0.030378919130395463 -0.00010842393699102397 0 0.030299791128408179 -0.00032281362992753486 0 0.030554886200017999 -0.00025683010076365512 0 0.033161184779011144 -0.00026511402197552692 0 0.030717890316023434 -1.9578536879909491e-06 0 0.031415455000632857 -0.00056520258665766093 0 0.031806758843468147 -0.00014313757787824821 0 0.030677436109060693 -0.0002072064497421874 0 0.028403215979518056 -0.00027917574059713667 0 0.02881677824527076 -0.00027442137647532114 0 0.030727683554949852 -3.1024621302087726e-05 0 0.030806401944125792 -0.00018912225598995822 0 0.030554886200017999 -0.00025683010076365512 0 0.030378919130395463 -0.00010842393699102397 0 0.030563897805596433 4.3019223832511807e-05 0 0.030554886200017999 -0.00025683010076365512 0 0.030563897805596433 4.3019223832511807e-05 0 0.030727683554949852 -3.1024621302087726e-05 0 0.030554886200017999 -0.00025683010076365512 0 0.031806758843468147 -0.00014313757787824821 0 0.032261833875557581 -1.7258321137053534e-05 0 0.030563897805596433 4.3019223832511807e-05 0 0.030727683554949852 -3.1024621302087726e-05 0 0.030748352977023465 0.00018874435120238948 0 0.030727683554949852 -3.1024621302087726e-05 0 0.030748352977023465 0.00018874435120238948 0 0.030899161664449389 3.0295940972047545e-05 0 0.032261833875557581 -1.7258321137053534e-05 0 0.033171684584144177 0.00026789637164244246 0 0.033171684584144177 0.00026789637164244246 0 0.034875507136968999 -4.9004035667649675e-05 0 0.033171684584144177 0.00026789637164244246 0 0.034558023123006106 0.00021632535522026362 0 0.034163288800069108 -4.9347360428661738e-06 0 0.034449357450683817 9.5455546144931905e-05 0 0.034444501617288174 0.00017838930580266776 0 0.033931222488459548 0.0001974701174918918 0 0.034163288800069108 -4.9347360428661738e-06 0 0.034444501617288174 0.00017838930580266776 0 0.033931222488459548 0.0001974701174918918 0 0.034444501617288174 0.00017838930580266776 0 0.034998127390593714 -2.3400043479797557e-07 0 0.034997545267780303 1.2174411925972778e-06 0 0.035000004784075098 4.9024367784198009e-10 0 0.034999983205625071 9.1825584169627464e-10 0 0.034875507136968999 -4.9004035667649675e-05 0 0.034999721860419858 1.5558932525139289e-07 0 0.034987958088856311 5.1731126248570099e-06 0 0.034995164889763494 1.6432142393530144e-06 0 0.034995203856545649 1.2989894093923245e-06 0 0.034987958088856311 5.1731126248570099e-06 0 0.034997545267780303 1.2174411925972778e-06 0 0.034995164889763494 1.6432142393530144e-06 0 0.034997545267780303 1.2174411925972778e-06 0 0.034995164889763494 1.6432142393530144e-06 0 0.034999983205625071 9.1825584169627464e-10 0 0.034995164889763494 1.6432142393530144e-06 0 0.034999983205625071 9.1825584169627464e-10 0 0.034995203856545649 1.2989894093923245e-06 0 0.034995203856545649 1.2989894093923245e-06 0 0.034995594919946943 8.6862837517096095e-07 0 0.034999999019302896 1.468630106850149e-09 0 0.034999983205625071 9.1825584169627464e-10 0 0.034995203856545649 1.2989894093923245e-06 0 0.034999999019302896 1.468630106850149e-09 0 0.034987958088856311 5.1731126248570099e-06 0 0.034995203856545649 1.2989894093923245e-06 0 0.034992805914829318 2.128404702485547e-06 0 0.0347884581582441 0.00010157174301816457 0 0.034558023123006106 0.00021632535522026362 0 0.034558023123006106 0.00021632535522026362 0 0.035000127468265391 1.0838690282110746e-07 0 0.035000383774452054 6.7994531484506653e-06 0 0.035000008519006719 1.9398419047438157e-08 0 0.034994763434270271 1.327661215316642e-05 0 0.034558023123006106 0.00021632535522026362 0 0.034429646313227404 0.00029745174131771355 0 0.033391603516164131 0.00052636203604550973 0 0.03359890659942566 0.00070484442035645412 0 0.033647167345504894 0.0002878362215828368 0 0.033171684584144177 0.00026789637164244246 0 0.032330152758011058 0.00014535963298854373 0 0.03359890659942566 0.00070484442035645412 0 0.033980479820104541 0.00052020008952795673 0 0.033647167345504894 0.0002878362215828368 0 0.034994763434270271 1.327661215316642e-05 0 0.034999970198991044 -7.764664897624752e-09 0 0.034966503971571715 5.1271372571416836e-06 0 0.034994763434270271 1.327661215316642e-05 0 0.034966503971571715 5.1271372571416836e-06 0 0.034955016182499618 3.4356176988557065e-05 0 0.035000008519006719 1.9398419047438157e-08 0 0.034994763434270271 1.327661215316642e-05 0 0.034999970198991044 -7.764664897624752e-09 0 0.034429646313227404 0.00029745174131771355 0 0.034675874989961351 0.00016462917287094722 0 0.034374895587747083 0.00032191294966182063 0 0.034410403830704324 6.9897486716986466e-06 0 0.034774964331846042 5.3896584851158361e-05 0 0.034374895587747083 0.00032191294966182063 0 0.034026630975733364 7.3884655631990267e-05 0 0.034410403830704324 6.9897486716986466e-06 0 0.033980479820104541 0.00052020008952795673 0 0.034374895587747083 0.00032191294966182063 0 0.033948865297734172 0.00026869018908135987 0 0.034374895587747083 0.00032191294966182063 0 0.034026630975733364 7.3884655631990267e-05 0 0.033948865297734172 0.00026869018908135987 0 0.030921597695312261 -5.4958177106598895e-05 0 0.030697782285625912 -0.00025949651177313229 0 0.034026630975733364 7.3884655631990267e-05 0 0.034410403830704324 6.9897486716986466e-06 0 0.034263550760199345 -0.00019400343428660735 0 0.026947566816877384 -9.8586360201505471e-05 0 0.026962002751534098 -0.00023200802427386543 0 0.027487511577723639 -0.00046996602814367472 0 0.034026630975733364 7.3884655631990267e-05 0 0.033909854859899988 4.3309651398918585e-05 0 0.034263550760199345 -0.00019400343428660735 0 0.030727683554949852 -3.1024621302087726e-05 0 0.030899161664449389 3.0295940972047545e-05 0 0.030806401944125792 -0.00018912225598995822 0 0.032330152758011058 0.00014535963298854373 0 0.030921597695312261 -5.4958177106598895e-05 0 0.033647167345504894 0.0002878362215828368 0 0.033948865297734172 0.00026869018908135987 0 0.033907359978355506 4.4895891896415463e-05 0 0.033980479820104541 0.00052020008952795673 0 0.033647167345504894 0.0002878362215828368 0 0.033948865297734172 0.00026869018908135987 0 0.034026630975733364 7.3884655631990267e-05 0 0.033948865297734172 0.00026869018908135987 0 0.033907359978355506 4.4895891896415463e-05 0 0.03338466856577111 0.00034555150710173553 0 0.030921597695312261 -5.4958177106598895e-05 0 0.026947566816877384 -9.8586360201505471e-05 0 0.026962002751534098 -0.00023200802427386543 0 0.026835724888660577 -0.00025569631182385995 0 0.030921597695312261 -5.4958177106598895e-05 0 0.028403215979518056 -0.00027917574059713667 0 0.030899161664449389 3.0295940972047545e-05 0 0.03105443349957927 -0.00012306842098165768 0 0.030806401944125792 -0.00018912225598995822 0 0.026947566816877384 -9.8586360201505471e-05 0 0.026772939173981995 -0.00026103271774756236 0 0.026835724888660577 -0.00025569631182385995 0 0.026835724888660577 -0.00025569631182385995 0 0.026846439260535513 -0.00029335692772559902 0 0.026762838646635805 -0.00024857594356653373 0 0.026772939173981995 -0.00026103271774756236 0 0.026835724888660577 -0.00025569631182385995 0 0.026762838646635805 -0.00024857594356653373 0 0.026835724888660577 -0.00025569631182385995 0 0.026882781530542698 -0.00027436331542822229 0 0.026846439260535513 -0.00029335692772559902 0 0.026962002751534098 -0.00023200802427386543 0 0.026885849941703909 -0.00029775877934958825 0 0.026896876808293658 -0.00031358744031892937 0 0.026962002751534098 -0.00023200802427386543 0 0.026882781530542698 -0.00027436331542822229 0 0.026885849941703909 -0.00029775877934958825 0 0.026962002751534098 -0.00023200802427386543 0 0.026835724888660577 -0.00025569631182385995 0 0.026882781530542698 -0.00027436331542822229 0 0.026882781530542698 -0.00027436331542822229 0 0.026885849941703909 -0.00029775877934958825 0 0.026846439260535513 -0.00029335692772559902 0 0.026846439260535513 -0.00029335692772559902 0 0.026853717721927281 -0.00034449006744382643 0 0.026808794581826612 -0.00033147641555112594 0 0.026885849941703909 -0.00029775877934958825 0 0.026846439260535513 -0.00029335692772559902 0 0.026853717721927281 -0.00034449006744382643 0 0.026885849941703909 -0.00029775877934958825 0 0.026853717721927281 -0.00034449006744382643 0 0.026896876808293658 -0.00031358744031892937 0 0.026853717721927281 -0.00034449006744382643 0 0.026808794581826612 -0.00033147641555112594 0 0.026794725431534144 -0.00038281686463661362 0 0.026808794581826612 -0.00033147641555112594 0 0.026746101394917225 -0.00033913578554066752 0 0.026794725431534144 -0.00038281686463661362 0 0.026808794581826612 -0.00033147641555112594 0 0.026746101394917225 -0.00033913578554066752 0 0.026762838646635805 -0.00024857594356653373 0 0.026846439260535513 -0.00029335692772559902 0 0.026808794581826612 -0.00033147641555112594 0 0.026762838646635805 -0.00024857594356653373 0 0.034263550760199345 -0.00019400343428660735 0 0.034574104700937879 -0.0001502038351458777 0 0.034531852541708583 -0.00030971355508492852 0 0.034410403830704324 6.9897486716986466e-06 0 0.034263550760199345 -0.00019400343428660735 0 0.034574104700937879 -0.0001502038351458777 0 0.026978758966936866 -0.00027055808773622324 0 0.027032025476961184 -0.00042799929849167965 0 0.026962002751534098 -0.00023200802427386543 0 0.027487511577723639 -0.00046996602814367472 0 0.027264013591845299 -0.00068176339691902483 0 0.027487511577723639 -0.00046996602814367472 0 0.027264013591845299 -0.00068176339691902483 0 0.027556070438094001 -0.00079584142052442858 0 0.027032025476961184 -0.00042799929849167965 0 0.027520702994726056 -0.00098480803921256179 0 0.026853717721927281 -0.00034449006744382643 0 0.026896876808293658 -0.00031358744031892937 0 0.02689943580477832 -0.00038594851381107306 0 0.027264013591845299 -0.00068176339691902483 0 0.027556070438094001 -0.00079584142052442858 0 0.027517067185267748 -0.0011261191821389689 0 0.027487511577723639 -0.00046996602814367472 0 0.027556070438094001 -0.00079584142052442858 0 0.027953647370208532 -0.00090046703777066318 0 0.027556070438094001 -0.00079584142052442858 0 0.027517067185267748 -0.0011261191821389689 0 0.027953647370208532 -0.00090046703777066318 0 0.030697782285625912 -0.00025949651177313229 0 0.03173080738248351 -0.00073649149892002393 0 0.027517067185267748 -0.0011261191821389689 0 0.027739611840187504 -0.0015608943911797478 0 0.027900297864234036 -0.0012237002197482067 0 0.027517067185267748 -0.0011261191821389689 0 0.027953647370208532 -0.00090046703777066318 0 0.027900297864234036 -0.0012237002197482067 0 0.027520702994726056 -0.00098480803921256179 0 0.024386416931530451 -0.00061662335144626397 0 0.026847181544213478 -0.0004194474631685643 0 0.02689943580477832 -0.00038594851381107306 0 0.026906155863564034 -0.000451014487693297 0 0.026853717721927281 -0.00034449006744382643 0 0.026847181544213478 -0.0004194474631685643 0 0.02689943580477832 -0.00038594851381107306 0 0.026847181544213478 -0.0004194474631685643 0 0.026906155863564034 -0.000451014487693297 0 0.026831428983471493 -0.00049090848191854768 0 0.024386416931530451 -0.00061662335144626397 0 0.02452667220859198 -0.00018960822999787414 0 0.026794725431534144 -0.00038281686463661362 0 0.02676540710867199 -0.00045094251671073227 0 0.026715238340578439 -0.00040723975063039817 0 0.026746101394917225 -0.00033913578554066752 0 0.026794725431534144 -0.00038281686463661362 0 0.026715238340578439 -0.00040723975063039817 0 0.026847181544213478 -0.0004194474631685643 0 0.026794725431534144 -0.00038281686463661362 0 0.02676540710867199 -0.00045094251671073227 0 0.026853717721927281 -0.00034449006744382643 0 0.026847181544213478 -0.0004194474631685643 0 0.026794725431534144 -0.00038281686463661362 0 0.026847181544213478 -0.0004194474631685643 0 0.02676540710867199 -0.00045094251671073227 0 0.026831428983471493 -0.00049090848191854768 0 0.02676540710867199 -0.00045094251671073227 0 0.026681915467256193 -0.00046580772534846943 0 0.026715238340578439 -0.00040723975063039817 0 0.02676540710867199 -0.00045094251671073227 0 0.026681915467256193 -0.00046580772534846943 0 0.026721596977816078 -0.00054448645287390423 0 0.026681915467256193 -0.00046580772534846943 0 0.026627564181559232 -0.00048127294893191182 0 0.026641261496943243 -0.00043380956468798063 0 0.026681915467256193 -0.00046580772534846943 0 0.026641261496943243 -0.00043380956468798063 0 0.026715238340578439 -0.00040723975063039817 0 0.026641261496943243 -0.00043380956468798063 0 0.026715238340578439 -0.00040723975063039817 0 0.026648284354635805 -0.00036144549916911447 0 0.026746101394917225 -0.00033913578554066752 0 0.026715238340578439 -0.00040723975063039817 0 0.026648284354635805 -0.00036144549916911447 0 0.02686958506118629 9.3675166071789513e-05 0 0.026975396776413262 0.00018636005050075389 0 0.026992340593662432 0.00030551711084738395 0 0.02680428926645189 -0.00015495802346159561 0 0.026448283477461872 9.3926809004191581e-05 0 0.027000433242482972 9.0260696215630591e-05 0 0.026975396776413262 0.00018636005050075389 0 0.027288046083185535 0.00013125804921275722 0 0.02686958506118629 9.3675166071789513e-05 0 0.027000433242482972 9.0260696215630591e-05 0 0.026975396776413262 0.00018636005050075389 0 0.026975396776413262 0.00018636005050075389 0 0.027066428808236998 0.00021066251231646323 0 0.027288046083185535 0.00013125804921275722 0 0.026975396776413262 0.00018636005050075389 0 0.027001756834001762 0.0002313778397330252 0 0.027066428808236998 0.00021066251231646323 0 0.026975396776413262 0.00018636005050075389 0 0.027001756834001762 0.0002313778397330252 0 0.026992340593662432 0.00030551711084738395 0 0.027001756834001762 0.0002313778397330252 0 0.026984870984430535 0.0002671246932405305 0 0.026992340593662432 0.00030551711084738395 0 0.026641261496943243 -0.00043380956468798063 0 0.026648284354635805 -0.00036144549916911447 0 0.026567732380934725 -0.0004581968509545602 0 0.026627564181559232 -0.00048127294893191182 0 0.026641261496943243 -0.00043380956468798063 0 0.026567732380934725 -0.0004581968509545602 0 0.026518064941003457 0.00010902542563417409 0 0.026448283477461872 9.3926809004191581e-05 0 0.026984870984430535 0.0002671246932405305 0 0.026998579109979597 0.00017343118932446953 0 0.026659687619413102 0.00019570520113667707 0 0.026659687619413102 0.00019570520113667707 0 0.026936179863163316 0.000252062377811024 0 0.027098409575672822 0.00021366532658127072 0 0.026659687619413102 0.00019570520113667707 0 0.026492927003853941 0.00015867003624879598 0 0.027098409575672822 0.00021366532658127072 0 0.026984870984430535 0.0002671246932405305 0 0.026659687619413102 0.00019570520113667707 0 0.026936179863163316 0.000252062377811024 0 0.027001756834001762 0.0002313778397330252 0 0.026984870984430535 0.0002671246932405305 0 0.026936179863163316 0.000252062377811024 0 0.027001756834001762 0.0002313778397330252 0 0.026936179863163316 0.000252062377811024 0 0.027066428808236998 0.00021066251231646323 0 0.026492927003853941 0.00015867003624879598 0 0.027699909783485042 1.0942227047004713e-06 0 0.025687556022433795 4.886650428625866e-07 0 0.026492927003853941 0.00015867003624879598 0 0.027699909783485042 1.0942227047004713e-06 0 0.027098409575672822 0.00021366532658127072 0 0.027699909783485042 1.0942227047004713e-06 0 0.027098409575672822 0.00021366532658127072 0 0.028015262928161314 9.4889459896980218e-05 0 0.027098409575672822 0.00021366532658127072 0 0.027288046083185535 0.00013125804921275722 0 0.028015262928161314 9.4889459896980218e-05 0 0.027066428808236998 0.00021066251231646323 0 0.027098409575672822 0.00021366532658127072 0 0.027288046083185535 0.00013125804921275722 0 0.026936179863163316 0.000252062377811024 0 0.027066428808236998 0.00021066251231646323 0 0.027098409575672822 0.00021366532658127072 0 0.028821819896259246 -0.00019421449768642875 0 0.026461366767389659 -0.00012248786951062659 0 0.027288046083185535 0.00013125804921275722 0 0.027939576780985645 -0.00068395829087989225 0 0.026909038693935516 -0.00010451048780804446 0 0.027288046083185535 0.00013125804921275722 0 0.028015262928161314 9.4889459896980218e-05 0 0.027939576780985645 -0.00068395829087989225 0 0.028015262928161314 9.4889459896980218e-05 0 0.029708695867485181 -2.0064266658862417e-06 0 0.027939576780985645 -0.00068395829087989225 0 0.027699909783485042 1.0942227047004713e-06 0 0.028015262928161314 9.4889459896980218e-05 0 0.029708695867485181 -2.0064266658862417e-06 0 0.029712086273688265 -8.6880846557842207e-08 0 0.028821819896259246 -0.00019421449768642875 0 0.029713931795040713 2.8497770063798079e-08 0 0.030014254680861503 3.3684911222324732e-05 0 0.030496961970014565 -1.4598715727252657e-05 0 0.030188633687497416 0.00017848994663625484 0 0.030014254680861503 3.3684911222324732e-05 0 0.030496961970014565 -1.4598715727252657e-05 0 0.030677436109060693 -0.0002072064497421874 0 0.028821819896259246 -0.00019421449768642875 0 0.030710309986478793 -3.1901392319294855e-08 0 0.030195368416891303 -5.0659559683812476e-07 0 0.030014254680861503 3.3684911222324732e-05 0 0.030710309986478793 -3.1901392319294855e-08 0 0.029713931795040713 2.8497770063798079e-08 0 0.030014254680861503 3.3684911222324732e-05 0 0.030677436109060693 -0.0002072064497421874 0 0.030345152858160019 -0.00018015066576716586 0 0.030712308588353096 -2.5391471056354633e-07 0 0.030677436109060693 -0.0002072064497421874 0 0.028821819896259246 -0.00019421449768642875 0 0.02881677824527076 -0.00027442137647532114 0 0.030378919130395463 -0.00010842393699102397 0 0.030197321861078482 -0.00026189987918163283 0 0.030299791128408179 -0.00032281362992753486 0 0.026940177642140191 -0.00031158439122223826 0 0.026859175815353773 -0.00022743193823160902 0 0.026909038693935516 -0.00010451048780804446 0 0.02722974474085894 -0.00024957035557259715 0 0.026940177642140191 -0.00031158439122223826 0 0.026909038693935516 -0.00010451048780804446 0 0.026772939173981995 -0.00026103271774756236 0 0.026940177642140191 -0.00031158439122223826 0 0.026859175815353773 -0.00022743193823160902 0 0.026772939173981995 -0.00026103271774756236 0 0.026859175815353773 -0.00022743193823160902 0 0.026762838646635805 -0.00024857594356653373 0 0.026859175815353773 -0.00022743193823160902 0 0.026762838646635805 -0.00024857594356653373 0 0.026909038693935516 -0.00010451048780804446 0 0.02686958506118629 9.3675166071789513e-05 0 0.026762838646635805 -0.00024857594356653373 0 0.026909038693935516 -0.00010451048780804446 0 0.02680428926645189 -0.00015495802346159561 0 0.026746635142832022 -0.00023115496698896852 0 0.026746101394917225 -0.00033913578554066752 0 0.026648284354635805 -0.00036144549916911447 0 0.026762838646635805 -0.00024857594356653373 0 0.02686958506118629 9.3675166071789513e-05 0 0.027000433242482972 9.0260696215630591e-05 0 0.026909038693935516 -0.00010451048780804446 0 0.027000433242482972 9.0260696215630591e-05 0 0.027288046083185535 0.00013125804921275722 0 0.026909038693935516 -0.00010451048780804446 0 0.033372047609910034 -0.0003775832032763805 0 0.033481482650846987 -0.0002473922547372385 0 0.034980602274250358 -2.2533554087329905e-05 0 0.034968108442834489 -6.2752415853445644e-05 0 0.034978779203388509 -3.4148857251258273e-05 0 0.034980602274250358 -2.2533554087329905e-05 0 0.034964704701093051 -2.3871390814273293e-05 0 0.034968108442834489 -6.2752415853445644e-05 0 0.034980602274250358 -2.2533554087329905e-05 0 0.034973971478801671 -1.0465926013433789e-05 0 0.034964704701093051 -2.3871390814273293e-05 0 0.0349806022742