<?xml version="1.0"?>
<VTKFile type="UnstructuredGrid" version="0.1" byte_order="LittleEndian">
<UnstructuredGrid>
<Piece NumberOfPoints="30471" NumberOfCells="10680">
<Points>
<DataArray type="Float64" NumberOfComponents="3" format="ascii">
-0.5 -0.5 0 -0.47710714575615482 -0.47475601578167598 0 -0.4656607186342383 -0.49999999999999423 0 -0.5 -0.5 0 -0.48855357287807349 -0.44951203156335889 0 -0.49999999999999573 -0.42426804734504331 0 -0.5 -0.5 0 -0.47710714575615482 -0.47475601578167598 0 -0.48855357287807349 -0.44951203156335889 0 -0.47710714575615482 -0.47475601578167598 0 -0.4656607186342383 -0.49999999999999423 0 -0.47710714575615482 -0.47475601578167598 0 -0.4656607186342383 -0.49999999999999423 0 -0.45543861599526031 -0.48014789325282609 0 -0.4656607186342383 -0.49999999999999423 0 -0.45543861599526031 -0.48014789325282609 0 -0.44521651335629642 -0.5 0 -0.47710714575615482 -0.47475601578167598 0 -0.45543861599526031 -0.48014789325282609 0 -0.46248979692666892 -0.45945841935021892 0 -0.45543861599526031 -0.48014789325282609 0 -0.44168139525757649 -0.4581864096763385 0 -0.43499441071732531 -0.48217871034048793 0 -0.45543861599526031 -0.48014789325282609 0 -0.44521651335629642 -0.5 0 -0.43499441071732531 -0.48217871034048793 0 -0.44168139525757649 -0.4581864096763385 0 -0.4599305010059393 -0.4362861175827687 0 -0.42782158748267662 -0.43388404806295178 0 -0.45543861599526031 -0.48014789325282609 0 -0.44168139525757649 -0.4581864096763385 0 -0.46248979692666892 -0.45945841935021892 0 -0.44168139525757649 -0.4581864096763385 0 -0.46248979692666892 -0.45945841935021892 0 -0.4599305010059393 -0.4362861175827687 0 -0.46248979692666892 -0.45945841935021892 0 -0.48855357287807349 -0.44951203156335889 0 -0.4599305010059393 -0.4362861175827687 0 -0.48855357287807349 -0.44951203156335889 0 -0.48045580153478279 -0.42968989070580832 0 -0.4599305010059393 -0.4362861175827687 0 -0.47710714575615482 -0.47475601578167598 0 -0.48855357287807349 -0.44951203156335889 0 -0.47710714575615482 -0.47475601578167598 0 -0.46248979692666892 -0.45945841935021892 0 -0.48855357287807349 -0.44951203156335889 0 -0.48855357287807349 -0.44951203156335889 0 -0.49999999999999573 -0.42426804734504331 0 -0.48045580153478279 -0.42968989070580832 0 -0.48855357287807349 -0.44951203156335889 0 -0.49999999999999573 -0.42426804734504331 0 -0.49999999999999573 -0.42426804734504331 0 -0.47475379064739398 -0.40958027036506373 0 -0.5 -0.39960341120183068 0 -0.49999999999999573 -0.42426804734504331 0 -0.47475379064739398 -0.40958027036506373 0 -0.48045580153478279 -0.42968989070580832 0 -0.47475379064739398 -0.40958027036506373 0 -0.48045580153478279 -0.42968989070580832 0 -0.4599305010059393 -0.4362861175827687 0 -0.5 -0.39960341120183068 0 -0.4795643867672098 -0.38615165328536388 0 -0.5 -0.37493877505861811 0 -0.4795643867672098 -0.38615165328536388 0 -0.5 -0.37493877505861811 0 -0.47970342761934798 -0.36536877556865471 0 -0.47475379064739398 -0.40958027036506373 0 -0.5 -0.39960341120183068 0 -0.4795643867672098 -0.38615165328536388 0 -0.47475379064739398 -0.40958027036506373 0 -0.4795643867672098 -0.38615165328536388 0 -0.45944996743114591 -0.3940481773290499 0 -0.4795643867672098 -0.38615165328536388 0 -0.46367845029430083 -0.3758899745799143 0 -0.47970342761934798 -0.36536877556865471 0 -0.4795643867672098 -0.38615165328536388 0 -0.46367845029430083 -0.3758899745799143 0 -0.45944996743114591 -0.3940481773290499 0 -0.46367845029430083 -0.3758899745799143 0 -0.45944996743114591 -0.3940481773290499 0 -0.4487854225861832 -0.3816123824839634 0 -0.46367845029430083 -0.3758899745799143 0 -0.4487854225861832 -0.3816123824839634 0 -0.44952958524077169 -0.36846310266208943 0 -0.47475379064739398 -0.40958027036506373 0 -0.45944996743114591 -0.3940481773290499 0 -0.44618877247884298 -0.41322132991262223 0 -0.45944996743114591 -0.3940481773290499 0 -0.4382348202842492 -0.3949357122295431 0 -0.44618877247884298 -0.41322132991262223 0 -0.45944996743114591 -0.3940481773290499 0 -0.4382348202842492 -0.3949357122295431 0 -0.4487854225861832 -0.3816123824839634 0 -0.4382348202842492 -0.3949357122295431 0 -0.4487854225861832 -0.3816123824839634 0 -0.4364350051439454 -0.37659223277027032 0 -0.4487854225861832 -0.3816123824839634 0 -0.4364350051439454 -0.37659223277027032 0 -0.44952958524077169 -0.36846310266208943 0 -0.4599305010059393 -0.4362861175827687 0 -0.44618877247884298 -0.41322132991262223 0 -0.42782158748267662 -0.43388404806295178 0 -0.47475379064739398 -0.40958027036506373 0 -0.4599305010059393 -0.4362861175827687 0 -0.44618877247884298 -0.41322132991262223 0 -0.44618877247884298 -0.41322132991262223 0 -0.42782158748267662 -0.43388404806295178 0 -0.41748094860389351 -0.41095884084689832 0 -0.4382348202842492 -0.3949357122295431 0 -0.44618877247884298 -0.41322132991262223 0 -0.41748094860389351 -0.41095884084689832 0 -0.42782158748267662 -0.43388404806295178 0 -0.41748094860389351 -0.41095884084689832 0 -0.3966635671319384 -0.44211900874647408 0 -0.42190421088594637 -0.38668092524862407 0 -0.4364350051439454 -0.37659223277027032 0 -0.4233305611288673 -0.36994935440575749 0 -0.4382348202842492 -0.3949357122295431 0 -0.42190421088594637 -0.38668092524862407 0 -0.4364350051439454 -0.37659223277027032 0 -0.4382348202842492 -0.3949357122295431 0 -0.41748094860389351 -0.41095884084689832 0 -0.42190421088594637 -0.38668092524862407 0 -0.41748094860389351 -0.41095884084689832 0 -0.42190421088594637 -0.38668092524862407 0 -0.40668073543537381 -0.39554763944923649 0 -0.42190421088594637 -0.38668092524862407 0 -0.40668073543537381 -0.39554763944923649 0 -0.41003978032478122 -0.37810586789402661 0 -0.42190421088594637 -0.38668092524862407 0 -0.41003978032478122 -0.37810586789402661 0 -0.4233305611288673 -0.36994935440575749 0 -0.41003978032478122 -0.37810586789402661 0 -0.38899903146346471 -0.38423801749294528 0 -0.39880654296711909 -0.36851387409748781 0 -0.40668073543537381 -0.39554763944923649 0 -0.41003978032478122 -0.37810586789402661 0 -0.38899903146346471 -0.38423801749294528 0 -0.38899903146346471 -0.38423801749294528 0 -0.39283129929770161 -0.41317851311970971 0 -0.40668073543537381 -0.39554763944923649 0 -0.38899903146346471 -0.38423801749294528 0 -0.39283129929770161 -0.41317851311970971 0 -0.38899903146346471 -0.38423801749294528 0 -0.39283129929770161 -0.41317851311970971 0 -0.3651581852374195 -0.40480621420331792 0 -0.38899903146346471 -0.38423801749294528 0 -0.3738892760449905 -0.36844461230234338 0 -0.36626203606495528 -0.38179973831237279 0 -0.39283129929770161 -0.41317851311970971 0 -0.3966635671319384 -0.44211900874647408 0 -0.41748094860389351 -0.41095884084689832 0 -0.39283129929770161 -0.41317851311970971 0 -0.3966635671319384 -0.44211900874647408 0 -0.41748094860389351 -0.41095884084689832 0 -0.40668073543537381 -0.39554763944923649 0 -0.39283129929770161 -0.41317851311970971 0 -0.39283129929770161 -0.41317851311970971 0 -0.37447794905648568 -0.43300714366587539 0 -0.3651581852374195 -0.40480621420331792 0 -0.39283129929770161 -0.41317851311970971 0 -0.3966635671319384 -0.44211900874647408 0 -0.37447794905648568 -0.43300714366587539 0 -0.3966635671319384 -0.44211900874647408 0 -0.38037559506231822 -0.45380145660997673 0 -0.37447794905648568 -0.43300714366587539 0 -0.3966635671319384 -0.44211900874647408 0 -0.38037559506231822 -0.45380145660997673 0 -0.40049583496617519 -0.47105950437323851 0 -0.3966635671319384 -0.44211900874647408 0 -0.40049583496617519 -0.47105950437323851 0 -0.3966635671319384 -0.44211900874647408 0 -0.40049583496617519 -0.47105950437323851 0 -0.41868515049096883 -0.45951816642578469 0 -0.38037559506231822 -0.45380145660997673 0 -0.40049583496617519 -0.47105950437323851 0 -0.37109339097970551 -0.47183814066354279 0 -0.38794778498020938 -0.48700460910628701 0 -0.40049583496617519 -0.47105950437323851 0 -0.37109339097970551 -0.47183814066354279 0 -0.38794778498020938 -0.48700460910628701 0 -0.37669569715867768 -0.5 0 -0.40432810280041243 -0.50000000000000289 0 -0.38794778498020938 -0.48700460910628701 0 -0.37669569715867768 -0.5 0 -0.36476681620186879 -0.49124523158891398 0 -0.38794778498020938 -0.48700460910628701 0 -0.40432810280041243 -0.50000000000000289 0 -0.40049583496617519 -0.47105950437323851 0 -0.40432810280041243 -0.50000000000000289 0 -0.40049583496617519 -0.47105950437323851 0 -0.40049583496617519 -0.47105950437323851 0 -0.41605374541885759 -0.48294303175523529 0 -0.41868515049096883 -0.45951816642578469 0 -0.40432810280041243 -0.50000000000000289 0 -0.40049583496617519 -0.47105950437323851 0 -0.41605374541885759 -0.48294303175523529 0 -0.40432810280041243 -0.50000000000000289 0 -0.41605374541885759 -0.48294303175523529 0 -0.42477230807835442 -0.5 0 -0.41605374541885759 -0.48294303175523529 0 -0.42477230807835442 -0.5 0 -0.43499441071732531 -0.48217871034048793 0 -0.44521651335629642 -0.5 0 -0.42477230807835442 -0.5 0 -0.43499441071732531 -0.48217871034048793 0 -0.41605374541885759 -0.48294303175523529 0 -0.43499441071732531 -0.48217871034048793 0 -0.41868515049096883 -0.45951816642578469 0 -0.44168139525757649 -0.4581864096763385 0 -0.43499441071732531 -0.48217871034048793 0 -0.41868515049096883 -0.45951816642578469 0 -0.44168139525757649 -0.4581864096763385 0 -0.42782158748267662 -0.43388404806295178 0 -0.41868515049096883 -0.45951816642578469 0 -0.42782158748267662 -0.43388404806295178 0 -0.3966635671319384 -0.44211900874647408 0 -0.41868515049096883 -0.45951816642578469 0 -0.44144573889681982 -0.25402770002028169 0 -0.45189938063717511 -0.26200832376235977 0 -0.4581530983886718 -0.2480328079409195 0 -0.44144573889681982 -0.25402770002028169 0 -0.45189938063717511 -0.26200832376235977 0 -0.43563502470413101 -0.2672929848723295 0 -0.45189938063717511 -0.26200832376235977 0 -0.45087534402505181 -0.27756585873405432 0 -0.43563502470413101 -0.2672929848723295 0 -0.45087534402505181 -0.27756585873405432 0 -0.43721728060211401 -0.28748531825848 0 -0.43563502470413101 -0.2672929848723295 0 -0.45087534402505181 -0.277565
[...]
<PointData Scalars="" Vectors="displacement," Tensors="">
<DataArray type="Float64" Name="displacement" NumberOfComponents="3" format="ascii">
-0.03499997181682811 -0.034996911766867318 0 -0.033865020031132766 -0.035009891464145029 0 -0.03499804452304113 -0.032602147066305751 0 -0.03499997181682811 -0.034996911766867318 0 -0.031721036730133531 -0.035405307643649291 0 -0.02970075104219156 -0.035000231232943838 0 -0.03499997181682811 -0.034996911766867318 0 -0.033865020031132766 -0.035009891464145029 0 -0.031721036730133531 -0.035405307643649291 0 -0.033425394262345802 -0.033368348039021827 0 -0.034999204344897443 -0.032596415153869199 0 -0.03320401230381112 -0.031798241164740344 0 -0.034998831064503425 -0.032592569932059251 0 -0.033967535559311986 -0.032136498090278749 0 -0.034998831064503425 -0.032592569932059251 0 -0.033967535559311986 -0.032136498090278749 0 -0.034999062450278277 -0.031167084956242548 0 -0.03320401230381112 -0.031798241164740344 0 -0.033967535559311986 -0.032136498090278749 0 -0.032191034672813687 -0.032532339693387931 0 -0.033967535559311986 -0.032136498090278749 0 -0.032471819943808267 -0.032575466289548528 0 -0.03428976301024713 -0.031421993894294453 0 -0.033967535559311986 -0.032136498090278749 0 -0.034999062450278277 -0.031167084956242548 0 -0.03428976301024713 -0.031421993894294453 0 -0.032471819943808267 -0.032575466289548528 0 -0.030613309793916681 -0.033238030065946327 0 -0.03079248790084672 -0.033552968848083932 0 -0.033967535559311986 -0.032136498090278749 0 -0.032471819943808267 -0.032575466289548528 0 -0.032191034672813687 -0.032532339693387931 0 -0.032471819943808267 -0.032575466289548528 0 -0.032191034672813687 -0.032532339693387931 0 -0.030613309793916681 -0.033238030065946327 0 -0.032191034672813687 -0.032532339693387931 0 -0.030899841801232116 -0.032666767342432269 0 -0.030613309793916681 -0.033238030065946327 0 -0.030899841801232116 -0.032666767342432269 0 -0.02997199631420968 -0.033632012380661262 0 -0.030613309793916681 -0.033238030065946327 0 -0.033425394262345802 -0.033368348039021827 0 -0.03142423522466254 -0.034089859377247123 0 -0.03320401230381112 -0.031798241164740344 0 -0.032191034672813687 -0.032532339693387931 0 -0.030899841801232116 -0.032666767342432269 0 -0.030899841801232116 -0.032666767342432269 0 -0.029697525007508937 -0.034994976946593315 0 -0.02997199631420968 -0.033632012380661262 0 -0.03142423522466254 -0.034089859377247123 0 -0.029699467060527798 -0.034999703040254584 0 -0.029697525007508937 -0.034994976946593315 0 -0.028925678578670573 -0.034119852138666036 0 -0.027973225217343314 -0.034999892291344696 0 -0.029697525007508937 -0.034994976946593315 0 -0.028925678578670573 -0.034119852138666036 0 -0.02997199631420968 -0.033632012380661262 0 -0.028925678578670573 -0.034119852138666036 0 -0.02997199631420968 -0.033632012380661262 0 -0.030613309793916681 -0.033238030065946327 0 -0.027973225217343314 -0.034999892291344696 0 -0.027386456419996024 -0.034621856327438201 0 -0.026245525789459989 -0.034998638788119166 0 -0.027386456419996024 -0.034621856327438201 0 -0.026245525789459989 -0.034998638788119166 0 -0.026063799012925066 -0.034786998241875582 0 -0.028925678578670573 -0.034119852138666036 0 -0.027973225217343314 -0.034999892291344696 0 -0.027386456419996024 -0.034621856327438201 0 -0.028925678578670573 -0.034119852138666036 0 -0.027386456419996024 -0.034621856327438201 0 -0.028111261907772744 -0.034336784165644695 0 -0.027386456419996024 -0.034621856327438201 0 -0.026992371402377195 -0.034559604128257704 0 -0.026063799012925066 -0.034786998241875582 0 -0.027386456419996024 -0.034621856327438201 0 -0.026992371402377195 -0.034559604128257704 0 -0.028111261907772744 -0.034336784165644695 0 -0.026992371402377195 -0.034559604128257704 0 -0.028111261907772744 -0.034336784165644695 0 -0.027534903321790299 -0.034562886277247691 0 -0.026992371402377195 -0.034559604128257704 0 -0.027534903321790299 -0.034562886277247691 0 -0.026868953773958506 -0.034694023186100958 0 -0.028925678578670573 -0.034119852138666036 0 -0.028111261907772744 -0.034336784165644695 0 -0.029341576708178732 -0.033919023576953193 0 -0.028111261907772744 -0.034336784165644695 0 -0.028322744944593369 -0.034427110930340218 0 -0.029341576708178732 -0.033919023576953193 0 -0.028111261907772744 -0.034336784165644695 0 -0.028322744944593369 -0.034427110930340218 0 -0.027534903321790299 -0.034562886277247691 0 -0.028322744944593369 -0.034427110930340218 0 -0.027534903321790299 -0.034562886277247691 0 -0.027438273041313969 -0.034711077554493756 0 -0.027534903321790299 -0.034562886277247691 0 -0.027438273041313969 -0.034711077554493756 0 -0.026868953773958506 -0.034694023186100958 0 -0.030613309793916681 -0.033238030065946327 0 -0.029341576708178732 -0.033919023576953193 0 -0.03079248790084672 -0.033552968848083932 0 -0.028925678578670573 -0.034119852138666036 0 -0.030613309793916681 -0.033238030065946327 0 -0.029341576708178732 -0.033919023576953193 0 -0.029341576708178732 -0.033919023576953193 0 -0.03079248790084672 -0.033552968848083932 0 -0.029308622029398403 -0.034524885525742566 0 -0.028322744944593369 -0.034427110930340218 0 -0.029341576708178732 -0.033919023576953193 0 -0.029308622029398403 -0.034524885525742566 0 -0.03079248790084672 -0.033552968848083932 0 -0.029308622029398403 -0.034524885525742566 0 -0.03143144757497341 -0.034713972047148621 0 -0.028010366064191824 -0.034823499915243104 0 -0.027438273041313969 -0.034711077554493756 0 -0.027366033380961781 -0.034920233822435851 0 -0.028322744944593369 -0.034427110930340218 0 -0.028010366064191824 -0.034823499915243104 0 -0.027438273041313969 -0.034711077554493756 0 -0.028322744944593369 -0.034427110930340218 0 -0.029308622029398403 -0.034524885525742566 0 -0.028010366064191824 -0.034823499915243104 0 -0.029308622029398403 -0.034524885525742566 0 -0.028010366064191824 -0.034823499915243104 0 -0.028495005150363413 -0.035163297278144816 0 -0.028010366064191824 -0.034823499915243104 0 -0.028495005150363413 -0.035163297278144816 0 -0.027714496233234336 -0.03516781031334773 0 -0.028010366064191824 -0.034823499915243104 0 -0.027714496233234336 -0.03516781031334773 0 -0.027366033380961781 -0.034920233822435851 0 -0.027714496233234336 -0.03516781031334773 0 -0.027979649136106528 -0.035873381858701613 0 -0.027433809152764659 -0.035512074365828948 0 -0.028495005150363413 -0.035163297278144816 0 -0.027714496233234336 -0.03516781031334773 0 -0.027979649136106528 -0.035873381858701613 0 -0.029124427209102605 -0.030203580065676118 0 -0.030511106800332425 -0.029899335512311886 0 -0.028495005150363413 -0.035163297278144816 0 -0.027979649136106528 -0.035873381858701613 0 -0.029467287423064203 -0.035640142691536716 0 -0.029908698370661149 -0.02433670516255981 0 -0.031687347033424199 -0.024186171099449118 0 -0.031140870405851059 -0.025399054487507334 0 -0.029908698370661149 -0.02433670516255981 0 -0.028507618668297294 -0.025714050908960475 0 -0.029633400559376029 -0.025741944628138249 0 -0.030511106800332425 -0.029899335512311886 0 -0.032333883898868321 -0.029648920392932567 0 -0.029308622029398403 -0.034524885525742566 0 -0.029467287423064203 -0.035640142691536716 0 -0.03143144757497341 -0.034713972047148621 0 -0.029308622029398403 -0.034524885525742566 0 -0.028495005150363413 -0.035163297278144816 0 -0.029467287423064203 -0.035640142691536716 0 -0.031687347033424199 -0.024186171099449118 0 -0.032786678466297049 -0.025093586531745034 0 -0.031140870405851059 -0.025399054487507334 0 -0.031687347033424199 -0.024186171099449118 0 -0.03333005483220549 -0.024557003049791033 0 -0.032786678466297049 -0.025093586531745034 0 -0.03333005483220549 -0.024557003049791033 0 -0.033847724495132583 -0.025272378936750828 0 -0.032786678466297049 -0.025093586531745034 0 -0.03333005483220549 -0.024557003049791033 0 -0.033847724495132583 -0.025272378936750828 0 -0.03470395250967459 -0.025793132272663499 0 -0.032333883898868321 -0.029648920392932567 0 -0.033885699048758232 -0.029281036083074134 0 -0.03143144757497341 -0.034713972047148621 0 -0.033699014119241311 -0.032805906835967992 0 -0.032783950807308573 -0.032663753146055741 0 -0.033847724495132583 -0.025272378936750828 0 -0.03470395250967459 -0.025793132272663499 0 -0.034429860689006497 -0.0255975204043602 0 -0.034986831426619631 -0.026467447156973009 0 -0.03470395250967459 -0.025793132272663499 0 -0.034429860689006497 -0.0255975204043602 0 -0.034986831426619631 -0.026467447156973009 0 -0.034999075358025301 -0.026367951238745056 0 -0.034999494129137818 -0.028299549031828151 0 -0.034986831426619631 -0.026467447156973009 0 -0.034999075358025301 -0.026367951238745056 0 -0.034894025001772848 -0.025529036537403946 0 -0.034986831426619631 -0.026467447156973009 0 -0.034999494129137818 -0.028299549031828151 0 -0.03470395250967459 -0.025793132272663499 0 -0.034998744938209703 -0.028303478571338206 0 -0.033885699048758232 -0.029281036083074134 0 -0.033699014119241311 -0.032805906835967992 0 -0.034435694959673892 -0.030923444997062687 0 -0.032783950807308573 -0.032663753146055741 0 -0.034999592914143098 -0.02830938804571833 0 -0.033699014119241311 -0.032805906835967992 0 -0.034435694959673892 -0.030923444997062687 0 -0.034999592914143098 -0.02830938804571833 0 -0.034435694959673892 -0.030923444997062687 0 -0.034999046260026465 -0.029734535683325739 0 -0.034435694959673892 -0.030923444997062687 0 -0.034999046260026465 -0.029734535683325739 0 -0.03428976301024713 -0.031421993894294453 0 -0.034999062450278277 -0.031167084956242548 0 -0.034999046260026465 -0.029734535683325739 0 -0.03428976301024713 -0.031421993894294453 0 -0.034435694959673892 -0.030923444997062687 0 -0.03428976301024713 -0.031421993894294453 0 -0.032783950807308573 -0.032663753146055741 0 -0.032471819943808267 -0.032575466289548528 0 -0.03428976301024713 -0.031421993894294453 0 -0.032783950807308573 -0.032663753146055741 0 -0.032471819943808267 -0.032575466289548528 0 -0.03079248790084672 -0.033552968848083932 0 -0.032783950807308573 -0.032663753146055741 0 -0.03079248790084672 -0.033552968848083932 0 -0.03143144757497341 -0.034713972047148621 0 -0.032783950807308573 -0.032663753146055741 0 -0.020228077681046709 -0.03207113058702242 0 -0.020104987547341538 -0.032785110798560772 0 -0.01956390522465374 -0.03298754851390831 0 -0.020228077681046709 -0.03207113058702242 0 -0.020104987547341538 -0.032785110798560772 0 -0.020705809531227106 -0.031935869053096547 0 -0.020104987547341538 -0.032785110798560772 0 -0.020666717567925812 -0.032879964866784156 0 -0.020705809531227106 -0.031935869053096547 0 -0.020666717567925812 -0.032879964866784156 0 -0.021322564106885503 -0.032179786016331084 0 -0.020705809531227106 -0.031935869053096547 0 -0.020666717567925812 -0.032879964866784156 0 -0.019977001485792296 -0.033636393041193757 0 -0.020675435213069072 -0.033744253935238722 0 -0.020104987547341538 -0.032785110798560772 0 -0.020666717567925812 -0.032879964866784156 0 -0.019977001485792296 -0.033636393041193757 0 -0.020104987547341538 -0.032785110798560772 0 -0.019977001485792296 -0.033636393041193757 0 -0.019541574874654539 -0.03348621409220668 0 -0.020104987547341538 -0.032785110798560772 0 -0.019541574874654539 -0.03348621409220668 0 -0.01956390522465374 -0.03298754851390831 0 -0.019541574874654539 -0.03348621409220668 0 -0.018980803834330599 -0.033789387579356019 0 -0.01956390522465374 -0.03298754851390831 0 -0.019541574874654539 -0.03348621409220668 0 -0.019052839960525716 -0.034241910666389472 0 -0.018980803834330599 -0.033789387579356019 0 -0.019977001485792296 -0.033636393041193757 0 -0.019541574874654539 -0.03348621409220668 0 -0.019052839960525716 -0.034241910666389472 0 -0.019052839960525716 -0.034241910666389472 0 -0.018248330659610758 -0.03499858247181311 0 -0.018047705966666792 -0.034570911830141132 0 -0.019052839960525716 -0.034241910666389472 0 -0.018248330659610758 -0.03499858247181311 0 -0.019825338979702966 -0.034479652948029661 0 -0.018248330659610758 -0.03499858247181311 0 -0.019825338979702966 -0.034479652948029661 0 -0.02033898985990272 -0.034998635316779207 0 -0.019977001485792296 -0.033636393041193757 0 -0.019825338979702966 -0.034479652948029661 0 -0.020675435213069072 -0.033744253935238722 0 -0.019977001485792296 -0.033636393041193757 0 -0.019052839960525716 -0.034241910666389472 0 -0.019825338979702966 -0.034479652948029661 0 -0.021244836039296319 -0.034465676814533802 0 -0.021318359542483858 -0.033649264300264659 0 -0.020675435213069072 -0.033744253935238722 0 -0.019825338979702966 -0.034479652948029661 0 -0.021244836039296319 -0.034465676814533802 0 -0.020675435213069072 -0.033744253935238722 0 -0.019825338979702966 -0.034479652948029661 0 -0.02033898985990272 -0.034998635316779207 0 -0.021244836039296319 -0.034465676814533802 0 -0.02033898985990272 -0.034998635316779207 0 -0.021244836039296319 -0.034465676814533802 0 -0.022428912140241404 -0.034998713981212196 0 -0.021318359542483858 -0.033649264300264659 0 -0.021696578634921065 -0.032778781528595653 0 -0.021803186841267544 -0.033780328975903877 0 -0.021318359542483858 -0.033649264300264659 0 -0.021142068239293137 -0.033060349760199996 0 -0.021696578634921065 -0.032778781528595653 0 -0.021244836039296319 -0.034465676814533802 0 -0.021318359542483858 -0.033649264300264659 0 -0.021803186841267544 -0.033780328975903877 0 -0.020666717567925812 -0.032879964866784156 0 -0.020675435213069072 -0.033744253935238722 0 -0.021142068239293137 -0.033060349760199996 0 -0.021318359542483858 -0.033649264300264659 0 -0.020675435213069072 -0.033744253935238722 0 -0.021142068239293137 -0.033060349760199996 0 -0.021142068239293137 -0.033060349760199996 0 -0.021696578634921065 -0.032778781528595653 0 -0.021322564106885503 -0.032179786016331084 0 -0.020666717567925812 -0.032879964866784156 0 -0.021142068239293137 -0.033060349760199996 0 -0.021322564106885503 -0.032179786016331084 0 -0.021696578634921065 -0.032778781528595653 0 -0.02198010692886258 -0.033004130295498979 0 -0.021803186841267544 -0.033780328975903877 0 -0.02198010692886258 -0.033004130295498979 0 -0.022081009013147104 -0.032818691717255641 0 -0.022114447068640228 -0.033718030831140479 0 -0.021696578634921065 -0.032778781528595653 0 -0.02198010692886258 -0.033004130295498979 0 -0.022173562600806572 -0.032113002077647432 0 -0.02198010692886258 -0.033004130295498979 0 -0.022081009013147104 -0.032818691717255641 0 -0.022173562600806572 -0.032113002077647432 0 -0.022081009013147104 -0.032818691717255641 0 -0.022200249718510125 -0.032072869502567186 0 -0.022173562600806572 -0.032113002077647432 0 -0.022081009013147104 -0.032818691717255641 0 -0.022114447068640228 -0.033718030831140479 0 -0.021563930327934272 -0.032934956923342654 0 -0.022081009013147104 -0.032818691717255641 0 -0.021563930327934272 -0.032934956923342654 0 -0.022200249718510125 -0.032072869502567186 0 -0.022114447068640228 -0.033718030831140479 0 -0.022365722792393922 -0.034456196130893783 0 -0.021563930327934272 -0.032934956923342654 0 -0.022114447068640228 -0.033718030831140479 0 -0.021803186841267544 -0.033780328975903877 0 -0.022368713644737557 -0.034642288466467934 0 -0.02198010692886258 -0.033004130295498979 0 -0.022114447068640228 -0.033718030831140479 0 -0.021803186841267544 -0.033780328975903877 0 -0.021244836039296319 -0.034465676814533802 0 -0.021803186841267544 -0.033780328975903877 0 -0.022368713644737557 -0.034642288466467934 0 -0.021244836039296319 -0.034465676814533802 0 -0.022368713644737557 -0.034642288466467934 0 -0.022428912140241404 -0.034998713981212196 0 -0.022368713644737557 -0.034642288466467934 0 -0.022428912140241404 -0.034998713981212196 0 -0.02451480648286701 -0.034999497034023094 0 -0.022368713644737557 -0.034642288466467934 0 -0.022365722792393922 -0.034456196130893783 0 -0.02451480648286701 -0.034999497034023094 0 -0.022114447068640228 -0.033718030831140479 0 -0.022368713644737557 -0.034642288466467934 0 -0.022365722792393922 -0.034456196130893783 0 -0.025797091046978322 -0.034750090303722246 0 -0.026063799012925066 -0.034786998241875582 0 -0.02577379673372833 -0.034528462087936342 0 -0.024040741380614045 -0.034456013479842638 0 -0.024519082734126084 -0.034999289815782798 0 -0.025797091046978322 -0.034750090303722246 0 -0.024522306025488758 -0.034999536705469854 0 -0.026063799012925066 -0.034786998241875582 0 -0.024522306025488758 -0.034999536705469854 0 -0.026245525789459989 -0.034998638788119166 0 -0.026063799012925066 -0.034786998241875582 0 -0.026992371402377195 -0.034559604128257704 0 -0.02577379673372833 -0.034528462087936342 0 -0.026868953773958506 -0.034694023186100958 0 -0.026992371402377195 -0.034559604128257704 0 -0.026063799012925066 -0.034786998241875582 0 -0.02577379673372833 -0.034528462087936342 0 -0.025797091046978322 -0.034750090303722246 0 -0.02577379673372833 -0.034528462087936342 0 -0.024736691106913063 -0.033697473158001721 0 -0.024040741380614045 -0.034456013479842638 0 -0.023158058049371783 -0.033389458243387911 0 -0.02563960222059351 -0.034332951767169592 0 -0.025113044626205089 -0.033564060020645353 0 -0.02577379673372833 -0.034528462087936342 0 -0.024736691106913063 -0.033697473158001721 0 -0.023201262145514621 -0.032852531616385648 0 -0.027438273041313969 -0.034711077554493756 0 -0.026868953773958506 -0.034694023186100958 0 -0.02693376613323651 -0.034785890301080993 0 -0.02577379673372833 -0.034528462087936342 0 -0.026868953773958506 -0.034694023186100958 0 -0.02693376613323651 -0.034785890301080993 0 -0.027366033380961781 -0.034920233822435851 0 -0.02693376613323651 -0.034785890301080993 0 -0.027069476473148321 -0.035156800702873789 0 -0.027438273041313969 -0.034711077554493756 0 -0.027366033380961781 -0.034920233822435851 0 -0.02693376613323651 -0.034785890301080993 0 -0.024736691106913063 -0.033697473158001721 0 -0.023201262145514621 -0.032852531616385648 0 -0.022501013469965286 -0.031458847632424972 0 -0.023201262145514621 -0.032852531616385648 0 -0.022501013469965286 -0.031458847632424972 0 -0.021658856547793794 -0.030871173812059206 0 -0.025113044626205089 -0.033564060020645353 0 -0.024179027532845 -0.033493473614223251 0 -0.023158058049371783 -0.033389458243387911 0 -0.022614478573206018 -0.031742188094113132 0 -0.021658856547793794 -0.030871173812059206 0 -0.022658308043002735 -0.029540002847239236 0 -0.02259762231509253 -0.030668844219412253 0 -0.022501013469965286 -0.031458847632424972 0 -0.021658856547793794 -0.030871173812059206 0 -0.02259762231509253 -0.030668844219412253 0 -0.027714496233234336 -0.03516781031334773 0 -0.027069476473148321 -0.035156800702873789 0 -0.027433809152764659 -0.035512074365828948 0 -0.027714496233234336 -0.03516781031334773 0 -0.027366033380961781 -0.034920233822435851 0 -0.027069476473148321 -0.035156800702873789 0 -0.027979649136106528 -0.035873381858701613 0 -0.027433809152764659 -0.035512074365828948 0 -0.027017461692739893 -0.035881543165701427 0 -0.027069476473148321 -0.035156800702873789 0 -0.027433809152764659 -0.035512074365828948 0 -0.027017461692739893 -0.035881543165701427 0 -0.029124427209102605 -0.030203580065676118 0 -0.026249010698834303 -0.029595037701063115 0 -0.029908698370661149 -0.02433670516255981 0 -0.027103479516561089 -0.024809111020077497 0 -0.028507618668297294 -0.025714050908960475 0 -0.027103479516561089 -0.024809111020077497 0 -0.026852440593098503 -0.026420774945560159 0 -0.028507618668297294 -0.025714050908960475 0 -0.021488005031390752 -0.028003397963764113 0 -0.022658308043002735 -0.029540002847239236 0 -0.024115262946706545 -0.027485489153652863 0 -0.026590247152396319 -0.025850615626245164 0 -0.024115262946706545 -0.027485489153652863 0 -0.026852440593098503 -0.026420774945560159 0 -0.026249010698834303 -0.029595037701063115 0 -0.023645612290697574 -0.0274046898108962 0 -0.026249010698834303 -0.029595037701063115 0 -0.026735172478935677 -0.025536254249265245 0 -0.024179027532845 -0.033493473614223251 0 -0.026249010698834303 -0.029595037701063115 0 -0.021658856547793794 -0.030871173812059206 0 -0.021488005031390752 -0.028003397963764113 0 -0.022658308043002735 -0.0295400028472