<?xml version="1.0"?>
<VTKFile type="UnstructuredGrid" version="0.1" byte_order="LittleEndian">
<UnstructuredGrid>
<Piece NumberOfPoints="30471" NumberOfCells="10680">
<Points>
<DataArray type="Float64" NumberOfComponents="3" format="ascii">
-0.5 -0.5 0 -0.47710714575615482 -0.47475601578167598 0 -0.4656607186342383 -0.49999999999999423 0 -0.5 -0.5 0 -0.48855357287807349 -0.44951203156335889 0 -0.49999999999999573 -0.42426804734504331 0 -0.5 -0.5 0 -0.47710714575615482 -0.47475601578167598 0 -0.48855357287807349 -0.44951203156335889 0 -0.47710714575615482 -0.47475601578167598 0 -0.4656607186342383 -0.49999999999999423 0 -0.47710714575615482 -0.47475601578167598 0 -0.4656607186342383 -0.49999999999999423 0 -0.45543861599526031 -0.48014789325282609 0 -0.4656607186342383 -0.49999999999999423 0 -0.45543861599526031 -0.48014789325282609 0 -0.44521651335629642 -0.5 0 -0.47710714575615482 -0.47475601578167598 0 -0.45543861599526031 -0.48014789325282609 0 -0.46248979692666892 -0.45945841935021892 0 -0.45543861599526031 -0.48014789325282609 0 -0.44168139525757649 -0.4581864096763385 0 -0.43499441071732531 -0.48217871034048793 0 -0.45543861599526031 -0.48014789325282609 0 -0.44521651335629642 -0.5 0 -0.43499441071732531 -0.48217871034048793 0 -0.44168139525757649 -0.4581864096763385 0 -0.4599305010059393 -0.4362861175827687 0 -0.42782158748267662 -0.43388404806295178 0 -0.45543861599526031 -0.48014789325282609 0 -0.44168139525757649 -0.4581864096763385 0 -0.46248979692666892 -0.45945841935021892 0 -0.44168139525757649 -0.4581864096763385 0 -0.46248979692666892 -0.45945841935021892 0 -0.4599305010059393 -0.4362861175827687 0 -0.46248979692666892 -0.45945841935021892 0 -0.48855357287807349 -0.44951203156335889 0 -0.4599305010059393 -0.4362861175827687 0 -0.48855357287807349 -0.44951203156335889 0 -0.48045580153478279 -0.42968989070580832 0 -0.4599305010059393 -0.4362861175827687 0 -0.47710714575615482 -0.47475601578167598 0 -0.48855357287807349 -0.44951203156335889 0 -0.47710714575615482 -0.47475601578167598 0 -0.46248979692666892 -0.45945841935021892 0 -0.48855357287807349 -0.44951203156335889 0 -0.48855357287807349 -0.44951203156335889 0 -0.49999999999999573 -0.42426804734504331 0 -0.48045580153478279 -0.42968989070580832 0 -0.48855357287807349 -0.44951203156335889 0 -0.49999999999999573 -0.42426804734504331 0 -0.49999999999999573 -0.42426804734504331 0 -0.47475379064739398 -0.40958027036506373 0 -0.5 -0.39960341120183068 0 -0.49999999999999573 -0.42426804734504331 0 -0.47475379064739398 -0.40958027036506373 0 -0.48045580153478279 -0.42968989070580832 0 -0.47475379064739398 -0.40958027036506373 0 -0.48045580153478279 -0.42968989070580832 0 -0.4599305010059393 -0.4362861175827687 0 -0.5 -0.39960341120183068 0 -0.4795643867672098 -0.38615165328536388 0 -0.5 -0.37493877505861811 0 -0.4795643867672098 -0.38615165328536388 0 -0.5 -0.37493877505861811 0 -0.47970342761934798 -0.36536877556865471 0 -0.47475379064739398 -0.40958027036506373 0 -0.5 -0.39960341120183068 0 -0.4795643867672098 -0.38615165328536388 0 -0.47475379064739398 -0.40958027036506373 0 -0.4795643867672098 -0.38615165328536388 0 -0.45944996743114591 -0.3940481773290499 0 -0.4795643867672098 -0.38615165328536388 0 -0.46367845029430083 -0.3758899745799143 0 -0.47970342761934798 -0.36536877556865471 0 -0.4795643867672098 -0.38615165328536388 0 -0.46367845029430083 -0.3758899745799143 0 -0.45944996743114591 -0.3940481773290499 0 -0.46367845029430083 -0.3758899745799143 0 -0.45944996743114591 -0.3940481773290499 0 -0.4487854225861832 -0.3816123824839634 0 -0.46367845029430083 -0.3758899745799143 0 -0.4487854225861832 -0.3816123824839634 0 -0.44952958524077169 -0.36846310266208943 0 -0.47475379064739398 -0.40958027036506373 0 -0.45944996743114591 -0.3940481773290499 0 -0.44618877247884298 -0.41322132991262223 0 -0.45944996743114591 -0.3940481773290499 0 -0.4382348202842492 -0.3949357122295431 0 -0.44618877247884298 -0.41322132991262223 0 -0.45944996743114591 -0.3940481773290499 0 -0.4382348202842492 -0.3949357122295431 0 -0.4487854225861832 -0.3816123824839634 0 -0.4382348202842492 -0.3949357122295431 0 -0.4487854225861832 -0.3816123824839634 0 -0.4364350051439454 -0.37659223277027032 0 -0.4487854225861832 -0.3816123824839634 0 -0.4364350051439454 -0.37659223277027032 0 -0.44952958524077169 -0.36846310266208943 0 -0.4599305010059393 -0.4362861175827687 0 -0.44618877247884298 -0.41322132991262223 0 -0.42782158748267662 -0.43388404806295178 0 -0.47475379064739398 -0.40958027036506373 0 -0.4599305010059393 -0.4362861175827687 0 -0.44618877247884298 -0.41322132991262223 0 -0.44618877247884298 -0.41322132991262223 0 -0.42782158748267662 -0.43388404806295178 0 -0.41748094860389351 -0.41095884084689832 0 -0.4382348202842492 -0.3949357122295431 0 -0.44618877247884298 -0.41322132991262223 0 -0.41748094860389351 -0.41095884084689832 0 -0.42782158748267662 -0.43388404806295178 0 -0.41748094860389351 -0.41095884084689832 0 -0.3966635671319384 -0.44211900874647408 0 -0.42190421088594637 -0.38668092524862407 0 -0.4364350051439454 -0.37659223277027032 0 -0.4233305611288673 -0.36994935440575749 0 -0.4382348202842492 -0.3949357122295431 0 -0.42190421088594637 -0.38668092524862407 0 -0.4364350051439454 -0.37659223277027032 0 -0.4382348202842492 -0.3949357122295431 0 -0.41748094860389351 -0.41095884084689832 0 -0.42190421088594637 -0.38668092524862407 0 -0.41748094860389351 -0.41095884084689832 0 -0.42190421088594637 -0.38668092524862407 0 -0.40668073543537381 -0.39554763944923649 0 -0.42190421088594637 -0.38668092524862407 0 -0.40668073543537381 -0.39554763944923649 0 -0.41003978032478122 -0.37810586789402661 0 -0.42190421088594637 -0.38668092524862407 0 -0.41003978032478122 -0.37810586789402661 0 -0.4233305611288673 -0.36994935440575749 0 -0.41003978032478122 -0.37810586789402661 0 -0.38899903146346471 -0.38423801749294528 0 -0.39880654296711909 -0.36851387409748781 0 -0.40668073543537381 -0.39554763944923649 0 -0.41003978032478122 -0.37810586789402661 0 -0.38899903146346471 -0.38423801749294528 0 -0.38899903146346471 -0.38423801749294528 0 -0.39283129929770161 -0.41317851311970971 0 -0.40668073543537381 -0.39554763944923649 0 -0.38899903146346471 -0.38423801749294528 0 -0.39283129929770161 -0.41317851311970971 0 -0.38899903146346471 -0.38423801749294528 0 -0.39283129929770161 -0.41317851311970971 0 -0.3651581852374195 -0.40480621420331792 0 -0.38899903146346471 -0.38423801749294528 0 -0.3738892760449905 -0.36844461230234338 0 -0.36626203606495528 -0.38179973831237279 0 -0.39283129929770161 -0.41317851311970971 0 -0.3966635671319384 -0.44211900874647408 0 -0.41748094860389351 -0.41095884084689832 0 -0.39283129929770161 -0.41317851311970971 0 -0.3966635671319384 -0.44211900874647408 0 -0.41748094860389351 -0.41095884084689832 0 -0.40668073543537381 -0.39554763944923649 0 -0.39283129929770161 -0.41317851311970971 0 -0.39283129929770161 -0.41317851311970971 0 -0.37447794905648568 -0.43300714366587539 0 -0.3651581852374195 -0.40480621420331792 0 -0.39283129929770161 -0.41317851311970971 0 -0.3966635671319384 -0.44211900874647408 0 -0.37447794905648568 -0.43300714366587539 0 -0.3966635671319384 -0.44211900874647408 0 -0.38037559506231822 -0.45380145660997673 0 -0.37447794905648568 -0.43300714366587539 0 -0.3966635671319384 -0.44211900874647408 0 -0.38037559506231822 -0.45380145660997673 0 -0.40049583496617519 -0.47105950437323851 0 -0.3966635671319384 -0.44211900874647408 0 -0.40049583496617519 -0.47105950437323851 0 -0.3966635671319384 -0.44211900874647408 0 -0.40049583496617519 -0.47105950437323851 0 -0.41868515049096883 -0.45951816642578469 0 -0.38037559506231822 -0.45380145660997673 0 -0.40049583496617519 -0.47105950437323851 0 -0.37109339097970551 -0.47183814066354279 0 -0.38794778498020938 -0.48700460910628701 0 -0.40049583496617519 -0.47105950437323851 0 -0.37109339097970551 -0.47183814066354279 0 -0.38794778498020938 -0.48700460910628701 0 -0.37669569715867768 -0.5 0 -0.40432810280041243 -0.50000000000000289 0 -0.38794778498020938 -0.48700460910628701 0 -0.37669569715867768 -0.5 0 -0.36476681620186879 -0.49124523158891398 0 -0.38794778498020938 -0.48700460910628701 0 -0.40432810280041243 -0.50000000000000289 0 -0.40049583496617519 -0.47105950437323851 0 -0.40432810280041243 -0.50000000000000289 0 -0.40049583496617519 -0.47105950437323851 0 -0.40049583496617519 -0.47105950437323851 0 -0.41605374541885759 -0.48294303175523529 0 -0.41868515049096883 -0.45951816642578469 0 -0.40432810280041243 -0.50000000000000289 0 -0.40049583496617519 -0.47105950437323851 0 -0.41605374541885759 -0.48294303175523529 0 -0.40432810280041243 -0.50000000000000289 0 -0.41605374541885759 -0.48294303175523529 0 -0.42477230807835442 -0.5 0 -0.41605374541885759 -0.48294303175523529 0 -0.42477230807835442 -0.5 0 -0.43499441071732531 -0.48217871034048793 0 -0.44521651335629642 -0.5 0 -0.42477230807835442 -0.5 0 -0.43499441071732531 -0.48217871034048793 0 -0.41605374541885759 -0.48294303175523529 0 -0.43499441071732531 -0.48217871034048793 0 -0.41868515049096883 -0.45951816642578469 0 -0.44168139525757649 -0.4581864096763385 0 -0.43499441071732531 -0.48217871034048793 0 -0.41868515049096883 -0.45951816642578469 0 -0.44168139525757649 -0.4581864096763385 0 -0.42782158748267662 -0.43388404806295178 0 -0.41868515049096883 -0.45951816642578469 0 -0.42782158748267662 -0.43388404806295178 0 -0.3966635671319384 -0.44211900874647408 0 -0.41868515049096883 -0.45951816642578469 0 -0.44144573889681982 -0.25402770002028169 0 -0.45189938063717511 -0.26200832376235977 0 -0.4581530983886718 -0.2480328079409195 0 -0.44144573889681982 -0.25402770002028169 0 -0.45189938063717511 -0.26200832376235977 0 -0.43563502470413101 -0.2672929848723295 0 -0.45189938063717511 -0.26200832376235977 0 -0.45087534402505181 -0.27756585873405432 0 -0.43563502470413101 -0.2672929848723295 0 -0.45087534402505181 -0.27756585873405432 0 -0.43721728060211401 -0.28748531825848 0 -0.43563502470413101 -0.2672929848723295 0 -0.45087534402505181 -0.277565
[...]
<PointData Scalars="" Vectors="displacement," Tensors="">
<DataArray type="Float64" Name="displacement" NumberOfComponents="3" format="ascii">
-6.2131957676602066e-07 -0.034998400290163309 0 -2.7991301180791299e-05 -0.033969970698231391 0 2.8896360683211624e-07 -0.034999376602975488 0 -6.2131957676602066e-07 -0.034998400290163309 0 3.4081925880731053e-05 -0.032015707843942878 0 9.4184638560028224e-07 -0.0297025729918503 0 -6.2131957676602066e-07 -0.034998400290163309 0 -2.7991301180791299e-05 -0.033969970698231391 0 3.4081925880731053e-05 -0.032015707843942878 0 -0.00032557358441575836 -0.033441533567675125 0 4.9624984553595787e-09 -0.034999395022839275 0 -0.00071386533065479277 -0.032984990072566098 0 -9.3503174957561704e-07 -0.034997941288239326 0 -0.00048063162855932831 -0.03391048377039603 0 -9.3503174957561704e-07 -0.034997941288239326 0 -0.00048063162855932831 -0.03391048377039603 0 -1.2146438217592024e-07 -0.034999159430033226 0 -0.00071386533065479277 -0.032984990072566098 0 -0.00048063162855932831 -0.03391048377039603 0 -0.00062989867275544667 -0.032713080717645761 0 -0.00048063162855932831 -0.03391048377039603 0 -0.00060447600033410054 -0.033167454739291745 0 -0.00035544011571382096 -0.034222898717751193 0 -0.00048063162855932831 -0.03391048377039603 0 -1.2146438217592024e-07 -0.034999159430033226 0 -0.00035544011571382096 -0.034222898717751193 0 -0.00060447600033410054 -0.033167454739291745 0 -0.00049122682479889736 -0.031764872369791947 0 -0.0005391352739208278 -0.032630869434756501 0 -0.00048063162855932831 -0.03391048377039603 0 -0.00060447600033410054 -0.033167454739291745 0 -0.00062989867275544667 -0.032713080717645761 0 -0.00060447600033410054 -0.033167454739291745 0 -0.00062989867275544667 -0.032713080717645761 0 -0.00049122682479889736 -0.031764872369791947 0 -0.00062989867275544667 -0.032713080717645761 0 -0.00066515724208850418 -0.031170706975360722 0 -0.00049122682479889736 -0.031764872369791947 0 -0.00066515724208850418 -0.031170706975360722 0 -0.00030159979377076483 -0.030634950197465729 0 -0.00049122682479889736 -0.031764872369791947 0 -0.00032557358441575836 -0.033441533567675125 0 -0.00035192273615379023 -0.031620604137357851 0 -0.00071386533065479277 -0.032984990072566098 0 -0.00062989867275544667 -0.032713080717645761 0 -0.00066515724208850418 -0.031170706975360722 0 -0.00066515724208850418 -0.031170706975360722 0 -1.6448460553907467e-06 -0.029697317977465772 0 -0.00030159979377076483 -0.030634950197465729 0 -0.00035192273615379023 -0.031620604137357851 0 -1.1636988002914182e-07 -0.029699442305306176 0 -1.6448460553907467e-06 -0.029697317977465772 0 -0.00021671416020284764 -0.029869719517003807 0 3.0263177660302879e-07 -0.027973618236907773 0 -1.6448460553907467e-06 -0.029697317977465772 0 -0.00021671416020284764 -0.029869719517003807 0 -0.00030159979377076483 -0.030634950197465729 0 -0.00021671416020284764 -0.029869719517003807 0 -0.00030159979377076483 -0.030634950197465729 0 -0.00049122682479889736 -0.031764872369791947 0 3.0263177660302879e-07 -0.027973618236907773 0 2.7897642934452673e-05 -0.028461941871886134 0 -9.2587192205789566e-07 -0.026245793819971917 0 2.7897642934452673e-05 -0.028461941871886134 0 -9.2587192205789566e-07 -0.026245793819971917 0 0.00038735606192226229 -0.027681520241075203 0 -0.00021671416020284764 -0.029869719517003807 0 3.0263177660302879e-07 -0.027973618236907773 0 2.7897642934452673e-05 -0.028461941871886134 0 -0.00021671416020284764 -0.029869719517003807 0 2.7897642934452673e-05 -0.028461941871886134 0 -1.821658144546045e-05 -0.03003987583108363 0 2.7897642934452673e-05 -0.028461941871886134 0 0.00041080177475293002 -0.029101001230038104 0 0.00038735606192226229 -0.027681520241075203 0 2.7897642934452673e-05 -0.028461941871886134 0 0.00041080177475293002 -0.029101001230038104 0 -1.821658144546045e-05 -0.03003987583108363 0 0.00041080177475293002 -0.029101001230038104 0 -1.821658144546045e-05 -0.03003987583108363 0 0.00036198529567674909 -0.030334287478617973 0 0.00041080177475293002 -0.029101001230038104 0 0.00036198529567674909 -0.030334287478617973 0 0.00088116449977415688 -0.029989677357615471 0 -0.00021671416020284764 -0.029869719517003807 0 -1.821658144546045e-05 -0.03003987583108363 0 -0.00031485378617909169 -0.031392575831838687 0 -1.821658144546045e-05 -0.03003987583108363 0 3.719304908197543e-05 -0.031262709436025549 0 -0.00031485378617909169 -0.031392575831838687 0 -1.821658144546045e-05 -0.03003987583108363 0 3.719304908197543e-05 -0.031262709436025549 0 0.00036198529567674909 -0.030334287478617973 0 3.719304908197543e-05 -0.031262709436025549 0 0.00036198529567674909 -0.030334287478617973 0 0.0006262046995396597 -0.031062937828294033 0 0.00036198529567674909 -0.030334287478617973 0 0.0006262046995396597 -0.031062937828294033 0 0.00088116449977415688 -0.029989677357615471 0 -0.00049122682479889736 -0.031764872369791947 0 -0.00031485378617909169 -0.031392575831838687 0 -0.0005391352739208278 -0.032630869434756501 0 -0.00021671416020284764 -0.029869719517003807 0 -0.00049122682479889736 -0.031764872369791947 0 -0.00031485378617909169 -0.031392575831838687 0 -0.00031485378617909169 -0.031392575831838687 0 -0.0005391352739208278 -0.032630869434756501 0 -0.00026728512265153289 -0.032389418621099175 0 3.719304908197543e-05 -0.031262709436025549 0 -0.00031485378617909169 -0.031392575831838687 0 -0.00026728512265153289 -0.032389418621099175 0 -0.0005391352739208278 -0.032630869434756501 0 -0.00026728512265153289 -0.032389418621099175 0 -0.00061632133116158001 -0.033178827453207223 0 0.0003480238089447669 -0.031894126591619651 0 0.0006262046995396597 -0.031062937828294033 0 0.0010083640501596489 -0.031733244935284004 0 3.719304908197543e-05 -0.031262709436025549 0 0.0003480238089447669 -0.031894126591619651 0 0.0006262046995396597 -0.031062937828294033 0 3.719304908197543e-05 -0.031262709436025549 0 -0.00026728512265153289 -0.032389418621099175 0 0.0003480238089447669 -0.031894126591619651 0 -0.00026728512265153289 -0.032389418621099175 0 0.0003480238089447669 -0.031894126591619651 0 0.00012691258218814274 -0.032518765111213224 0 0.0003480238089447669 -0.031894126591619651 0 0.00012691258218814274 -0.032518765111213224 0 0.00068873396089644528 -0.032318073340445751 0 0.0003480238089447669 -0.031894126591619651 0 0.00068873396089644528 -0.032318073340445751 0 0.0010083640501596489 -0.031733244935284004 0 0.00068873396089644528 -0.032318073340445751 0 0.00047863367450869869 -0.033016794898616024 0 0.0010467004803038744 -0.032682902959701297 0 0.00012691258218814274 -0.032518765111213224 0 0.00068873396089644528 -0.032318073340445751 0 0.00047863367450869869 -0.033016794898616024 0 0.00011329206473555451 -0.031620469463123961 0 -0.0005592161787277073 -0.031940852235119194 0 0.00012691258218814274 -0.032518765111213224 0 0.00047863367450869869 -0.033016794898616024 0 -0.0002798433944700745 -0.032930374192936582 0 -0.00082255088616214065 -0.029454194991972587 0 -0.00086113879893311997 -0.031027055336028866 0 -0.00089455313171167778 -0.030180945337922548 0 -0.00082255088616214065 -0.029454194991972587 0 -0.00087915713457449368 -0.028272000563146268 0 -0.00087030367853523571 -0.029005346880476082 0 -0.0005592161787277073 -0.031940852235119194 0 -0.00054443978540839508 -0.032903428511610523 0 -0.00026728512265153289 -0.032389418621099175 0 -0.0002798433944700745 -0.032930374192936582 0 -0.00061632133116158001 -0.033178827453207223 0 -0.00026728512265153289 -0.032389418621099175 0 0.00012691258218814274 -0.032518765111213224 0 -0.0002798433944700745 -0.032930374192936582 0 -0.00086113879893311997 -0.031027055336028866 0 -0.00072080945936096722 -0.031679998853533203 0 -0.00089455313171167778 -0.030180945337922548 0 -0.00086113879893311997 -0.031027055336028866 0 -0.00060492433147545956 -0.032602012237386298 0 -0.00072080945936096722 -0.031679998853533203 0 -0.00060492433147545956 -0.032602012237386298 0 -0.00043900713786836017 -0.032803981876441242 0 -0.00072080945936096722 -0.031679998853533203 0 -0.00060492433147545956 -0.032602012237386298 0 -0.00043900713786836017 -0.032803981876441242 0 -0.00016563968825856972 -0.033983166882018273 0 -0.00054443978540839508 -0.032903428511610523 0 -0.00031265745934641039 -0.033867172009149488 0 -0.00061632133116158001 -0.033178827453207223 0 -0.00046401173588175631 -0.033725259047809208 0 -0.00057160692261513783 -0.033485927448051928 0 -0.00043900713786836017 -0.032803981876441242 0 -0.00016563968825856972 -0.033983166882018273 0 -0.00018601037859822462 -0.033504310871179853 0 -1.6684078378356527e-05 -0.034453129976817036 0 -0.00016563968825856972 -0.033983166882018273 0 -0.00018601037859822462 -0.033504310871179853 0 -1.6684078378356527e-05 -0.034453129976817036 0 -4.5610026547129727e-09 -0.034998629281889564 0 8.3760257969849809e-08 -0.034999343457530828 0 -1.6684078378356527e-05 -0.034453129976817036 0 -4.5610026547129727e-09 -0.034998629281889564 0 7.2659986650219408e-05 -0.034464507799280737 0 -1.6684078378356527e-05 -0.034453129976817036 0 8.3760257969849809e-08 -0.034999343457530828 0 -0.00016563968825856972 -0.033983166882018273 0 -8.881659337732684e-08 -0.034999600850294278 0 -0.00031265745934641039 -0.033867172009149488 0 -0.00046401173588175631 -0.033725259047809208 0 -0.00028028229983073221 -0.034313391030752101 0 -0.00057160692261513783 -0.033485927448051928 0 -1.3151716337305092e-07 -0.034998512611389705 0 -0.00046401173588175631 -0.033725259047809208 0 -0.00028028229983073221 -0.034313391030752101 0 -1.3151716337305092e-07 -0.034998512611389705 0 -0.00028028229983073221 -0.034313391030752101 0 -2.3356962493138785e-07 -0.034999278489291345 0 -0.00028028229983073221 -0.034313391030752101 0 -2.3356962493138785e-07 -0.034999278489291345 0 -0.00035544011571382096 -0.034222898717751193 0 -1.2146438217592024e-07 -0.034999159430033226 0 -2.3356962493138785e-07 -0.034999278489291345 0 -0.00035544011571382096 -0.034222898717751193 0 -0.00028028229983073221 -0.034313391030752101 0 -0.00035544011571382096 -0.034222898717751193 0 -0.00057160692261513783 -0.033485927448051928 0 -0.00060447600033410054 -0.033167454739291745 0 -0.00035544011571382096 -0.034222898717751193 0 -0.00057160692261513783 -0.033485927448051928 0 -0.00060447600033410054 -0.033167454739291745 0 -0.0005391352739208278 -0.032630869434756501 0 -0.00057160692261513783 -0.033485927448051928 0 -0.0005391352739208278 -0.032630869434756501 0 -0.00061632133116158001 -0.033178827453207223 0 -0.00057160692261513783 -0.033485927448051928 0 0.00054680865957439106 -0.021372309058676833 0 0.0002927227303414043 -0.021082344466175715 0 0.00052361869765255476 -0.020737744693470152 0 0.00054680865957439106 -0.021372309058676833 0 0.0002927227303414043 -0.021082344466175715 0 0.00035733100906822052 -0.021669809292771111 0 0.0002927227303414043 -0.021082344466175715 0 5.591514464711267e-05 -0.021320560603961359 0 0.00035733100906822052 -0.021669809292771111 0 5.591514464711267e-05 -0.021320560603961359 0 5.424999029956507e-05 -0.021877698598158302 0 0.00035733100906822052 -0.021669809292771111 0 5.591514464711267e-05 -0.021320560603961359 0 2.0307745783345704e-05 -0.020630261458956307 0 -0.00016522930365796585 -0.021013351917103386 0 0.0002927227303414043 -0.021082344466175715 0 5.591514464711267e-05 -0.021320560603961359 0 2.0307745783345704e-05 -0.020630261458956307 0 0.0002927227303414043 -0.021082344466175715 0 2.0307745783345704e-05 -0.020630261458956307 0 0.00023847841879666838 -0.020460947070415812 0 0.0002927227303414043 -0.021082344466175715 0 0.00023847841879666838 -0.020460947070415812 0 0.00052361869765255476 -0.020737744693470152 0 0.00023847841879666838 -0.020460947070415812 0 0.00039185388116179187 -0.019945796341043279 0 0.00052361869765255476 -0.020737744693470152 0 0.00023847841879666838 -0.020460947070415812 0 6.7145242078867391e-05 -0.019652179140223158 0 0.00039185388116179187 -0.019945796341043279 0 2.0307745783345704e-05 -0.020630261458956307 0 0.00023847841879666838 -0.020460947070415812 0 6.7145242078867391e-05 -0.019652179140223158 0 6.7145242078867391e-05 -0.019652179140223158 0 -1.2951998538368282e-06 -0.018248576890587405 0 0.000202663936136808 -0.018541984992128571 0 6.7145242078867391e-05 -0.019652179140223158 0 -1.2951998538368282e-06 -0.018248576890587405 0 -0.00013732536257973017 -0.020090601851916242 0 -1.2951998538368282e-06 -0.018248576890587405 0 -0.00013732536257973017 -0.020090601851916242 0 -7.8131926830495381e-08 -0.020338752277119645 0 2.0307745783345704e-05 -0.020630261458956307 0 -0.00013732536257973017 -0.020090601851916242 0 -0.00016522930365796585 -0.021013351917103386 0 2.0307745783345704e-05 -0.020630261458956307 0 6.7145242078867391e-05 -0.019652179140223158 0 -0.00013732536257973017 -0.020090601851916242 0 -0.00026694891427361475 -0.021240335669742975 0 -0.00022537258088459658 -0.021423703699593757 0 -0.00016522930365796585 -0.021013351917103386 0 -0.00013732536257973017 -0.020090601851916242 0 -0.00026694891427361475 -0.021240335669742975 0 -0.00016522930365796585 -0.021013351917103386 0 -0.00013732536257973017 -0.020090601851916242 0 -7.8131926830495381e-08 -0.020338752277119645 0 -0.00026694891427361475 -0.021240335669742975 0 -7.8131926830495381e-08 -0.020338752277119645 0 -0.00026694891427361475 -0.021240335669742975 0 -1.3129039903235897e-06 -0.022429129511518136 0 -0.00022537258088459658 -0.021423703699593757 0 -0.00018936311595427996 -0.021861813791509952 0 -0.00033885837213897538 -0.02170677821793043 0 -0.00022537258088459658 -0.021423703699593757 0 -0.00010761592045495196 -0.021494638824256004 0 -0.00018936311595427996 -0.021861813791509952 0 -0.00026694891427361475 -0.021240335669742975 0 -0.00022537258088459658 -0.021423703699593757 0 -0.00033885837213897538 -0.02170677821793043 0 5.591514464711267e-05 -0.021320560603961359 0 -0.00016522930365796585 -0.021013351917103386 0 -0.00010761592045495196 -0.021494638824256004 0 -0.00022537258088459658 -0.021423703699593757 0 -0.00016522930365796585 -0.021013351917103386 0 -0.00010761592045495196 -0.021494638824256004 0 -0.00010761592045495196 -0.021494638824256004 0 -0.00018936311595427996 -0.021861813791509952 0 5.424999029956507e-05 -0.021877698598158302 0 5.591514464711267e-05 -0.021320560603961359 0 -0.00010761592045495196 -0.021494638824256004 0 5.424999029956507e-05 -0.021877698598158302 0 -0.00018936311595427996 -0.021861813791509952 0 -0.00031278050769005723 -0.021975908609624371 0 -0.00033885837213897538 -0.02170677821793043 0 -0.00031278050769005723 -0.021975908609624371 0 -0.00038396308252069467 -0.02213999079633187 0 -0.0003286229710976033 -0.021942602714447791 0 -0.00018936311595427996 -0.021861813791509952 0 -0.00031278050769005723 -0.021975908609624371 0 -0.00027893265748493864 -0.0223976682261753 0 -0.00031278050769005723 -0.021975908609624371 0 -0.00038396308252069467 -0.02213999079633187 0 -0.00027893265748493864 -0.0223976682261753 0 -0.00038396308252069467 -0.02213999079633187 0 -0.00048810071772408654 -0.022651858963045016 0 -0.00027893265748493864 -0.0223976682261753 0 -0.00038396308252069467 -0.02213999079633187 0 -0.0003286229710976033 -0.021942602714447791 0 -0.00063274743680307517 -0.022058538709051143 0 -0.00038396308252069467 -0.02213999079633187 0 -0.00063274743680307517 -0.022058538709051143 0 -0.00048810071772408654 -0.022651858963045016 0 -0.0003286229710976033 -0.021942602714447791 0 0.00013671031047025656 -0.022225844441096532 0 -0.00063274743680307517 -0.022058538709051143 0 -0.0003286229710976033 -0.021942602714447791 0 -0.00033885837213897538 -0.02170677821793043 0 -0.00029770213556803234 -0.02220074409895631 0 -0.00031278050769005723 -0.021975908609624371 0 -0.0003286229710976033 -0.021942602714447791 0 -0.00033885837213897538 -0.02170677821793043 0 -0.00026694891427361475 -0.021240335669742975 0 -0.00033885837213897538 -0.02170677821793043 0 -0.00029770213556803234 -0.02220074409895631 0 -0.00026694891427361475 -0.021240335669742975 0 -0.00029770213556803234 -0.02220074409895631 0 -1.3129039903235897e-06 -0.022429129511518136 0 -0.00029770213556803234 -0.02220074409895631 0 -1.3129039903235897e-06 -0.022429129511518136 0 1.5510102162986766e-06 -0.024515440984549091 0 -0.00029770213556803234 -0.02220074409895631 0 0.00013671031047025656 -0.022225844441096532 0 1.5510102162986766e-06 -0.024515440984549091 0 -0.0003286229710976033 -0.021942602714447791 0 -0.00029770213556803234 -0.02220074409895631 0 0.00013671031047025656 -0.022225844441096532 0 0.0012983906731472246 -0.028394614222125976 0 0.00038735606192226229 -0.027681520241075203 0 0.001230530675070487 -0.028557299771486827 0 0.0005554128933152097 -0.025289499763437032 0 3.6121660155846746e-07 -0.024519572111934413 0 0.0012983906731472246 -0.028394614222125976 0 3.9836810454720043e-06 -0.024523482647344698 0 0.00038735606192226229 -0.027681520241075203 0 3.9836810454720043e-06 -0.024523482647344698 0 -9.2587192205789566e-07 -0.026245793819971917 0 0.00038735606192226229 -0.027681520241075203 0 0.00041080177475293002 -0.029101001230038104 0 0.001230530675070487 -0.028557299771486827 0 0.00088116449977415688 -0.029989677357615471 0 0.00041080177475293002 -0.029101001230038104 0 0.00038735606192226229 -0.027681520241075203 0 0.001230530675070487 -0.028557299771486827 0 0.0012983906731472246 -0.028394614222125976 0 0.001230530675070487 -0.028557299771486827 0 -0.00018860026453423984 -0.02696136042850809 0 0.0005554128933152097 -0.025289499763437032 0 -0.00034568973945540656 -0.024470768218326378 0 0.0012563415136315674 -0.028596062250745836 0 0.0011494841070034331 -0.028288076255087849 0 0.001230530675070487 -0.028557299771486827 0 -0.00018860026453423984 -0.02696136042850809 0 0.00077926132654153812 -0.025593549002323898 0 0.0006262046995396597 -0.031062937828294033 0 0.00088116449977415688 -0.029989677357615471 0 0.001701039416256368 -0.031004881503647084 0 0.001230530675070487 -0.028557299771486827 0 0.00088116449977415688 -0.029989677357615471 0 0.001701039416256368 -0.031004881503647084 0 0.0010083640501596489 -0.031733244935284004 0 0.001701039416256368 -0.031004881503647084 0 0.0015448759907860077 -0.032241632048225499 0 0.0006262046995396597 -0.031062937828294033 0 0.0010083640501596489 -0.031733244935284004 0 0.001701039416256368 -0.031004881503647084 0 -0.00018860026453423984 -0.02696136042850809 0 0.00077926132654153812 -0.025593549002323898 0 -0.00091455806156792447 -0.023537283366096992 0 0.00077926132654153812 -0.025593549002323898 0 -0.00091455806156792447 -0.023537283366096992 0 -0.00070654096739933444 -0.023234322575202776 0 0.0011494841070034331 -0.028288076255087849 0 0.00054387965206324274 -0.028025489077020595 0 -0.00034568973945540656 -0.024470768218326378 0 -0.00084929453485783348 -0.023588812824333581 0 -0.00070654096739933444 -0.023234322575202776 0 -0.00080627712028924449 -0.023962566107357499 0 -0.00077267730255197624 -0.023494987305257415 0 -0.00091455806156792447 -0.023537283366096992 0 -0.00070654096739933444 -0.023234322575202776 0 -0.00077267730255197624 -0.023494987305257415 0 0.00068873396089644528 -0.032318073340445751 0 0.0015448759907860077 -0.032241632048225499 0 0.0010467004803038744 -0.032682902959701297 0 0.00068873396089644528 -0.032318073340445751 0 0.0010083640501596489 -0.031733244935284004 0 0.0015448759907860077 -0.032241632048225499 0 0.00047863367450869869 -0.033016794898616024 0 0.0010467004803038744 -0.032682902959701297 0 0.00149486799671809 -0.033121482947645921 0 0.0015448759907860077 -0.032241632048225499 0 0.0010467004803038744 -0.032682902959701297 0 0.00149486799671809 -0.033121482947645921 0 0.00011329206473555451 -0.031620469463123961 0 -0.00063274821264842733 -0.0281168469299506 0 -0.00082255088616214065 -0.029454194991972587 0 -0.0011218703619919619 -0.028136927066604586 0 -0.00087915713457449368 -0.028272000563146268 0 -0.0011218703619919619 -0.028136927066604586 0 -0.0010922710890265341 -0.027201106903003668 0 -0.00087915713457449368 -0.028272000563146268 0 -0.0014464755182892236 -0.024746562780427889 0 -0.0008062