<?xml version="1.0"?>
<VTKFile type="UnstructuredGrid" version="0.1" byte_order="LittleEndian">
<UnstructuredGrid>
<Piece NumberOfPoints="30471" NumberOfCells="10680">
<Points>
<DataArray type="Float64" NumberOfComponents="3" format="ascii">
-0.5 -0.5 0 -0.47710714575615482 -0.47475601578167598 0 -0.4656607186342383 -0.49999999999999423 0 -0.5 -0.5 0 -0.48855357287807349 -0.44951203156335889 0 -0.49999999999999573 -0.42426804734504331 0 -0.5 -0.5 0 -0.47710714575615482 -0.47475601578167598 0 -0.48855357287807349 -0.44951203156335889 0 -0.47710714575615482 -0.47475601578167598 0 -0.4656607186342383 -0.49999999999999423 0 -0.47710714575615482 -0.47475601578167598 0 -0.4656607186342383 -0.49999999999999423 0 -0.45543861599526031 -0.48014789325282609 0 -0.4656607186342383 -0.49999999999999423 0 -0.45543861599526031 -0.48014789325282609 0 -0.44521651335629642 -0.5 0 -0.47710714575615482 -0.47475601578167598 0 -0.45543861599526031 -0.48014789325282609 0 -0.46248979692666892 -0.45945841935021892 0 -0.45543861599526031 -0.48014789325282609 0 -0.44168139525757649 -0.4581864096763385 0 -0.43499441071732531 -0.48217871034048793 0 -0.45543861599526031 -0.48014789325282609 0 -0.44521651335629642 -0.5 0 -0.43499441071732531 -0.48217871034048793 0 -0.44168139525757649 -0.4581864096763385 0 -0.4599305010059393 -0.4362861175827687 0 -0.42782158748267662 -0.43388404806295178 0 -0.45543861599526031 -0.48014789325282609 0 -0.44168139525757649 -0.4581864096763385 0 -0.46248979692666892 -0.45945841935021892 0 -0.44168139525757649 -0.4581864096763385 0 -0.46248979692666892 -0.45945841935021892 0 -0.4599305010059393 -0.4362861175827687 0 -0.46248979692666892 -0.45945841935021892 0 -0.48855357287807349 -0.44951203156335889 0 -0.4599305010059393 -0.4362861175827687 0 -0.48855357287807349 -0.44951203156335889 0 -0.48045580153478279 -0.42968989070580832 0 -0.4599305010059393 -0.4362861175827687 0 -0.47710714575615482 -0.47475601578167598 0 -0.48855357287807349 -0.44951203156335889 0 -0.47710714575615482 -0.47475601578167598 0 -0.46248979692666892 -0.45945841935021892 0 -0.48855357287807349 -0.44951203156335889 0 -0.48855357287807349 -0.44951203156335889 0 -0.49999999999999573 -0.42426804734504331 0 -0.48045580153478279 -0.42968989070580832 0 -0.48855357287807349 -0.44951203156335889 0 -0.49999999999999573 -0.42426804734504331 0 -0.49999999999999573 -0.42426804734504331 0 -0.47475379064739398 -0.40958027036506373 0 -0.5 -0.39960341120183068 0 -0.49999999999999573 -0.42426804734504331 0 -0.47475379064739398 -0.40958027036506373 0 -0.48045580153478279 -0.42968989070580832 0 -0.47475379064739398 -0.40958027036506373 0 -0.48045580153478279 -0.42968989070580832 0 -0.4599305010059393 -0.4362861175827687 0 -0.5 -0.39960341120183068 0 -0.4795643867672098 -0.38615165328536388 0 -0.5 -0.37493877505861811 0 -0.4795643867672098 -0.38615165328536388 0 -0.5 -0.37493877505861811 0 -0.47970342761934798 -0.36536877556865471 0 -0.47475379064739398 -0.40958027036506373 0 -0.5 -0.39960341120183068 0 -0.4795643867672098 -0.38615165328536388 0 -0.47475379064739398 -0.40958027036506373 0 -0.4795643867672098 -0.38615165328536388 0 -0.45944996743114591 -0.3940481773290499 0 -0.4795643867672098 -0.38615165328536388 0 -0.46367845029430083 -0.3758899745799143 0 -0.47970342761934798 -0.36536877556865471 0 -0.4795643867672098 -0.38615165328536388 0 -0.46367845029430083 -0.3758899745799143 0 -0.45944996743114591 -0.3940481773290499 0 -0.46367845029430083 -0.3758899745799143 0 -0.45944996743114591 -0.3940481773290499 0 -0.4487854225861832 -0.3816123824839634 0 -0.46367845029430083 -0.3758899745799143 0 -0.4487854225861832 -0.3816123824839634 0 -0.44952958524077169 -0.36846310266208943 0 -0.47475379064739398 -0.40958027036506373 0 -0.45944996743114591 -0.3940481773290499 0 -0.44618877247884298 -0.41322132991262223 0 -0.45944996743114591 -0.3940481773290499 0 -0.4382348202842492 -0.3949357122295431 0 -0.44618877247884298 -0.41322132991262223 0 -0.45944996743114591 -0.3940481773290499 0 -0.4382348202842492 -0.3949357122295431 0 -0.4487854225861832 -0.3816123824839634 0 -0.4382348202842492 -0.3949357122295431 0 -0.4487854225861832 -0.3816123824839634 0 -0.4364350051439454 -0.37659223277027032 0 -0.4487854225861832 -0.3816123824839634 0 -0.4364350051439454 -0.37659223277027032 0 -0.44952958524077169 -0.36846310266208943 0 -0.4599305010059393 -0.4362861175827687 0 -0.44618877247884298 -0.41322132991262223 0 -0.42782158748267662 -0.43388404806295178 0 -0.47475379064739398 -0.40958027036506373 0 -0.4599305010059393 -0.4362861175827687 0 -0.44618877247884298 -0.41322132991262223 0 -0.44618877247884298 -0.41322132991262223 0 -0.42782158748267662 -0.43388404806295178 0 -0.41748094860389351 -0.41095884084689832 0 -0.4382348202842492 -0.3949357122295431 0 -0.44618877247884298 -0.41322132991262223 0 -0.41748094860389351 -0.41095884084689832 0 -0.42782158748267662 -0.43388404806295178 0 -0.41748094860389351 -0.41095884084689832 0 -0.3966635671319384 -0.44211900874647408 0 -0.42190421088594637 -0.38668092524862407 0 -0.4364350051439454 -0.37659223277027032 0 -0.4233305611288673 -0.36994935440575749 0 -0.4382348202842492 -0.3949357122295431 0 -0.42190421088594637 -0.38668092524862407 0 -0.4364350051439454 -0.37659223277027032 0 -0.4382348202842492 -0.3949357122295431 0 -0.41748094860389351 -0.41095884084689832 0 -0.42190421088594637 -0.38668092524862407 0 -0.41748094860389351 -0.41095884084689832 0 -0.42190421088594637 -0.38668092524862407 0 -0.40668073543537381 -0.39554763944923649 0 -0.42190421088594637 -0.38668092524862407 0 -0.40668073543537381 -0.39554763944923649 0 -0.41003978032478122 -0.37810586789402661 0 -0.42190421088594637 -0.38668092524862407 0 -0.41003978032478122 -0.37810586789402661 0 -0.4233305611288673 -0.36994935440575749 0 -0.41003978032478122 -0.37810586789402661 0 -0.38899903146346471 -0.38423801749294528 0 -0.39880654296711909 -0.36851387409748781 0 -0.40668073543537381 -0.39554763944923649 0 -0.41003978032478122 -0.37810586789402661 0 -0.38899903146346471 -0.38423801749294528 0 -0.38899903146346471 -0.38423801749294528 0 -0.39283129929770161 -0.41317851311970971 0 -0.40668073543537381 -0.39554763944923649 0 -0.38899903146346471 -0.38423801749294528 0 -0.39283129929770161 -0.41317851311970971 0 -0.38899903146346471 -0.38423801749294528 0 -0.39283129929770161 -0.41317851311970971 0 -0.3651581852374195 -0.40480621420331792 0 -0.38899903146346471 -0.38423801749294528 0 -0.3738892760449905 -0.36844461230234338 0 -0.36626203606495528 -0.38179973831237279 0 -0.39283129929770161 -0.41317851311970971 0 -0.3966635671319384 -0.44211900874647408 0 -0.41748094860389351 -0.41095884084689832 0 -0.39283129929770161 -0.41317851311970971 0 -0.3966635671319384 -0.44211900874647408 0 -0.41748094860389351 -0.41095884084689832 0 -0.40668073543537381 -0.39554763944923649 0 -0.39283129929770161 -0.41317851311970971 0 -0.39283129929770161 -0.41317851311970971 0 -0.37447794905648568 -0.43300714366587539 0 -0.3651581852374195 -0.40480621420331792 0 -0.39283129929770161 -0.41317851311970971 0 -0.3966635671319384 -0.44211900874647408 0 -0.37447794905648568 -0.43300714366587539 0 -0.3966635671319384 -0.44211900874647408 0 -0.38037559506231822 -0.45380145660997673 0 -0.37447794905648568 -0.43300714366587539 0 -0.3966635671319384 -0.44211900874647408 0 -0.38037559506231822 -0.45380145660997673 0 -0.40049583496617519 -0.47105950437323851 0 -0.3966635671319384 -0.44211900874647408 0 -0.40049583496617519 -0.47105950437323851 0 -0.3966635671319384 -0.44211900874647408 0 -0.40049583496617519 -0.47105950437323851 0 -0.41868515049096883 -0.45951816642578469 0 -0.38037559506231822 -0.45380145660997673 0 -0.40049583496617519 -0.47105950437323851 0 -0.37109339097970551 -0.47183814066354279 0 -0.38794778498020938 -0.48700460910628701 0 -0.40049583496617519 -0.47105950437323851 0 -0.37109339097970551 -0.47183814066354279 0 -0.38794778498020938 -0.48700460910628701 0 -0.37669569715867768 -0.5 0 -0.40432810280041243 -0.50000000000000289 0 -0.38794778498020938 -0.48700460910628701 0 -0.37669569715867768 -0.5 0 -0.36476681620186879 -0.49124523158891398 0 -0.38794778498020938 -0.48700460910628701 0 -0.40432810280041243 -0.50000000000000289 0 -0.40049583496617519 -0.47105950437323851 0 -0.40432810280041243 -0.50000000000000289 0 -0.40049583496617519 -0.47105950437323851 0 -0.40049583496617519 -0.47105950437323851 0 -0.41605374541885759 -0.48294303175523529 0 -0.41868515049096883 -0.45951816642578469 0 -0.40432810280041243 -0.50000000000000289 0 -0.40049583496617519 -0.47105950437323851 0 -0.41605374541885759 -0.48294303175523529 0 -0.40432810280041243 -0.50000000000000289 0 -0.41605374541885759 -0.48294303175523529 0 -0.42477230807835442 -0.5 0 -0.41605374541885759 -0.48294303175523529 0 -0.42477230807835442 -0.5 0 -0.43499441071732531 -0.48217871034048793 0 -0.44521651335629642 -0.5 0 -0.42477230807835442 -0.5 0 -0.43499441071732531 -0.48217871034048793 0 -0.41605374541885759 -0.48294303175523529 0 -0.43499441071732531 -0.48217871034048793 0 -0.41868515049096883 -0.45951816642578469 0 -0.44168139525757649 -0.4581864096763385 0 -0.43499441071732531 -0.48217871034048793 0 -0.41868515049096883 -0.45951816642578469 0 -0.44168139525757649 -0.4581864096763385 0 -0.42782158748267662 -0.43388404806295178 0 -0.41868515049096883 -0.45951816642578469 0 -0.42782158748267662 -0.43388404806295178 0 -0.3966635671319384 -0.44211900874647408 0 -0.41868515049096883 -0.45951816642578469 0 -0.44144573889681982 -0.25402770002028169 0 -0.45189938063717511 -0.26200832376235977 0 -0.4581530983886718 -0.2480328079409195 0 -0.44144573889681982 -0.25402770002028169 0 -0.45189938063717511 -0.26200832376235977 0 -0.43563502470413101 -0.2672929848723295 0 -0.45189938063717511 -0.26200832376235977 0 -0.45087534402505181 -0.27756585873405432 0 -0.43563502470413101 -0.2672929848723295 0 -0.45087534402505181 -0.27756585873405432 0 -0.43721728060211401 -0.28748531825848 0 -0.43563502470413101 -0.2672929848723295 0 -0.45087534402505181 -0.277565
[...]
<PointData Scalars="" Vectors="displacement," Tensors="">
<DataArray type="Float64" Name="displacement" NumberOfComponents="3" format="ascii">
-0.034996934980639764 -9.6733543031102396e-07 0 -0.034666529257062415 2.1306521915179161e-05 0 -0.032601278329619843 1.4598655047781148e-06 0 -0.034996934980639764 -9.6733543031102396e-07 0 -0.034929361617587168 -2.0797034088410045e-06 0 -0.035001060868838078 4.7354686024864916e-07 0 -0.034996934980639764 -9.6733543031102396e-07 0 -0.034666529257062415 2.1306521915179161e-05 0 -0.034929361617587168 -2.0797034088410045e-06 0 -0.033453727136283161 -0.00018753895482016985 0 -0.032596655125530755 -1.054066572965998e-07 0 -0.032157560345257422 -0.00035003852321937944 0 -0.032592905181955394 -3.1404773934029966e-07 0 -0.031857207735490015 -0.00020116610844835936 0 -0.032592905181955394 -3.1404773934029966e-07 0 -0.031857207735490015 -0.00020116610844835936 0 -0.031166368579670971 -1.888752114321241e-07 0 -0.032157560345257422 -0.00035003852321937944 0 -0.031857207735490015 -0.00020116610844835936 0 -0.032642302939968573 -0.00013963818380042419 0 -0.031857207735490015 -0.00020116610844835936 0 -0.032456649740218488 0.00010625904984575284 0 -0.031151282698862359 -3.5373770317509888e-05 0 -0.031857207735490015 -0.00020116610844835936 0 -0.031166368579670971 -1.888752114321241e-07 0 -0.031151282698862359 -3.5373770317509888e-05 0 -0.032456649740218488 0.00010625904984575284 0 -0.033599099587299876 8.7360031126695382e-06 0 -0.033339590140834777 0.00052803513007987476 0 -0.031857207735490015 -0.00020116610844835936 0 -0.032456649740218488 0.00010625904984575284 0 -0.032642302939968573 -0.00013963818380042419 0 -0.032456649740218488 0.00010625904984575284 0 -0.032642302939968573 -0.00013963818380042419 0 -0.033599099587299876 8.7360031126695382e-06 0 -0.032642302939968573 -0.00013963818380042419 0 -0.033374000486608074 -0.00057631012072563805 0 -0.033599099587299876 8.7360031126695382e-06 0 -0.033374000486608074 -0.00057631012072563805 0 -0.034215741109015749 -0.00016646287296357248 0 -0.033599099587299876 8.7360031126695382e-06 0 -0.033453727136283161 -0.00018753895482016985 0 -0.034114935287661734 -0.00023432367583101947 0 -0.032157560345257422 -0.00035003852321937944 0 -0.032642302939968573 -0.00013963818380042419 0 -0.033374000486608074 -0.00057631012072563805 0 -0.033374000486608074 -0.00057631012072563805 0 -0.034997501282624355 -1.8221168273638308e-06 0 -0.034215741109015749 -0.00016646287296357248 0 -0.034114935287661734 -0.00023432367583101947 0 -0.034999611643131728 -8.9795789610854692e-08 0 -0.034997501282624355 -1.8221168273638308e-06 0 -0.034525345497112274 -9.2934988483400982e-05 0 -0.035000138978141179 3.7790771126171823e-07 0 -0.034997501282624355 -1.8221168273638308e-06 0 -0.034525345497112274 -9.2934988483400982e-05 0 -0.034215741109015749 -0.00016646287296357248 0 -0.034525345497112274 -9.2934988483400982e-05 0 -0.034215741109015749 -0.00016646287296357248 0 -0.033599099587299876 8.7360031126695382e-06 0 -0.035000138978141179 3.7790771126171823e-07 0 -0.03478535211086789 -1.5183875306580462e-05 0 -0.034999614966444617 -1.2050831261594389e-07 0 -0.03478535211086789 -1.5183875306580462e-05 0 -0.034999614966444617 -1.2050831261594389e-07 0 -0.034803615646587613 5.0813997564852896e-05 0 -0.034525345497112274 -9.2934988483400982e-05 0 -0.035000138978141179 3.7790771126171823e-07 0 -0.03478535211086789 -1.5183875306580462e-05 0 -0.034525345497112274 -9.2934988483400982e-05 0 -0.03478535211086789 -1.5183875306580462e-05 0 -0.03454456958333349 8.4108507905572785e-05 0 -0.03478535211086789 -1.5183875306580462e-05 0 -0.034713270116633131 5.8509187020659842e-05 0 -0.034803615646587613 5.0813997564852896e-05 0 -0.03478535211086789 -1.5183875306580462e-05 0 -0.034713270116633131 5.8509187020659842e-05 0 -0.03454456958333349 8.4108507905572785e-05 0 -0.034713270116633131 5.8509187020659842e-05 0 -0.03454456958333349 8.4108507905572785e-05 0 -0.0346025333439084 0.00021412301006462839 0 -0.034713270116633131 5.8509187020659842e-05 0 -0.0346025333439084 0.00021412301006462839 0 -0.034700198190982134 0.00017931794483990712 0 -0.034525345497112274 -9.2934988483400982e-05 0 -0.03454456958333349 8.4108507905572785e-05 0 -0.034078992094407547 0.00024807145032304067 0 -0.03454456958333349 8.4108507905572785e-05 0 -0.034376913710129832 0.00038931468903522702 0 -0.034078992094407547 0.00024807145032304067 0 -0.03454456958333349 8.4108507905572785e-05 0 -0.034376913710129832 0.00038931468903522702 0 -0.0346025333439084 0.00021412301006462839 0 -0.034376913710129832 0.00038931468903522702 0 -0.0346025333439084 0.00021412301006462839 0 -0.034621060473937697 0.00040153014215226933 0 -0.0346025333439084 0.00021412301006462839 0 -0.034621060473937697 0.00040153014215226933 0 -0.034700198190982134 0.00017931794483990712 0 -0.033599099587299876 8.7360031126695382e-06 0 -0.034078992094407547 0.00024807145032304067 0 -0.033339590140834777 0.00052803513007987476 0 -0.034525345497112274 -9.2934988483400982e-05 0 -0.033599099587299876 8.7360031126695382e-06 0 -0.034078992094407547 0.00024807145032304067 0 -0.034078992094407547 0.00024807145032304067 0 -0.033339590140834777 0.00052803513007987476 0 -0.033971118858305512 0.00080327668264183456 0 -0.034376913710129832 0.00038931468903522702 0 -0.034078992094407547 0.00024807145032304067 0 -0.033971118858305512 0.00080327668264183456 0 -0.033339590140834777 0.00052803513007987476 0 -0.033971118858305512 0.00080327668264183456 0 -0.032966798532762388 0.0015193666327287605 0 -0.034447813651717347 0.0006862242466256339 0 -0.034621060473937697 0.00040153014215226933 0 -0.034705771245566508 0.00064182438079889072 0 -0.034376913710129832 0.00038931468903522702 0 -0.034447813651717347 0.0006862242466256339 0 -0.034621060473937697 0.00040153014215226933 0 -0.034376913710129832 0.00038931468903522702 0 -0.033971118858305512 0.00080327668264183456 0 -0.034447813651717347 0.0006862242466256339 0 -0.033971118858305512 0.00080327668264183456 0 -0.034447813651717347 0.0006862242466256339 0 -0.034250925442431412 0.0010168383991072422 0 -0.034447813651717347 0.0006862242466256339 0 -0.034250925442431412 0.0010168383991072422 0 -0.034562438453957671 0.00090942208509552699 0 -0.034447813651717347 0.0006862242466256339 0 -0.034562438453957671 0.00090942208509552699 0 -0.034705771245566508 0.00064182438079889072 0 -0.034562438453957671 0.00090942208509552699 0 -0.03442981807727747 0.0013095867163727109 0 -0.03470484280823273 0.0010991530230723265 0 -0.034250925442431412 0.0010168383991072422 0 -0.034562438453957671 0.00090942208509552699 0 -0.03442981807727747 0.0013095867163727109 0 -0.030049873781154042 -0.00015257769287269532 0 -0.029119734527087295 7.6432288482736047e-05 0 -0.034250925442431412 0.0010168383991072422 0 -0.03442981807727747 0.0013095867163727109 0 -0.033832042273681188 0.0014293228828479792 0 -0.025403561406250785 -0.0018853706515922018 0 -0.024398365852448207 -0.0012552078111595546 0 -0.024576219831857826 -0.00086657326974492457 0 -0.025403561406250785 -0.0018853706515922018 0 -0.026392863788984332 -0.0014596537176719466 0 -0.025520434794428112 -0.0010447867558949222 0 -0.029119734527087295 7.6432288482736047e-05 0 -0.02858130984642588 0.00058803586613316616 0 -0.033971118858305512 0.00080327668264183456 0 -0.033832042273681188 0.0014293228828479792 0 -0.032966798532762388 0.0015193666327287605 0 -0.033971118858305512 0.00080327668264183456 0 -0.034250925442431412 0.0010168383991072422 0 -0.033832042273681188 0.0014293228828479792 0 -0.024398365852448207 -0.0012552078111595546 0 -0.024064355066471949 -0.00071581526038800268 0 -0.024576219831857826 -0.00086657326974492457 0 -0.024398365852448207 -0.0012552078111595546 0 -0.02412175801524967 -0.00036998284021315061 0 -0.024064355066471949 -0.00071581526038800268 0 -0.02412175801524967 -0.00036998284021315061 0 -0.024272662765645287 -0.00041195975910708453 0 -0.024064355066471949 -0.00071581526038800268 0 -0.02412175801524967 -0.00036998284021315061 0 -0.024272662765645287 -0.00041195975910708453 0 -0.025073662663041112 0.00045816222357449499 0 -0.02858130984642588 0.00058803586613316616 0 -0.02828980310724212 0.00088613542889304535 0 -0.032966798532762388 0.0015193666327287605 0 -0.031444684673284769 0.0015244009739622609 0 -0.032178880454890695 0.00062243314480158601 0 -0.024272662765645287 -0.00041195975910708453 0 -0.025073662663041112 0.00045816222357449499 0 -0.024737950606602988 -0.00044124221563930985 0 -0.026233988672455154 -9.3634849350315264e-05 0 -0.025073662663041112 0.00045816222357449499 0 -0.024737950606602988 -0.00044124221563930985 0 -0.026233988672455154 -9.3634849350315264e-05 0 -0.026368683254890744 -1.3335777843737005e-06 0 -0.028299225352640452 2.6049664322296635e-06 0 -0.026233988672455154 -9.3634849350315264e-05 0 -0.026368683254890744 -1.3335777843737005e-06 0 -0.025275477241525034 -0.00020445616000722199 0 -0.026233988672455154 -9.3634849350315264e-05 0 -0.028299225352640452 2.6049664322296635e-06 0 -0.025073662663041112 0.00045816222357449499 0 -0.028302954623968056 4.1357002276199676e-07 0 -0.02828980310724212 0.00088613542889304535 0 -0.031444684673284769 0.0015244009739622609 0 -0.030492624430307317 0.00028314554787753533 0 -0.032178880454890695 0.00062243314480158601 0 -0.028306668717830816 3.330009917868962e-06 0 -0.031444684673284769 0.0015244009739622609 0 -0.030492624430307317 0.00028314554787753533 0 -0.028306668717830816 3.330009917868962e-06 0 -0.030492624430307317 0.00028314554787753533 0 -0.029733672473435474 -8.0365929456677692e-07 0 -0.030492624430307317 0.00028314554787753533 0 -0.029733672473435474 -8.0365929456677692e-07 0 -0.031151282698862359 -3.5373770317509888e-05 0 -0.031166368579670971 -1.888752114321241e-07 0 -0.029733672473435474 -8.0365929456677692e-07 0 -0.031151282698862359 -3.5373770317509888e-05 0 -0.030492624430307317 0.00028314554787753533 0 -0.031151282698862359 -3.5373770317509888e-05 0 -0.032178880454890695 0.00062243314480158601 0 -0.032456649740218488 0.00010625904984575284 0 -0.031151282698862359 -3.5373770317509888e-05 0 -0.032178880454890695 0.00062243314480158601 0 -0.032456649740218488 0.00010625904984575284 0 -0.033339590140834777 0.00052803513007987476 0 -0.032178880454890695 0.00062243314480158601 0 -0.033339590140834777 0.00052803513007987476 0 -0.032966798532762388 0.0015193666327287605 0 -0.032178880454890695 0.00062243314480158601 0 -0.033169313005664273 -0.00045068036288706801 0 -0.033521010661023663 -0.00034073744356618739 0 -0.033603204630691184 -0.00021393402385884051 0 -0.033169313005664273 -0.00045068036288706801 0 -0.033521010661023663 -0.00034073744356618739 0 -0.033108558932898394 -0.00053529313378147239 0 -0.033521010661023663 -0.00034073744356618739 0 -0.033545195921865167 -0.00039800053756331729 0 -0.033108558932898394 -0.00053529313378147239 0 -0.033545195921865167 -0.00039800053756331729 0 -0.033186583705536711 -0.00058492509070801784 0 -0.033108558932898394 -0.00053529313378147239 0 -0.033545195921865167 -0.00039800053756331729 0 -0.033939076547631564 -0.00022365285586752729 0 -0.033979251565948693 -0.00025899700450485711 0 -0.033521010661023663 -0.00034073744356618739 0 -0.033545195921865167 -0.00039800053756331729 0 -0.033939076547631564 -0.00022365285586752729 0 -0.033521010661023663 -0.00034073744356618739 0 -0.033939076547631564 -0.00022365285586752729 0 -0.033860351016819612 -0.00019139538282725857 0 -0.033521010661023663 -0.00034073744356618739 0 -0.033860351016819612 -0.00019139538282725857 0 -0.033603204630691184 -0.00021393402385884051 0 -0.033860351016819612 -0.00019139538282725857 0 -0.033971547657953252 -9.1891088997308483e-05 0 -0.033603204630691184 -0.00021393402385884051 0 -0.033860351016819612 -0.00019139538282725857 0 -0.034282311196507473 -9.4536796420618328e-05 0 -0.033971547657953252 -9.1891088997308483e-05 0 -0.033939076547631564 -0.00022365285586752729 0 -0.033860351016819612 -0.00019139538282725857 0 -0.034282311196507473 -9.4536796420618328e-05 0 -0.034282311196507473 -9.4536796420618328e-05 0 -0.034999155655214581 -4.6814745791905264e-08 0 -0.034454796740113952 -4.8400063044701645e-05 0 -0.034282311196507473 -9.4536796420618328e-05 0 -0.034999155655214581 -4.6814745791905264e-08 0 -0.034464888350304784 -9.7177609448710785e-05 0 -0.034999155655214581 -4.6814745791905264e-08 0 -0.034464888350304784 -9.7177609448710785e-05 0 -0.03499909080050876 -8.826812871932012e-08 0 -0.033939076547631564 -0.00022365285586752729 0 -0.034464888350304784 -9.7177609448710785e-05 0 -0.033979251565948693 -0.00025899700450485711 0 -0.033939076547631564 -0.00022365285586752729 0 -0.034282311196507473 -9.4536796420618328e-05 0 -0.034464888350304784 -9.7177609448710785e-05 0 -0.034400691939014065 -0.00014570460182478196 0 -0.033908185470384433 -0.00031246186780335705 0 -0.033979251565948693 -0.00025899700450485711 0 -0.034464888350304784 -9.7177609448710785e-05 0 -0.034400691939014065 -0.00014570460182478196 0 -0.033979251565948693 -0.00025899700450485711 0 -0.034464888350304784 -9.7177609448710785e-05 0 -0.03499909080050876 -8.826812871932012e-08 0 -0.034400691939014065 -0.00014570460182478196 0 -0.03499909080050876 -8.826812871932012e-08 0 -0.034400691939014065 -0.00014570460182478196 0 -0.034999134266867502 -1.0070329949597485e-07 0 -0.033908185470384433 -0.00031246186780335705 0 -0.033446273470186541 -0.00051141940203077157 0 -0.033959657359892155 -0.00031280347563320844 0 -0.033908185470384433 -0.00031246186780335705 0 -0.033613907610987238 -0.00041249240797487961 0 -0.033446273470186541 -0.00051141940203077157 0 -0.034400691939014065 -0.00014570460182478196 0 -0.033908185470384433 -0.00031246186780335705 0 -0.033959657359892155 -0.00031280347563320844 0 -0.033545195921865167 -0.00039800053756331729 0 -0.033979251565948693 -0.00025899700450485711 0 -0.033613907610987238 -0.00041249240797487961 0 -0.033908185470384433 -0.00031246186780335705 0 -0.033979251565948693 -0.00025899700450485711 0 -0.033613907610987238 -0.00041249240797487961 0 -0.033613907610987238 -0.00041249240797487961 0 -0.033446273470186541 -0.00051141940203077157 0 -0.033186583705536711 -0.00058492509070801784 0 -0.033545195921865167 -0.00039800053756331729 0 -0.033613907610987238 -0.00041249240797487961 0 -0.033186583705536711 -0.00058492509070801784 0 -0.033446273470186541 -0.00051141940203077157 0 -0.033578251737543523 -0.00048039793614752671 0 -0.033959657359892155 -0.00031280347563320844 0 -0.033578251737543523 -0.00048039793614752671 0 -0.033543029597949442 -0.00052310932370642528 0 -0.033980862781161719 -0.00033901636562352552 0 -0.033446273470186541 -0.00051141940203077157 0 -0.033578251737543523 -0.00048039793614752671 0 -0.033112621035181596 -0.00068403778296194384 0 -0.033578251737543523 -0.00048039793614752671 0 -0.033543029597949442 -0.00052310932370642528 0 -0.033112621035181596 -0.00068403778296194384 0 -0.033543029597949442 -0.00052310932370642528 0 -0.033187114834551272 -0.00067758725111736616 0 -0.033112621035181596 -0.00068403778296194384 0 -0.033543029597949442 -0.00052310932370642528 0 -0.033980862781161719 -0.00033901636562352552 0 -0.033786846544856683 -0.00049800992566999584 0 -0.033543029597949442 -0.00052310932370642528 0 -0.033786846544856683 -0.00049800992566999584 0 -0.033187114834551272 -0.00067758725111736616 0 -0.033980862781161719 -0.00033901636562352552 0 -0.034475577128617478 -0.00018823889770172743 0 -0.033786846544856683 -0.00049800992566999584 0 -0.033980862781161719 -0.00033901636562352552 0 -0.033959657359892155 -0.00031280347563320844 0 -0.034479820763883347 -0.00013547765322637271 0 -0.033578251737543523 -0.00048039793614752671 0 -0.033980862781161719 -0.00033901636562352552 0 -0.033959657359892155 -0.00031280347563320844 0 -0.034400691939014065 -0.00014570460182478196 0 -0.033959657359892155 -0.00031280347563320844 0 -0.034479820763883347 -0.00013547765322637271 0 -0.034400691939014065 -0.00014570460182478196 0 -0.034479820763883347 -0.00013547765322637271 0 -0.034999134266867502 -1.0070329949597485e-07 0 -0.034479820763883347 -0.00013547765322637271 0 -0.034999134266867502 -1.0070329949597485e-07 0 -0.034999650620765627 -7.9269946497013046e-09 0 -0.034479820763883347 -0.00013547765322637271 0 -0.034475577128617478 -0.00018823889770172743 0 -0.034999650620765627 -7.9269946497013046e-09 0 -0.033980862781161719 -0.00033901636562352552 0 -0.034479820763883347 -0.00013547765322637271 0 -0.034475577128617478 -0.00018823889770172743 0 -0.034663052200855991 0.0001095270459101535 0 -0.034803615646587613 5.0813997564852896e-05 0 -0.034632146150280069 1.7882383118538355e-05 0 -0.03454545967624148 -4.2305691890685711e-05 0 -0.034999853400322307 4.5957881164132074e-08 0 -0.034663052200855991 0.0001095270459101535 0 -0.034999815835249568 1.5537497405529456e-07 0 -0.034803615646587613 5.0813997564852896e-05 0 -0.034999815835249568 1.5537497405529456e-07 0 -0.034999614966444617 -1.2050831261594389e-07 0 -0.034803615646587613 5.0813997564852896e-05 0 -0.034713270116633131 5.8509187020659842e-05 0 -0.034632146150280069 1.7882383118538355e-05 0 -0.034700198190982134 0.00017931794483990712 0 -0.034713270116633131 5.8509187020659842e-05 0 -0.034803615646587613 5.0813997564852896e-05 0 -0.034632146150280069 1.7882383118538355e-05 0 -0.034663052200855991 0.0001095270459101535 0 -0.034632146150280069 1.7882383118538355e-05 0 -0.03383711937601197 -0.0002806130476053135 0 -0.03454545967624148 -4.2305691890685711e-05 0 -0.03378295199381369 -0.00040032119022805106 0 -0.034586993116935374 9.1235962281044822e-05 0 -0.034272938886012946 -5.2358288195463888e-05 0 -0.034632146150280069 1.7882383118538355e-05 0 -0.03383711937601197 -0.0002806130476053135 0 -0.033738392049575315 -0.00048268410463311602 0 -0.034621060473937697 0.00040153014215226933 0 -0.034700198190982134 0.00017931794483990712 0 -0.034889779957106612 0.00037223249634396979 0 -0.034632146150280069 1.7882383118538355e-05 0 -0.034700198190982134 0.00017931794483990712 0 -0.034889779957106612 0.00037223249634396979 0 -0.034705771245566508 0.00064182438079889072 0 -0.034889779957106612 0.00037223249634396979 0 -0.034923659071067134 0.00087508277856032613 0 -0.034621060473937697 0.00040153014215226933 0 -0.034705771245566508 0.00064182438079889072 0 -0.034889779957106612 0.00037223249634396979 0 -0.03383711937601197 -0.0002806130476053135 0 -0.033738392049575315 -0.00048268410463311602 0 -0.032910850875634355 -0.00081799488568155864 0 -0.033738392049575315 -0.00048268410463311602 0 -0.032910850875634355 -0.00081799488568155864 0 -0.032893508769931988 -0.00094441442899978565 0 -0.034272938886012946 -5.2358288195463888e-05 0 -0.034258983815214694 0.00020341964023724092 0 -0.03378295199381369 -0.00040032119022805106 0 -0.033072103809012751 -0.00080037045734752477 0 -0.032893508769931988 -0.00094441442899978565 0 -0.031963993705253463 -0.0013846399102246077 0 -0.03242858904681923 -0.0010496937153413322 0 -0.032910850875634355 -0.00081799488568155864 0 -0.032893508769931988 -0.00094441442899978565 0 -0.03242858904681923 -0.0010496937153413322 0 -0.034562438453957671 0.00090942208509552699 0 -0.034923659071067134 0.00087508277856032613 0 -0.03470484280823273 0.0010991530230723265 0 -0.034562438453957671 0.00090942208509552699 0 -0.034705771245566508 0.00064182438079889072 0 -0.034923659071067134 0.00087508277856032613 0 -0.03442981807727747 0.0013095867163727109 0 -0.03470484280823273 0.0010991530230723265 0 -0.034890152569890809 0.0012993155907312357 0 -0.034923659071067134 0.00087508277856032613 0 -0.03470484280823273 0.0010991530230723265 0 -0.034890152569890809 0.0012993155907312357 0 -0.030049873781154042 -0.00015257769287269532 0 -0.03075211181915706 -0.0013091797579524512 0 -0.025403561406250785 -0.0018853706515922018 0 -0.027380491133340751 -0.0022654068599541216 0 -0.026392863788984332 -0.0014596537176719466 0 -0.027380491133340751 -0.0022654068599541216 0 -0.027601157890363163 -0.001506958501686709 0 -0.026392863788984332 -0.0014596537176719466 0 -0.03239346869099128 -0.0020