<?xml version="1.0"?>
<VTKFile type="UnstructuredGrid" version="0.1" byte_order="LittleEndian">
<UnstructuredGrid>
<Piece NumberOfPoints="30881" NumberOfCells="10862">
<Points>
<DataArray type="Float64" NumberOfComponents="3" format="ascii">
-0.49999999999999828 -0.48677703703187492 0 -0.5 -0.5 0 -0.48129281494584059 -0.49338851851593718 0 -0.5 -0.5 0 -0.48129281494584059 -0.49338851851593718 0 -0.46258562989168328 -0.5 0 -0.49999999999999828 -0.48677703703187492 0 -0.48129281494584059 -0.49338851851593718 0 -0.49999999999999828 -0.48677703703187492 0 -0.4824545428279598 -0.47451624516148783 0 -0.48129281494584059 -0.49338851851593718 0 -0.49999999999999828 -0.48677703703187492 0 -0.4824545428279598 -0.47451624516148783 0 -0.5 -0.46599539173150673 0 -0.4824545428279598 -0.47451624516148783 0 -0.46853075243710779 -0.48354990242643758 0 -0.46411508256092049 -0.46598235294430129 0 -0.4824545428279598 -0.47451624516148783 0 -0.48129281494584059 -0.49338851851593718 0 -0.46853075243710779 -0.48354990242643758 0 -0.48129281494584059 -0.49338851851593718 0 -0.46258562989168328 -0.5 0 -0.48129281494584059 -0.49338851851593718 0 -0.46258562989168328 -0.5 0 -0.46853075243710779 -0.48354990242643758 0 -0.46258562989168328 -0.5 0 -0.46853075243710779 -0.48354990242643758 0 -0.45147378687733691 -0.48362213557840178 0 -0.46853075243710779 -0.48354990242643758 0 -0.45147378687733691 -0.48362213557840178 0 -0.46411508256092049 -0.46598235294430129 0 -0.4457251648104853 -0.47020164095208389 0 -0.45147378687733691 -0.48362213557840178 0 -0.46411508256092049 -0.46598235294430129 0 -0.4457251648104853 -0.47020164095208389 0 -0.45147378687733691 -0.48362213557840178 0 -0.43513446131126993 -0.48199891714758791 0 -0.45147378687733691 -0.48362213557840178 0 -0.43275163025255442 -0.5 0 -0.43513446131126993 -0.48199891714758791 0 -0.46258562989168328 -0.5 0 -0.45147378687733691 -0.48362213557840178 0 -0.43275163025255442 -0.5 0 -0.4467190029717853 -0.45478934699519452 0 -0.4422915115958943 -0.43555510214664611 0 -0.43246707723660932 -0.44794326854796312 0 -0.4457251648104853 -0.47020164095208389 0 -0.4467190029717853 -0.45478934699519452 0 -0.46411508256092049 -0.46598235294430129 0 -0.4457251648104853 -0.47020164095208389 0 -0.4467190029717853 -0.45478934699519452 0 -0.43016578207734568 -0.46313500011938619 0 -0.4467190029717853 -0.45478934699519452 0 -0.46411508256092049 -0.46598235294430129 0 -0.47114575579794699 -0.4403844242888923 0 -0.4467190029717853 -0.45478934699519452 0 -0.47114575579794699 -0.4403844242888923 0 -0.4422915115958943 -0.43555510214664611 0 -0.47114575579794699 -0.4403844242888923 0 -0.4422915115958943 -0.43555510214664611 0 -0.46411508256092049 -0.46598235294430129 0 -0.47114575579794699 -0.4403844242888923 0 -0.48354307623736548 -0.45841843211146538 0 -0.4824545428279598 -0.47451624516148783 0 -0.46411508256092049 -0.46598235294430129 0 -0.48354307623736548 -0.45841843211146538 0 -0.4824545428279598 -0.47451624516148783 0 -0.48354307623736548 -0.45841843211146538 0 -0.5 -0.46599539173150673 0 -0.48354307623736548 -0.45841843211146538 0 -0.5 -0.46599539173150673 0 -0.49999999999999972 -0.44521374643113848 0 -0.47114575579794699 -0.4403844242888923 0 -0.49999999999999972 -0.44521374643113848 0 -0.47114575579794699 -0.4403844242888923 0 -0.49999999999999972 -0.44521374643113848 0 -0.48704432221743971 -0.42935617662229603 0 -0.47114575579794699 -0.4403844242888923 0 -0.48354307623736548 -0.45841843211146538 0 -0.49999999999999972 -0.44521374643113848 0 -0.49999999999999972 -0.44521374643113848 0 -0.48704432221743971 -0.42935617662229603 0 -0.5 -0.41591957503128979 0 -0.48704432221743971 -0.42935617662229603 0 -0.5 -0.41591957503128979 0 -0.47703153307181151 -0.41590696073786332 0 -0.5 -0.41591957503128979 0 -0.47703153307181151 -0.41590696073786332 0 -0.48817838912021821 -0.4022119694541284 0 -0.47114575579794699 -0.4403844242888923 0 -0.48704432221743971 -0.42935617662229603 0 -0.47703153307181151 -0.41590696073786332 0 -0.5 -0.38662540363144121 0 -0.47568202340906118 -0.39039593841591919 0 -0.4947615751445838 -0.37332156409002909 0 -0.47568202340906118 -0.39039593841591919 0 -0.4947615751445838 -0.37332156409002909 0 -0.5 -0.38662540363144121 0 -0.48817838912021821 -0.4022119694541284 0 -0.47568202340906118 -0.39039593841591919 0 -0.5 -0.41591957503128979 0 -0.5 -0.38662540363144121 0 -0.48817838912021821 -0.4022119694541284 0 -0.47703153307181151 -0.41590696073786332 0 -0.48817838912021821 -0.4022119694541284 0 -0.47568202340906118 -0.39039593841591919 0 -0.47703153307181151 -0.41590696073786332 0 -0.47568202340906118 -0.39039593841591919 0 -0.45660247167353862 -0.40747031274180939 0 -0.47568202340906118 -0.39039593841591919 0 -0.48030931097003587 -0.37191064435083931 0 -0.46669490250066459 -0.37481721741951951 0 -0.47568202340906118 -0.39039593841591919 0 -0.4947615751445838 -0.37332156409002909 0 -0.48030931097003587 -0.37191064435083931 0 -0.45332061783919553 -0.38729481725706361 0 -0.46669490250066459 -0.37481721741951951 0 -0.45095991715087752 -0.36968037302039969 0 -0.47568202340906118 -0.39039593841591919 0 -0.45332061783919553 -0.38729481725706361 0 -0.46669490250066459 -0.37481721741951951 0 -0.47568202340906118 -0.39039593841591919 0 -0.45660247167353862 -0.40747031274180939 0 -0.47568202340906118 -0.39039593841591919 0 -0.45332061783919553 -0.38729481725706361 0 -0.45660247167353862 -0.40747031274180939 0 -0.44332653075004852 -0.401690115615219 0 -0.44646247228389868 -0.41654464256061052 0 -0.42870657106664078 -0.39987574649354879 0 -0.45332061783919553 -0.38729481725706361 0 -0.44332653075004852 -0.401690115615219 0 -0.43479631603355468 -0.39077639303142497 0 -0.45332061783919553 -0.38729481725706361 0 -0.44332653075004852 -0.401690115615219 0 -0.45660247167353862 -0.40747031274180939 0 -0.45332061783919553 -0.38729481725706361 0 -0.43421362475025049 -0.37527491429266319 0 -0.43479631603355468 -0.39077639303142497 0 -0.45332061783919553 -0.38729481725706361 0 -0.43421362475025049 -0.37527491429266319 0 -0.45095991715087752 -0.36968037302039969 0 -0.47114575579794699 -0.4403844242888923 0 -0.45663439814062529 -0.42533932462455271 0 -0.4422915115958943 -0.43555510214664611 0 -0.47114575579794699 -0.4403844242888923 0 -0.47703153307181151 -0.41590696073786332 0 -0.45663439814062529 -0.42533932462455271 0 -0.45663439814062529 -0.42533932462455271 0 -0.45660247167353862 -0.40747031274180939 0 -0.44646247228389868 -0.41654464256061052 0 -0.47703153307181151 -0.41590696073786332 0 -0.45663439814062529 -0.42533932462455271 0 -0.45660247167353862 -0.40747031274180939 0 -0.44332653075004852 -0.401690115615219 0 -0.45660247167353862 -0.40747031274180939 0 -0.44646247228389868 -0.41654464256061052 0 -0.45660247167353862 -0.40747031274180939 0 -0.44646247228389868 -0.41654464256061052 0 -0.44646247228389868 -0.41654464256061052 0 -0.4375229199380159 -0.42454468706769971 0 -0.45663439814062529 -0.42533932462455271 0 -0.4375229199380159 -0.42454468706769971 0 -0.4422915115958943 -0.43555510214664611 0 -0.45663439814062529 -0.42533932462455271 0 -0.44646247228389868 -0.41654464256061052 0 -0.4375229199380159 -0.42454468706769971 0 -0.4375229199380159 -0.42454468706769971 0 -0.4422915115958943 -0.43555510214664611 0 -0.43077617074680319 -0.43406335077952207 0 -0.43077617074680319 -0.43406335077952207 0 -0.42550232634077589 -0.42345940056268039 0 -0.41950844772475421 -0.43888456563633732 0 -0.4375229199380159 -0.42454468706769971 0 -0.43077617074680319 -0.43406335077952207 0 -0.42550232634077589 -0.42345940056268039 0 -0.44646247228389868 -0.41654464256061052 0 -0.41657232816672918 -0.41306671883907142 0 -0.42870657106664078 -0.39987574649354879 0 -0.44646247228389868 -0.41654464256061052 0 -0.4375229199380159 -0.42454468706769971 0 -0.42550232634077589 -0.42345940056268039 0 -0.44646247228389868 -0.41654464256061052 0 -0.42550232634077589 -0.42345940056268039 0 -0.41657232816672918 -0.41306671883907142 0 -0.44646247228389868 -0.41654464256061052 0 -0.41657232816672918 -0.41306671883907142 0 -0.42550232634077589 -0.42345940056268039 0 -0.41657232816672918 -0.41306671883907142 0 -0.41333489101611293 -0.42699700567040988 0 -0.41657232816672918 -0.41306671883907142 0 -0.41333489101611293 -0.42699700567040988 0 -0.39893236021425188 -0.42931692235905211 0 -0.41333489101611293 -0.42699700567040988 0 -0.39893236021425188 -0.42931692235905211 0 -0.41950844772475421 -0.43888456563633732 0 -0.42550232634077589 -0.42345940056268039 0 -0.41333489101611293 -0.42699700567040988 0 -0.41950844772475421 -0.43888456563633732 0 -0.43421362475025049 -0.37527491429266319 0 -0.42478231784314502 -0.38643128255249681 0 -0.41656514696884139 -0.37636588688318029 0 -0.43421362475025049 -0.37527491429266319 0 -0.42478231784314502 -0.38643128255249681 0 -0.43479631603355468 -0.39077639303142497 0 -0.42478231784314502 -0.38643128255249681 0 -0.43479631603355468 -0.39077639303142497 0 -0.42870657106664078 -0.39987574649354879 0 -0.44332653075004852 -0.401690115615219 0 -0.43479631603355468 -0.39077639303142497 0 -0.42870657106664078 -0.39987574649354879 0 -0.41657232816672918 -0.41306671883907142 0 -0.40962993039643741 -0.3898634720616666 0 -0.3946356370269814 -0.39577424904278191 0 -0.42478231784314502 -0.38643128255249681 0 -0.42870657106664078 -0.39987574649354879 0 -0.40962993039643741 -0.3898634720616666 0 -0.41657232816672918 -0.41306671883907142 0 -0.42870657106664078 -0.39987574649354879 0 -0.40962993039643741 -0.3898634720616666 0 -0.42478231784314502 -0.38643128255249681 0 -0.40962993039643741 -0.3898634720616666 0 -0.41656514696884139 -0.37636588688318029 0 -0.40962993039643741 -0.3898634720616666 0 -0.41656514696884139 -0.37636588688318029 0 -0.40465459864295228 -0.37650109000307358 0 -0.39431275766669582 -0.38061373190328529 0 -0.40465459864295228 -0.37650109000307358 0 -0.3968495855878465 -0.36923685638487008 0 -0.40962993039643741 -0.3898634720616666 0 -0.39431275766669582 -0.38061373190328529 0 -0.40465459864295228 -0.376501090003
[...]
<PointData Scalars="" Vectors="displacement," Tensors="">
<DataArray type="Float64" Name="displacement" NumberOfComponents="3" format="ascii">
-0.082759755906493482 -0.084998591292687511 0 -0.084995526221671017 -0.084999659321431553 0 -0.085671287153149339 -0.082193462246963306 0 -0.084995526221671017 -0.084999659321431553 0 -0.085671287153149339 -0.082193462246963306 0 -0.085001274590314771 -0.078641648409586373 0 -0.082755582041968229 -0.084994151044105917 0 -0.083828552299822376 -0.081757997555986686 0 -0.082745258827101903 -0.084996394921475843 0 -0.081019329622226147 -0.082266547013651589 0 -0.081437402113612029 -0.081143687385631491 0 -0.082745258827101903 -0.084996394921475843 0 -0.081019329622226147 -0.082266547013651589 0 -0.079219981323221736 -0.084997103719606781 0 -0.081019329622226147 -0.082266547013651589 0 -0.082019560099734296 -0.079600597052620306 0 -0.080723599025818021 -0.079518691281766973 0 -0.081019329622226147 -0.082266547013651589 0 -0.081437402113612029 -0.081143687385631491 0 -0.082019560099734296 -0.079600597052620306 0 -0.083828552299822376 -0.081757997555986686 0 -0.084996247912013184 -0.078645201327012526 0 -0.081437402113612029 -0.081143687385631491 0 -0.084988432603243888 -0.078637477305779607 0 -0.082019560099734296 -0.079600597052620306 0 -0.084988432603243888 -0.078637477305779607 0 -0.082019560099734296 -0.079600597052620306 0 -0.082901138497245938 -0.077531396132647812 0 -0.082019560099734296 -0.079600597052620306 0 -0.082901138497245938 -0.077531396132647812 0 -0.080723599025818021 -0.079518691281766973 0 -0.081508617157289048 -0.077415689946209149 0 -0.082901138497245938 -0.077531396132647812 0 -0.080723599025818021 -0.079518691281766973 0 -0.081508617157289048 -0.077415689946209149 0 -0.082901138497245938 -0.077531396132647812 0 -0.082964366931972122 -0.075394593241245464 0 -0.082901138497245938 -0.077531396132647812 0 -0.084998363936808943 -0.073572281835017198 0 -0.082964366931972122 -0.075394593241245464 0 -0.084988432603243888 -0.078637477305779607 0 -0.082901138497245938 -0.077531396132647812 0 -0.084998363936808943 -0.073572281835017198 0 -0.080018092792225423 -0.078285435000821538 0 -0.077102565385138239 -0.079495792250909719 0 -0.078804174574267985 -0.077810716899453292 0 -0.081508617157289048 -0.077415689946209149 0 -0.080018092792225423 -0.078285435000821538 0 -0.080723599025818021 -0.079518691281766973 0 -0.081508617157289048 -0.077415689946209149 0 -0.080018092792225423 -0.078285435000821538 0 -0.080544404051091187 -0.076536385199833759 0 -0.080018092792225423 -0.078285435000821538 0 -0.080723599025818021 -0.079518691281766973 0 -0.08025143336718675 -0.080364971940741076 0 -0.080018092792225423 -0.078285435000821538 0 -0.08025143336718675 -0.080364971940741076 0 -0.077102565385138239 -0.079495792250909719 0 -0.076334018270505788 -0.08291511477323367 0 -0.076537803011424696 -0.082166010669452186 0 -0.080723599025818021 -0.079518691281766973 0 -0.08025143336718675 -0.080364971940741076 0 -0.079305271842357777 -0.082741525490300727 0 -0.081019329622226147 -0.082266547013651589 0 -0.080723599025818021 -0.079518691281766973 0 -0.079305271842357777 -0.082741525490300727 0 -0.081019329622226147 -0.082266547013651589 0 -0.079305271842357777 -0.082741525490300727 0 -0.079219981323221736 -0.084997103719606781 0 -0.079305271842357777 -0.082741525490300727 0 -0.079219981323221736 -0.084997103719606781 0 -0.07569727856322099 -0.084997185786092277 0 -0.076334018270505788 -0.08291511477323367 0 -0.075687476739011453 -0.084996764935434205 0 -0.073321448218804139 -0.085452704840217039 0 -0.075681374733287232 -0.084999423652399264 0 -0.073100102087877053 -0.085588492979494307 0 -0.08025143336718675 -0.080364971940741076 0 -0.079305271842357777 -0.082741525490300727 0 -0.07569727856322099 -0.084997185786092277 0 -0.075681374733287232 -0.084999423652399264 0 -0.073100102087877053 -0.085588492979494307 0 -0.070709712099331606 -0.084998328992303696 0 -0.073100102087877053 -0.085588492979494307 0 -0.070709712099331606 -0.084998328992303696 0 -0.072768555680079366 -0.08558928764237235 0 -0.070709712099331606 -0.084998328992303696 0 -0.072768555680079366 -0.08558928764237235 0 -0.069611200616593108 -0.085581450755190316 0 -0.073321448218804139 -0.085452704840217039 0 -0.073100102087877053 -0.085588492979494307 0 -0.072768555680079366 -0.08558928764237235 0 -0.065729381320188865 -0.084998708178212423 0 -0.068893821665126614 -0.086603302813220456 0 -0.063880910674280242 -0.085699177411914892 0 -0.06871013458146033 -0.085109209855920923 0 -0.067305298850386802 -0.084672855483950052 0 -0.065729381320188865 -0.084998708178212423 0 -0.069611200616593108 -0.085581450755190316 0 -0.068893821665126614 -0.086603302813220456 0 -0.070709712099331606 -0.084998328992303696 0 -0.065729381320188865 -0.084998708178212423 0 -0.069611200616593108 -0.085581450755190316 0 -0.072768555680079366 -0.08558928764237235 0 -0.069611200616593108 -0.085581450755190316 0 -0.068893821665126614 -0.086603302813220456 0 -0.072768555680079366 -0.08558928764237235 0 -0.068893821665126614 -0.086603302813220456 0 -0.073896274622259034 -0.084643991424769888 0 -0.067091996771823023 -0.088535592122188811 0 -0.064349722551155633 -0.087734892520909283 0 -0.065498637935180043 -0.089296583021313852 0 -0.067091996771823023 -0.088535592122188811 0 -0.063880910674280242 -0.085699177411914892 0 -0.064349722551155633 -0.087734892520909283 0 -0.067122625903008423 -0.090299391285797601 0 -0.065498637935180043 -0.089296583021313852 0 -0.066020731385776091 -0.090278018318289105 0 -0.067091996771823023 -0.088535592122188811 0 -0.067122625903008423 -0.090299391285797601 0 -0.065498637935180043 -0.089296583021313852 0 -0.06871013458146033 -0.085109209855920923 0 -0.07112921280048301 -0.084856827184576489 0 -0.067091996771823023 -0.088535592122188811 0 -0.067122625903008423 -0.090299391285797601 0 -0.067751380737808745 -0.090279281060259814 0 -0.067576007328660495 -0.090535734548003913 0 -0.067214167860358845 -0.090666418327346315 0 -0.067529806028784931 -0.090132851133372383 0 -0.067122625903008423 -0.090299391285797601 0 -0.067576007328660495 -0.090535734548003913 0 -0.067922849033185503 -0.090487213841880909 0 -0.067122625903008423 -0.090299391285797601 0 -0.067576007328660495 -0.090535734548003913 0 -0.067751380737808745 -0.090279281060259814 0 -0.067122625903008423 -0.090299391285797601 0 -0.068014548477939654 -0.090724068091670038 0 -0.067922849033185503 -0.090487213841880909 0 -0.067122625903008423 -0.090299391285797601 0 -0.068014548477939654 -0.090724068091670038 0 -0.066020731385776091 -0.090278018318289105 0 -0.073321448218804139 -0.085452704840217039 0 -0.075278600199233062 -0.083161369415319417 0 -0.077102565385138239 -0.079495792250909719 0 -0.073321448218804139 -0.085452704840217039 0 -0.072768555680079366 -0.08558928764237235 0 -0.075278600199233062 -0.083161369415319417 0 -0.075278600199233062 -0.083161369415319417 0 -0.073896274622259034 -0.084643991424769888 0 -0.075952985932342482 -0.082150952412719982 0 -0.072768555680079366 -0.08558928764237235 0 -0.075278600199233062 -0.083161369415319417 0 -0.073896274622259034 -0.084643991424769888 0 -0.067576007328660495 -0.090535734548003913 0 -0.067751380737808745 -0.090279281060259814 0 -0.067214167860358845 -0.090666418327346315 0 -0.07112921280048301 -0.084856827184576489 0 -0.072731758012167871 -0.084425480991661028 0 -0.072731758012167871 -0.084425480991661028 0 -0.072757332150789264 -0.083936445709635765 0 -0.075278600199233062 -0.083161369415319417 0 -0.077263215850919359 -0.079507899867328938 0 -0.077102565385138239 -0.079495792250909719 0 -0.075278600199233062 -0.083161369415319417 0 -0.075952985932342482 -0.082150952412719982 0 -0.077263215850919359 -0.079507899867328938 0 -0.077263215850919359 -0.079507899867328938 0 -0.077102565385138239 -0.079495792250909719 0 -0.077553911268060036 -0.078296449188540562 0 -0.077553911268060036 -0.078296449188540562 0 -0.077566167422951901 -0.077935072850659384 0 -0.077961366867792203 -0.077149232691604536 0 -0.077263215850919359 -0.079507899867328938 0 -0.077553911268060036 -0.078296449188540562 0 -0.077566167422951901 -0.077935072850659384 0 -0.067214167860358845 -0.090666418327346315 0 -0.06611920435045586 -0.089055246149960327 0 -0.067529806028784931 -0.090132851133372383 0 -0.078302983551256963 -0.080430038452454874 0 -0.077263215850919359 -0.079507899867328938 0 -0.077566167422951901 -0.077935072850659384 0 -0.078302983551256963 -0.080430038452454874 0 -0.077566167422951901 -0.077935072850659384 0 -0.078070700938329352 -0.076982525156536016 0 -0.072731758012167871 -0.084425480991661028 0 -0.072147185186614421 -0.082808865758533676 0 -0.077566167422951901 -0.077935072850659384 0 -0.078070700938329352 -0.076982525156536016 0 -0.077524378829774102 -0.076968358008124016 0 -0.078070700938329352 -0.076982525156536016 0 -0.077524378829774102 -0.076968358008124016 0 -0.077077405128616244 -0.076328827097326482 0 -0.077524378829774102 -0.076968358008124016 0 -0.077077405128616244 -0.076328827097326482 0 -0.077961366867792203 -0.077149232691604536 0 -0.077566167422951901 -0.077935072850659384 0 -0.077524378829774102 -0.076968358008124016 0 -0.077961366867792203 -0.077149232691604536 0 -0.068014548477939654 -0.090724068091670038 0 -0.068652252912530548 -0.090049061835921373 0 -0.069912181539710141 -0.089823728235422659 0 -0.068014548477939654 -0.090724068091670038 0 -0.068652252912530548 -0.090049061835921373 0 -0.067922849033185503 -0.090487213841880909 0 -0.068652252912530548 -0.090049061835921373 0 -0.067922849033185503 -0.090487213841880909 0 -0.067529806028784931 -0.090132851133372383 0 -0.067576007328660495 -0.090535734548003913 0 -0.067922849033185503 -0.090487213841880909 0 -0.067529806028784931 -0.090132851133372383 0 -0.06611920435045586 -0.089055246149960327 0 -0.069150642178784083 -0.088100071955415721 0 -0.068921338884805117 -0.084620681772785838 0 -0.068652252912530548 -0.090049061835921373 0 -0.067529806028784931 -0.090132851133372383 0 -0.069150642178784083 -0.088100071955415721 0 -0.06611920435045586 -0.089055246149960327 0 -0.067529806028784931 -0.090132851133372383 0 -0.069150642178784083 -0.088100071955415721 0 -0.068652252912530548 -0.090049061835921373 0 -0.069150642178784083 -0.088100071955415721 0 -0.069912181539710141 -0.089823728235422659 0 -0.069150642178784083 -0.088100071955415721 0 -0.069912181539710141 -0.089823728235422659 0 -0.071330825807743151 -0.087560169338449081 0 -0.071580955320373466 -0.084764425633102491 0 -0.071330825807743151 -0.087560169338449081 0 -0.073830055358800079 -0.085662576607547267 0 -0.069150642178784083 -0.088100071955415721 0 -0.071580955320373466 -0.084764425633102491 0 -0.071330825807743151 -0.087560169338449081 0 -0.069150642178784083 -0.088100071955415721 0 -0.071580955320373466 -0.084764425633102491 0 -0.068921338884805117 -0.084620681772785838 0 -0.068921338884805117 -0.084620681772785838 0 -0.066429969249961626 -0.082520569407550037 0 -0.070144582355066945 -0.079296024458687997 0 -0.068921338884805117 -0.084620681772785838 0 -0.072822044461544402 -0.079307846009165822 0 -0.070144582355066945 -0.079296024458687997 0 -0.071580955320373466 -0.084764425633102491 0 -0.068921338884805117 -0.084620681772785838 0 -0.072822044461544402 -0.079307846009165822 0 -0.071580955320373466 -0.084764425633102491 0 -0.072822044461544402 -0.079307846009165822 0 -0.07468131781416297 -0.082273558581149445 0 -0.078070700938329352 -0.076982525156536016 0 -0.077077405128616244 -0.076328827097326482 0 -0.075972112209029108 -0.075935070624838605 0 -0.06611920435045586 -0.089055246149960327 0 -0.068921338884805117 -0.084620681772785838 0 -0.066429969249961626 -0.082520569407550037 0 -0.072147185186614421 -0.082808865758533676 0 -0.071733113380059207 -0.080679674282831321 0 -0.075972112209029108 -0.075935070624838605 0 -0.076183893651859735 -0.076234063986109088 0 -0.0742175390124169 -0.076344768688587639 0 -0.076183893651859735 -0.076234063986109088 0 -0.077621885196555551 -0.076538352503126433 0 -0.075995465457169412 -0.076660654447288326 0 -0.077077405128616244 -0.076328827097326482 0 -0.076183893651859735 -0.076234063986109088 0 -0.077621885196555551 -0.076538352503126433 0 -0.077077405128616244 -0.076328827097326482 0 -0.075972112209029108 -0.075935070624838605 0 -0.076183893651859735 -0.076234063986109088 0 -0.077621885196555551 -0.076538352503126433 0 -0.078639589792406525 -0.076323376059501957 0 -0.079644569765881384 -0.076561998231209696 0 -0.077077405128616244 -0.076328827097326482 0 -0.077621885196555551 -0.076538352503126433 0 -0.078639589792406525 -0.076323376059501957 0 -0.078639589792406525 -0.076323376059501957 0 -0.079644569765881384 -0.076561998231209696 0 -0.080720535376531927 -0.07572338602810566 0 -0.077621885196555551 -0.076538352503126433 0 -0.079644569765881384 -0.076561998231209696 0 -0.079094245550697634 -0.077376977554622972 0 -0.079644569765881384 -0.076561998231209696 0 -0.081122326976063933 -0.077297901372247901 0 -0.079094245550697634 -0.077376977554622972 0 -0.081122326976063933 -0.077297901372247901 0 -0.083340659361820307 -0.076540152452876847 0 -0.081331866950775489 -0.076230398044207157 0 -0.079644569765881384 -0.076561998231209696 0 -0.081122326976063933 -0.077297901372247901 0 -0.081331866950775489 -0.076230398044207157 0 -0.08422903841715719 -0.069197097130255555 0 -0.083781499717352922 -0.065018479117366898 0 -0.086302484657651876 -0.066536569994754435 0 -0.084997372256471304 -0.068500903759810799 0 -0.085001528679636618 -0.06342139935726436 0 -0.086302484657651876 -0.066536569994754435 0 -0.085956361958524588 -0.063000519745007033 0 -0.085001528679636618 -0.06342139935726436 0 -0.081122326976063933 -0.077297901372247901 0 -0.083340659361820307 -0.076540152452876847 0 -0.082834422636448551 -0.078230870985549067 0 -0.08422903841715719 -0.069197097130255555 0 -0.084343573938786484 -0.07002352520145276 0 -0.083340659361820307 -0.076540152452876847 0 -0.081331866950775489 -0.076230398044207157 0 -0.082261381500515762 -0.074881240241329902 0 -0.086302484657651876 -0.066536569994754435 0 -0.084997372256471304 -0.068500903759810799 0 -0.084792242371775198 -0.072033717734395639 0 -0.083340659361820307 -0.076540152452876847 0 -0.082261381500515762 -0.074881240241329902 0 -0.084792242371775198 -0.072033717734395639 0 -0.079644569765881384 -0.076561998231209696 0 -0.081331866950775489 -0.076230398044207157 0 -0.080720535376531927 -0.07572338602810566 0 -0.081331866950775489 -0.076230398044207157 0 -0.082261381500515762 -0.074881240241329902 0 -0.080720535376531927 -0.07572338602810566 0 -0.080720535376531927 -0.07572338602810566 0 -0.081935246305141804 -0.074658533867586724 0 -0.08004852286240402 -0.075904071798242656 0 -0.082261381500515762 -0.074881240241329902 0 -0.081935246305141804 -0.074658533867586724 0 -0.084792242371775198 -0.072033717734395639 0 -0.082261381500515762 -0.074881240241329902 0 -0.080720535376531927 -0.07572338602810566 0 -0.081935246305141804 -0.074658533867586724 0 -0.081935246305141804 -0.074658533867586724 0 -0.084792242371775198 -0.072033717734395639 0 -0.08381724588707147 -0.073853029571579881 0 -0.084997372256471304 -0.068500903759810799 0 -0.084792242371775198 -0.072033717734395639 0 -0.084998363936808943 -0.073572281835017198 0 -0.084792242371775198 -0.072033717734395639 0 -0.08381724588707147 -0.073853029571579881 0 -0.084998363936808943 -0.073572281835017198 0 -0.08381724588707147 -0.073853029571579881 0 -0.084998363936808943 -0.073572281835017198 0 -0.082964366931972122 -0.075394593241245464 0 -0.081508617157289048 -0.077415689946209149 0 -0.082964366931972122 -0.075394593241245464 0 -0.080544404051091187 -0.076536385199833759 0 -0.081935246305141804 -0.074658533867586724 0 -0.082964366931972122 -0.075394593241245464 0 -0.080544404051091187 -0.076536385199833759 0 -0.081935246305141804 -0.074658533867586724 0 -0.08381724588707147 -0.073853029571579881 0 -0.082964366931972122 -0.075394593241245464 0 -0.080018092792225423 -0.078285435000821538 0 -0.080544404051091187 -0.076536385199833759 0 -0.078804174574267985 -0.077810716899453292 0 -0.080544404051091187 -0.076536385199833759 0 -0.079081387542967799 -0.076710565245561538 0 -0.08004852286240402 -0.075904071798242656 0 -0.080544404051091187 -0.076536385199833759 0 -0.078804174574267985 -0.077810716899453292 0 -0.079081387542967799 -0.076710565245561538 0 -0.077102565385138239 -0.079495792250909719 0 -0.077553911268060036 -0.078296449188540562 0 -0.078804174574267985 -0.077810716899453292 0 -0.077553911268060036 -0.078296449188540562 0 -0.078804174574267985 -0.077810716899453292 0 -0.077961366867792203 -0.077149232691604536 0 -0.078804174574267985 -0.077810716899453292 0 -0.079081387542967799 -0.076710565245561538 0 -0.077961366867792203 -0.077149232691604536 0 -0.077077405128616244 -0.076328827097326482 0 -0.078639589792406525 -0.076323376059501957 0 -0.077961366867792203 -0.077149232691604536 0 -0.078639589792406525 -0.076323376059501957 0 -0.079081387542967799 -0.076710565245561538 0 -0.077961366867792203 -0.077149232691604536 0 -0.078639589792406525 -0.076323376059501957 0 -0.079081387542967799 -0.076710565245561538 0 -0.08004852286240402 -0.075904071798242656 0 -0.078639589792406525 -0.076323376059501957 0 -0.080720535376531927 -0.07572338602810566 0 -0.08004852286240402 -0.075904071798242656 0 -0.081935246305141804 -0.074658533867586724 0 -0.080544404051091187 -0.076536385199833759 0 -0.08004852286240402 -0.075904071798242656 0 -0.043373611794725236 -0.093690444537932752 0 -0.044290510699754343 -0.097437495295033025 0 -0.041598964245134637 -0.096314864691378385 0 -0.043373611794725236 -0.093690444537932752 0 -0.046689146931074094 -0.095986555867081214 0 -0.044290510699754343 -0.097437495295033025 0 -0.043373611794725236 -0.093690444537932752 0 -0.041598964245134637 -0.096314864691378385 0 -0.041549901370927692 -0.093506988637328384 0 -0.043373611794725236 -0.093690444537932752 0 -0.046689146931074094 -0.095986555867081214 0 -0.046187439868935053 -0.091443772899843886 0 -0.046689146931074094 -0.095986555867081214 0 -0.046187439868935053 -0.091443772899843886 0 -0.050143936845728154 -0.094067137578327881 0 -0.046187439868935053 -0.091443772899843886 0 -0.043177155400143774 -0.088059782634474448 0 -0.041782798339571853 -0.091364958928482495 0 -0.043373611794725236 -0.093690444537932752 0 -0.046187439868935053 -0.091443772899843886 0 -0.041782798339571853 -0.091364958928482495 0 -0.043373611794725236 -0.093690444537932752 0 -0.041782798339571853 -0.091364958928482495 0 -0.041549901370927692 -0.093506988637328384 0 -0.043177155400143774 -0.088059782634474448 0 -0.045806546969943754 -0.085000021526157557 0 -0.040824459449760001 -0.084998935584411878 0 -0.043177155400143774 -0.088059782634474448 0 -0.045806546969943754 -0.085000021526157557 0 -0.047795747196745834 -0.08780129672599675 0 -0.046187439868935053 -0.091443772899843886 0 -0.043177155400143774 -0.088059782634474448 0 -0.047795747196745834 -0.08780129672599675 0 -0.046187439868935053 -0.091443772899843886 0 -0.047795747196745834 -0.08780129672599675 0 -0.051083883854789 -0.089925371714219826 0 -0.047795747196745834 -0.08780129672599675 0 -0.050786600294315289 -0.084999524276411276 0 -0.051083883854789 -0.089925371714219826 0 -0.045806546969943754 -0.085000021526157557 0 -0.047795747196745834 -0.08780129672599675 0 -0.050786600294315289 -0.084999524276411276 0 -0.050786600294315289 -0.084999524276411276 0 -0.051083883854789 -0.089925371714219826 0 -0.055693511346142706 -0.088393464534751401 0 -0.051083883854789 -0.089925371714219826 0 -0.050143936845728154 -0.094067137578327881 0 -0.056045884506265679 -0.093425194993433283 0 -0.046187439868935053 -0.091443772899843886 0 -0.051083883854789 -0.089925371714219826 0 -0.050143936845728154 -0.094067137578327881 0 -0.046689146931074094 -0.095986555867081214 0 -0.050143936845728154 -0.094067137578327881 0 -0.049646148097892764 -0.096988302859124395 0 -0.050143936845728154 -0.094067137578327881 0 -0.05