<?xml version="1.0"?>
<VTKFile type="UnstructuredGrid" version="0.1" byte_order="LittleEndian">
<UnstructuredGrid>
<Piece NumberOfPoints="30881" NumberOfCells="10862">
<Points>
<DataArray type="Float64" NumberOfComponents="3" format="ascii">
-0.49999999999999828 -0.48677703703187492 0 -0.5 -0.5 0 -0.48129281494584059 -0.49338851851593718 0 -0.5 -0.5 0 -0.48129281494584059 -0.49338851851593718 0 -0.46258562989168328 -0.5 0 -0.49999999999999828 -0.48677703703187492 0 -0.48129281494584059 -0.49338851851593718 0 -0.49999999999999828 -0.48677703703187492 0 -0.4824545428279598 -0.47451624516148783 0 -0.48129281494584059 -0.49338851851593718 0 -0.49999999999999828 -0.48677703703187492 0 -0.4824545428279598 -0.47451624516148783 0 -0.5 -0.46599539173150673 0 -0.4824545428279598 -0.47451624516148783 0 -0.46853075243710779 -0.48354990242643758 0 -0.46411508256092049 -0.46598235294430129 0 -0.4824545428279598 -0.47451624516148783 0 -0.48129281494584059 -0.49338851851593718 0 -0.46853075243710779 -0.48354990242643758 0 -0.48129281494584059 -0.49338851851593718 0 -0.46258562989168328 -0.5 0 -0.48129281494584059 -0.49338851851593718 0 -0.46258562989168328 -0.5 0 -0.46853075243710779 -0.48354990242643758 0 -0.46258562989168328 -0.5 0 -0.46853075243710779 -0.48354990242643758 0 -0.45147378687733691 -0.48362213557840178 0 -0.46853075243710779 -0.48354990242643758 0 -0.45147378687733691 -0.48362213557840178 0 -0.46411508256092049 -0.46598235294430129 0 -0.4457251648104853 -0.47020164095208389 0 -0.45147378687733691 -0.48362213557840178 0 -0.46411508256092049 -0.46598235294430129 0 -0.4457251648104853 -0.47020164095208389 0 -0.45147378687733691 -0.48362213557840178 0 -0.43513446131126993 -0.48199891714758791 0 -0.45147378687733691 -0.48362213557840178 0 -0.43275163025255442 -0.5 0 -0.43513446131126993 -0.48199891714758791 0 -0.46258562989168328 -0.5 0 -0.45147378687733691 -0.48362213557840178 0 -0.43275163025255442 -0.5 0 -0.4467190029717853 -0.45478934699519452 0 -0.4422915115958943 -0.43555510214664611 0 -0.43246707723660932 -0.44794326854796312 0 -0.4457251648104853 -0.47020164095208389 0 -0.4467190029717853 -0.45478934699519452 0 -0.46411508256092049 -0.46598235294430129 0 -0.4457251648104853 -0.47020164095208389 0 -0.4467190029717853 -0.45478934699519452 0 -0.43016578207734568 -0.46313500011938619 0 -0.4467190029717853 -0.45478934699519452 0 -0.46411508256092049 -0.46598235294430129 0 -0.47114575579794699 -0.4403844242888923 0 -0.4467190029717853 -0.45478934699519452 0 -0.47114575579794699 -0.4403844242888923 0 -0.4422915115958943 -0.43555510214664611 0 -0.47114575579794699 -0.4403844242888923 0 -0.4422915115958943 -0.43555510214664611 0 -0.46411508256092049 -0.46598235294430129 0 -0.47114575579794699 -0.4403844242888923 0 -0.48354307623736548 -0.45841843211146538 0 -0.4824545428279598 -0.47451624516148783 0 -0.46411508256092049 -0.46598235294430129 0 -0.48354307623736548 -0.45841843211146538 0 -0.4824545428279598 -0.47451624516148783 0 -0.48354307623736548 -0.45841843211146538 0 -0.5 -0.46599539173150673 0 -0.48354307623736548 -0.45841843211146538 0 -0.5 -0.46599539173150673 0 -0.49999999999999972 -0.44521374643113848 0 -0.47114575579794699 -0.4403844242888923 0 -0.49999999999999972 -0.44521374643113848 0 -0.47114575579794699 -0.4403844242888923 0 -0.49999999999999972 -0.44521374643113848 0 -0.48704432221743971 -0.42935617662229603 0 -0.47114575579794699 -0.4403844242888923 0 -0.48354307623736548 -0.45841843211146538 0 -0.49999999999999972 -0.44521374643113848 0 -0.49999999999999972 -0.44521374643113848 0 -0.48704432221743971 -0.42935617662229603 0 -0.5 -0.41591957503128979 0 -0.48704432221743971 -0.42935617662229603 0 -0.5 -0.41591957503128979 0 -0.47703153307181151 -0.41590696073786332 0 -0.5 -0.41591957503128979 0 -0.47703153307181151 -0.41590696073786332 0 -0.48817838912021821 -0.4022119694541284 0 -0.47114575579794699 -0.4403844242888923 0 -0.48704432221743971 -0.42935617662229603 0 -0.47703153307181151 -0.41590696073786332 0 -0.5 -0.38662540363144121 0 -0.47568202340906118 -0.39039593841591919 0 -0.4947615751445838 -0.37332156409002909 0 -0.47568202340906118 -0.39039593841591919 0 -0.4947615751445838 -0.37332156409002909 0 -0.5 -0.38662540363144121 0 -0.48817838912021821 -0.4022119694541284 0 -0.47568202340906118 -0.39039593841591919 0 -0.5 -0.41591957503128979 0 -0.5 -0.38662540363144121 0 -0.48817838912021821 -0.4022119694541284 0 -0.47703153307181151 -0.41590696073786332 0 -0.48817838912021821 -0.4022119694541284 0 -0.47568202340906118 -0.39039593841591919 0 -0.47703153307181151 -0.41590696073786332 0 -0.47568202340906118 -0.39039593841591919 0 -0.45660247167353862 -0.40747031274180939 0 -0.47568202340906118 -0.39039593841591919 0 -0.48030931097003587 -0.37191064435083931 0 -0.46669490250066459 -0.37481721741951951 0 -0.47568202340906118 -0.39039593841591919 0 -0.4947615751445838 -0.37332156409002909 0 -0.48030931097003587 -0.37191064435083931 0 -0.45332061783919553 -0.38729481725706361 0 -0.46669490250066459 -0.37481721741951951 0 -0.45095991715087752 -0.36968037302039969 0 -0.47568202340906118 -0.39039593841591919 0 -0.45332061783919553 -0.38729481725706361 0 -0.46669490250066459 -0.37481721741951951 0 -0.47568202340906118 -0.39039593841591919 0 -0.45660247167353862 -0.40747031274180939 0 -0.47568202340906118 -0.39039593841591919 0 -0.45332061783919553 -0.38729481725706361 0 -0.45660247167353862 -0.40747031274180939 0 -0.44332653075004852 -0.401690115615219 0 -0.44646247228389868 -0.41654464256061052 0 -0.42870657106664078 -0.39987574649354879 0 -0.45332061783919553 -0.38729481725706361 0 -0.44332653075004852 -0.401690115615219 0 -0.43479631603355468 -0.39077639303142497 0 -0.45332061783919553 -0.38729481725706361 0 -0.44332653075004852 -0.401690115615219 0 -0.45660247167353862 -0.40747031274180939 0 -0.45332061783919553 -0.38729481725706361 0 -0.43421362475025049 -0.37527491429266319 0 -0.43479631603355468 -0.39077639303142497 0 -0.45332061783919553 -0.38729481725706361 0 -0.43421362475025049 -0.37527491429266319 0 -0.45095991715087752 -0.36968037302039969 0 -0.47114575579794699 -0.4403844242888923 0 -0.45663439814062529 -0.42533932462455271 0 -0.4422915115958943 -0.43555510214664611 0 -0.47114575579794699 -0.4403844242888923 0 -0.47703153307181151 -0.41590696073786332 0 -0.45663439814062529 -0.42533932462455271 0 -0.45663439814062529 -0.42533932462455271 0 -0.45660247167353862 -0.40747031274180939 0 -0.44646247228389868 -0.41654464256061052 0 -0.47703153307181151 -0.41590696073786332 0 -0.45663439814062529 -0.42533932462455271 0 -0.45660247167353862 -0.40747031274180939 0 -0.44332653075004852 -0.401690115615219 0 -0.45660247167353862 -0.40747031274180939 0 -0.44646247228389868 -0.41654464256061052 0 -0.45660247167353862 -0.40747031274180939 0 -0.44646247228389868 -0.41654464256061052 0 -0.44646247228389868 -0.41654464256061052 0 -0.4375229199380159 -0.42454468706769971 0 -0.45663439814062529 -0.42533932462455271 0 -0.4375229199380159 -0.42454468706769971 0 -0.4422915115958943 -0.43555510214664611 0 -0.45663439814062529 -0.42533932462455271 0 -0.44646247228389868 -0.41654464256061052 0 -0.4375229199380159 -0.42454468706769971 0 -0.4375229199380159 -0.42454468706769971 0 -0.4422915115958943 -0.43555510214664611 0 -0.43077617074680319 -0.43406335077952207 0 -0.43077617074680319 -0.43406335077952207 0 -0.42550232634077589 -0.42345940056268039 0 -0.41950844772475421 -0.43888456563633732 0 -0.4375229199380159 -0.42454468706769971 0 -0.43077617074680319 -0.43406335077952207 0 -0.42550232634077589 -0.42345940056268039 0 -0.44646247228389868 -0.41654464256061052 0 -0.41657232816672918 -0.41306671883907142 0 -0.42870657106664078 -0.39987574649354879 0 -0.44646247228389868 -0.41654464256061052 0 -0.4375229199380159 -0.42454468706769971 0 -0.42550232634077589 -0.42345940056268039 0 -0.44646247228389868 -0.41654464256061052 0 -0.42550232634077589 -0.42345940056268039 0 -0.41657232816672918 -0.41306671883907142 0 -0.44646247228389868 -0.41654464256061052 0 -0.41657232816672918 -0.41306671883907142 0 -0.42550232634077589 -0.42345940056268039 0 -0.41657232816672918 -0.41306671883907142 0 -0.41333489101611293 -0.42699700567040988 0 -0.41657232816672918 -0.41306671883907142 0 -0.41333489101611293 -0.42699700567040988 0 -0.39893236021425188 -0.42931692235905211 0 -0.41333489101611293 -0.42699700567040988 0 -0.39893236021425188 -0.42931692235905211 0 -0.41950844772475421 -0.43888456563633732 0 -0.42550232634077589 -0.42345940056268039 0 -0.41333489101611293 -0.42699700567040988 0 -0.41950844772475421 -0.43888456563633732 0 -0.43421362475025049 -0.37527491429266319 0 -0.42478231784314502 -0.38643128255249681 0 -0.41656514696884139 -0.37636588688318029 0 -0.43421362475025049 -0.37527491429266319 0 -0.42478231784314502 -0.38643128255249681 0 -0.43479631603355468 -0.39077639303142497 0 -0.42478231784314502 -0.38643128255249681 0 -0.43479631603355468 -0.39077639303142497 0 -0.42870657106664078 -0.39987574649354879 0 -0.44332653075004852 -0.401690115615219 0 -0.43479631603355468 -0.39077639303142497 0 -0.42870657106664078 -0.39987574649354879 0 -0.41657232816672918 -0.41306671883907142 0 -0.40962993039643741 -0.3898634720616666 0 -0.3946356370269814 -0.39577424904278191 0 -0.42478231784314502 -0.38643128255249681 0 -0.42870657106664078 -0.39987574649354879 0 -0.40962993039643741 -0.3898634720616666 0 -0.41657232816672918 -0.41306671883907142 0 -0.42870657106664078 -0.39987574649354879 0 -0.40962993039643741 -0.3898634720616666 0 -0.42478231784314502 -0.38643128255249681 0 -0.40962993039643741 -0.3898634720616666 0 -0.41656514696884139 -0.37636588688318029 0 -0.40962993039643741 -0.3898634720616666 0 -0.41656514696884139 -0.37636588688318029 0 -0.40465459864295228 -0.37650109000307358 0 -0.39431275766669582 -0.38061373190328529 0 -0.40465459864295228 -0.37650109000307358 0 -0.3968495855878465 -0.36923685638487008 0 -0.40962993039643741 -0.3898634720616666 0 -0.39431275766669582 -0.38061373190328529 0 -0.40465459864295228 -0.376501090003
[...]
<PointData Scalars="" Vectors="displacement," Tensors="">
<DataArray type="Float64" Name="displacement" NumberOfComponents="3" format="ascii">
-0.084999490438543712 2.346998524528966e-07 0 -0.084998317138999607 -4.7414207555235478e-07 0 -0.082455512477453516 7.9681929507646094e-08 0 -0.084998317138999607 -4.7414207555235478e-07 0 -0.082455512477453516 7.9681929507646094e-08 0 -0.078643427396685991 7.1212313788100214e-07 0 -0.084992479998291112 -1.2277001226744124e-06 0 -0.081870285454952452 -0.000113774883984103 0 -0.084995159311122809 -1.4859770930808792e-06 0 -0.082905401789005087 -0.00061053192933198538 0 -0.081656331020306755 -0.00072240630195211824 0 -0.084995159311122809 -1.4859770930808792e-06 0 -0.082905401789005087 -0.00061053192933198538 0 -0.084998743089705342 -1.0845991865810564e-07 0 -0.082905401789005087 -0.00061053192933198538 0 -0.080745153008353762 -0.00051459475166693133 0 -0.081439768912229121 -0.0007030588044778731 0 -0.082905401789005087 -0.00061053192933198538 0 -0.081656331020306755 -0.00072240630195211824 0 -0.080745153008353762 -0.00051459475166693133 0 -0.081870285454952452 -0.000113774883984103 0 -0.078647301934157379 8.0981976935654506e-07 0 -0.081656331020306755 -0.00072240630195211824 0 -0.078638432499454999 -2.7157250540076383e-06 0 -0.080745153008353762 -0.00051459475166693133 0 -0.078638432499454999 -2.7157250540076383e-06 0 -0.080745153008353762 -0.00051459475166693133 0 -0.07865973550419246 -0.00045736545758546425 0 -0.080745153008353762 -0.00051459475166693133 0 -0.07865973550419246 -0.00045736545758546425 0 -0.081439768912229121 -0.0007030588044778731 0 -0.079474636766533283 -0.00038757850626336166 0 -0.07865973550419246 -0.00045736545758546425 0 -0.081439768912229121 -0.0007030588044778731 0 -0.079474636766533283 -0.00038757850626336166 0 -0.07865973550419246 -0.00045736545758546425 0 -0.077062182455682096 -0.00015763584689362935 0 -0.07865973550419246 -0.00045736545758546425 0 -0.073571851657074014 -5.7059176788489922e-07 0 -0.077062182455682096 -0.00015763584689362935 0 -0.078638432499454999 -2.7157250540076383e-06 0 -0.07865973550419246 -0.00045736545758546425 0 -0.073571851657074014 -5.7059176788489922e-07 0 -0.080860022393147199 -0.00034053497341665899 0 -0.082031365518816443 5.5803280365903536e-05 0 -0.080775486866796892 0.00032315808650434268 0 -0.079474636766533283 -0.00038757850626336166 0 -0.080860022393147199 -0.00034053497341665899 0 -0.081439768912229121 -0.0007030588044778731 0 -0.079474636766533283 -0.00038757850626336166 0 -0.080860022393147199 -0.00034053497341665899 0 -0.07932470635386342 0.00024928550422431564 0 -0.080860022393147199 -0.00034053497341665899 0 -0.081439768912229121 -0.0007030588044778731 0 -0.082519285045878493 -0.00082683423458013074 0 -0.080860022393147199 -0.00034053497341665899 0 -0.082519285045878493 -0.00082683423458013074 0 -0.082031365518816443 5.5803280365903536e-05 0 -0.084004375286822489 -0.00031529470033609281 0 -0.083599627732100251 -8.8896047842546667e-05 0 -0.081439768912229121 -0.0007030588044778731 0 -0.082519285045878493 -0.00082683423458013074 0 -0.083411010222919357 -0.00051371307491964325 0 -0.082905401789005087 -0.00061053192933198538 0 -0.081439768912229121 -0.0007030588044778731 0 -0.083411010222919357 -0.00051371307491964325 0 -0.082905401789005087 -0.00061053192933198538 0 -0.083411010222919357 -0.00051371307491964325 0 -0.084998743089705342 -1.0845991865810564e-07 0 -0.083411010222919357 -0.00051371307491964325 0 -0.084998743089705342 -1.0845991865810564e-07 0 -0.084996408407125398 -7.0926048426079768e-07 0 -0.084004375286822489 -0.00031529470033609281 0 -0.084998158779364799 -5.8171703550790895e-07 0 -0.08403500825347586 -0.00020312064557330016 0 -0.084999392022308107 -8.6667741904890557e-08 0 -0.084597242183665267 -0.00011018271970431945 0 -0.082519285045878493 -0.00082683423458013074 0 -0.083411010222919357 -0.00051371307491964325 0 -0.084996408407125398 -7.0926048426079768e-07 0 -0.084999392022308107 -8.6667741904890557e-08 0 -0.084597242183665267 -0.00011018271970431945 0 -0.084999226255850061 -2.1375181298370211e-07 0 -0.084597242183665267 -0.00011018271970431945 0 -0.084999226255850061 -2.1375181298370211e-07 0 -0.084351695056969309 -0.00018742891559439664 0 -0.084999226255850061 -2.1375181298370211e-07 0 -0.084351695056969309 -0.00018742891559439664 0 -0.084793295303999885 -0.00012612221155938871 0 -0.08403500825347586 -0.00020312064557330016 0 -0.084597242183665267 -0.00011018271970431945 0 -0.084351695056969309 -0.00018742891559439664 0 -0.084999268146760412 -1.6886220945511979e-07 0 -0.084801353142803973 -0.0001439921149338939 0 -0.084670073110733352 -0.00011132483064714748 0 -0.08311717661592305 0.00044884785897669917 0 -0.083465660018111842 0.0002265627383603079 0 -0.084999268146760412 -1.6886220945511979e-07 0 -0.084793295303999885 -0.00012612221155938871 0 -0.084801353142803973 -0.0001439921149338939 0 -0.084999226255850061 -2.1375181298370211e-07 0 -0.084999268146760412 -1.6886220945511979e-07 0 -0.084793295303999885 -0.00012612221155938871 0 -0.084351695056969309 -0.00018742891559439664 0 -0.084793295303999885 -0.00012612221155938871 0 -0.084801353142803973 -0.0001439921149338939 0 -0.084351695056969309 -0.00018742891559439664 0 -0.084801353142803973 -0.0001439921149338939 0 -0.084149072893113352 3.523455195440181e-06 0 -0.081848656286780938 0.0003693048471880551 0 -0.083750964552847931 0.00026778917182174986 0 -0.082910576971613581 0.00095870433670558215 0 -0.081848656286780938 0.0003693048471880551 0 -0.084670073110733352 -0.00011132483064714748 0 -0.083750964552847931 0.00026778917182174986 0 -0.081555489415464449 0.0019121627247818173 0 -0.082910576971613581 0.00095870433670558215 0 -0.082558217396663067 0.0018232971542280255 0 -0.081848656286780938 0.0003693048471880551 0 -0.081555489415464449 0.0019121627247818173 0 -0.082910576971613581 0.00095870433670558215 0 -0.08311717661592305 0.00044884785897669917 0 -0.082483368574222157 0.00097550448682276708 0 -0.081848656286780938 0.0003693048471880551 0 -0.081555489415464449 0.0019121627247818173 0 -0.080216012032463438 0.0017663923382000742 0 -0.080490165359400609 0.0026011743764495919 0 -0.079783887669899453 0.0024823488262402191 0 -0.080505084209920599 0.0033239513620728581 0 -0.081555489415464449 0.0019121627247818173 0 -0.080490165359400609 0.0026011743764495919 0 -0.080859024717481978 0.0030303552813291763 0 -0.081555489415464449 0.0019121627247818173 0 -0.080490165359400609 0.0026011743764495919 0 -0.080216012032463438 0.0017663923382000742 0 -0.081555489415464449 0.0019121627247818173 0 -0.081486109305706891 0.0029905420585539296 0 -0.080859024717481978 0.0030303552813291763 0 -0.081555489415464449 0.0019121627247818173 0 -0.081486109305706891 0.0029905420585539296 0 -0.082558217396663067 0.0018232971542280255 0 -0.08403500825347586 -0.00020312064557330016 0 -0.083386232252048928 -0.00013111634465158328 0 -0.082031365518816443 5.5803280365903536e-05 0 -0.08403500825347586 -0.00020312064557330016 0 -0.084351695056969309 -0.00018742891559439664 0 -0.083386232252048928 -0.00013111634465158328 0 -0.083386232252048928 -0.00013111634465158328 0 -0.084149072893113352 3.523455195440181e-06 0 -0.08346645550056514 0.00020578723480784534 0 -0.084351695056969309 -0.00018742891559439664 0 -0.083386232252048928 -0.00013111634465158328 0 -0.084149072893113352 3.523455195440181e-06 0 -0.080490165359400609 0.0026011743764495919 0 -0.080216012032463438 0.0017663923382000742 0 -0.079783887669899453 0.0024823488262402191 0 -0.082483368574222157 0.00097550448682276708 0 -0.082155302008983494 0.001325297784955321 0 -0.082155302008983494 0.001325297784955321 0 -0.082325612708930837 0.0011043193887366558 0 -0.083386232252048928 -0.00013111634465158328 0 -0.082330977271880004 0.00039770876544117776 0 -0.082031365518816443 5.5803280365903536e-05 0 -0.083386232252048928 -0.00013111634465158328 0 -0.08346645550056514 0.00020578723480784534 0 -0.082330977271880004 0.00039770876544117776 0 -0.082330977271880004 0.00039770876544117776 0 -0.082031365518816443 5.5803280365903536e-05 0 -0.081631209669414992 0.00053056526729912271 0 -0.081631209669414992 0.00053056526729912271 0 -0.081926836497207042 0.00076683327215488475 0 -0.080963341655800117 0.00097781674375194139 0 -0.082330977271880004 0.00039770876544117776 0 -0.081631209669414992 0.00053056526729912271 0 -0.081926836497207042 0.00076683327215488475 0 -0.079783887669899453 0.0024823488262402191 0 -0.080291671883701593 0.0037027320336899816 0 -0.080505084209920599 0.0033239513620728581 0 -0.082560771987006759 0.00013273886822944605 0 -0.082330977271880004 0.00039770876544117776 0 -0.081926836497207042 0.00076683327215488475 0 -0.082560771987006759 0.00013273886822944605 0 -0.081926836497207042 0.00076683327215488475 0 -0.08197574660726463 0.0011184249333717163 0 -0.082155302008983494 0.001325297784955321 0 -0.081496972460541481 0.0019095029799525778 0 -0.081926836497207042 0.00076683327215488475 0 -0.08197574660726463 0.0011184249333717163 0 -0.081401222116711483 0.0012674612822921446 0 -0.08197574660726463 0.0011184249333717163 0 -0.081401222116711483 0.0012674612822921446 0 -0.080969697027084897 0.0018906261789467249 0 -0.081401222116711483 0.0012674612822921446 0 -0.080969697027084897 0.0018906261789467249 0 -0.080963341655800117 0.00097781674375194139 0 -0.081926836497207042 0.00076683327215488475 0 -0.081401222116711483 0.0012674612822921446 0 -0.080963341655800117 0.00097781674375194139 0 -0.081486109305706891 0.0029905420585539296 0 -0.080706942749165969 0.0034889507145558015 0 -0.080582243758673608 0.0039019225607806792 0 -0.081486109305706891 0.0029905420585539296 0 -0.080706942749165969 0.0034889507145558015 0 -0.080859024717481978 0.0030303552813291763 0 -0.080706942749165969 0.0034889507145558015 0 -0.080859024717481978 0.0030303552813291763 0 -0.080505084209920599 0.0033239513620728581 0 -0.080490165359400609 0.0026011743764495919 0 -0.080859024717481978 0.0030303552813291763 0 -0.080505084209920599 0.0033239513620728581 0 -0.080291671883701593 0.0037027320336899816 0 -0.08034846897239889 0.003786481953898772 0 -0.080298648535621256 0.0034061766960262405 0 -0.080706942749165969 0.0034889507145558015 0 -0.080505084209920599 0.0033239513620728581 0 -0.08034846897239889 0.003786481953898772 0 -0.080291671883701593 0.0037027320336899816 0 -0.080505084209920599 0.0033239513620728581 0 -0.08034846897239889 0.003786481953898772 0 -0.080706942749165969 0.0034889507145558015 0 -0.08034846897239889 0.003786481953898772 0 -0.080582243758673608 0.0039019225607806792 0 -0.08034846897239889 0.003786481953898772 0 -0.080582243758673608 0.0039019225607806792 0 -0.079979719663181917 0.0039129749433216288 0 -0.079700876745819729 0.0034398386587075791 0 -0.079979719663181917 0.0039129749433216288 0 -0.079194323100172798 0.0036536428755333961 0 -0.08034846897239889 0.003786481953898772 0 -0.079700876745819729 0.0034398386587075791 0 -0.079979719663181917 0.0039129749433216288 0 -0.08034846897239889 0.003786481953898772 0 -0.079700876745819729 0.0034398386587075791 0 -0.080298648535621256 0.0034061766960262405 0 -0.080298648535621256 0.0034061766960262405 0 -0.080694152881469652 0.0030560569390965407 0 -0.080135663778895791 0.002344019944088881 0 -0.080298648535621256 0.0034061766960262405 0 -0.079157272755655192 0.002233945056777588 0 -0.080135663778895791 0.002344019944088881 0 -0.079700876745819729 0.0034398386587075791 0 -0.080298648535621256 0.0034061766960262405 0 -0.079157272755655192 0.002233945056777588 0 -0.079700876745819729 0.0034398386587075791 0 -0.079157272755655192 0.002233945056777588 0 -0.078670263699386844 0.002856205808503418 0 -0.08197574660726463 0.0011184249333717163 0 -0.080969697027084897 0.0018906261789467249 0 -0.081176985591112361 0.0023064625716099278 0 -0.080291671883701593 0.0037027320336899816 0 -0.080298648535621256 0.0034061766960262405 0 -0.080694152881469652 0.0030560569390965407 0 -0.081496972460541481 0.0019095029799525778 0 -0.081165098306599917 0.0021588703394934913 0 -0.081176985591112361 0.0023064625716099278 0 -0.080785167898784524 0.0023768486040262765 0 -0.080731635156961232 0.002184659950815271 0 -0.080785167898784524 0.0023768486040262765 0 -0.080033930915196477 0.0025536725421154874 0 -0.080495870161710961 0.0025574903277326413 0 -0.080969697027084897 0.0018906261789467249 0 -0.080785167898784524 0.0023768486040262765 0 -0.080033930915196477 0.0025536725421154874 0 -0.080969697027084897 0.0018906261789467249 0 -0.081176985591112361 0.0023064625716099278 0 -0.080785167898784524 0.0023768486040262765 0 -0.080033930915196477 0.0025536725421154874 0 -0.079784859356220802 0.0017232482844532983 0 -0.078498420796477425 0.0026139710296022769 0 -0.080969697027084897 0.0018906261789467249 0 -0.080033930915196477 0.0025536725421154874 0 -0.079784859356220802 0.0017232482844532983 0 -0.079784859356220802 0.0017232482844532983 0 -0.078498420796477425 0.0026139710296022769 0 -0.07773428576776921 0.0019286715083148066 0 -0.080033930915196477 0.0025536725421154874 0 -0.078498420796477425 0.0026139710296022769 0 -0.078885453854242074 0.0031578359744853612 0 -0.078498420796477425 0.0026139710296022769 0 -0.077211134878975324 0.0032657803620732141 0 -0.078885453854242074 0.0031578359744853612 0 -0.077211134878975324 0.0032657803620732141 0 -0.075412291987830726 0.0029079411288245381 0 -0.076916645310859413 0.0026074324542524605 0 -0.078498420796477425 0.0026139710296022769 0 -0.077211134878975324 0.0032657803620732141 0 -0.076916645310859413 0.0026074324542524605 0 -0.066530354238587205 -0.00025172098251906387 0 -0.063663144339094896 0.0013359915016958525 0 -0.066748200983662992 2.8502133326209091e-05 0 -0.068498243093516611 2.3777018759620903e-06 0 -0.063426349910528576 -5.4267529353942686e-07 0 -0.066748200983662992 2.8502133326209091e-05 0 -0.063681448478448602 0.00011682266823414334 0 -0.063426349910528576 -5.4267529353942686e-07 0 -0.077211134878975324 0.0032657803620732141 0 -0.075412291987830726 0.0029079411288245381 0 -0.075965547644704534 0.0039493566839471413 0 -0.066530354238587205 -0.00025172098251906387 0 -0.067512858257784109 -0.0011119962176829388 0 -0.075412291987830726 0.0029079411288245381 0 -0.076916645310859413 0.0026074324542524605 0 -0.075855798235310384 0.0019303543020301511 0 -0.066748200983662992 2.8502133326209091e-05 0 -0.068498243093516611 2.3777018759620903e-06 0 -0.072742140359651611 0.00041962561519745198 0 -0.075412291987830726 0.0029079411288245381 0 -0.075855798235310384 0.0019303543020301511 0 -0.072742140359651611 0.00041962561519745198 0 -0.078498420796477425 0.0026139710296022769 0 -0.076916645310859413 0.0026074324542524605 0 -0.07773428576776921 0.0019286715083148066 0 -0.076916645310859413 0.0026074324542524605 0 -0.075855798235310384 0.0019303543020301511 0 -0.07773428576776921 0.0019286715083148066 0 -0.07773428576776921 0.0019286715083148066 0 -0.077088220154267431 0.00064850951970418888 0 -0.078901152362324631 0.0010666419862440347 0 -0.075855798235310384 0.0019303543020301511 0 -0.077088220154267431 0.00064850951970418888 0 -0.072742140359651611 0.00041962561519745198 0 -0.075855798235310384 0.0019303543020301511 0 -0.07773428576776921 0.0019286715083148066 0 -0.077088220154267431 0.00064850951970418888 0 -0.077088220154267431 0.00064850951970418888 0 -0.072742140359651611 0.00041962561519745198 0 -0.074995599043280389 0.00016140328705495455 0 -0.068498243093516611 2.3777018759620903e-06 0 -0.072742140359651611 0.00041962561519745198 0 -0.073571851657074014 -5.7059176788489922e-07 0 -0.072742140359651611 0.00041962561519745198 0 -0.074995599043280389 0.00016140328705495455 0 -0.073571851657074014 -5.7059176788489922e-07 0 -0.074995599043280389 0.00016140328705495455 0 -0.073571851657074014 -5.7059176788489922e-07 0 -0.077062182455682096 -0.00015763584689362935 0 -0.079474636766533283 -0.00038757850626336166 0 -0.077062182455682096 -0.00015763584689362935 0 -0.07932470635386342 0.00024928550422431564 0 -0.077088220154267431 0.00064850951970418888 0 -0.077062182455682096 -0.00015763584689362935 0 -0.07932470635386342 0.00024928550422431564 0 -0.077088220154267431 0.00064850951970418888 0 -0.074995599043280389 0.00016140328705495455 0 -0.077062182455682096 -0.00015763584689362935 0 -0.080860022393147199 -0.00034053497341665899 0 -0.07932470635386342 0.00024928550422431564 0 -0.080775486866796892 0.00032315808650434268 0 -0.07932470635386342 0.00024928550422431564 0 -0.080033023775352971 0.0008553089038686564 0 -0.078901152362324631 0.0010666419862440347 0 -0.07932470635386342 0.00024928550422431564 0 -0.080775486866796892 0.00032315808650434268 0 -0.080033023775352971 0.0008553089038686564 0 -0.082031365518816443 5.5803280365903536e-05 0 -0.081631209669414992 0.00053056526729912271 0 -0.080775486866796892 0.00032315808650434268 0 -0.081631209669414992 0.00053056526729912271 0 -0.080775486866796892 0.00032315808650434268 0 -0.080963341655800117 0.00097781674375194139 0 -0.080775486866796892 0.00032315808650434268 0 -0.080033023775352971 0.0008553089038686564 0 -0.080963341655800117 0.00097781674375194139 0 -0.080969697027084897 0.0018906261789467249 0 -0.079784859356220802 0.0017232482844532983 0 -0.080963341655800117 0.00097781674375194139 0 -0.079784859356220802 0.0017232482844532983 0 -0.080033023775352971 0.0008553089038686564 0 -0.080963341655800117 0.00097781674375194139 0 -0.079784859356220802 0.0017232482844532983 0 -0.080033023775352971 0.0008553089038686564 0 -0.078901152362324631 0.0010666419862440347 0 -0.079784859356220802 0.0017232482844532983 0 -0.07773428576776921 0.0019286715083148066 0 -0.078901152362324631 0.0010666419862440347 0 -0.077088220154267431 0.00064850951970418888 0 -0.07932470635386342 0.00024928550422431564 0 -0.078901152362324631 0.0010666419862440347 0 -0.084731340014656473 -7.767431328704785e-05 0 -0.084747329321670048 -1.6677714905848292e-05 0 -0.084725741651507647 -5.8022686935278816e-05 0 -0.084731340014656473 -7.767431328704785e-05 0 -0.084792551340190703 2.3455944361458111e-05 0 -0.084747329321670048 -1.6677714905848292e-05 0 -0.084731340014656473 -7.767431328704785e-05 0 -0.084725741651507647 -5.8022686935278816e-05 0 -0.084668195376327221 -0.00013798972936190581 0 -0.084731340014656473 -7.767431328704785e-05 0 -0.084792551340190703 2.3455944361458111e-05 0 -0.084860211435651423 2.6622073641352409e-05 0 -0.084792551340190703 2.3455944361458111e-05 0 -0.084860211435651423 2.6622073641352409e-05 0 -0.084870411397086704 0.00014258067526551219 0 -0.084860211435651423 2.6622073641352409e-05 0 -0.084827187206089213 5.2516376343688286e-05 0 -0.084676607572849907 -0.00010971030716386564 0 -0.084731340014656473 -7.767431328704785e-05 0 -0.084860211435651423 2.6622073641352409e-05 0 -0.084676607572849907 -0.00010971030716386564 0 -0.084731340014656473 -7.767431328704785e-05 0 -0.084676607572849907 -0.00010971030716386564 0 -0.084668195376327221 -0.00013798972936190581 0 -0.084827187206089213 5.2516376343688286e-05 0 -0.084999997595445284 -3.410067249075603e-08 0 -0.084999158254675342 5.0211014290022246e-07 0 -0.084827187206089213 5.2516376343688286e-05 0 -0.084999997595445284 -3.410067249075603e-08 0 -0.084954320012718618 6.3239941483421059e-05 0 -0.084860211435651423 2.6622073641352409e-05 0 -0.084827187206089213 5.2516376343688286e-05 0 -0.084954320012718618 6.3239941483421059e-05 0 -0.084860211435651423 2.6622073641352409e-05 0 -0.084954320012718618 6.3239941483421059e-05 0 -0.08494001556606269 0.00014690628440268788 0 -0.084954320012718618 6.3239941483421059e-05 0 -0.084999927439657078 9.4368398492617001e-08 0 -0.08494001556606269 0.00014690628440268788 0 -0.084999997595445284 -3.410067249075603e-08 0 -0.084954320012718618 6.3239941483421059e-05 0 -0.084999927439657078 9.4368398492617001e-08 0 -0.084999927439657078 9.4368398492617001e-08 0 -0.08494001556606269 0.00014690628440268788 0 -0.084930988552877201 0.00020429434276493898 0 -0.08494001556606269 0.00014690628440268788 0 -0.084870411397086704 0.00014258067526551219 0