<?xml version="1.0"?>
<VTKFile type="UnstructuredGrid" version="0.1" byte_order="LittleEndian">
<UnstructuredGrid>
<Piece NumberOfPoints="30881" NumberOfCells="10862">
<Points>
<DataArray type="Float64" NumberOfComponents="3" format="ascii">
-0.49999999999999828 -0.48677703703187492 0 -0.5 -0.5 0 -0.48129281494584059 -0.49338851851593718 0 -0.5 -0.5 0 -0.48129281494584059 -0.49338851851593718 0 -0.46258562989168328 -0.5 0 -0.49999999999999828 -0.48677703703187492 0 -0.48129281494584059 -0.49338851851593718 0 -0.49999999999999828 -0.48677703703187492 0 -0.4824545428279598 -0.47451624516148783 0 -0.48129281494584059 -0.49338851851593718 0 -0.49999999999999828 -0.48677703703187492 0 -0.4824545428279598 -0.47451624516148783 0 -0.5 -0.46599539173150673 0 -0.4824545428279598 -0.47451624516148783 0 -0.46853075243710779 -0.48354990242643758 0 -0.46411508256092049 -0.46598235294430129 0 -0.4824545428279598 -0.47451624516148783 0 -0.48129281494584059 -0.49338851851593718 0 -0.46853075243710779 -0.48354990242643758 0 -0.48129281494584059 -0.49338851851593718 0 -0.46258562989168328 -0.5 0 -0.48129281494584059 -0.49338851851593718 0 -0.46258562989168328 -0.5 0 -0.46853075243710779 -0.48354990242643758 0 -0.46258562989168328 -0.5 0 -0.46853075243710779 -0.48354990242643758 0 -0.45147378687733691 -0.48362213557840178 0 -0.46853075243710779 -0.48354990242643758 0 -0.45147378687733691 -0.48362213557840178 0 -0.46411508256092049 -0.46598235294430129 0 -0.4457251648104853 -0.47020164095208389 0 -0.45147378687733691 -0.48362213557840178 0 -0.46411508256092049 -0.46598235294430129 0 -0.4457251648104853 -0.47020164095208389 0 -0.45147378687733691 -0.48362213557840178 0 -0.43513446131126993 -0.48199891714758791 0 -0.45147378687733691 -0.48362213557840178 0 -0.43275163025255442 -0.5 0 -0.43513446131126993 -0.48199891714758791 0 -0.46258562989168328 -0.5 0 -0.45147378687733691 -0.48362213557840178 0 -0.43275163025255442 -0.5 0 -0.4467190029717853 -0.45478934699519452 0 -0.4422915115958943 -0.43555510214664611 0 -0.43246707723660932 -0.44794326854796312 0 -0.4457251648104853 -0.47020164095208389 0 -0.4467190029717853 -0.45478934699519452 0 -0.46411508256092049 -0.46598235294430129 0 -0.4457251648104853 -0.47020164095208389 0 -0.4467190029717853 -0.45478934699519452 0 -0.43016578207734568 -0.46313500011938619 0 -0.4467190029717853 -0.45478934699519452 0 -0.46411508256092049 -0.46598235294430129 0 -0.47114575579794699 -0.4403844242888923 0 -0.4467190029717853 -0.45478934699519452 0 -0.47114575579794699 -0.4403844242888923 0 -0.4422915115958943 -0.43555510214664611 0 -0.47114575579794699 -0.4403844242888923 0 -0.4422915115958943 -0.43555510214664611 0 -0.46411508256092049 -0.46598235294430129 0 -0.47114575579794699 -0.4403844242888923 0 -0.48354307623736548 -0.45841843211146538 0 -0.4824545428279598 -0.47451624516148783 0 -0.46411508256092049 -0.46598235294430129 0 -0.48354307623736548 -0.45841843211146538 0 -0.4824545428279598 -0.47451624516148783 0 -0.48354307623736548 -0.45841843211146538 0 -0.5 -0.46599539173150673 0 -0.48354307623736548 -0.45841843211146538 0 -0.5 -0.46599539173150673 0 -0.49999999999999972 -0.44521374643113848 0 -0.47114575579794699 -0.4403844242888923 0 -0.49999999999999972 -0.44521374643113848 0 -0.47114575579794699 -0.4403844242888923 0 -0.49999999999999972 -0.44521374643113848 0 -0.48704432221743971 -0.42935617662229603 0 -0.47114575579794699 -0.4403844242888923 0 -0.48354307623736548 -0.45841843211146538 0 -0.49999999999999972 -0.44521374643113848 0 -0.49999999999999972 -0.44521374643113848 0 -0.48704432221743971 -0.42935617662229603 0 -0.5 -0.41591957503128979 0 -0.48704432221743971 -0.42935617662229603 0 -0.5 -0.41591957503128979 0 -0.47703153307181151 -0.41590696073786332 0 -0.5 -0.41591957503128979 0 -0.47703153307181151 -0.41590696073786332 0 -0.48817838912021821 -0.4022119694541284 0 -0.47114575579794699 -0.4403844242888923 0 -0.48704432221743971 -0.42935617662229603 0 -0.47703153307181151 -0.41590696073786332 0 -0.5 -0.38662540363144121 0 -0.47568202340906118 -0.39039593841591919 0 -0.4947615751445838 -0.37332156409002909 0 -0.47568202340906118 -0.39039593841591919 0 -0.4947615751445838 -0.37332156409002909 0 -0.5 -0.38662540363144121 0 -0.48817838912021821 -0.4022119694541284 0 -0.47568202340906118 -0.39039593841591919 0 -0.5 -0.41591957503128979 0 -0.5 -0.38662540363144121 0 -0.48817838912021821 -0.4022119694541284 0 -0.47703153307181151 -0.41590696073786332 0 -0.48817838912021821 -0.4022119694541284 0 -0.47568202340906118 -0.39039593841591919 0 -0.47703153307181151 -0.41590696073786332 0 -0.47568202340906118 -0.39039593841591919 0 -0.45660247167353862 -0.40747031274180939 0 -0.47568202340906118 -0.39039593841591919 0 -0.48030931097003587 -0.37191064435083931 0 -0.46669490250066459 -0.37481721741951951 0 -0.47568202340906118 -0.39039593841591919 0 -0.4947615751445838 -0.37332156409002909 0 -0.48030931097003587 -0.37191064435083931 0 -0.45332061783919553 -0.38729481725706361 0 -0.46669490250066459 -0.37481721741951951 0 -0.45095991715087752 -0.36968037302039969 0 -0.47568202340906118 -0.39039593841591919 0 -0.45332061783919553 -0.38729481725706361 0 -0.46669490250066459 -0.37481721741951951 0 -0.47568202340906118 -0.39039593841591919 0 -0.45660247167353862 -0.40747031274180939 0 -0.47568202340906118 -0.39039593841591919 0 -0.45332061783919553 -0.38729481725706361 0 -0.45660247167353862 -0.40747031274180939 0 -0.44332653075004852 -0.401690115615219 0 -0.44646247228389868 -0.41654464256061052 0 -0.42870657106664078 -0.39987574649354879 0 -0.45332061783919553 -0.38729481725706361 0 -0.44332653075004852 -0.401690115615219 0 -0.43479631603355468 -0.39077639303142497 0 -0.45332061783919553 -0.38729481725706361 0 -0.44332653075004852 -0.401690115615219 0 -0.45660247167353862 -0.40747031274180939 0 -0.45332061783919553 -0.38729481725706361 0 -0.43421362475025049 -0.37527491429266319 0 -0.43479631603355468 -0.39077639303142497 0 -0.45332061783919553 -0.38729481725706361 0 -0.43421362475025049 -0.37527491429266319 0 -0.45095991715087752 -0.36968037302039969 0 -0.47114575579794699 -0.4403844242888923 0 -0.45663439814062529 -0.42533932462455271 0 -0.4422915115958943 -0.43555510214664611 0 -0.47114575579794699 -0.4403844242888923 0 -0.47703153307181151 -0.41590696073786332 0 -0.45663439814062529 -0.42533932462455271 0 -0.45663439814062529 -0.42533932462455271 0 -0.45660247167353862 -0.40747031274180939 0 -0.44646247228389868 -0.41654464256061052 0 -0.47703153307181151 -0.41590696073786332 0 -0.45663439814062529 -0.42533932462455271 0 -0.45660247167353862 -0.40747031274180939 0 -0.44332653075004852 -0.401690115615219 0 -0.45660247167353862 -0.40747031274180939 0 -0.44646247228389868 -0.41654464256061052 0 -0.45660247167353862 -0.40747031274180939 0 -0.44646247228389868 -0.41654464256061052 0 -0.44646247228389868 -0.41654464256061052 0 -0.4375229199380159 -0.42454468706769971 0 -0.45663439814062529 -0.42533932462455271 0 -0.4375229199380159 -0.42454468706769971 0 -0.4422915115958943 -0.43555510214664611 0 -0.45663439814062529 -0.42533932462455271 0 -0.44646247228389868 -0.41654464256061052 0 -0.4375229199380159 -0.42454468706769971 0 -0.4375229199380159 -0.42454468706769971 0 -0.4422915115958943 -0.43555510214664611 0 -0.43077617074680319 -0.43406335077952207 0 -0.43077617074680319 -0.43406335077952207 0 -0.42550232634077589 -0.42345940056268039 0 -0.41950844772475421 -0.43888456563633732 0 -0.4375229199380159 -0.42454468706769971 0 -0.43077617074680319 -0.43406335077952207 0 -0.42550232634077589 -0.42345940056268039 0 -0.44646247228389868 -0.41654464256061052 0 -0.41657232816672918 -0.41306671883907142 0 -0.42870657106664078 -0.39987574649354879 0 -0.44646247228389868 -0.41654464256061052 0 -0.4375229199380159 -0.42454468706769971 0 -0.42550232634077589 -0.42345940056268039 0 -0.44646247228389868 -0.41654464256061052 0 -0.42550232634077589 -0.42345940056268039 0 -0.41657232816672918 -0.41306671883907142 0 -0.44646247228389868 -0.41654464256061052 0 -0.41657232816672918 -0.41306671883907142 0 -0.42550232634077589 -0.42345940056268039 0 -0.41657232816672918 -0.41306671883907142 0 -0.41333489101611293 -0.42699700567040988 0 -0.41657232816672918 -0.41306671883907142 0 -0.41333489101611293 -0.42699700567040988 0 -0.39893236021425188 -0.42931692235905211 0 -0.41333489101611293 -0.42699700567040988 0 -0.39893236021425188 -0.42931692235905211 0 -0.41950844772475421 -0.43888456563633732 0 -0.42550232634077589 -0.42345940056268039 0 -0.41333489101611293 -0.42699700567040988 0 -0.41950844772475421 -0.43888456563633732 0 -0.43421362475025049 -0.37527491429266319 0 -0.42478231784314502 -0.38643128255249681 0 -0.41656514696884139 -0.37636588688318029 0 -0.43421362475025049 -0.37527491429266319 0 -0.42478231784314502 -0.38643128255249681 0 -0.43479631603355468 -0.39077639303142497 0 -0.42478231784314502 -0.38643128255249681 0 -0.43479631603355468 -0.39077639303142497 0 -0.42870657106664078 -0.39987574649354879 0 -0.44332653075004852 -0.401690115615219 0 -0.43479631603355468 -0.39077639303142497 0 -0.42870657106664078 -0.39987574649354879 0 -0.41657232816672918 -0.41306671883907142 0 -0.40962993039643741 -0.3898634720616666 0 -0.3946356370269814 -0.39577424904278191 0 -0.42478231784314502 -0.38643128255249681 0 -0.42870657106664078 -0.39987574649354879 0 -0.40962993039643741 -0.3898634720616666 0 -0.41657232816672918 -0.41306671883907142 0 -0.42870657106664078 -0.39987574649354879 0 -0.40962993039643741 -0.3898634720616666 0 -0.42478231784314502 -0.38643128255249681 0 -0.40962993039643741 -0.3898634720616666 0 -0.41656514696884139 -0.37636588688318029 0 -0.40962993039643741 -0.3898634720616666 0 -0.41656514696884139 -0.37636588688318029 0 -0.40465459864295228 -0.37650109000307358 0 -0.39431275766669582 -0.38061373190328529 0 -0.40465459864295228 -0.37650109000307358 0 -0.3968495855878465 -0.36923685638487008 0 -0.40962993039643741 -0.3898634720616666 0 -0.39431275766669582 -0.38061373190328529 0 -0.40465459864295228 -0.376501090003
[...]
<PointData Scalars="" Vectors="displacement," Tensors="">
<DataArray type="Float64" Name="displacement" NumberOfComponents="3" format="ascii">
1.1822156937196855e-06 -0.082759490407292899 0 -7.8839537371174706e-07 -0.084995256074593808 0 3.8410410993628336e-07 -0.084932436612386766 0 -7.8839537371174706e-07 -0.084995256074593808 0 3.8410410993628336e-07 -0.084932436612386766 0 3.9112501225699048e-07 -0.085002088977568488 0 2.6991557654115719e-07 -0.082753844271923963 0 -8.9020600706766896e-06 -0.083817965730600352 0 -3.3744620483124281e-07 -0.082746898188293505 0 -0.00045692398479492852 -0.081471531584976387 0 -0.00043231168508149327 -0.0822960410132383 0 -3.3744620483124281e-07 -0.082746898188293505 0 -0.00045692398479492852 -0.081471531584976387 0 -2.4940102035718836e-06 -0.079220044827748706 0 -0.00045692398479492852 -0.081471531584976387 0 -0.00027712146194494862 -0.08315897763844958 0 -0.00038501568811599002 -0.082567314070187109 0 -0.00045692398479492852 -0.081471531584976387 0 -0.00043231168508149327 -0.0822960410132383 0 -0.00027712146194494862 -0.08315897763844958 0 -8.9020600706766896e-06 -0.083817965730600352 0 -4.0194957005523867e-07 -0.084997997964103095 0 -0.00043231168508149327 -0.0822960410132383 0 -2.9110294238236992e-06 -0.084994255725657081 0 -0.00027712146194494862 -0.08315897763844958 0 -2.9110294238236992e-06 -0.084994255725657081 0 -0.00027712146194494862 -0.08315897763844958 0 -0.00027610133350627615 -0.08391693533271577 0 -0.00027712146194494862 -0.08315897763844958 0 -0.00027610133350627615 -0.08391693533271577 0 -0.00038501568811599002 -0.082567314070187109 0 -0.00043014808217110373 -0.083264868689840899 0 -0.00027610133350627615 -0.08391693533271577 0 -0.00038501568811599002 -0.082567314070187109 0 -0.00043014808217110373 -0.083264868689840899 0 -0.00027610133350627615 -0.08391693533271577 0 -0.00021491932874246488 -0.083962238168234532 0 -0.00027610133350627615 -0.08391693533271577 0 7.4180775484863829e-07 -0.084998795148626266 0 -0.00021491932874246488 -0.083962238168234532 0 -2.9110294238236992e-06 -0.084994255725657081 0 -0.00027610133350627615 -0.08391693533271577 0 7.4180775484863829e-07 -0.084998795148626266 0 -0.0005383511672172283 -0.082471750409358294 0 -0.0017233606034730445 -0.08107240990045339 0 -0.0011647779914204825 -0.082167314032391012 0 -0.00043014808217110373 -0.083264868689840899 0 -0.0005383511672172283 -0.082471750409358294 0 -0.00038501568811599002 -0.082567314070187109 0 -0.00043014808217110373 -0.083264868689840899 0 -0.0005383511672172283 -0.082471750409358294 0 -0.00067812891422314701 -0.08296501497408737 0 -0.0005383511672172283 -0.082471750409358294 0 -0.00038501568811599002 -0.082567314070187109 0 0.00063299083700154299 -0.081996417965128951 0 -0.0005383511672172283 -0.082471750409358294 0 0.00063299083700154299 -0.081996417965128951 0 -0.0017233606034730445 -0.08107240990045339 0 -0.00036635107654090025 -0.077709935008157496 0 -0.00053142508966703484 -0.079029299035526662 0 -0.00038501568811599002 -0.082567314070187109 0 0.00063299083700154299 -0.081996417965128951 0 -0.00042308334734175176 -0.080239504685020974 0 -0.00045692398479492852 -0.081471531584976387 0 -0.00038501568811599002 -0.082567314070187109 0 -0.00042308334734175176 -0.080239504685020974 0 -0.00045692398479492852 -0.081471531584976387 0 -0.00042308334734175176 -0.080239504685020974 0 -2.4940102035718836e-06 -0.079220044827748706 0 -0.00042308334734175176 -0.080239504685020974 0 -2.4940102035718836e-06 -0.079220044827748706 0 4.706692061413547e-06 -0.075694430544835573 0 -0.00036635107654090025 -0.077709935008157496 0 -9.1313355325685315e-07 -0.075688425456623493 0 -0.0020066661284222878 -0.073342930105044724 0 -5.6538002265468995e-07 -0.075678101860287936 0 -0.00082043874854434852 -0.072964230504388647 0 0.00063299083700154299 -0.081996417965128951 0 -0.00042308334734175176 -0.080239504685020974 0 4.706692061413547e-06 -0.075694430544835573 0 -5.6538002265468995e-07 -0.075678101860287936 0 -0.00082043874854434852 -0.072964230504388647 0 -2.1214632741951881e-06 -0.070709276129420059 0 -0.00082043874854434852 -0.072964230504388647 0 -2.1214632741951881e-06 -0.070709276129420059 0 -7.9879728660214061e-05 -0.072408421408009807 0 -2.1214632741951881e-06 -0.070709276129420059 0 -7.9879728660214061e-05 -0.072408421408009807 0 0.00019854163192137511 -0.0697760577348851 0 -0.0020066661284222878 -0.073342930105044724 0 -0.00082043874854434852 -0.072964230504388647 0 -7.9879728660214061e-05 -0.072408421408009807 0 3.7220379110715625e-06 -0.065726014411217976 0 0.0015921731219522453 -0.070815380869310121 0 0.0005743638170871031 -0.063097625461630627 0 -9.1075411498527085e-05 -0.066865435450686669 0 -4.5538922985586516e-05 -0.066274478388107086 0 3.7220379110715625e-06 -0.065726014411217976 0 0.00019854163192137511 -0.0697760577348851 0 0.0015921731219522453 -0.070815380869310121 0 -2.1214632741951881e-06 -0.070709276129420059 0 3.7220379110715625e-06 -0.065726014411217976 0 0.00019854163192137511 -0.0697760577348851 0 -7.9879728660214061e-05 -0.072408421408009807 0 0.00019854163192137511 -0.0697760577348851 0 0.0015921731219522453 -0.070815380869310121 0 -7.9879728660214061e-05 -0.072408421408009807 0 0.0015921731219522453 -0.070815380869310121 0 0.0015462104713989419 -0.07571030981697574 0 0.00057328689989254427 -0.057871332733409296 0 0.00029883581237023619 -0.059152982249955605 0 0.00040847029012458378 -0.058078202549787405 0 0.00057328689989254427 -0.057871332733409296 0 0.0005743638170871031 -0.063097625461630627 0 0.00029883581237023619 -0.059152982249955605 0 -0.00050007997855832363 -0.058787756728142536 0 0.00040847029012458378 -0.058078202549787405 0 0.00057425378155093892 -0.058731113488908276 0 0.00057328689989254427 -0.057871332733409296 0 -0.00050007997855832363 -0.058787756728142536 0 0.00040847029012458378 -0.058078202549787405 0 -9.1075411498527085e-05 -0.066865435450686669 0 -0.00069043818314533639 -0.068860468949761264 0 0.00057328689989254427 -0.057871332733409296 0 -0.00050007997855832363 -0.058787756728142536 0 -0.0027477032886178742 -0.058495420713927347 0 -0.0025014254116167175 -0.059950714797545032 0 -0.0044475748456205321 -0.059540926440292852 0 -0.0027406733548480801 -0.061906426112824993 0 -0.00050007997855832363 -0.058787756728142536 0 -0.0025014254116167175 -0.059950714797545032 0 -0.0013009664492018721 -0.060937403605875205 0 -0.00050007997855832363 -0.058787756728142536 0 -0.0025014254116167175 -0.059950714797545032 0 -0.0027477032886178742 -0.058495420713927347 0 -0.00050007997855832363 -0.058787756728142536 0 0.00042301792049922023 -0.06070178106869472 0 -0.0013009664492018721 -0.060937403605875205 0 -0.00050007997855832363 -0.058787756728142536 0 0.00042301792049922023 -0.06070178106869472 0 0.00057425378155093892 -0.058731113488908276 0 -0.0020066661284222878 -0.073342930105044724 0 -0.00034778654761500954 -0.076588090679444068 0 -0.0017233606034730445 -0.08107240990045339 0 -0.0020066661284222878 -0.073342930105044724 0 -7.9879728660214061e-05 -0.072408421408009807 0 -0.00034778654761500954 -0.076588090679444068 0 -0.00034778654761500954 -0.076588090679444068 0 0.0015462104713989419 -0.07571030981697574 0 0.00095604031510446706 -0.078628072494184784 0 -7.9879728660214061e-05 -0.072408421408009807 0 -0.00034778654761500954 -0.076588090679444068 0 0.0015462104713989419 -0.07571030981697574 0 -0.0025014254116167175 -0.059950714797545032 0 -0.0027477032886178742 -0.058495420713927347 0 -0.0044475748456205321 -0.059540926440292852 0 -0.00069043818314533639 -0.068860468949761264 0 -0.0010502484429781827 -0.070308318950940807 0 -0.0010502484429781827 -0.070308318950940807 0 -0.0017854334524909823 -0.07175499601644493 0 -0.00034778654761500954 -0.076588090679444068 0 -0.00079577756862318902 -0.081421378001158992 0 -0.0017233606034730445 -0.08107240990045339 0 -0.00034778654761500954 -0.076588090679444068 0 0.00095604031510446706 -0.078628072494184784 0 -0.00079577756862318902 -0.081421378001158992 0 -0.00079577756862318902 -0.081421378001158992 0 -0.0017233606034730445 -0.08107240990045339 0 -0.0013968552728340538 -0.081857250617240293 0 -0.0013968552728340538 -0.081857250617240293 0 -0.0013316682521655855 -0.081818610680306963 0 -0.001413475862099649 -0.082127896474621764 0 -0.00079577756862318902 -0.081421378001158992 0 -0.0013968552728340538 -0.081857250617240293 0 -0.0013316682521655855 -0.081818610680306963 0 -0.0044475748456205321 -0.059540926440292852 0 -0.0052230999349670484 -0.063879097165744914 0 -0.0027406733548480801 -0.061906426112824993 0 -0.00057274469273378519 -0.081282066453918098 0 -0.00079577756862318902 -0.081421378001158992 0 -0.0013316682521655855 -0.081818610680306963 0 -0.00057274469273378519 -0.081282066453918098 0 -0.0013316682521655855 -0.081818610680306963 0 -0.0017689951791416175 -0.081975074930142014 0 -0.0010502484429781827 -0.070308318950940807 0 -0.0025633066296831975 -0.072831196546892879 0 -0.0013316682521655855 -0.081818610680306963 0 -0.0017689951791416175 -0.081975074930142014 0 -0.0016390388395506959 -0.081890961354904562 0 -0.0017689951791416175 -0.081975074930142014 0 -0.0016390388395506959 -0.081890961354904562 0 -0.0019137364854793254 -0.081537296757493674 0 -0.0016390388395506959 -0.081890961354904562 0 -0.0019137364854793254 -0.081537296757493674 0 -0.001413475862099649 -0.082127896474621764 0 -0.0013316682521655855 -0.081818610680306963 0 -0.0016390388395506959 -0.081890961354904562 0 -0.001413475862099649 -0.082127896474621764 0 0.00042301792049922023 -0.06070178106869472 0 -0.00082983327363442272 -0.062385664067292665 0 0.00061779954618598569 -0.063577876448870183 0 0.00042301792049922023 -0.06070178106869472 0 -0.00082983327363442272 -0.062385664067292665 0 -0.0013009664492018721 -0.060937403605875205 0 -0.00082983327363442272 -0.062385664067292665 0 -0.0013009664492018721 -0.060937403605875205 0 -0.0027406733548480801 -0.061906426112824993 0 -0.0025014254116167175 -0.059950714797545032 0 -0.0013009664492018721 -0.060937403605875205 0 -0.0027406733548480801 -0.061906426112824993 0 -0.0052230999349670484 -0.063879097165744914 0 -0.0014153327882989238 -0.065181425117772127 0 -0.0025395030944173219 -0.068464823519523182 0 -0.00082983327363442272 -0.062385664067292665 0 -0.0027406733548480801 -0.061906426112824993 0 -0.0014153327882989238 -0.065181425117772127 0 -0.0052230999349670484 -0.063879097165744914 0 -0.0027406733548480801 -0.061906426112824993 0 -0.0014153327882989238 -0.065181425117772127 0 -0.00082983327363442272 -0.062385664067292665 0 -0.0014153327882989238 -0.065181425117772127 0 0.00061779954618598569 -0.063577876448870183 0 -0.0014153327882989238 -0.065181425117772127 0 0.00061779954618598569 -0.063577876448870183 0 0.00089219322380763378 -0.066154281439374241 0 0.00031958239712549238 -0.06853578216701077 0 0.00089219322380763378 -0.066154281439374241 0 0.002485682556822637 -0.067965720102737576 0 -0.0014153327882989238 -0.065181425117772127 0 0.00031958239712549238 -0.06853578216701077 0 0.00089219322380763378 -0.066154281439374241 0 -0.0014153327882989238 -0.065181425117772127 0 0.00031958239712549238 -0.06853578216701077 0 -0.0025395030944173219 -0.068464823519523182 0 -0.0025395030944173219 -0.068464823519523182 0 -0.005587232275602187 -0.070219959673739105 0 -0.0024507765611573207 -0.073342442108477665 0 -0.0025395030944173219 -0.068464823519523182 0 0.00054720790613307197 -0.073062891268432309 0 -0.0024507765611573207 -0.073342442108477665 0 0.00031958239712549238 -0.06853578216701077 0 -0.0025395030944173219 -0.068464823519523182 0 0.00054720790613307197 -0.073062891268432309 0 0.00031958239712549238 -0.06853578216701077 0 0.00054720790613307197 -0.073062891268432309 0 0.002441189548243163 -0.070606167900945496 0 -0.0017689951791416175 -0.081975074930142014 0 -0.0019137364854793254 -0.081537296757493674 0 -0.0032122532321709613 -0.080933123479183536 0 -0.0052230999349670484 -0.063879097165744914 0 -0.0025395030944173219 -0.068464823519523182 0 -0.005587232275602187 -0.070219959673739105 0 -0.0025633066296831975 -0.072831196546892879 0 -0.0033379220018871802 -0.075079982953738925 0 -0.0032122532321709613 -0.080933123479183536 0 -0.0023255978133575606 -0.080492725620475297 0 -0.0029980221349604 -0.078942054209231005 0 -0.0023255978133575606 -0.080492725620475297 0 -0.0015383436921150269 -0.080787681507524856 0 -0.0022627100406969634 -0.079561212980445606 0 -0.0019137364854793254 -0.081537296757493674 0 -0.0023255978133575606 -0.080492725620475297 0 -0.0015383436921150269 -0.080787681507524856 0 -0.0019137364854793254 -0.081537296757493674 0 -0.0032122532321709613 -0.080933123479183536 0 -0.0023255978133575606 -0.080492725620475297 0 -0.0015383436921150269 -0.080787681507524856 0 -0.0012044692064854525 -0.082004760234499569 0 -0.0007323076602962109 -0.081385442729938112 0 -0.0019137364854793254 -0.081537296757493674 0 -0.0015383436921150269 -0.080787681507524856 0 -0.0012044692064854525 -0.082004760234499569 0 -0.0012044692064854525 -0.082004760234499569 0 -0.0007323076602962109 -0.081385442729938112 0 -0.00048338787478761127 -0.082396081439176719 0 -0.0015383436921150269 -0.080787681507524856 0 -0.0007323076602962109 -0.081385442729938112 0 -0.00084504387614026382 -0.08030629412704908 0 -0.0007323076602962109 -0.081385442729938112 0 4.1671030982123891e-05 -0.080825734120605799 0 -0.00084504387614026382 -0.08030629412704908 0 4.1671030982123891e-05 -0.080825734120605799 0 0.0011047175954543072 -0.081719437527086061 0 -0.00010492309387031302 -0.081854050758544197 0 -0.0007323076602962109 -0.081385442729938112 0 4.1671030982123891e-05 -0.080825734120605799 0 -0.00010492309387031302 -0.081854050758544197 0 2.4957369022591745e-05 -0.083641498999070446 0 -0.0002649334017105675 -0.08432459024129775 0 4.9099209165388703e-05 -0.0850813632604248 0 -3.6646569495451262e-09 -0.084998512840343418 0 9.0019098529914881e-08 -0.085000985121038902 0 4.9099209165388703e-05 -0.0850813632604248 0 -1.8896158218825885e-05 -0.084992521294579654 0 9.0019098529914881e-08 -0.085000985121038902 0 4.1671030982123891e-05 -0.080825734120605799 0 0.0011047175954543072 -0.081719437527086061 0 0.0012118826400089901 -0.080175851715899055 0 2.4957369022591745e-05 -0.083641498999070446 0 8.2133139420579432e-05 -0.083703019011206373 0 0.0011047175954543072 -0.081719437527086061 0 -0.00010492309387031302 -0.081854050758544197 0 -8.7762335628904522e-07 -0.082885629537455111 0 4.9099209165388703e-05 -0.0850813632604248 0 -3.6646569495451262e-09 -0.084998512840343418 0 0.00027041804173103841 -0.084350695756567798 0 0.0011047175954543072 -0.081719437527086061 0 -8.7762335628904522e-07 -0.082885629537455111 0 0.00027041804173103841 -0.084350695756567798 0 -0.0007323076602962109 -0.081385442729938112 0 -0.00010492309387031302 -0.081854050758544197 0 -0.00048338787478761127 -0.082396081439176719 0 -0.00010492309387031302 -0.081854050758544197 0 -8.7762335628904522e-07 -0.082885629537455111 0 -0.00048338787478761127 -0.082396081439176719 0 -0.00048338787478761127 -0.082396081439176719 0 -0.00032642992367704326 -0.083450537603513161 0 -0.00079850871155968234 -0.082701695703881181 0 -8.7762335628904522e-07 -0.082885629537455111 0 -0.00032642992367704326 -0.083450537603513161 0 0.00027041804173103841 -0.084350695756567798 0 -8.7762335628904522e-07 -0.082885629537455111 0 -0.00048338787478761127 -0.082396081439176719 0 -0.00032642992367704326 -0.083450537603513161 0 -0.00032642992367704326 -0.083450537603513161 0 0.00027041804173103841 -0.084350695756567798 0 -3.4774546984601374e-05 -0.084216156121844826 0 -3.6646569495451262e-09 -0.084998512840343418 0 0.00027041804173103841 -0.084350695756567798 0 7.4180775484863829e-07 -0.084998795148626266 0 0.00027041804173103841 -0.084350695756567798 0 -3.4774546984601374e-05 -0.084216156121844826 0 7.4180775484863829e-07 -0.084998795148626266 0 -3.4774546984601374e-05 -0.084216156121844826 0 7.4180775484863829e-07 -0.084998795148626266 0 -0.00021491932874246488 -0.083962238168234532 0 -0.00043014808217110373 -0.083264868689840899 0 -0.00021491932874246488 -0.083962238168234532 0 -0.00067812891422314701 -0.08296501497408737 0 -0.00032642992367704326 -0.083450537603513161 0 -0.00021491932874246488 -0.083962238168234532 0 -0.00067812891422314701 -0.08296501497408737 0 -0.00032642992367704326 -0.083450537603513161 0 -3.4774546984601374e-05 -0.084216156121844826 0 -0.00021491932874246488 -0.083962238168234532 0 -0.0005383511672172283 -0.082471750409358294 0 -0.00067812891422314701 -0.08296501497408737 0 -0.0011647779914204825 -0.082167314032391012 0 -0.00067812891422314701 -0.08296501497408737 0 -0.0011032764392104263 -0.082433885667289264 0 -0.00079850871155968234 -0.082701695703881181 0 -0.00067812891422314701 -0.08296501497408737 0 -0.0011647779914204825 -0.082167314032391012 0 -0.0011032764392104263 -0.082433885667289264 0 -0.0017233606034730445 -0.08107240990045339 0 -0.0013968552728340538 -0.081857250617240293 0 -0.0011647779914204825 -0.082167314032391012 0 -0.0013968552728340538 -0.081857250617240293 0 -0.0011647779914204825 -0.082167314032391012 0 -0.001413475862099649 -0.082127896474621764 0 -0.0011647779914204825 -0.082167314032391012 0 -0.0011032764392104263 -0.082433885667289264 0 -0.001413475862099649 -0.082127896474621764 0 -0.0019137364854793254 -0.081537296757493674 0 -0.0012044692064854525 -0.082004760234499569 0 -0.001413475862099649 -0.082127896474621764 0 -0.0012044692064854525 -0.082004760234499569 0 -0.0011032764392104263 -0.082433885667289264 0 -0.001413475862099649 -0.082127896474621764 0 -0.0012044692064854525 -0.082004760234499569 0 -0.0011032764392104263 -0.082433885667289264 0 -0.00079850871155968234 -0.082701695703881181 0 -0.0012044692064854525 -0.082004760234499569 0 -0.00048338787478761127 -0.082396081439176719 0 -0.00079850871155968234 -0.082701695703881181 0 -0.00032642992367704326 -0.083450537603513161 0 -0.00067812891422314701 -0.08296501497408737 0 -0.00079850871155968234 -0.082701695703881181 0 -0.00027825665609204446 -0.048672546661745912 0 -0.00039492217265999847 -0.050059790314447065 0 0.00039806338272901546 -0.049723822394637164 0 -0.00027825665609204446 -0.048672546661745912 0 -0.00083687703326814115 -0.049908817120656278 0 -0.00039492217265999847 -0.050059790314447065 0 -0.00027825665609204446 -0.048672546661745912 0 0.00039806338272901546 -0.049723822394637164 0 0.00045127930564792056 -0.048260309049030052 0 -0.00027825665609204446 -0.048672546661745912 0 -0.00083687703326814115 -0.049908817120656278 0 -0.00084683204949688321 -0.048682513676913161 0 -0.00083687703326814115 -0.049908817120656278 0 -0.00084683204949688321 -0.048682513676913161 0 -0.0010415988749613685 -0.050458202944566113 0 -0.00084683204949688321 -0.048682513676913161 0 -0.00026497634807426618 -0.045234736667321765 0 0.00012300526308429898 -0.046815464879939761 0 -0.00027825665609204446 -0.048672546661745912 0 -0.00084683204949688321 -0.048682513676913161 0 0.00012300526308429898 -0.046815464879939761 0 -0.00027825665609204446 -0.048672546661745912 0 0.00012300526308429898 -0.046815464879939761 0 0.00045127930564792056 -0.048260309049030052 0 -0.00026497634807426618 -0.045234736667321765 0 -8.9738274528443076e-07 -0.045807599831145046 0 -6.6315880192176487e-07 -0.040825683019648763 0 -0.00026497634807426618 -0.045234736667321765 0 -8.9738274528443076e-07 -0.045807599831145046 0 -0.00057010192526357186 -0.048490478611485005 0 -0.00084683204949688321 -0.048682513676913161 0 -0.00026497634807426618 -0.045234736667321765 0 -0.00057010192526357186 -0.048490478611485005 0 -0.00084683204949688321 -0.048682513676913161 0 -0.00057010192526357186 -0.048490478611485005 0 -0.00079593586689054047 -0.051037526913042024 0 -0.00057010192526357186 -0.048490478611485005 0 -1.3586755413021789e-06 -0.050786800502758814 0 -0.00079593586689054047 -0.051037526913042024 0 -8.9738274528443076e-07 -0.045807599831145046 0 -0.00057010192526357186 -0.048490478611485005 0 -1.3586755413021789e-06 -0.050786800502758814 0 -1.3586755413021789e-06