<?xml version="1.0"?>
<VTKFile type="UnstructuredGrid" version="0.1" byte_order="LittleEndian">
<UnstructuredGrid>
<Piece NumberOfPoints="30156" NumberOfCells="10569">
<Points>
<DataArray type="Float64" NumberOfComponents="3" format="ascii">
-0.5 -0.5 0 -0.46860935356359301 -0.4716247601870463 0 -0.44138414188997571 -0.5 0 -0.5 -0.5 0 -0.46860935356359301 -0.4716247601870463 0 -0.5 -0.45368417051362708 0 -0.46860935356359301 -0.4716247601870463 0 -0.44138414188997571 -0.5 0 -0.44373922468922428 -0.46708366919693861 0 -0.44138414188997571 -0.5 0 -0.44373922468922428 -0.46708366919693861 0 -0.42848098353757758 -0.4712912712481841 0 -0.44666692743510272 -0.44282911341298181 0 -0.45798068478843762 -0.44053863329087989 0 -0.43381302958248019 -0.44258083223160721 0 -0.45125040592494359 -0.43878050037838479 0 -0.45798068478843762 -0.44053863329087989 0 -0.43381302958248019 -0.44258083223160721 0 -0.45125040592494359 -0.43878050037838479 0 -0.44074645873626223 -0.4382910044992358 0 -0.43381302958248019 -0.44258083223160721 0 -0.45798068478843762 -0.44053863329087989 0 -0.43381302958248019 -0.44258083223160721 0 -0.44666692743510272 -0.44282911341298181 0 -0.45458540561180583 -0.45409838932824431 0 -0.45798068478843762 -0.44053863329087989 0 -0.44666692743510272 -0.44282911341298181 0 -0.43957809815966431 -0.45137334764801817 0 -0.45458540561180583 -0.45409838932824431 0 -0.45125040592494359 -0.43878050037838479 0 -0.44074645873626223 -0.4382910044992358 0 -0.44666692743510272 -0.44282911341298181 0 -0.43381302958248019 -0.44258083223160721 0 -0.44074645873626223 -0.4382910044992358 0 -0.43751624137632872 -0.43814047269837142 0 -0.44666692743510272 -0.44282911341298181 0 -0.43957809815966431 -0.45137334764801817 0 -0.43381302958248019 -0.44258083223160721 0 -0.43957809815966431 -0.45137334764801817 0 -0.44373922468922428 -0.46708366919693861 0 -0.43065591625229671 -0.45803535725140321 0 -0.43957809815966431 -0.45137334764801817 0 -0.44373922468922428 -0.46708366919693861 0 -0.45458540561180583 -0.45409838932824431 0 -0.46860935356359301 -0.4716247601870463 0 -0.45458540561180583 -0.45409838932824431 0 -0.47093814503481352 -0.45114081223360081 0 -0.46860935356359301 -0.4716247601870463 0 -0.44373922468922428 -0.46708366919693861 0 -0.45458540561180583 -0.45409838932824431 0 -0.45458540561180583 -0.45409838932824431 0 -0.45798068478843762 -0.44053863329087989 0 -0.47093814503481352 -0.45114081223360081 0 -0.45125040592494359 -0.43878050037838479 0 -0.45798068478843762 -0.44053863329087989 0 -0.45399083980939559 -0.4348348321941648 0 -0.45798068478843762 -0.44053863329087989 0 -0.48214436818904333 -0.43870206080962459 0 -0.46860935356359301 -0.4716247601870463 0 -0.47093814503481352 -0.45114081223360081 0 -0.5 -0.45368417051362708 0 -0.48214436818904333 -0.43870206080962459 0 -0.47093814503481352 -0.45114081223360081 0 -0.5 -0.45368417051362708 0 -0.45798068478843762 -0.44053863329087989 0 -0.48214436818904333 -0.43870206080962459 0 -0.47093814503481352 -0.45114081223360081 0 -0.48214436818904333 -0.43870206080962459 0 -0.5 -0.45368417051362708 0 -0.49999999999999961 -0.39121555143091152 0 -0.48214436818904333 -0.43870206080962459 0 -0.47917208045877552 -0.40685719185339753 0 -0.49999999999999961 -0.39121555143091152 0 -0.48214436818904333 -0.43870206080962459 0 -0.47917208045877552 -0.40685719185339753 0 -0.46190030379456848 -0.42582299198835938 0 -0.47917208045877552 -0.40685719185339753 0 -0.45834416091755159 -0.4224988322758837 0 -0.50000000000000266 -0.37625599721554409 0 -0.49999999999999961 -0.39121555143091152 0 -0.47809538505193128 -0.38373577432322098 0 -0.47917208045877552 -0.40685719185339753 0 -0.49999999999999961 -0.39121555143091152 0 -0.47917208045877552 -0.40685719185339753 0 -0.49999999999999961 -0.39121555143091152 0 -0.47809538505193128 -0.38373577432322098 0 -0.47917208045877552 -0.40685719185339753 0 -0.47809538505193128 -0.38373577432322098 0 -0.4562942774091826 -0.39808154788458883 0 -0.47809538505193128 -0.38373577432322098 0 -0.4562942774091826 -0.39808154788458883 0 -0.45429064667093277 -0.36454062509685042 0 -0.4562942774091826 -0.39808154788458883 0 -0.4354602524783906 -0.38042392603318997 0 -0.45429064667093277 -0.36454062509685042 0 -0.4562942774091826 -0.39808154788458883 0 -0.43870160679350412 -0.40058637322139601 0 -0.438944672890971 -0.41835480388456819 0 -0.4562942774091826 -0.39808154788458883 0 -0.43870160679350412 -0.40058637322139601 0 -0.4354602524783906 -0.38042392603318997 0 -0.44074645873626223 -0.4382910044992358 0 -0.45834416091755159 -0.4224988322758837 0 -0.46190030379456848 -0.42582299198835938 0 -0.45798068478843762 -0.44053863329087989 0 -0.48214436818904333 -0.43870206080962459 0 -0.46190030379456848 -0.42582299198835938 0 -0.45798068478843762 -0.44053863329087989 0 -0.45399083980939559 -0.4348348321941648 0 -0.46190030379456848 -0.42582299198835938 0 -0.47917208045877552 -0.40685719185339753 0 -0.45834416091755159 -0.4224988322758837 0 -0.46190030379456848 -0.42582299198835938 0 -0.47917208045877552 -0.40685719185339753 0 -0.4562942774091826 -0.39808154788458883 0 -0.45834416091755159 -0.4224988322758837 0 -0.4562942774091826 -0.39808154788458883 0 -0.45834416091755159 -0.4224988322758837 0 -0.438944672890971 -0.41835480388456819 0 -0.44074645873626223 -0.4382910044992358 0 -0.45399083980939559 -0.4348348321941648 0 -0.46190030379456848 -0.42582299198835938 0 -0.43751624137632872 -0.43814047269837142 0 -0.45834416091755159 -0.4224988322758837 0 -0.44074645873626223 -0.4382910044992358 0 -0.43751624137632872 -0.43814047269837142 0 -0.45834416091755159 -0.4224988322758837 0 -0.43751624137632872 -0.43814047269837142 0 -0.45834416091755159 -0.4224988322758837 0 -0.438944672890971 -0.41835480388456819 0 -0.44074645873626223 -0.4382910044992358 0 -0.46190030379456848 -0.42582299198835938 0 -0.45125040592494359 -0.43878050037838479 0 -0.44074645873626223 -0.4382910044992358 0 -0.45399083980939559 -0.4348348321941648 0 -0.43751624137632872 -0.43814047269837142 0 -0.438944672890971 -0.41835480388456819 0 -0.4144413395475034 -0.43706515604320312 0 -0.43870160679350412 -0.40058637322139601 0 -0.438944672890971 -0.41835480388456819 0 -0.42233522448127431 -0.40750863725634989 0 -0.438944672890971 -0.41835480388456819 0 -0.42233522448127431 -0.40750863725634989 0 -0.4144413395475034 -0.43706515604320312 0 -0.42233522448127431 -0.40750863725634989 0 -0.4144413395475034 -0.43706515604320312 0 -0.39855316224479909 -0.41319025614961519 0 -0.43870160679350412 -0.40058637322139601 0 -0.4354602524783906 -0.38042392603318997 0 -0.4132231888202707 -0.39079800449325269 0 -0.43870160679350412 -0.40058637322139601 0 -0.42233522448127431 -0.40750863725634989 0 -0.4132231888202707 -0.39079800449325269 0 -0.42233522448127431 -0.40750863725634989 0 -0.4132231888202707 -0.39079800449325269 0 -0.39855316224479909 -0.41319025614961519 0 -0.4354602524783906 -0.38042392603318997 0 -0.4132231888202707 -0.39079800449325269 0 -0.40865055985917992 -0.37232192521179569 0 -0.4132231888202707 -0.39079800449325269 0 -0.39363700061900542 -0.37996143275930799 0 -0.39458131510345451 -0.39463922637655507 0 -0.4132231888202707 -0.39079800449325269 0 -0.39363700061900542 -0.37996143275930799 0 -0.40865055985917992 -0.37232192521179569 0 -0.4132231888202707 -0.39079800449325269 0 -0.39458131510345451 -0.39463922637655507 0 -0.39855316224479909 -0.41319025614961519 0 -0.39458131510345451 -0.39463922637655507 0 -0.37763105849602741 -0.38609409550699969 0 -0.37345153171335432 -0.40470054699450952 0 -0.39458131510345451 -0.39463922637655507 0 -0.39855316224479909 -0.41319025614961519 0 -0.37345153171335432 -0.40470054699450952 0 -0.39363700061900542 -0.37996143275930799 0 -0.37763105849602741 -0.38609409550699969 0 -0.37502948216613591 -0.37147003818258562 0 -0.39363700061900542 -0.37996143275930799 0 -0.39458131510345451 -0.39463922637655507 0 -0.37763105849602741 -0.38609409550699969 0 -0.4144413395475034 -0.43706515604320312 0 -0.39136643771867818 -0.43598983938803221 0 -0.4144413395475034 -0.43706515604320312 0 -0.39136643771867818 -0.43598983938803221 0 -0.39855316224479909 -0.41319025614961519 0 -0.39855316224479909 -0.41319025614961519 0 -0.38047309832905851 -0.42163038249540402 0 -0.37345153171335432 -0.40470054699450952 0 -0.39136643771867818 -0.43598983938803221 0 -0.36829153588985297 -0.43491452273286141 0 -0.39136643771867818 -0.43598983938803221 0 -0.38047309832905851 -0.42163038249540402 0 -0.36829153588985297 -0.43491452273286141 0 -0.39136643771867818 -0.43598983938803221 0 -0.39855316224479909 -0.41319025614961519 0 -0.38047309832905851 -0.42163038249540402 0 -0.39136643771867818 -0.43598983938803221 0 -0.37371999038825499 -0.44712249952325123 0 -0.36829153588985297 -0.43491452273286141 0 -0.39650119013283491 -0.44545984122179422 0 -0.37371999038825499 -0.44712249952325123 0 -0.39650119013283491 -0.44545984122179422 0 -0.39154517331800981 -0.45612143949345119 0 -0.37371999038825499 -0.44712249952325123 0 -0.39136643771867818 -0.43598983938803221 0 -0.39650119013283491 -0.44545984122179422 0 -0.37371999038825499 -0.44712249952325123 0 -0.4144413395475034 -0.43706515604320312 0 -0.39650119013283491 -0.44545984122179422 0 -0.40183145120156061 -0.44507081856652531 0 -0.4144413395475034 -0.43706515604320312 0 -0.39136643771867818 -0.43598983938803221 0 -0.39650119013283491 -0.44545984122179422 0 -0.40183145120156061 -0.44507081856652531 0 -0.39154517331800981 -0.45612143949345119 0 -0.40910493863108249 -0.45694042106853061 0 -0.39650119013283491 -0.44545984122179422 0 -0.40183145120156061 -0.44507081856652531 0 -0.39154517331800981 -0.45612143949345119 0 -0.39650119013283491 -0.44545984122179422 0 -0.40183145120156061 -0.44507081856652531 0 -0.39340682564992691 -0.46619284153898272 0 -0.40910493863108249 -0.45694042106853061 0 -0.39154517331800981 -0.45612143949345119 0 -0.39340682564992691 -0.46619284153898272 0 -0.40910493863108249 -0.45694042106853061 0 -0.39340682564992691 -0.46619284153898272 0 -0.4119309
[...]
<PointData Scalars="" Vectors="displacement," Tensors="">
<DataArray type="Float64" Name="displacement" NumberOfComponents="3" format="ascii">
-0.024998190433779013 -0.024999156269857357 0 -0.02448066077720296 -0.024116303355384981 0 -0.024998479611898442 -0.022071224589564637 0 -0.024998190433779013 -0.024999156269857357 0 -0.02448066077720296 -0.024116303355384981 0 -0.022688049874815739 -0.024998326596238109 0 -0.02448066077720296 -0.024116303355384981 0 -0.024998479611898442 -0.022071224589564637 0 -0.024988504720870035 -0.022783363118702295 0 -0.024998479611898442 -0.022071224589564637 0 -0.024988504720870035 -0.022783363118702295 0 -0.025245976027218456 -0.021880860144994307 0 -0.025390824485217477 -0.023179384993602288 0 -0.024950845175266339 -0.023898210414441422 0 -0.02600786014397068 -0.022373674188266884 0 -0.022530268784325316 -0.026819189860298583 0 -0.022619752266442136 -0.026557223446671836 0 -0.022642425585988408 -0.027454634559756354 0 -0.022530268784325316 -0.026819189860298583 0 -0.022497728616104419 -0.027200607726923821 0 -0.022642425585988408 -0.027454634559756354 0 -0.023736186160138721 -0.025328329080018815 0 -0.023957660527744933 -0.023947656136175215 0 -0.025390824485217477 -0.023179384993602288 0 -0.024727729512374258 -0.023600143344967048 0 -0.024950845175266339 -0.023898210414441422 0 -0.025390824485217477 -0.023179384993602288 0 -0.025349649385008794 -0.022684378720303128 0 -0.024727729512374258 -0.023600143344967048 0 -0.022456015886111486 -0.027088723331638167 0 -0.022394496866743014 -0.025970705311365267 0 -0.025238123477469052 -0.022681049818126874 0 -0.023957660527744933 -0.023947656136175215 0 -0.022394496866743014 -0.025970705311365267 0 -0.021442590615882537 -0.023442265489391229 0 -0.025390824485217477 -0.023179384993602288 0 -0.025349649385008794 -0.022684378720303128 0 -0.02587845032648808 -0.022369329340341734 0 -0.025349649385008794 -0.022684378720303128 0 -0.024988504720870035 -0.022783363118702295 0 -0.025462588914785353 -0.022124210834431134 0 -0.025349649385008794 -0.022684378720303128 0 -0.024988504720870035 -0.022783363118702295 0 -0.024727729512374258 -0.023600143344967048 0 -0.02448066077720296 -0.024116303355384981 0 -0.024727729512374258 -0.023600143344967048 0 -0.023875923481219859 -0.024530712379883038 0 -0.02448066077720296 -0.024116303355384981 0 -0.024988504720870035 -0.022783363118702295 0 -0.024727729512374258 -0.023600143344967048 0 -0.024727729512374258 -0.023600143344967048 0 -0.024950845175266339 -0.023898210414441422 0 -0.023875923481219859 -0.024530712379883038 0 -0.022530268784325316 -0.026819189860298583 0 -0.022619752266442136 -0.026557223446671836 0 -0.022319339756209564 -0.026715325931137429 0 -0.023736186160138721 -0.025328329080018815 0 -0.02285396631478083 -0.0249292228245717 0 -0.02448066077720296 -0.024116303355384981 0 -0.023875923481219859 -0.024530712379883038 0 -0.022688049874815739 -0.024998326596238109 0 -0.022625628976144681 -0.025161249911237426 0 -0.023875923481219859 -0.024530712379883038 0 -0.022688049874815739 -0.024998326596238109 0 -0.024950845175266339 -0.023898210414441422 0 -0.022625628976144681 -0.025161249911237426 0 -0.023875923481219859 -0.024530712379883038 0 -0.022625628976144681 -0.025161249911237426 0 -0.022688049874815739 -0.024998326596238109 0 -0.019560619961203764 -0.024999801943936053 0 -0.022625628976144681 -0.025161249911237426 0 -0.020666013359108726 -0.025658717048057247 0 -0.019560619961203764 -0.024999801943936053 0 -0.022625628976144681 -0.025161249911237426 0 -0.020666013359108726 -0.025658717048057247 0 -0.021808196811974403 -0.026366406457496314 0 -0.019556624772456607 -0.024764666810032372 0 -0.019506289163347398 -0.02478046688791281 0 -0.018818251954574351 -0.024999548113182703 0 -0.019555545784280062 -0.024999499646724235 0 -0.019222040540289483 -0.02398331601419167 0 -0.019556624772456607 -0.024764666810032372 0 -0.01956065829454692 -0.024999817231251421 0 -0.01839690694564379 -0.02393860074836008 0 -0.019555545784280062 -0.024999499646724235 0 -0.019222040540289483 -0.02398331601419167 0 -0.01839690694564379 -0.02393860074836008 0 -0.019222040540289483 -0.02398331601419167 0 -0.01875317766645718 -0.022813241444240948 0 -0.019222040540289483 -0.02398331601419167 0 -0.01875317766645718 -0.022813241444240948 0 -0.020017619609122524 -0.02259755808596476 0 -0.01875317766645718 -0.022813241444240948 0 -0.019489957214918922 -0.021771538495398174 0 -0.020017619609122524 -0.02259755808596476 0 -0.01875317766645718 -0.022813241444240948 0 -0.018733548323059641 -0.021984184985805403 0 -0.018043233961981864 -0.022019705231907154 0 -0.01875317766645718 -0.022813241444240948 0 -0.018733548323059641 -0.021984184985805403 0 -0.019489957214918922 -0.021771538495398174 0 -0.022045790909071886 -0.02681606530473259 0 -0.021682572037733282 -0.026486138015136607 0 -0.021808196811974403 -0.026366406457496314 0 -0.022619752266442136 -0.026557223446671836 0 -0.022625628976144681 -0.025161249911237426 0 -0.021808196811974403 -0.026366406457496314 0 -0.022619752266442136 -0.026557223446671836 0 -0.022319339756209564 -0.026715325931137429 0 -0.021808196811974403 -0.026366406457496314 0 -0.020666013359108726 -0.025658717048057247 0 -0.021682572037733282 -0.026486138015136607 0 -0.021808196811974403 -0.026366406457496314 0 -0.01839690694564379 -0.02393860074836008 0 -0.01875317766645718 -0.022813241444240948 0 -0.017807727414718914 -0.022887931705505155 0 -0.01875317766645718 -0.022813241444240948 0 -0.017807727414718914 -0.022887931705505155 0 -0.018043233961981864 -0.022019705231907154 0 -0.022540723198621996 -0.027322473846945718 0 -0.022319339756209564 -0.026715325931137429 0 -0.021808196811974403 -0.026366406457496314 0 -0.021442590615882537 -0.023442265489391229 0 -0.019506289163347398 -0.02478046688791281 0 -0.022045790909071886 -0.02681606530473259 0 -0.022045867127821243 -0.026875876492260902 0 -0.021682572037733282 -0.026486138015136607 0 -0.017279492283882307 -0.021962263881474181 0 -0.017807727414718914 -0.022887931705505155 0 -0.018043233961981864 -0.022019705231907154 0 -0.022394496866743014 -0.025970705311365267 0 -0.021913334137569625 -0.026776411374424734 0 -0.022530268784325316 -0.026819189860298583 0 -0.022540723198621996 -0.027322473846945718 0 -0.022319339756209564 -0.026715325931137429 0 -0.017279492283882307 -0.021962263881474181 0 -0.018043233961981864 -0.022019705231907154 0 -0.017405601400957739 -0.020985271399511427 0 -0.018733548323059641 -0.021984184985805403 0 -0.018043233961981864 -0.022019705231907154 0 -0.018554850279561982 -0.021281777718250298 0 -0.018043233961981864 -0.022019705231907154 0 -0.018554850279561982 -0.021281777718250298 0 -0.017405601400957739 -0.020985271399511427 0 -0.018554850279561982 -0.021281777718250298 0 -0.017405601400957739 -0.020985271399511427 0 -0.018479498850851497 -0.020301185170900023 0 -0.018733548323059641 -0.021984184985805403 0 -0.019489957214918922 -0.021771538495398174 0 -0.019243112316351719 -0.020847339784421805 0 -0.018733548323059641 -0.021984184985805403 0 -0.018554850279561982 -0.021281777718250298 0 -0.019243112316351719 -0.020847339784421805 0 -0.018554850279561982 -0.021281777718250298 0 -0.019243112316351719 -0.020847339784421805 0 -0.018479498850851497 -0.020301185170900023 0 -0.019489957214918922 -0.021771538495398174 0 -0.019243112316351719 -0.020847339784421805 0 -0.019862959809775451 -0.020589026449885504 0 -0.019243112316351719 -0.020847339784421805 0 -0.019758043337532068 -0.019998773912800766 0 -0.019259182487296134 -0.020090164028101258 0 -0.019243112316351719 -0.020847339784421805 0 -0.019758043337532068 -0.019998773912800766 0 -0.019862959809775451 -0.020589026449885504 0 -0.019243112316351719 -0.020847339784421805 0 -0.019259182487296134 -0.020090164028101258 0 -0.018479498850851497 -0.020301185170900023 0 -0.019259182487296134 -0.020090164028101258 0 -0.019805260038629254 -0.019380128977709337 0 -0.019090117972879361 -0.019261358244459546 0 -0.019259182487296134 -0.020090164028101258 0 -0.018479498850851497 -0.020301185170900023 0 -0.019090117972879361 -0.019261358244459546 0 -0.019758043337532068 -0.019998773912800766 0 -0.019805260038629254 -0.019380128977709337 0 -0.020147786626510008 -0.019247274639956229 0 -0.019758043337532068 -0.019998773912800766 0 -0.019259182487296134 -0.020090164028101258 0 -0.019805260038629254 -0.019380128977709337 0 -0.019737836291807139 -0.020900888431765956 0 -0.019966062395844465 -0.020032410760028513 0 -0.017405601400957739 -0.020985271399511427 0 -0.017543558585880335 -0.020014553741160176 0 -0.018479498850851497 -0.020301185170900023 0 -0.018479498850851497 -0.020301185170900023 0 -0.018212552214936114 -0.019547424678586126 0 -0.019090117972879361 -0.019261358244459546 0 -0.019966062395844465 -0.020032410760028513 0 -0.020107799265933871 -0.018892746996335766 0 -0.017543558585880335 -0.020014553741160176 0 -0.018212552214936114 -0.019547424678586126 0 -0.017616940475547228 -0.01898033333931835 0 -0.017543558585880335 -0.020014553741160176 0 -0.018479498850851497 -0.020301185170900023 0 -0.018212552214936114 -0.019547424678586126 0 -0.022388603990050326 -0.019966898196568938 0 -0.021802397256117267 -0.019017317220273691 0 -0.022435811552544763 -0.018731276165329221 0 -0.024392391621226049 -0.020124795047458632 0 -0.024213644507966616 -0.019071302017864736 0 -0.026932973905580127 -0.020031338338284504 0 -0.026466348913048034 -0.019803029065145524 0 -0.026851436112424364 -0.018975361523838365 0 -0.022388603990050326 -0.019966898196568938 0 -0.021877894862390876 -0.02024955003408193 0 -0.021802397256117267 -0.019017317220273691 0 -0.022342644382680566 -0.021257827879399747 0 -0.021877894862390876 -0.02024955003408193 0 -0.021898910393139348 -0.020548660487852519 0 -0.022342644382680566 -0.021257827879399747 0 -0.022388603990050326 -0.019966898196568938 0 -0.021877894862390876 -0.02024955003408193 0 -0.02694331713501558 -0.020277163128867043 0 -0.026466348913048034 -0.019803029065145524 0 -0.026406901609454483 -0.020610502989481333 0 -0.026932973905580127 -0.020031338338284504 0 -0.02694331713501558 -0.020277163128867043 0 -0.026466348913048034 -0.019803029065145524 0 -0.024392391621226049 -0.020124795047458632 0 -0.02437235738410988 -0.020413183729242217 0 -0.025955072725734971 -0.020008635619593151 0 -0.026152759040821535 -0.020737448381276734 0 -0.026466348913048034 -0.019803029065145524 0 -0.025993471462205823 -0.019918257356561522 0 -0.026406901609454483 -0.020610502989481333 0 -0.025993471462205823 -0.019918257356561522 0 -0.025381980685050692 -0.020954199293906108 0 -0.025997979957682299 -0.02094419097194539 0 -0.026466348913048034 -0.019803029065145524 0 -0.025993471462205823 -0.019918257356561522 0 -0.02612135415788075 -0.019219418052172955 0 -0.026466348913048034 -0.019803029065145524 0 -0.02612135415788075 -0.019219418052172955 0 -0.026851436112424364 -0.018975361523838365 0 -0.025993471462205823 -0.019918257356561522 0 -0.02612135415788075 -0.019219418052172955 0 -0.025566456449658007 -0.019029624474319537 0 -0.025566456449658007 -0.019029624474319537 0 -0.024999633857448161 -0.019915146153676663 0 -0.024999672203789115 -0.018332997538793298 0 -0.025993471462205823 -0.019918257356561522 0 -0.025566456449658007 -0.019029624474319537 0 -0.025458596109732043 -0.019940503296050956 0 -0.025566456449658007 -0.019029624474319537 0 -0.024999633857448161 -0.019915146153676663 0 -0.025458596109732043 -0.019940503296050956 0 -0.024999633857448161 -0.019915146153676663 0 -0.025458596109732043 -0.019940503296050956 0 -0.025381980685050692 -0.020954199293906108 0 -0.025993471462205823 -0.019918257356561522 0 -0.025458596109732043 -0.019940503296050956 0 -0.025381980685050692 -0.020954199293906108 0 -0.024998479611898442 -0.022071224589564637 0 -0.024999633857448161 -0.019915146153676663 0 -0.025381980685050692 -0.020954199293906108 0 -0.025381980685050692 -0.020954199293906108 0 -0.025245976027218456 -0.021880860144994307 0 -0.025595563799200079 -0.021538138839684324 0 -0.024998479611898442 -0.022071224589564637 0 -0.025381980685050692 -0.020954199293906108 0 -0.025245976027218456 -0.021880860144994307 0 -0.024988504720870035 -0.022783363118702295 0 -0.025245976027218456 -0.021880860144994307 0 -0.025462588914785353 -0.022124210834431134 0 -0.025245976027218456 -0.021880860144994307 0 -0.025462588914785353 -0.022124210834431134 0 -0.025595563799200079 -0.021538138839684324 0 -0.025462588914785353 -0.022124210834431134 0 -0.025892273198038492 -0.021726429816174953 0 -0.025595563799200079 -0.021538138839684324 0 -0.025349649385008794 -0.022684378720303128 0 -0.025462588914785353 -0.022124210834431134 0 -0.02568170562626982 -0.02211466073975514 0 -0.024846587890816927 -0.022385121794785023 0 -0.024335582694534424 -0.021021071118448611 0 -0.021442590615882537 -0.023442265489391229 0 -0.019737836291807139 -0.020900888431765956 0 -0.025349649385008794 -0.022684378720303128 0 -0.02587845032648808 -0.022369329340341734 0 -0.025923063354560388 -0.022240483884115266 0 -0.026959533499216277 -0.021558326315008803 0 -0.026795456051117217 -0.021322495698331272 0 -0.026940625516975417 -0.020836662954132876 0 -0.025349649385008794 -0.022684378720303128 0 -0.02568170562626982 -0.02211466073975514 0 -0.025923063354560388 -0.022240483884115266 0 -0.023838251071219417 -0.022785111088268768 0 -0.024335582694534424 -0.021021071118448611 0 -0.024257274388854454 -0.022519364524520937 0 -0.024373146426873257 -0.022675881326096874 0 -0.024181319665598777 -0.021057169104393984 0 -0.022282693523656527 -0.022629201321189351 0 -0.022342644382680566 -0.021257827879399747 0 -0.022025623555222088 -0.022280223746449057 0 -0.02568170562626982 -0.02211466073975514 0 -0.025900377462107049 -0.022151671146170327 0 -0.025923063354560388 -0.022240483884115266 0 -0.023000476795443217 -0.024026775772105619 0 -0.022848095912649392 -0.023886714884552716 0 -0.022852334755262792 -0.023806191568612144 0 -0.022991074663140491 -0.024148167305718768 0 -0.023000476795443217 -0.024026775772105619 0 -0.022848095912649392 -0.023886714884552716 0 -0.021442590615882537 -0.023442265489391229 0 -0.023838251071219417 -0.022785111088268768 0 -0.022394496866743014 -0.025970705311365267 0 -0.023957660527744933 -0.023947656136175215 0 -0.024846587890816927 -0.022385121794785023 0 -0.023838251071219417 -0.022785111088268768 0 -0.023957660527744933 -0.023947656136175215 0 -0.023838251071219417 -0.022785111088268768 0 -0.025462588914785353 -0.022124210834431134 0 -0.02568170562626982 -0.02211466073975514 0 -0.025892273198038492 -0.021726429816174953 0 -0.02568170562626982 -0.02211466073975514 0 -0.025900377462107049 -0.022151671146170327 0 -0.025865765773286385 -0.021866857692698839 0 -0.024846587890816927 -0.022385121794785023 0 -0.025804620741705274 -0.02189186599732653 0 -0.02568170562626982 -0.02211466073975514 0 -0.025865765773286385 -0.021866857692698839 0 -0.025892273198038492 -0.021726429816174953 0 -0.025804620741705274 -0.02189186599732653 0 -0.025972649627141263 -0.021633876831515741 0 -0.02694331713501558 -0.020277163128867043 0 -0.026795456051117217 -0.021322495698331272 0 -0.026940625516975417 -0.020836662954132876 0 -0.02694331713501558 -0.020277163128867043 0 -0.026795456051117217 -0.021322495698331272 0 -0.026732473384397135 -0.021206090081752636 0 -0.022342644382680566 -0.021257827879399747 0 -0.022025623555222088 -0.022280223746449057 0 -0.021907596342562757 -0.021241485884081399 0 -0.02694331713501558 -0.020277163128867043 0 -0.026732473384397135 -0.021206090081752636 0 -0.026406901609454483 -0.020610502989481333 0 -0.025972649627141263 -0.021633876831515741 0 -0.026152759040821535 -0.020737448381276734 0 -0.02437235738410988 -0.020413183729242217 0 -0.024335582694534424 -0.021021071118448611 0 -0.022342644382680566 -0.021257827879399747 0 -0.021898910393139348 -0.020548660487852519 0 -0.021907596342562757 -0.021241485884081399 0 -0.025381980685050692 -0.020954199293906108 0 -0.025997979957682299 -0.02094419097194539 0 -0.025595563799200079 -0.021538138839684324 0 -0.025892273198038492 -0.021726429816174953 0 -0.025997979957682299 -0.02094419097194539 0 -0.025595563799200079 -0.021538138839684324 0 -0.013947540110564271 -0.026696448289102278 0 -0.013173617342589794 -0.027305611780223331 0 -0.012545551434445964 -0.026465468971199717 0 -0.013947540110564271 -0.026696448289102278 0 -0.013107933316286567 -0.025871644019026224 0 -0.012545551434445964 -0.026465468971199717 0 -0.013947540110564271 -0.026696448289102278 0 -0.014217849762265785 -0.027444303747392623 0 -0.013173617342589794 -0.027305611780223331 0 -0.013107933316286567 -0.025871644019026224 0 -0.013399645792146982 -0.024999876311284527 0 -0.012046324994686398 -0.024999866489419341 0 -0.013107933316286567 -0.025871644019026224 0 -0.013399645792146982 -0.024999876311284527 0 -0.014113634200947991 -0.025794008998804799 0 -0.013947540110564271 -0.026696448289102278 0 -0.013107933316286567 -0.025871644019026224 0 -0.014113634200947991 -0.025794008998804799 0 -0.014752811301763513 -0.024999896896621743 0 -0.015327452874833834 -0.026275054808125985 0 -0.01610598683018491 -0.024999898789466152 0 -0.014113634200947991 -0.025794008998804799 0 -0.014752811301763513 -0.024999896896621743 0 -0.015327452874833834 -0.026275054808125985 0 -0.013399645792146982 -0.024999876311284527 0 -0.014113634200947991 -0.025794008998804799 0 -0.014752811301763513 -0.024999896896621743 0 -0.015327452874833834 -0.026275054808125985 0 -0.014810501851021569 -0.027068815945618732 0 -0.015609346032143843 -0.027397603542676209 0 -0.013947540110564271 -0.026696448289102278 0 -0.014113634200947991 -0.025794008998804799 0 -0.015327452874833834 -0.026275054808125985 0 -0.013947540110564271 -0.026696448289102278 0 -0.015327452874833834 -0.026275054808125985 0 -0.014810501851021569 -0.027068815945618732 0 -0.013947540110564271 -0.026696448289102278 0 -0.014810501851021569 -0.027068815945618732 0 -0.014217849762265785 -0.027444303747392623 0 -0.015327452874833834 -0.026275054808125985 0 -0.016643345742886482 -0.026763981760441084 0 -0.015609346032143843 -0.027397603542676209 0 -0.02093969457201441 -0.022505369093316768 0 -0.020432499024123883 -0.0212108712841667 0 -0.02127728303387369 -0.021409679663152388 0 -0.018786291983208366 -0.024637038846651398 0 -0.018438929553282506 -0.024406278207635902 0 -0.015327452874833834 -0.026275054808125985 0 -0.016643345742886482 -0.026763981760441084 0 -0.016547550515731497 -0.025867907799911598 0 -0.015327452874833834 -0.026275054808125985 0 -0.01610598683018491 -0.024999898789466152 0 -0.016547550515731497 -0.025867907799911598 0 -0.01610598683018491 -0.024999898789466152 0 -0.016547550515731497 -0.025867907799911598 0 -0.017459281943089589 -0.024999860716767075 0 -0.016643345742886482 -0.026763981760441084 0 -0.016547550515731497 -0.025867907799911598 0 -0.017752557067938209 -0.02596346759967362 0 -0.016547550515731497 -0.025867907799911598 0 -0.017752557067938209 -0.02596346759967362 0 -0.017459281943089589 -0.024999860716767075 0 -0.018818251954574351 -0.024999548113182703 0 -0.019222040540289483 -0.02398331601419167 0 -0.020268220094105036 -0.023797810527827781 0 -0.018812935386062737 -0.024999912346887726 0 -0.018997667265790927 -0.024849860371493185 0 -0.018812716907692869 -0.025000019397299175 0 -0.017752557067938209 -0.02596346759967362 0 -0.017459281943089589 -0.024999860716767075 0 -0.019222040540289483 -0.02398331601419167 0 -0.020268220094105036 -0.023797810527827781 0 -0.020017619609122524 -0.02259755808596476 0 -0.018786291983208366 -0.024637038846651398 0 -0.018997667265790927 -0.024849860371493185 0 -0.02093969457201441 -0.022505369093316768 0 -0.020268220094105036 -0.023797810527827781 0 -0.020017619609122524 -0.02259755808596476 0 -0.02093969457201441 -0.022505369093316768 0 -0.020017619609122524 -0.02259755808596476 0 -0.020432499024123883 -0.0212108712841667 0 -0.019489957214918922 -0.021771538495398174 0 -0.020017619609122524 -0.02259755808596476 0 -0.020432499024123883 -0.0