<?xml version="1.0"?>
<VTKFile type="UnstructuredGrid" version="0.1" byte_order="LittleEndian">
<UnstructuredGrid>
<Piece NumberOfPoints="30156" NumberOfCells="10569">
<Points>
<DataArray type="Float64" NumberOfComponents="3" format="ascii">
-0.5 -0.5 0 -0.46860935356359301 -0.4716247601870463 0 -0.44138414188997571 -0.5 0 -0.5 -0.5 0 -0.46860935356359301 -0.4716247601870463 0 -0.5 -0.45368417051362708 0 -0.46860935356359301 -0.4716247601870463 0 -0.44138414188997571 -0.5 0 -0.44373922468922428 -0.46708366919693861 0 -0.44138414188997571 -0.5 0 -0.44373922468922428 -0.46708366919693861 0 -0.42848098353757758 -0.4712912712481841 0 -0.44666692743510272 -0.44282911341298181 0 -0.45798068478843762 -0.44053863329087989 0 -0.43381302958248019 -0.44258083223160721 0 -0.45125040592494359 -0.43878050037838479 0 -0.45798068478843762 -0.44053863329087989 0 -0.43381302958248019 -0.44258083223160721 0 -0.45125040592494359 -0.43878050037838479 0 -0.44074645873626223 -0.4382910044992358 0 -0.43381302958248019 -0.44258083223160721 0 -0.45798068478843762 -0.44053863329087989 0 -0.43381302958248019 -0.44258083223160721 0 -0.44666692743510272 -0.44282911341298181 0 -0.45458540561180583 -0.45409838932824431 0 -0.45798068478843762 -0.44053863329087989 0 -0.44666692743510272 -0.44282911341298181 0 -0.43957809815966431 -0.45137334764801817 0 -0.45458540561180583 -0.45409838932824431 0 -0.45125040592494359 -0.43878050037838479 0 -0.44074645873626223 -0.4382910044992358 0 -0.44666692743510272 -0.44282911341298181 0 -0.43381302958248019 -0.44258083223160721 0 -0.44074645873626223 -0.4382910044992358 0 -0.43751624137632872 -0.43814047269837142 0 -0.44666692743510272 -0.44282911341298181 0 -0.43957809815966431 -0.45137334764801817 0 -0.43381302958248019 -0.44258083223160721 0 -0.43957809815966431 -0.45137334764801817 0 -0.44373922468922428 -0.46708366919693861 0 -0.43065591625229671 -0.45803535725140321 0 -0.43957809815966431 -0.45137334764801817 0 -0.44373922468922428 -0.46708366919693861 0 -0.45458540561180583 -0.45409838932824431 0 -0.46860935356359301 -0.4716247601870463 0 -0.45458540561180583 -0.45409838932824431 0 -0.47093814503481352 -0.45114081223360081 0 -0.46860935356359301 -0.4716247601870463 0 -0.44373922468922428 -0.46708366919693861 0 -0.45458540561180583 -0.45409838932824431 0 -0.45458540561180583 -0.45409838932824431 0 -0.45798068478843762 -0.44053863329087989 0 -0.47093814503481352 -0.45114081223360081 0 -0.45125040592494359 -0.43878050037838479 0 -0.45798068478843762 -0.44053863329087989 0 -0.45399083980939559 -0.4348348321941648 0 -0.45798068478843762 -0.44053863329087989 0 -0.48214436818904333 -0.43870206080962459 0 -0.46860935356359301 -0.4716247601870463 0 -0.47093814503481352 -0.45114081223360081 0 -0.5 -0.45368417051362708 0 -0.48214436818904333 -0.43870206080962459 0 -0.47093814503481352 -0.45114081223360081 0 -0.5 -0.45368417051362708 0 -0.45798068478843762 -0.44053863329087989 0 -0.48214436818904333 -0.43870206080962459 0 -0.47093814503481352 -0.45114081223360081 0 -0.48214436818904333 -0.43870206080962459 0 -0.5 -0.45368417051362708 0 -0.49999999999999961 -0.39121555143091152 0 -0.48214436818904333 -0.43870206080962459 0 -0.47917208045877552 -0.40685719185339753 0 -0.49999999999999961 -0.39121555143091152 0 -0.48214436818904333 -0.43870206080962459 0 -0.47917208045877552 -0.40685719185339753 0 -0.46190030379456848 -0.42582299198835938 0 -0.47917208045877552 -0.40685719185339753 0 -0.45834416091755159 -0.4224988322758837 0 -0.50000000000000266 -0.37625599721554409 0 -0.49999999999999961 -0.39121555143091152 0 -0.47809538505193128 -0.38373577432322098 0 -0.47917208045877552 -0.40685719185339753 0 -0.49999999999999961 -0.39121555143091152 0 -0.47917208045877552 -0.40685719185339753 0 -0.49999999999999961 -0.39121555143091152 0 -0.47809538505193128 -0.38373577432322098 0 -0.47917208045877552 -0.40685719185339753 0 -0.47809538505193128 -0.38373577432322098 0 -0.4562942774091826 -0.39808154788458883 0 -0.47809538505193128 -0.38373577432322098 0 -0.4562942774091826 -0.39808154788458883 0 -0.45429064667093277 -0.36454062509685042 0 -0.4562942774091826 -0.39808154788458883 0 -0.4354602524783906 -0.38042392603318997 0 -0.45429064667093277 -0.36454062509685042 0 -0.4562942774091826 -0.39808154788458883 0 -0.43870160679350412 -0.40058637322139601 0 -0.438944672890971 -0.41835480388456819 0 -0.4562942774091826 -0.39808154788458883 0 -0.43870160679350412 -0.40058637322139601 0 -0.4354602524783906 -0.38042392603318997 0 -0.44074645873626223 -0.4382910044992358 0 -0.45834416091755159 -0.4224988322758837 0 -0.46190030379456848 -0.42582299198835938 0 -0.45798068478843762 -0.44053863329087989 0 -0.48214436818904333 -0.43870206080962459 0 -0.46190030379456848 -0.42582299198835938 0 -0.45798068478843762 -0.44053863329087989 0 -0.45399083980939559 -0.4348348321941648 0 -0.46190030379456848 -0.42582299198835938 0 -0.47917208045877552 -0.40685719185339753 0 -0.45834416091755159 -0.4224988322758837 0 -0.46190030379456848 -0.42582299198835938 0 -0.47917208045877552 -0.40685719185339753 0 -0.4562942774091826 -0.39808154788458883 0 -0.45834416091755159 -0.4224988322758837 0 -0.4562942774091826 -0.39808154788458883 0 -0.45834416091755159 -0.4224988322758837 0 -0.438944672890971 -0.41835480388456819 0 -0.44074645873626223 -0.4382910044992358 0 -0.45399083980939559 -0.4348348321941648 0 -0.46190030379456848 -0.42582299198835938 0 -0.43751624137632872 -0.43814047269837142 0 -0.45834416091755159 -0.4224988322758837 0 -0.44074645873626223 -0.4382910044992358 0 -0.43751624137632872 -0.43814047269837142 0 -0.45834416091755159 -0.4224988322758837 0 -0.43751624137632872 -0.43814047269837142 0 -0.45834416091755159 -0.4224988322758837 0 -0.438944672890971 -0.41835480388456819 0 -0.44074645873626223 -0.4382910044992358 0 -0.46190030379456848 -0.42582299198835938 0 -0.45125040592494359 -0.43878050037838479 0 -0.44074645873626223 -0.4382910044992358 0 -0.45399083980939559 -0.4348348321941648 0 -0.43751624137632872 -0.43814047269837142 0 -0.438944672890971 -0.41835480388456819 0 -0.4144413395475034 -0.43706515604320312 0 -0.43870160679350412 -0.40058637322139601 0 -0.438944672890971 -0.41835480388456819 0 -0.42233522448127431 -0.40750863725634989 0 -0.438944672890971 -0.41835480388456819 0 -0.42233522448127431 -0.40750863725634989 0 -0.4144413395475034 -0.43706515604320312 0 -0.42233522448127431 -0.40750863725634989 0 -0.4144413395475034 -0.43706515604320312 0 -0.39855316224479909 -0.41319025614961519 0 -0.43870160679350412 -0.40058637322139601 0 -0.4354602524783906 -0.38042392603318997 0 -0.4132231888202707 -0.39079800449325269 0 -0.43870160679350412 -0.40058637322139601 0 -0.42233522448127431 -0.40750863725634989 0 -0.4132231888202707 -0.39079800449325269 0 -0.42233522448127431 -0.40750863725634989 0 -0.4132231888202707 -0.39079800449325269 0 -0.39855316224479909 -0.41319025614961519 0 -0.4354602524783906 -0.38042392603318997 0 -0.4132231888202707 -0.39079800449325269 0 -0.40865055985917992 -0.37232192521179569 0 -0.4132231888202707 -0.39079800449325269 0 -0.39363700061900542 -0.37996143275930799 0 -0.39458131510345451 -0.39463922637655507 0 -0.4132231888202707 -0.39079800449325269 0 -0.39363700061900542 -0.37996143275930799 0 -0.40865055985917992 -0.37232192521179569 0 -0.4132231888202707 -0.39079800449325269 0 -0.39458131510345451 -0.39463922637655507 0 -0.39855316224479909 -0.41319025614961519 0 -0.39458131510345451 -0.39463922637655507 0 -0.37763105849602741 -0.38609409550699969 0 -0.37345153171335432 -0.40470054699450952 0 -0.39458131510345451 -0.39463922637655507 0 -0.39855316224479909 -0.41319025614961519 0 -0.37345153171335432 -0.40470054699450952 0 -0.39363700061900542 -0.37996143275930799 0 -0.37763105849602741 -0.38609409550699969 0 -0.37502948216613591 -0.37147003818258562 0 -0.39363700061900542 -0.37996143275930799 0 -0.39458131510345451 -0.39463922637655507 0 -0.37763105849602741 -0.38609409550699969 0 -0.4144413395475034 -0.43706515604320312 0 -0.39136643771867818 -0.43598983938803221 0 -0.4144413395475034 -0.43706515604320312 0 -0.39136643771867818 -0.43598983938803221 0 -0.39855316224479909 -0.41319025614961519 0 -0.39855316224479909 -0.41319025614961519 0 -0.38047309832905851 -0.42163038249540402 0 -0.37345153171335432 -0.40470054699450952 0 -0.39136643771867818 -0.43598983938803221 0 -0.36829153588985297 -0.43491452273286141 0 -0.39136643771867818 -0.43598983938803221 0 -0.38047309832905851 -0.42163038249540402 0 -0.36829153588985297 -0.43491452273286141 0 -0.39136643771867818 -0.43598983938803221 0 -0.39855316224479909 -0.41319025614961519 0 -0.38047309832905851 -0.42163038249540402 0 -0.39136643771867818 -0.43598983938803221 0 -0.37371999038825499 -0.44712249952325123 0 -0.36829153588985297 -0.43491452273286141 0 -0.39650119013283491 -0.44545984122179422 0 -0.37371999038825499 -0.44712249952325123 0 -0.39650119013283491 -0.44545984122179422 0 -0.39154517331800981 -0.45612143949345119 0 -0.37371999038825499 -0.44712249952325123 0 -0.39136643771867818 -0.43598983938803221 0 -0.39650119013283491 -0.44545984122179422 0 -0.37371999038825499 -0.44712249952325123 0 -0.4144413395475034 -0.43706515604320312 0 -0.39650119013283491 -0.44545984122179422 0 -0.40183145120156061 -0.44507081856652531 0 -0.4144413395475034 -0.43706515604320312 0 -0.39136643771867818 -0.43598983938803221 0 -0.39650119013283491 -0.44545984122179422 0 -0.40183145120156061 -0.44507081856652531 0 -0.39154517331800981 -0.45612143949345119 0 -0.40910493863108249 -0.45694042106853061 0 -0.39650119013283491 -0.44545984122179422 0 -0.40183145120156061 -0.44507081856652531 0 -0.39154517331800981 -0.45612143949345119 0 -0.39650119013283491 -0.44545984122179422 0 -0.40183145120156061 -0.44507081856652531 0 -0.39340682564992691 -0.46619284153898272 0 -0.40910493863108249 -0.45694042106853061 0 -0.39154517331800981 -0.45612143949345119 0 -0.39340682564992691 -0.46619284153898272 0 -0.40910493863108249 -0.45694042106853061 0 -0.39340682564992691 -0.46619284153898272 0 -0.4119309
[...]
<PointData Scalars="" Vectors="displacement," Tensors="">
<DataArray type="Float64" Name="displacement" NumberOfComponents="3" format="ascii">
-2.4138613631101523e-07 -0.024998461653297506 0 -0.00014824863985407803 -0.024206856005460659 0 -2.9248587716978597e-07 -0.024999218585449384 0 -2.4138613631101523e-07 -0.024998461653297506 0 -0.00014824863985407803 -0.024206856005460659 0 -1.4798647521655362e-07 -0.022684918506536929 0 -0.00014824863985407803 -0.024206856005460659 0 -2.9248587716978597e-07 -0.024999218585449384 0 -4.1260944299379859e-06 -0.024626998383952138 0 -2.9248587716978597e-07 -0.024999218585449384 0 -4.1260944299379859e-06 -0.024626998383952138 0 8.123077946187326e-06 -0.024845792557319238 0 0.0004352210568406483 -0.02447175355447433 0 0.00056035123019539633 -0.024112074057075869 0 0.00038686291801118516 -0.024876173360899975 0 0.00026668961626230743 -0.021906531058388058 0 0.00029024248694135965 -0.021957804728955987 0 0.00027218627666851221 -0.021792246175775482 0 0.00026668961626230743 -0.021906531058388058 0 0.00025280693976489742 -0.021837837826265746 0 0.00027218627666851221 -0.021792246175775482 0 0.00037935924561914087 -0.023034695247168932 0 0.00030113792854646524 -0.023291185686725321 0 0.0004352210568406483 -0.02447175355447433 0 0.00010614552030708258 -0.024282457588958264 0 0.00056035123019539633 -0.024112074057075869 0 0.0004352210568406483 -0.02447175355447433 0 0.00021541123266073639 -0.024644944351565449 0 0.00010614552030708258 -0.024282457588958264 0 0.0003271361207114943 -0.021882535692183434 0 0.00042848930436082923 -0.021772520002309944 0 0.00040322387435774541 -0.024870960854224671 0 0.00030113792854646524 -0.023291185686725321 0 0.00042848930436082923 -0.021772520002309944 0 0.00051828337590893617 -0.0207584819876632 0 0.0004352210568406483 -0.02447175355447433 0 0.00021541123266073639 -0.024644944351565449 0 0.00037496081765702095 -0.024738341668903329 0 0.00021541123266073639 -0.024644944351565449 0 -4.1260944299379859e-06 -0.024626998383952138 0 0.0001250637789415738 -0.024793824162464229 0 0.00021541123266073639 -0.024644944351565449 0 -4.1260944299379859e-06 -0.024626998383952138 0 0.00010614552030708258 -0.024282457588958264 0 -0.00014824863985407803 -0.024206856005460659 0 0.00010614552030708258 -0.024282457588958264 0 5.8618065046638709e-05 -0.023490945523956832 0 -0.00014824863985407803 -0.024206856005460659 0 -4.1260944299379859e-06 -0.024626998383952138 0 0.00010614552030708258 -0.024282457588958264 0 0.00010614552030708258 -0.024282457588958264 0 0.00056035123019539633 -0.024112074057075869 0 5.8618065046638709e-05 -0.023490945523956832 0 0.00026668961626230743 -0.021906531058388058 0 0.00029024248694135965 -0.021957804728955987 0 0.00021814303584317857 -0.021923427732938768 0 0.00037935924561914087 -0.023034695247168932 0 0.00020615012106441137 -0.022553402790356024 0 -0.00014824863985407803 -0.024206856005460659 0 5.8618065046638709e-05 -0.023490945523956832 0 -1.4798647521655362e-07 -0.022684918506536929 0 0.00013469913868458449 -0.022486135207382404 0 5.8618065046638709e-05 -0.023490945523956832 0 -1.4798647521655362e-07 -0.022684918506536929 0 0.00056035123019539633 -0.024112074057075869 0 0.00013469913868458449 -0.022486135207382404 0 5.8618065046638709e-05 -0.023490945523956832 0 0.00013469913868458449 -0.022486135207382404 0 -1.4798647521655362e-07 -0.022684918506536929 0 1.2507792070324329e-06 -0.019563672272852242 0 0.00013469913868458449 -0.022486135207382404 0 0.00019034465182206912 -0.021412658205777174 0 1.2507792070324329e-06 -0.019563672272852242 0 0.00013469913868458449 -0.022486135207382404 0 0.00019034465182206912 -0.021412658205777174 0 9.3066436132140852e-05 -0.021989441561718236 0 0.00025912931081178736 -0.02022610498225811 0 0.00036570451495393838 -0.020292072532143757 0 -3.5984452164696261e-07 -0.018816234978308592 0 7.4160801042271271e-07 -0.019557177884551309 0 8.6984995911413524e-05 -0.018929524730785616 0 0.00025912931081178736 -0.02022610498225811 0 5.2706921608521752e-08 -0.019561153615856919 0 0.00046706229118345487 -0.018986906239337645 0 7.4160801042271271e-07 -0.019557177884551309 0 8.6984995911413524e-05 -0.018929524730785616 0 0.00046706229118345487 -0.018986906239337645 0 8.6984995911413524e-05 -0.018929524730785616 0 0.0003640136104271749 -0.018699465953591971 0 8.6984995911413524e-05 -0.018929524730785616 0 0.0003640136104271749 -0.018699465953591971 0 0.0001505093515853162 -0.018691718901610598 0 0.0003640136104271749 -0.018699465953591971 0 0.00031461705958282928 -0.018530749787766074 0 0.0001505093515853162 -0.018691718901610598 0 0.0003640136104271749 -0.018699465953591971 0 0.0004287293820445673 -0.01855536962524067 0 0.00056574521965078843 -0.018559920275714556 0 0.0003640136104271749 -0.018699465953591971 0 0.0004287293820445673 -0.01855536962524067 0 0.00031461705958282928 -0.018530749787766074 0 8.6283150281196464e-05 -0.022032999446185232 0 0.00012707791854273926 -0.022018286337623341 0 9.3066436132140852e-05 -0.021989441561718236 0 0.00029024248694135965 -0.021957804728955987 0 0.00013469913868458449 -0.022486135207382404 0 9.3066436132140852e-05 -0.021989441561718236 0 0.00029024248694135965 -0.021957804728955987 0 0.00021814303584317857 -0.021923427732938768 0 9.3066436132140852e-05 -0.021989441561718236 0 0.00019034465182206912 -0.021412658205777174 0 0.00012707791854273926 -0.022018286337623341 0 9.3066436132140852e-05 -0.021989441561718236 0 0.00046706229118345487 -0.018986906239337645 0 0.0003640136104271749 -0.018699465953591971 0 0.00060830503190166182 -0.018738245631931327 0 0.0003640136104271749 -0.018699465953591971 0 0.00060830503190166182 -0.018738245631931327 0 0.00056574521965078843 -0.018559920275714556 0 0.00027691830269388127 -0.021799061976637692 0 0.00021814303584317857 -0.021923427732938768 0 9.3066436132140852e-05 -0.021989441561718236 0 0.00051828337590893617 -0.0207584819876632 0 0.00036570451495393838 -0.020292072532143757 0 8.6283150281196464e-05 -0.022032999446185232 0 8.5121571919806409e-05 -0.022035126338287376 0 0.00012707791854273926 -0.022018286337623341 0 0.00070087311553065999 -0.018563833501363574 0 0.00060830503190166182 -0.018738245631931327 0 0.00056574521965078843 -0.018559920275714556 0 0.00042848930436082923 -0.021772520002309944 0 2.4973955622406066e-05 -0.022064874159332372 0 0.00026668961626230743 -0.021906531058388058 0 0.00027691830269388127 -0.021799061976637692 0 0.00021814303584317857 -0.021923427732938768 0 0.00070087311553065999 -0.018563833501363574 0 0.00056574521965078843 -0.018559920275714556 0 0.00066499590750781969 -0.018390229546411646 0 0.0004287293820445673 -0.01855536962524067 0 0.00056574521965078843 -0.018559920275714556 0 0.00050065647868297839 -0.018429595790418044 0 0.00056574521965078843 -0.018559920275714556 0 0.00050065647868297839 -0.018429595790418044 0 0.00066499590750781969 -0.018390229546411646 0 0.00050065647868297839 -0.018429595790418044 0 0.00066499590750781969 -0.018390229546411646 0 0.00053524098969028955 -0.018279452553822136 0 0.0004287293820445673 -0.01855536962524067 0 0.00031461705958282928 -0.018530749787766074 0 0.00043747787774940319 -0.018357335644275399 0 0.0004287293820445673 -0.01855536962524067 0 0.00050065647868297839 -0.018429595790418044 0 0.00043747787774940319 -0.018357335644275399 0 0.00050065647868297839 -0.018429595790418044 0 0.00043747787774940319 -0.018357335644275399 0 0.00053524098969028955 -0.018279452553822136 0 0.00031461705958282928 -0.018530749787766074 0 0.00043747787774940319 -0.018357335644275399 0 0.00035908237610674274 -0.018322399767790241 0 0.00043747787774940319 -0.018357335644275399 0 0.00045263724971049727 -0.018222354482508269 0 0.00049277425963943416 -0.018239794481236138 0 0.00043747787774940319 -0.018357335644275399 0 0.00045263724971049727 -0.018222354482508269 0 0.00035908237610674274 -0.018322399767790241 0 0.00043747787774940319 -0.018357335644275399 0 0.00049277425963943416 -0.018239794481236138 0 0.00053524098969028955 -0.018279452553822136 0 0.00049277425963943416 -0.018239794481236138 0 0.00053731807371205681 -0.018147110300213803 0 0.00051776359227353292 -0.01817339166647906 0 0.00049277425963943416 -0.018239794481236138 0 0.00053524098969028955 -0.018279452553822136 0 0.00051776359227353292 -0.01817339166647906 0 0.00045263724971049727 -0.018222354482508269 0 0.00053731807371205681 -0.018147110300213803 0 0.00049969702801655404 -0.018096752789453985 0 0.00045263724971049727 -0.018222354482508269 0 0.00049277425963943416 -0.018239794481236138 0 0.00053731807371205681 -0.018147110300213803 0 0.0004559527299954916 -0.019812458896664095 0 0.00043029099025744587 -0.019965860854254135 0 0.00066499590750781969 -0.018390229546411646 0 0.00060479941028265057 -0.01827126695960498 0 0.00053524098969028955 -0.018279452553822136 0 0.00053524098969028955 -0.018279452553822136 0 0.00053529286211219341 -0.018228622441220747 0 0.00051776359227353292 -0.01817339166647906 0 0.00043029099025744587 -0.019965860854254135 0 0.00041746026468462825 -0.019951126228047272 0 0.00060479941028265057 -0.01827126695960498 0 0.00053529286211219341 -0.018228622441220747 0 0.00052805608445782794 -0.018238053603431701 0 0.00060479941028265057 -0.01827126695960498 0 0.00053524098969028955 -0.018279452553822136 0 0.00053529286211219341 -0.018228622441220747 0 0.0002586223123407144 -0.021591466613028309 0 0.00022641997919884571 -0.021642449362035937 0 0.00025666097501765908 -0.021648121525436471 0 0.00017983253374880895 -0.023260865724561697 0 0.00017291024872082876 -0.023247524155626708 0 0.00012934429632939704 -0.024905556064200567 0 7.1603483648043556e-05 -0.024941144884385643 0 7.8086057094115254e-05 -0.024972878550539975 0 0.0002586223123407144 -0.021591466613028309 0 0.00023646263688729564 -0.021585230010315384 0 0.00022641997919884571 -0.021642449362035937 0 0.00026297009046918175 -0.021536455253179137 0 0.00023646263688729564 -0.021585230010315384 0 0.00023916245281406631 -0.021572103463357372 0 0.00026297009046918175 -0.021536455253179137 0 0.0002586223123407144 -0.021591466613028309 0 0.00023646263688729564 -0.021585230010315384 0 0.00014095803699871315 -0.024869637668276327 0 7.1603483648043556e-05 -0.024941144884385643 0 5.4136498261723925e-05 -0.024814830254640974 0 0.00012934429632939704 -0.024905556064200567 0 0.00014095803699871315 -0.024869637668276327 0 7.1603483648043556e-05 -0.024941144884385643 0 0.00017983253374880895 -0.023260865724561697 0 0.00018693766124687537 -0.023251670826705401 0 4.4635536354654553e-05 -0.024939724294004359 0 7.7264263199353246e-05 -0.024877677344874938 0 7.1603483648043556e-05 -0.024941144884385643 0 3.7501929689152172e-05 -0.024954683540541794 0 5.4136498261723925e-05 -0.024814830254640974 0 3.7501929689152172e-05 -0.024954683540541794 0 8.1378964528609369e-06 -0.024935257316211223 0 9.6414231233443121e-05 -0.024947933644682764 0 7.1603483648043556e-05 -0.024941144884385643 0 3.7501929689152172e-05 -0.024954683540541794 0 4.4883182984617208e-05 -0.02497237774847454 0 7.1603483648043556e-05 -0.024941144884385643 0 4.4883182984617208e-05 -0.02497237774847454 0 7.8086057094115254e-05 -0.024972878550539975 0 3.7501929689152172e-05 -0.024954683540541794 0 4.4883182984617208e-05 -0.02497237774847454 0 1.7451051430254545e-05 -0.024984206300050524 0 1.7451051430254545e-05 -0.024984206300050524 0 8.1121223966647079e-08 -0.025000098031078079 0 -2.5373994161424589e-08 -0.024999928717965827 0 3.7501929689152172e-05 -0.024954683540541794 0 1.7451051430254545e-05 -0.024984206300050524 0 1.3704425609511501e-05 -0.024970350624192953 0 1.7451051430254545e-05 -0.024984206300050524 0 8.1121223966647079e-08 -0.025000098031078079 0 1.3704425609511501e-05 -0.024970350624192953 0 8.1121223966647079e-08 -0.025000098031078079 0 1.3704425609511501e-05 -0.024970350624192953 0 8.1378964528609369e-06 -0.024935257316211223 0 3.7501929689152172e-05 -0.024954683540541794 0 1.3704425609511501e-05 -0.024970350624192953 0 8.1378964528609369e-06 -0.024935257316211223 0 -2.9248587716978597e-07 -0.024999218585449384 0 8.1121223966647079e-08 -0.025000098031078079 0 8.1378964528609369e-06 -0.024935257316211223 0 8.1378964528609369e-06 -0.024935257316211223 0 8.123077946187326e-06 -0.024845792557319238 0 7.7145175407148544e-05 -0.024891093206883756 0 -2.9248587716978597e-07 -0.024999218585449384 0 8.1378964528609369e-06 -0.024935257316211223 0 8.123077946187326e-06 -0.024845792557319238 0 -4.1260944299379859e-06 -0.024626998383952138 0 8.123077946187326e-06 -0.024845792557319238 0 0.0001250637789415738 -0.024793824162464229 0 8.123077946187326e-06 -0.024845792557319238 0 0.0001250637789415738 -0.024793824162464229 0 7.7145175407148544e-05 -0.024891093206883756 0 0.0001250637789415738 -0.024793824162464229 0 0.00021569105727057306 -0.024884151415962837 0 7.7145175407148544e-05 -0.024891093206883756 0 0.00021541123266073639 -0.024644944351565449 0 0.0001250637789415738 -0.024793824162464229 0 0.0002282165727966242 -0.024798959310819844 0 0.00010754367527580082 -0.023760299216602599 0 0.00021176001047403052 -0.023052499929966077 0 0.00051828337590893617 -0.0207584819876632 0 0.0004559527299954916 -0.019812458896664095 0 0.00021541123266073639 -0.024644944351565449 0 0.00037496081765702095 -0.024738341668903329 0 0.00036927412073954515 -0.024772953458500689 0 0.00017539756168026229 -0.024601233637266295 0 0.00013499977770532379 -0.024653194395760341 0 0.00015447976245654721 -0.024752787202893922 0 0.00021541123266073639 -0.024644944351565449 0 0.0002282165727966242 -0.024798959310819844 0 0.00036927412073954515 -0.024772953458500689 0 0.00025674245429627867 -0.022915753238544893 0 0.00021176001047403052 -0.023052499929966077 0 0.00017784091430597822 -0.023351947866332164 0 0.00015513959643686547 -0.023383787007369355 0 0.00018522575088812738 -0.0230531184080244 0 0.00026955680418696827 -0.021483883414676188 0 0.00026297009046918175 -0.021536455253179137 0 0.00025634508576771411 -0.021499733384999959 0 0.0002282165727966242 -0.024798959310819844 0 0.00034022181350959165 -0.024797801450668174 0 0.00036927412073954515 -0.024772953458500689 0 0.00074610530508018177 -0.021890400268347768 0 6.6136521813536681e-05 -0.022456164541703162 0 7.1518756622701411e-05 -0.022784598758795908 0 0.00072459605661186373 -0.021398240360852194 0 0.00074610530508018177 -0.021890400268347768 0 6.6136521813536681e-05 -0.022456164541703162 0 0.00051828337590893617 -0.0207584819876632 0 0.00025674245429627867 -0.022915753238544893 0 0.00042848930436082923 -0.021772520002309944 0 0.00030113792854646524 -0.023291185686725321 0 0.00010754367527580082 -0.023760299216602599 0 0.00025674245429627867 -0.022915753238544893 0 0.00030113792854646524 -0.023291185686725321 0 0.00025674245429627867 -0.022915753238544893 0 0.0001250637789415738 -0.024793824162464229 0 0.0002282165727966242 -0.024798959310819844 0 0.00021569105727057306 -0.024884151415962837 0 0.0002282165727966242 -0.024798959310819844 0 0.00034022181350959165 -0.024797801450668174 0 0.00024998588944934289 -0.024858728482214959 0 0.00010754367527580082 -0.023760299216602599 0 3.8353365941436642e-05 -0.024538329322141082 0 0.0002282165727966242 -0.024798959310819844 0 0.00024998588944934289 -0.024858728482214959 0 0.00021569105727057306 -0.024884151415962837 0 3.8353365941436642e-05 -0.024538329322141082 0 6.103413770715146e-05 -0.024666664385401049 0 0.00014095803699871315 -0.024869637668276327 0 0.00013499977770532379 -0.024653194395760341 0 0.00015447976245654721 -0.024752787202893922 0 0.00014095803699871315 -0.024869637668276327 0 0.00013499977770532379 -0.024653194395760341 0 0.00011915202197027978 -0.024678888162124067 0 0.00026297009046918175 -0.021536455253179137 0 0.00025634508576771411 -0.021499733384999959 0 0.00024405120029971378 -0.021541946945615321 0 0.00014095803699871315 -0.024869637668276327 0 0.00011915202197027978 -0.024678888162124067 0 5.4136498261723925e-05 -0.024814830254640974 0 6.103413770715146e-05 -0.024666664385401049 0 7.7264263199353246e-05 -0.024877677344874938 0 0.00018693766124687537 -0.023251670826705401 0 0.00021176001047403052 -0.023052499929966077 0 0.00026297009046918175 -0.021536455253179137 0 0.00023916245281406631 -0.021572103463357372 0 0.00024405120029971378 -0.021541946945615321 0 8.1378964528609369e-06 -0.024935257316211223 0 9.6414231233443121e-05 -0.024947933644682764 0 7.7145175407148544e-05 -0.024891093206883756 0 0.00021569105727057306 -0.024884151415962837 0 9.6414231233443121e-05 -0.024947933644682764 0 7.7145175407148544e-05 -0.024891093206883756 0 -0.00034627332002613918 -0.014135421098833735 0 -0.00021922777412447482 -0.014100010018888567 0 -0.00010075599092114294 -0.013561143587068232 0 -0.00034627332002613918 -0.014135421098833735 0 -0.00021292991014206181 -0.013481190687187289 0 -0.00010075599092114294 -0.013561143587068232 0 -0.00034627332002613918 -0.014135421098833735 0 -0.00033172527518068721 -0.014245636933508396 0 -0.00021922777412447482 -0.014100010018888567 0 -0.00021292991014206181 -0.013481190687187289 0 -2.3096277748100091e-07 -0.01339972006523958 0 -8.5757177663720918e-07 -0.012046277286935893 0 -0.00021292991014206181 -0.013481190687187289 0 -2.3096277748100091e-07 -0.01339972006523958 0 -0.00022305955914429722 -0.014149385984842392 0 -0.00034627332002613918 -0.014135421098833735 0 -0.00021292991014206181 -0.013481190687187289 0 -0.00022305955914429722 -0.014149385984842392 0 -4.7343562731582799e-07 -0.014752964750601586 0 -0.00026986038105341215 -0.014915327219515157 0 -2.2447995141149635e-07 -0.016105568656559949 0 -0.00022305955914429722 -0.014149385984842392 0 -4.7343562731582799e-07 -0.014752964750601586 0 -0.00026986038105341215 -0.014915327219515157 0 -2.3096277748100091e-07 -0.01339972006523958 0 -0.00022305955914429722 -0.014149385984842392 0 -4.7343562731582799e-07 -0.014752964750601586 0 -0.00026986038105341215 -0.014915327219515157 0 -0.00030316662135099871 -0.014397185081407048 0 -7.9698220506888527e-05 -0.014403750352502387 0 -0.00034627332002613918 -0.014135421098833735 0 -0.00022305955914429722 -0.014149385984842392 0 -0.00026986038105341215 -0.014915327219515157 0 -0.00034627332002613918 -0.014135421098833735 0 -0.00026986038105341215 -0.014915327219515157 0 -0.00030316662135099871 -0.014397185081407048 0 -0.00034627332002613918 -0.014135421098833735 0 -0.00030316662135099871 -0.014397185081407048 0 -0.00033172527518068721 -0.014245636933508396 0 -0.00026986038105341215 -0.014915327219515157 0 0.00017755114281512696 -0.015058000020278371 0 -7.9698220506888527e-05 -0.014403750352502387 0 3.62337124533021e-05 -0.018669745249402136 0 0.00017621648794475002 -0.018451652936874955 0 -4.710796302014082e-05 -0.018494890516964652 0 9.5129114941089541e-05 -0.01686953020516101 0 -6.9612168244139036e-05 -0.016453800237133838 0 -0.00026986038105341215 -0.014915327219515157 0 0.00017755114281512696 -0.015058000020278371 0 -1.7655351105631683e-05 -0.015909592891778252 0 -0.00026986038105341215 -0.014915327219515157 0 -2.2447995141149635e-07 -0.016105568656559949 0 -1.7655351105631683e-05 -0.015909592891778252 0 -2.2447995141149635e-07 -0.016105568656559949 0 -1.7655351105631683e-05 -0.015909592891778252 0 -3.1801132805818081e-08 -0.017459190526387128 0 0.00017755114281512696 -0.015058000020278371 0 -1.7655351105631683e-05 -0.015909592891778252 0 0.0004199523764797222 -0.016452469443795654 0 -1.7655351105631683e-05 -0.015909592891778252 0 0.0004199523764797222 -0.016452469443795654 0 -3.1801132805818081e-08 -0.017459190526387128 0 -3.5984452164696261e-07 -0.018816234978308592 0 8.6984995911413524e-05 -0.018929524730785616 0 9.1282753618795594e-05 -0.018846904438460675 0 -1.4105603126623961e-08 -0.018812239901070647 0 0.00017817756605558143 -0.017619231108722141 0 1.3246731225473009e-06 -0.018810871876155055 0 0.0004199523764797222 -0.016452469443795654 0 -3.1801132805818081e-08 -0.017459190526387128 0 8.6984995911413524e-05 -0.018929524730785616 0 9.1282753618795594e-05 -0.018846904438460675 0 0.0001505093515853162 -0