<?xml version="1.0"?>
<VTKFile type="UnstructuredGrid" version="0.1" byte_order="LittleEndian">
<UnstructuredGrid>
<Piece NumberOfPoints="31898" NumberOfCells="11152">
<Points>
<DataArray type="Float64" NumberOfComponents="3" format="ascii">
-0.5 -0.5 0 -0.47620991077874902 -0.44978878706170539 0 -0.49999999999999473 -0.42132396840504388 0 -0.5 -0.5 0 -0.47160970827802529 -0.4793630013852106 0 -0.47620991077874902 -0.44978878706170539 0 -0.5 -0.5 0 -0.47160970827802529 -0.4793630013852106 0 -0.44860394795025399 -0.5 0 -0.47160970827802529 -0.4793630013852106 0 -0.44860394795025399 -0.5 0 -0.4490820238307246 -0.45820516232899983 0 -0.44860394795025399 -0.5 0 -0.4490820238307246 -0.45820516232899983 0 -0.42881687682924802 -0.47781464288736519 0 -0.4490820238307246 -0.45820516232899983 0 -0.45555437223955858 -0.42914059360647611 0 -0.4490820238307246 -0.45820516232899983 0 -0.45555437223955858 -0.42914059360647611 0 -0.43867285131603428 -0.4271457417558665 0 -0.4490820238307246 -0.45820516232899983 0 -0.43867285131603428 -0.4271457417558665 0 -0.4263356171060747 -0.44269880333887462 0 -0.47160970827802529 -0.4793630013852106 0 -0.4490820238307246 -0.45820516232899983 0 -0.47620991077874902 -0.44978878706170539 0 -0.4490820238307246 -0.45820516232899983 0 -0.47620991077874902 -0.44978878706170539 0 -0.45555437223955858 -0.42914059360647611 0 -0.47620991077874902 -0.44978878706170539 0 -0.48101336032419229 -0.41069999664450008 0 -0.45555437223955858 -0.42914059360647611 0 -0.47620991077874902 -0.44978878706170539 0 -0.49999999999999473 -0.42132396840504388 0 -0.48101336032419229 -0.41069999664450008 0 -0.49999999999999473 -0.42132396840504388 0 -0.48101336032419229 -0.41069999664450008 0 -0.5 -0.393886241813306 0 -0.49999999999999473 -0.42132396840504388 0 -0.48101336032419229 -0.41069999664450008 0 -0.5 -0.393886241813306 0 -0.47854472220918332 -0.38978458738689759 0 -0.48422759779560409 -0.37130120630367158 0 -0.5 -0.393886241813306 0 -0.5 -0.36644851522156802 0 -0.48422759779560409 -0.37130120630367158 0 -0.48101336032419229 -0.41069999664450008 0 -0.5 -0.393886241813306 0 -0.47854472220918332 -0.38978458738689759 0 -0.48101336032419229 -0.41069999664450008 0 -0.47854472220918332 -0.38978458738689759 0 -0.46202672064839212 -0.40007602488395211 0 -0.48101336032419229 -0.41069999664450008 0 -0.46202672064839212 -0.40007602488395211 0 -0.47854472220918332 -0.38978458738689759 0 -0.46725442735267431 -0.37660061361585562 0 -0.46202672064839212 -0.40007602488395211 0 -0.47854472220918332 -0.38978458738689759 0 -0.46725442735267431 -0.37660061361585562 0 -0.48422759779560409 -0.37130120630367158 0 -0.46725442735267431 -0.37660061361585562 0 -0.46202672064839212 -0.40007602488395211 0 -0.46725442735267431 -0.37660061361585562 0 -0.45645674801697989 -0.38644133236760531 0 -0.46202672064839212 -0.40007602488395211 0 -0.46725442735267431 -0.37660061361585562 0 -0.45645674801697989 -0.38644133236760531 0 -0.4540003998136638 -0.37455519391687309 0 -0.45645674801697989 -0.38644133236760531 0 -0.46202672064839212 -0.40007602488395211 0 -0.44257020456291563 -0.38918913383950271 0 -0.46202672064839212 -0.40007602488395211 0 -0.44257020456291563 -0.38918913383950271 0 -0.44727608925983742 -0.41095911152778891 0 -0.46202672064839212 -0.40007602488395211 0 -0.44257020456291563 -0.38918913383950271 0 -0.44257020456291563 -0.38918913383950271 0 -0.44727608925983742 -0.41095911152778891 0 -0.43479358559901082 -0.4041454901736512 0 -0.44257020456291563 -0.38918913383950271 0 -0.4540003998136638 -0.37455519391687309 0 -0.44172858264042247 -0.37082207246888088 0 -0.45645674801697989 -0.38644133236760531 0 -0.44257020456291563 -0.38918913383950271 0 -0.4540003998136638 -0.37455519391687309 0 -0.46202672064839212 -0.40007602488395211 0 -0.45555437223955858 -0.42914059360647611 0 -0.44727608925983742 -0.41095911152778891 0 -0.46202672064839212 -0.40007602488395211 0 -0.45555437223955858 -0.42914059360647611 0 -0.48101336032419229 -0.41069999664450008 0 -0.46202672064839212 -0.40007602488395211 0 -0.45555437223955858 -0.42914059360647611 0 -0.44727608925983742 -0.41095911152778891 0 -0.43867285131603428 -0.4271457417558665 0 -0.43676601469929588 -0.41441201227470881 0 -0.44727608925983742 -0.41095911152778891 0 -0.43676601469929588 -0.41441201227470881 0 -0.43479358559901082 -0.4041454901736512 0 -0.45555437223955858 -0.42914059360647611 0 -0.44727608925983742 -0.41095911152778891 0 -0.43867285131603428 -0.4271457417558665 0 -0.43867285131603428 -0.4271457417558665 0 -0.42681803064840879 -0.42717069814352421 0 -0.4263356171060747 -0.44269880333887462 0 -0.42681803064840879 -0.42717069814352421 0 -0.41531815884496182 -0.42985383783075998 0 -0.4263356171060747 -0.44269880333887462 0 -0.42681803064840879 -0.42717069814352421 0 -0.42624289495594048 -0.42089725947505818 0 -0.42083332353326591 -0.42146747131641099 0 -0.42681803064840879 -0.42717069814352421 0 -0.43096994786351572 -0.41951492446283251 0 -0.42624289495594048 -0.42089725947505818 0 -0.43867285131603428 -0.4271457417558665 0 -0.42681803064840879 -0.42717069814352421 0 -0.43096994786351572 -0.41951492446283251 0 -0.43867285131603428 -0.4271457417558665 0 -0.43676601469929588 -0.41441201227470881 0 -0.43096994786351572 -0.41951492446283251 0 -0.43676601469929588 -0.41441201227470881 0 -0.43096994786351572 -0.41951492446283251 0 -0.42907264086257813 -0.41311715872526122 0 -0.43676601469929588 -0.41441201227470881 0 -0.42907264086257813 -0.41311715872526122 0 -0.43479358559901082 -0.4041454901736512 0 -0.42907264086257813 -0.41311715872526122 0 -0.43479358559901082 -0.4041454901736512 0 -0.42460885511582858 -0.40417321677700252 0 -0.42907264086257813 -0.41311715872526122 0 -0.41997834854398469 -0.41180534796019508 0 -0.42907264086257813 -0.41311715872526122 0 -0.42635027777857132 -0.41543594397746519 0 -0.41997834854398469 -0.41180534796019508 0 -0.42907264086257813 -0.41311715872526122 0 -0.41997834854398469 -0.41180534796019508 0 -0.42460885511582858 -0.40417321677700252 0 -0.42635027777857132 -0.41543594397746519 0 -0.41997834854398469 -0.41180534796019508 0 -0.42635027777857132 -0.41543594397746519 0 -0.42083332353326591 -0.42146747131641099 0 -0.41997834854398469 -0.41180534796019508 0 -0.43096994786351572 -0.41951492446283251 0 -0.42624289495594048 -0.42089725947505818 0 -0.42635027777857132 -0.41543594397746519 0 -0.43096994786351572 -0.41951492446283251 0 -0.42907264086257813 -0.41311715872526122 0 -0.42635027777857132 -0.41543594397746519 0 -0.42624289495594048 -0.42089725947505818 0 -0.42635027777857132 -0.41543594397746519 0 -0.42083332353326591 -0.42146747131641099 0 -0.42083332353326591 -0.42146747131641099 0 -0.41997834854398469 -0.41180534796019508 0 -0.40992282953163789 -0.42011435591993562 0 -0.41997834854398469 -0.41180534796019508 0 -0.39756877647335259 -0.40857286797681719 0 -0.41997834854398469 -0.41180534796019508 0 -0.40992282953163789 -0.42011435591993562 0 -0.39756877647335259 -0.40857286797681719 0 -0.40992282953163789 -0.42011435591993562 0 -0.41531815884496182 -0.42985383783075998 0 -0.39591554026262499 -0.42887225451549271 0 -0.41531815884496182 -0.42985383783075998 0 -0.39591554026262499 -0.42887225451549271 0 -0.41160927495564159 -0.44339431233754628 0 -0.42083332353326591 -0.42146747131641099 0 -0.40992282953163789 -0.42011435591993562 0 -0.41531815884496182 -0.42985383783075998 0 -0.42681803064840879 -0.42717069814352421 0 -0.42083332353326591 -0.42146747131641099 0 -0.41531815884496182 -0.42985383783075998 0 -0.44257020456291563 -0.38918913383950271 0 -0.42311368847744002 -0.37830224279505142 0 -0.42594061475171041 -0.39368797999533162 0 -0.44257020456291563 -0.38918913383950271 0 -0.42311368847744002 -0.37830224279505142 0 -0.44172858264042247 -0.37082207246888088 0 -0.44257020456291563 -0.38918913383950271 0 -0.42311368847744002 -0.37830224279505142 0 -0.42311368847744002 -0.37830224279505142 0 -0.42594061475171041 -0.39368797999533162 0 -0.416587075656149 -0.38785930376960043 0 -0.44257020456291563 -0.38918913383950271 0 -0.42594061475171041 -0.39368797999533162 0 -0.43479358559901082 -0.4041454901736512 0 -0.42594061475171041 -0.39368797999533162 0 -0.43479358559901082 -0.4041454901736512 0 -0.42460885511582858 -0.40417321677700252 0 -0.41997834854398469 -0.41180534796019508 0 -0.41325908582185972 -0.39811010703057192 0 -0.39770572831670092 -0.39911486077581648 0 -0.41997834854398469 -0.41180534796019508 0 -0.39770572831670092 -0.39911486077581648 0 -0.42594061475171041 -0.39368797999533162 0 -0.42460885511582858 -0.40417321677700252 0 -0.41325908582185972 -0.39811010703057192 0 -0.41997834854398469 -0.41180534796019508 0 -0.42460885511582858 -0.40417321677700252 0 -0.41325908582185972 -0.39811010703057192 0 -0.42594061475171041 -0.39368797999533162 0 -0.41325908582185972 -0.39811010703057192 0 -0.416587075656149 -0.38785930376960043 0 -0.41325908582185972 -0.39811010703057192 0 -0.416587075656149 -0.38785930376960043 0 -0.40403491357358612 -0.38133688525744702 0 -0.42311368847744002 -0.37830224279505142 0 -0.40403491357358612 -0.38133688525744702 0 -0.40365717239196519 -0.36741535175059892 0 -0.42311368847744002 -0.37830224279505142 0 -0.416587075656149 -0.38785930376960043 0 -0.40403491357358612 -0.38133688525744702 0 -0.40403491357358612 -0.38133688525744702 0 -0.39190790742475001 -0.38540387676521748 0 -0.39770572831670092 -0.39911486077581648 0 -0.40403491357358612 -0.38133688525744702 0 -0.39190790742475001 -0.38540387676521748 0 -0.3904578797192948 -0.37473938743617019 0 -0.41325908582185972 -0.39811010703057192 0 -0.40403491357358612 -0.38133688525744702 0 -0.39770572831670092 -0.39911486077581648 0 -0.39770572831670092 -0.39911486077581648 0 -0.37543310808941849 -0.38642437359143528 0 -0.39770572831670092 -0.39911486077581648 0 -0.37515920440272033 -0.40534038799344108 0 -0.37543310808941849 -0.38642437359143528 0 -0.39770572831670092 -0.39911486077581648 0 -0.37515920440272033 -0.40534038799344108 0 -0.39756877647335259 -0.40857286797681719
[...]
<PointData Scalars="" Vectors="displacement," Tensors="">
<DataArray type="Float64" Name="displacement" NumberOfComponents="3" format="ascii">
-0.054995474811159475 -4.2070594344795953e-07 0 -0.0536085407643885 -0.00027927365962113801 0 -0.054996317351497626 -1.1650012171498244e-06 0 -0.054995474811159475 -4.2070594344795953e-07 0 -0.052592919692097964 -0.00018509482372362941 0 -0.0536085407643885 -0.00027927365962113801 0 -0.054995474811159475 -4.2070594344795953e-07 0 -0.052592919692097964 -0.00018509482372362941 0 -0.049349473744533148 -4.0792695463961061e-07 0 -0.052592919692097964 -0.00018509482372362941 0 -0.049349473744533148 -4.0792695463961061e-07 0 -0.051612629199568869 0.00012930634419154168 0 -0.049349473744533148 -4.0792695463961061e-07 0 -0.051612629199568869 0.00012930634419154168 0 -0.049042397191420992 -0.00010592739067098983 0 -0.052131249041726155 0.00034426719085300353 0 -0.052402851522064815 0.00034542877504010284 0 -0.051612629199568869 0.00012930634419154168 0 -0.050661023376931617 0.00054809326450325007 0 -0.050574259703217987 0.00017626457335298955 0 -0.051612629199568869 0.00012930634419154168 0 -0.050574259703217987 0.00017626457335298955 0 -0.050659753246766186 1.6995739353403908e-05 0 -0.052592919692097964 -0.00018509482372362941 0 -0.051612629199568869 0.00012930634419154168 0 -0.0536085407643885 -0.00027927365962113801 0 -0.051612629199568869 0.00012930634419154168 0 -0.0536085407643885 -0.00027927365962113801 0 -0.054125325141194003 0.00042599402970702857 0 -0.0536085407643885 -0.00027927365962113801 0 -0.054818859851478816 -4.4910423010909987e-05 0 -0.054125325141194003 0.00042599402970702857 0 -0.0536085407643885 -0.00027927365962113801 0 -0.054996317351497626 -1.1650012171498244e-06 0 -0.054818859851478816 -4.4910423010909987e-05 0 -0.054999998128321764 1.5695060436006316e-10 0 -0.054997675725935939 -6.6176198521702055e-07 0 -0.054999997157552181 -8.4891477008388808e-10 0 -0.054998307053344873 6.6621070234989294e-07 0 -0.054162586309565698 0.00021262192247865772 0 -0.054999997157552181 -8.4891477008388808e-10 0 -0.054997255901953451 -1.2065969175833676e-06 0 -0.054998836509756718 -1.9693526099648435e-06 0 -0.054999997157552181 -8.4891477008388808e-10 0 -0.054999995313903309 -2.979710717614233e-09 0 -0.054998836509756718 -1.9693526099648435e-06 0 -0.054997675725935939 -6.6176198521702055e-07 0 -0.054999997157552181 -8.4891477008388808e-10 0 -0.054997255901953451 -1.2065969175833676e-06 0 -0.054997675725935939 -6.6176198521702055e-07 0 -0.054997255901953451 -1.2065969175833676e-06 0 -0.054994262421161851 -9.4782476742089777e-07 0 -0.054162586309565698 0.00021262192247865772 0 -0.0528723535254235 0.00025252269880928548 0 -0.054997255901953451 -1.2065969175833676e-06 0 -0.054996601823421219 -1.3016115886531527e-06 0 -0.054994262421161851 -9.4782476742089777e-07 0 -0.054997255901953451 -1.2065969175833676e-06 0 -0.054996601823421219 -1.3016115886531527e-06 0 -0.054998836509756718 -1.9693526099648435e-06 0 -0.053702154135832784 0.00010526606613213429 0 -0.0528723535254235 0.00025252269880928548 0 -0.052620419014833407 0.00022976951301267753 0 -0.052332511615892113 0.00056946728748566162 0 -0.051922854765218705 0.0004031028187520274 0 -0.052620419014833407 0.00022976951301267753 0 -0.052332511615892113 0.00056946728748566162 0 -0.052699147589066242 0.00065157948835005647 0 -0.052332511615892113 0.00056946728748566162 0 -0.051922854765218705 0.0004031028187520274 0 -0.052256863234451625 0.00098850525318063247 0 -0.050166110115040075 0.00064259825678611904 0 -0.049976528161918228 0.00033030383293607845 0 -0.0503495624645647 0.00038754817380576333 0 -0.0528723535254235 0.00025252269880928548 0 -0.051513403026329521 0.00059527430232448112 0 -0.049976528161918228 0.00033030383293607845 0 -0.0503495624645647 0.00038754817380576333 0 -0.050243659529053825 0.00019575459429868714 0 -0.052256863234451625 0.00098850525318063247 0 -0.052699147589066242 0.00065157948835005647 0 -0.05281027514544339 0.0010152903596921058 0 -0.052332511615892113 0.00056946728748566162 0 -0.052256863234451625 0.00098850525318063247 0 -0.052699147589066242 0.00065157948835005647 0 -0.050166110115040075 0.00064259825678611904 0 -0.050661023376931617 0.00054809326450325007 0 -0.0503495624645647 0.00038754817380576333 0 -0.0528723535254235 0.00025252269880928548 0 -0.052402851522064815 0.00034542877504010284 0 -0.054818859851478816 -4.4910423010909987e-05 0 -0.055011475812416603 0.00037981347149314867 0 -0.054125325141194003 0.00042599402970702857 0 -0.0503495624645647 0.00038754817380576333 0 -0.050574259703217987 0.00017626457335298955 0 -0.05042570260750355 0.00021251767240570296 0 -0.0503495624645647 0.00038754817380576333 0 -0.05042570260750355 0.00021251767240570296 0 -0.050243659529053825 0.00019575459429868714 0 -0.050661023376931617 0.00054809326450325007 0 -0.0503495624645647 0.00038754817380576333 0 -0.050574259703217987 0.00017626457335298955 0 -0.050574259703217987 0.00017626457335298955 0 -0.050573145092021293 0.00010614049041710938 0 -0.050659753246766186 1.6995739353403908e-05 0 -0.050573145092021293 0.00010614049041710938 0 -0.050582444745462724 0.00017554890321132795 0 -0.050659753246766186 1.6995739353403908e-05 0 -0.050573145092021293 0.00010614049041710938 0 -0.050532891416393659 0.00011376560380787598 0 -0.050548059303813564 0.00013271393300978709 0 -0.050573145092021293 0.00010614049041710938 0 -0.050511247043322736 0.00013619178414276141 0 -0.050532891416393659 0.00011376560380787598 0 -0.050574259703217987 0.00017626457335298955 0 -0.050573145092021293 0.00010614049041710938 0 -0.050511247043322736 0.00013619178414276141 0 -0.050574259703217987 0.00017626457335298955 0 -0.05042570260750355 0.00021251767240570296 0 -0.050511247043322736 0.00013619178414276141 0 -0.05042570260750355 0.00021251767240570296 0 -0.050511247043322736 0.00013619178414276141 0 -0.050435038939512143 0.00011588704288782348 0 -0.05042570260750355 0.00021251767240570296 0 -0.050435038939512143 0.00011588704288782348 0 -0.050243659529053825 0.00019575459429868714 0 -0.050435038939512143 0.00011588704288782348 0 -0.050243659529053825 0.00019575459429868714 0 -0.05024233872519767 1.5355280037451901e-05 0 -0.045407459579501513 0.0012832922045612496 0 -0.045242827482982806 0.0013727630068736001 0 -0.050435038939512143 0.00011588704288782348 0 -0.050495909831525562 9.4522349392308773e-05 0 -0.050445923660783029 8.5200755206826163e-06 0 -0.050435038939512143 0.00011588704288782348 0 -0.050393294553143911 -7.3434902939767188e-05 0 -0.05024233872519767 1.5355280037451901e-05 0 -0.045399736632816469 0.0014252668289878056 0 -0.045242827482982806 0.0013727630068736001 0 -0.050495909831525562 9.4522349392308773e-05 0 -0.050548059303813564 0.00013271393300978709 0 -0.050560949486865119 0.00014009515159227274 0 -0.050511247043322736 0.00013619178414276141 0 -0.050532891416393659 0.00011376560380787598 0 -0.050495909831525562 9.4522349392308773e-05 0 -0.050511247043322736 0.00013619178414276141 0 -0.050435038939512143 0.00011588704288782348 0 -0.050495909831525562 9.4522349392308773e-05 0 -0.050532891416393659 0.00011376560380787598 0 -0.050495909831525562 9.4522349392308773e-05 0 -0.050548059303813564 0.00013271393300978709 0 -0.050548059303813564 0.00013271393300978709 0 -0.050560949486865119 0.00014009515159227274 0 -0.050559899231531202 0.00018417628881092971 0 -0.045242827482982806 0.0013727630068736001 0 -0.044030383976913674 0.0010788286994604093 0 -0.050560949486865119 0.00014009515159227274 0 -0.050559899231531202 0.00018417628881092971 0 -0.050580086215976768 0.00023395701597655948 0 -0.050559899231531202 0.00018417628881092971 0 -0.050582444745462724 0.00017554890321132795 0 -0.050539217134940896 0.00024830051049067032 0 -0.050582444745462724 0.00017554890321132795 0 -0.050539217134940896 0.00024830051049067032 0 -0.050548249331387275 0.00028311169847828238 0 -0.050548059303813564 0.00013271393300978709 0 -0.050559899231531202 0.00018417628881092971 0 -0.050582444745462724 0.00017554890321132795 0 -0.050573145092021293 0.00010614049041710938 0 -0.050548059303813564 0.00013271393300978709 0 -0.050582444745462724 0.00017554890321132795 0 -0.049976528161918228 0.00033030383293607845 0 -0.049739643895056397 -1.2355601641657709e-05 0 -0.050041098095348277 3.8073859607662144e-05 0 -0.052256863234451625 0.00098850525318063247 0 -0.052587253861488485 0.0015517800284645428 0 -0.05281027514544339 0.0010152903596921058 0 -0.051513403026329521 0.00059527430232448112 0 -0.050457712508319118 0.0011493713512620053 0 -0.049739643895056397 -1.2355601641657709e-05 0 -0.050041098095348277 3.8073859607662144e-05 0 -0.049917785579172015 -0.00013582315702899777 0 -0.049976528161918228 0.00033030383293607845 0 -0.050041098095348277 3.8073859607662144e-05 0 -0.050243659529053825 0.00019575459429868714 0 -0.050041098095348277 3.8073859607662144e-05 0 -0.050243659529053825 0.00019575459429868714 0 -0.05024233872519767 1.5355280037451901e-05 0 -0.050393294553143911 -7.3434902939767188e-05 0 -0.050118324811199974 -0.00020095608309764676 0 -0.050132464660577247 -0.00050612667984156095 0 -0.045242827482982806 0.0013727630068736001 0 -0.044217279137581604 0.0015254316874299303 0 -0.050041098095348277 3.8073859607662144e-05 0 -0.05024233872519767 1.5355280037451901e-05 0 -0.050118324811199974 -0.00020095608309764676 0 -0.050393294553143911 -7.3434902939767188e-05 0 -0.05024233872519767 1.5355280037451901e-05 0 -0.050118324811199974 -0.00020095608309764676 0 -0.050041098095348277 3.8073859607662144e-05 0 -0.050118324811199974 -0.00020095608309764676 0 -0.049917785579172015 -0.00013582315702899777 0 -0.050118324811199974 -0.00020095608309764676 0 -0.049917785579172015 -0.00013582315702899777 0 -0.049773035319378246 -0.00037036137158182075 0 -0.049739643895056397 -1.2355601641657709e-05 0 -0.049773035319378246 -0.00037036137158182075 0 -0.049517421349074817 -0.00037387866454652714 0 -0.049739643895056397 -1.2355601641657709e-05 0 -0.049917785579172015 -0.00013582315702899777 0 -0.049773035319378246 -0.00037036137158182075 0 -0.049773035319378246 -0.00037036137158182075 0 -0.049842755964406162 -0.00063198100481197221 0 -0.050132464660577247 -0.00050612667984156095 0 -0.049773035319378246 -0.00037036137158182075 0 -0.049842755964406162 -0.00063198100481197221 0 -0.049606627832825385 -0.00066437848971361306 0 -0.050118324811199974 -0.00020095608309764676 0 -0.049773035319378246 -0.00037036137158182075 0 -0.050132464660577247 -0.00050612667984156095 0 -0.044217279137581604 0.0015254316874299303 0 -0.041478134463088047 0.0017589106333385218 0 -0.043153250391017833 0.0013560189778418792 0 -0.043297015582617837 0.00081926051571345278 0 -0.042846192952720803 0.00082641444965498971 0 -0.043153250391017833 0.0013560189778418792 0 -0.043297015582617837 0.00081926051571345278 0 -0.043379005410308522 0.0013524954222851973 0 -0.041486210097851445 0.00067174510384104802 0 -0.041478134463088047 0.0017589106333385218 0 -0.049855013035286111 -0.00099131370058464017 0 -0.049606627832825385 -0.00066437848971361306 0 -0.049472173731858367 -0.0009928438296137852 0 -0.049842755964406162 -0.00063198100481197221 0 -0.049855013035286111 -0.00099131370058464017 0 -0.049606627832825385 -0.00066437848971361306 0 -0.041478134463088047 0.0017589106333385218 0 -0.043933563709184047 0.0016207647379033767 0 -0.049842755964406162 -0.00063198100481197221 0 -0.050132464660577247 -0.00050612667984156095 0 -0.049855013035286111 -0.00099131370058464017 0 -0.04346314808044921 0.0018848226801336154 0 -0.043153250391017833 0.0013560189778418792 0 -0.043379005410308522 0.0013524954222851973 0 -0.050559899231531202 0.00018417628881092971 0 -0.050539217134940896 0.00024830051049067032 0 -0.050580086215976768 0.00023395701597655948 0 -0.050565116571718881 0.00028535072698802189 0 -0.050539217134940896 0.00024830051049067032 0 -0.050580086215976768 0.00023395701597655948 0 -0.041486210097851445 0.00067174510384104802 0 -0.044030383976913674 0.0010788286994604093 0 -0.050565116571718881 0.00028535072698802189 0 -0.050539217134940896 0.00024830051049067032 0 -0.050519025694299495 0.00028889337561068711 0 -0.050539217134940896 0.00024830051049067032 0 -0.050518812892374414 0.00026759985364414673 0 -0.050519025694299495 0.00028889337561068711 0 -0.050518812892374414 0.00026759985364414673 0 -0.050471051302306801 0.00029805019111028808 0 -0.050519025694299495 0.00028889337561068711 0 -0.050539217134940896 0.00024830051049067032 0 -0.050518812892374414 0.00026759985364414673 0 -0.050548249331387275 0.00028311169847828238 0 -0.050518812892374414 0.00026759985364414673 0 -0.050511194812120144 0.00026758238079838587 0 -0.050548249331387275 0.00028311169847828238 0 -0.049789640266273583 0.00097487634126567008 0 -0.046675723068251844 0.0011543395137277057 0 -0.048819006061390745 0.00033522912189540494 0 -0.037349154368211429 0.0026040333579734911 0 -0.037681651222451727 0.0013399732155105824 0 -0.039166858716419187 0.0016484109929421342 0 -0.04447874167138427 -0.00088329759147113228 0 -0.043060951645786709 -6.8360481381793737e-05 0 -0.04447874167138427 -0.00088329759147113228 0 -0.044493409067839489 -0.00087790970424170506 0 -0.04447874167138427 -0.00088329759147113228 0 -0.043277925287734074 0.00027676791906782556 0 -0.050518812892374414 0.00026759985364414673 0 -0.050511194812120144 0.00026758238079838587 0 -0.050489193533427325 0.00027543670472055014 0 -0.050518812892374414 0.00026759985364414673 0 -0.050489193533427325 0.00027543670472055014 0 -0.050471051302306801 0.00029805019111028808 0 -0.043277925287734074 0.00027676791906782556 0 -0.041972120718635271 0.0011390171622000216 0 -0.037681651222451727 0.0013399732155105824 0 -0.038541634986708255 0.00087502341030564737 0 -0.038018063978344722 4.3432660365296483e-05 0 -0.038541634986708255 0.00087502341030564737 0 -0.039166858716419187 0.0016484109929421342 0 -0.039034215131362002 1.2036347371912522e-05 0 -0.039166858716419187 0.0016484109929421342 0 -0.040120270134308078 -0.00019919107187499815 0 -0.039034215131362002 1.2036347371912522e-05 0 -0.038541634986708255 0.00087502341030564737 0 -0.039034215131362002 1.2036347371912522e-05 0 -0.038018063978344722 4.3432660365296483e-05 0 -0.037681651222451727 0.0013399732155105824 0 -0.038541634986708255 0.00087502341030564737 0 -0.039166858716419187 0.0016484109929421342 0 -0.041906169820798166 3.0097312056824806e-07 0 -0.043060951645786709 -6.8360481381793737e-05 0 -0.041899544983176072 2.8165126169089799e-06 0 -0.039166858716419187 0.0016484109929421342 0 -0.040120270134308078 -0.00019919107187499815 0 -0.041909586617970479 4.4453895850995438e-06 0 -0.046675723068251844 0.0011543395137277057 0 -0.045098016840807748 -7.9493517331650848e-07 0 -0.046675723068251844 0.0011543395137277057 0 -0.048819006061390745 0.00033522912189540494 0 -0.045098016840807748 -7.9493517331650848e-07 0 -0.048819006061390745 0.00033522912189540494 0 -0.045098016840807748 -7.9493517331650848e-07 0 -0.049042397191420992 -0.00010592739067098983 0 -0.049349473744533148 -4.0792695463961061e-07 0 -0.045098016840807748 -7.9493517331650848e-07 0 -0.049042397191420992 -0.00010592739067098983 0 -0.048819006061390745 0.00033522912189540494 0 -0.049042397191420992 -0.00010592739067098983 0 -0.050183886241660217 3.9652791311004724e-05 0 -0.051612629199568869 0.00012930634419154168 0 -0.049042397191420992 -0.00010592739067098983 0 -0.050183886241660217 3.9652791311004724e-05 0 -0.051612629199568869 0.00012930634419154168 0 -0.050183886241660217 3.9652791311004724e-05 0 -0.050659753246766186 1.6995739353403908e-05 0 -0.050183886241660217 3.9652791311004724e-05 0 -0.050659753246766186 1.6995739353403908e-05 0 -0.050193992397306993 0.00022286252988226561 0 -0.050659753246766186 1.6995739353403908e-05 0 -0.050548249331387275 0.00028311169847828238 0 -0.050193992397306993 0.00022286252988226561 0 -0.050582444745462724 0.00017554890321132795 0 -0.050659753246766186 1.6995739353403908e-05 0 -0.050548249331387275 0.00028311169847828238 0 -0.049853579448807625 0.00092811182628193948 0 -0.050548249331387275 0.00028311169847828238 0 -0.049884452517467308 0.00076723322393103417 0 -0.050548249331387275 0.00028311169847828238 0 -0.049884452517467308 0.00076723322393103417 0 -0.050193992397306993 0.00022286252988226561 0 -0.04447874167138427 -0.00088329759147113228 0 -0.045946459681832058 -0.0012446790468960463 0 -0.048819006061390745 0.00033522912189540494 0 -0.049884452517467308 0.00076723322393103417 0 -0.050193992397306993 0.00022286252988226561 0 -0.049789640266273583 0.00097487634126567008 0 -0.048819006061390745 0.00033522912189540494 0 -0.049884452517467308 0.00076723322393103417 0 -0.048819006061390745 0.00033522912189540494 0 -0.050183886241660217 3.9652791311004724e-05 0 -0.050193992397306993 0.00022286252988226561 0 -0.050735108904791229 0.00058530839101220578 0 -0.048380035556397132 0.0020646583652141849 0 -0.054646803210795833 -0.00053183920571806063 0 -0.054722410717182549 -0.0023094766526308309 0 -0.053772987648164856 -0.00087256917341863222 0 -0.054897602020380139 0.00016320464324294704 0 -0.054930766036861194 0.00012527659616467973 0 -0.05493867651232006 0.00021220658509025396 0 -0.054897602020380139 0.00016320464324294704 0 -0.054888122778208641 0.00023621685628733737 0 -0.05493867651232006 0.00021220658509025396 0 -0.054897602020380139 0.00016320464324294704 0 -0.054850071223451834 0.00023152544253716195 0 -0.054888122778208641 0.00023621685628733737 0 -0.054897602020380139 0.00016320464324294704 0 -0.054904167340597484 9.0140018454758786e-05 0 -0.054912620618629449 8.3884125221378051e-05 0 -0.054897602020380139 0.00016320464324294704 0 -0.054904167340597484 9.0140018454758786e-05 0 -0.054930766036861194 0.00012527659616467973 0 -0.050735108904791229 0.00058530839101220578 0 -0.051443692679332589 0.00042427013188271447 0 -0.054904167340597484 9.0140018454758786e-05 0 -0.054930766036861194 0.00012527659616467973 0 -0.0548304903435392 8.8499821573114249e-05 0 -0.054646803210795833 -0.00053183920571806063 0 -0.0548304903435392 8.8499821573114249e-05 0 -0.053880674196861447 7.6546022207797093e-05 0 -0.0548304903435392 8.8499821573114249e-05 0 -0.054999841483934074 1.7868580231475325e-07 0 -0.054935048663825793 5.5987785850619426e-05 0 -0.0548304903435392 8.8499821573114249e-05 0 -0.054999841483934074 1.7868580231475325e-07 0 -0.054567848559994178 0.00010749595115749023 0 -0.054999841483934074 1.7868580231475325e-07 0 -0.054935048663825793 5.5987785850619426e-05 0 -0.054999891826616201 -6.0455574635160514e-09 0 -0.054904167340597484 9.0140018454758786e-05 0 -0.0548304903435392 8.8499821573114249e-05 0 -0.054935048663825793 5.5987785850619426e-05 0 -0.054904167340597484 9.0140018454758786e-05 0 -0.054935048663825793 5.5987785850619426e-05 0 -0.054912620618629449 8.3884125221378051e-05 0 -0.054912620618629449 8.3884125221378051e-05 0 -0.05494341465973919 1.6225471947378582e-05 0 -0.05489143146988449 6.3216824321423891e-05 0 -0.054935048663825793 5.5987785850619426e-05 0 -0.054912620618629449 8.3884125221378051e-05 0 -0.05494341465973919 1.6225471947378582e-05 0 -0.054999891826616201 -6.0455574635160514e-09 0 -0.05494341465973919 1.6225471947378582e-05 0 -0.054999885450345717 1.5142077639802236e-08 0 -0.054935048663825793 5.5987785850619426e-05 0 -0.054999891826616201 -6.0455574635160514e-09 0 -0.05494341465973919 1.6225471947378582e-05 0 -0.05494341465973919 1.6225471947378582e-05 0 -0.054999885450345717 1.5142077639802236e-08 0 -0.054917404810206148 -1.4684875985741828e-05 0 -0.054917404810206148 -1.4684875985741828e-05 0 -0.05489143146988449 6.3216824321423891e-05 0 -0.054758482408085785 5.3007615049011147e-05 0 -0.05494341465973919 1.6225471947378582e-05 0 -0.054917404810206148 -1.4684875985741828e-05 0 -0.05489143146988449 6.3216824321423891e-05 0 -0.05489143146988449 6.3216824321423891e-05 0 -0.05479757159004324 0.00014572907045577979 0 -0.054758482408085785 5.3007615049011147e-05 0 -0.05479757159004324 0.00014572907045577979 0 -0.054789831514928541 0.000223