<?xml version="1.0"?>
<VTKFile type="UnstructuredGrid" version="0.1" byte_order="LittleEndian">
<UnstructuredGrid>
<Piece NumberOfPoints="30245" NumberOfCells="10573">
<Points>
<DataArray type="Float64" NumberOfComponents="3" format="ascii">
-0.5 -0.5 0 -0.46759993646961789 -0.47152999895804548 0 -0.43364758716418977 -0.5 0 -0.5 -0.5 0 -0.46759993646961789 -0.47152999895804548 0 -0.50000000000000133 -0.43227795473008679 0 -0.46759993646961789 -0.47152999895804548 0 -0.44668676524374362 -0.46176115096833431 0 -0.4352366895542642 -0.47550587658816268 0 -0.46759993646961789 -0.47152999895804548 0 -0.43364758716418977 -0.5 0 -0.4352366895542642 -0.47550587658816268 0 -0.44509729571464618 -0.441811164170405 0 -0.44668676524374362 -0.46176115096833431 0 -0.4251134825296915 -0.45978081978711749 0 -0.46759993646961789 -0.47152999895804548 0 -0.44668676524374362 -0.46176115096833431 0 -0.46992141005066013 -0.44404567392529931 0 -0.44509729571464618 -0.441811164170405 0 -0.44668676524374362 -0.46176115096833431 0 -0.46992141005066013 -0.44404567392529931 0 -0.44668676524374362 -0.46176115096833431 0 -0.46992141005066013 -0.44404567392529931 0 -0.46759993646961789 -0.47152999895804548 0 -0.46992141005066013 -0.44404567392529931 0 -0.50000000000000133 -0.43227795473008679 0 -0.46992141005066013 -0.44404567392529931 0 -0.50000000000000133 -0.43227795473008679 0 -0.49315605485757602 -0.42633019688226392 0 -0.50000000000000133 -0.43227795473008679 0 -0.49315605485757602 -0.42633019688226392 0 -0.49999999999999939 -0.42111196548419799 0 -0.50000000000000133 -0.43227795473008679 0 -0.49315605485757602 -0.42633019688226392 0 -0.49315605485757602 -0.42633019688226392 0 -0.49999999999999939 -0.42111196548419799 0 -0.49315605485757602 -0.42633019688226392 0 -0.49999999999999939 -0.42111196548419799 0 -0.48995175350861181 -0.41104390771552612 0 -0.49315605485757602 -0.42633019688226392 0 -0.47720741595474581 -0.41246996857498708 0 -0.49999999999999939 -0.42111196548419799 0 -0.48995175350861181 -0.41104390771552612 0 -0.5 -0.39572610351371229 0 -0.49315605485757602 -0.42633019688226392 0 -0.48995175350861181 -0.41104390771552612 0 -0.47720741595474581 -0.41246996857498708 0 -0.49315605485757602 -0.42633019688226392 0 -0.47720741595474581 -0.41246996857498708 0 -0.4763414974406458 -0.42667183698406091 0 -0.47720741595474581 -0.41246996857498708 0 -0.4763414974406458 -0.42667183698406091 0 -0.46508110889960091 -0.42384150855369263 0 -0.46992141005066013 -0.44404567392529931 0 -0.49315605485757602 -0.42633019688226392 0 -0.4763414974406458 -0.42667183698406091 0 -0.46992141005066013 -0.44404567392529931 0 -0.4763414974406458 -0.42667183698406091 0 -0.46508110889960091 -0.42384150855369263 0 -0.46992141005066013 -0.44404567392529931 0 -0.49315605485757602 -0.42633019688226392 0 -0.5 -0.39572610351371229 0 -0.48192140025881341 -0.39315001022299118 0 -0.5 -0.37034024154322642 0 -0.48192140025881341 -0.39315001022299118 0 -0.5 -0.37034024154322642 0 -0.47242492329905139 -0.37272342279306081 0 -0.48995175350861181 -0.41104390771552612 0 -0.5 -0.39572610351371229 0 -0.48192140025881341 -0.39315001022299118 0 -0.48995175350861181 -0.41104390771552612 0 -0.47720741595474581 -0.41246996857498708 0 -0.48192140025881341 -0.39315001022299118 0 -0.47720741595474581 -0.41246996857498708 0 -0.48192140025881341 -0.39315001022299118 0 -0.46125877705191332 -0.39860974026771312 0 -0.47720741595474581 -0.41246996857498708 0 -0.46125877705191332 -0.39860974026771312 0 -0.48192140025881341 -0.39315001022299118 0 -0.46125877705191332 -0.39860974026771312 0 -0.47242492329905139 -0.37272342279306081 0 -0.46125877705191332 -0.39860974026771312 0 -0.47242492329905139 -0.37272342279306081 0 -0.45532712530709141 -0.37261441733734468 0 -0.46125877705191332 -0.39860974026771312 0 -0.44531013814908071 -0.38474951196043911 0 -0.45532712530709141 -0.37261441733734468 0 -0.46125877705191332 -0.39860974026771312 0 -0.44531013814908071 -0.38474951196043911 0 -0.46125877705191332 -0.39860974026771312 0 -0.45423126706639688 -0.41390763113656132 0 -0.43432072618408502 -0.40031500636128131 0 -0.46125877705191332 -0.39860974026771312 0 -0.44531013814908071 -0.38474951196043911 0 -0.43432072618408502 -0.40031500636128131 0 -0.44509729571464618 -0.441811164170405 0 -0.46508110889960091 -0.42384150855369263 0 -0.44509729571464618 -0.441811164170405 0 -0.46508110889960091 -0.42384150855369263 0 -0.45026669392453111 -0.42537249392915638 0 -0.44509729571464618 -0.441811164170405 0 -0.46992141005066013 -0.44404567392529931 0 -0.46508110889960091 -0.42384150855369263 0 -0.47720741595474581 -0.41246996857498708 0 -0.46125877705191332 -0.39860974026771312 0 -0.45423126706639688 -0.41390763113656132 0 -0.47720741595474581 -0.41246996857498708 0 -0.46508110889960091 -0.42384150855369263 0 -0.45423126706639688 -0.41390763113656132 0 -0.46508110889960091 -0.42384150855369263 0 -0.45423126706639688 -0.41390763113656132 0 -0.45026669392453111 -0.42537249392915638 0 -0.45423126706639688 -0.41390763113656132 0 -0.45026669392453111 -0.42537249392915638 0 -0.43665710401748048 -0.42192967185596703 0 -0.45423126706639688 -0.41390763113656132 0 -0.43665710401748048 -0.42192967185596703 0 -0.43432072618408502 -0.40031500636128131 0 -0.44509729571464618 -0.441811164170405 0 -0.45026669392453111 -0.42537249392915638 0 -0.43665710401748048 -0.42192967185596703 0 -0.43665710401748048 -0.42192967185596703 0 -0.41452216568777839 -0.41528800566261842 0 -0.42230446661952148 -0.43803153010994339 0 -0.44509729571464618 -0.441811164170405 0 -0.43665710401748048 -0.42192967185596703 0 -0.42230446661952148 -0.43803153010994339 0 -0.43665710401748048 -0.42192967185596703 0 -0.41452216568777839 -0.41528800566261842 0 -0.43432072618408502 -0.40031500636128131 0 -0.41452216568777839 -0.41528800566261842 0 -0.40633665253164258 -0.43064653492326338 0 -0.42230446661952148 -0.43803153010994339 0 -0.42515071049241732 -0.37746334622276662 0 -0.43432072618408502 -0.40031500636128131 0 -0.40233836940040951 -0.39170267320408042 0 -0.41452216568777839 -0.41528800566261842 0 -0.43432072618408502 -0.40031500636128131 0 -0.40233836940040951 -0.39170267320408042 0 -0.44531013814908071 -0.38474951196043911 0 -0.42515071049241732 -0.37746334622276662 0 -0.43432072618408502 -0.40031500636128131 0 -0.44531013814908071 -0.38474951196043911 0 -0.42515071049241732 -0.37746334622276662 0 -0.44020875978186452 -0.3652632867931116 0 -0.41452216568777839 -0.41528800566261842 0 -0.40233836940040951 -0.39170267320408042 0 -0.42515071049241732 -0.37746334622276662 0 -0.40233836940040951 -0.39170267320408042 0 -0.40835188423754548 -0.36539913024142928 0 -0.40233836940040951 -0.39170267320408042 0 -0.38483526193024092 -0.38838364170517781 0 -0.39015457311304069 -0.36811734074554248 0 -0.40233836940040951 -0.39170267320408042 0 -0.40835188423754548 -0.36539913024142928 0 -0.39015457311304069 -0.36811734074554248 0 -0.40233836940040951 -0.39170267320408042 0 -0.39015457311304069 -0.36811734074554248 0 -0.40233836940040951 -0.39170267320408042 0 -0.38483526193024092 -0.38838364170517781 0 -0.38891343017814328 -0.41530018214575681 0 -0.38483526193024092 -0.38838364170517781 0 -0.38891343017814328 -0.41530018214575681 0 -0.36918969903118409 -0.39635467219133802 0 -0.38483526193024092 -0.38838364170517781 0 -0.37358023792842682 -0.37044334023917141 0 -0.36918969903118409 -0.39635467219133802 0 -0.38483526193024092 -0.38838364170517781 0 -0.39015457311304069 -0.36811734074554248 0 -0.37358023792842682 -0.37044334023917141 0 -0.40633665253164258 -0.43064653492326338 0 -0.38891343017814328 -0.41530018214575681 0 -0.39357366694042678 -0.44302263014151849 0 -0.41452216568777839 -0.41528800566261842 0 -0.40233836940040951 -0.39170267320408042 0 -0.38891343017814328 -0.41530018214575681 0 -0.41452216568777839 -0.41528800566261842 0 -0.40633665253164258 -0.43064653492326338 0 -0.38891343017814328 -0.41530018214575681 0 -0.38891343017814328 -0.41530018214575681 0 -0.37639534302634242 -0.43755855917123959 0 -0.36479916013394148 -0.42226600414350463 0 -0.38891343017814328 -0.41530018214575681 0 -0.37639534302634242 -0.43755855917123959 0 -0.39357366694042678 -0.44302263014151849 0 -0.37639534302634242 -0.43755855917123959 0 -0.39357366694042678 -0.44302263014151849 0 -0.38154298175095291 -0.46611371724090611 0 -0.40633665253164258 -0.43064653492326338 0 -0.39357366694042678 -0.44302263014151849 0 -0.40594219862252928 -0.45648248632812488 0 -0.40594219862252928 -0.45648248632812488 0 -0.38154298175095291 -0.46611371724090611 0 -0.40512966934473671 -0.47775047540382998 0 -0.39357366694042678 -0.44302263014151849 0 -0.40594219862252928 -0.45648248632812488 0 -0.38154298175095291 -0.46611371724090611 0 -0.38154298175095291 -0.46611371724090611 0 -0.38593640010864327 -0.5 0 -0.40512966934473671 -0.47775047540382998 0 -0.38154298175095291 -0.46611371724090611 0 -0.38593640010864327 -0.5 0 -0.36878125191031641 -0.48505059632218589 0 -0.40512966934473671 -0.47775047540382998 0 -0.4251134825296915 -0.45978081978711749 0 -0.40512966934473671 -0.47775047540382998 0 -0.4352366895542642 -0.47550587658816268 0 -0.4251134825296915 -0.45978081978711749 0 -0.38593640010864327 -0.5 0 -0.40512966934473671 -0.47775047540382998 0 -0.43364758716418977 -0.5 0 -0.40512966934473671 -0.47775047540382998 0 -0.43364758716418977 -0.5 0 -0.4352366895542642 -0.47550587658816268 0 -0.44668676524374362 -0.46176115096833431 0 -0.4352366895542642 -0.47550587658816268 0 -0.4251134825296915 -0.45978081978711749 0 -0.44509729571464618 -0.441811164170405 0 -0.4251134825296915 -0.45978081978711749 0 -0.44509729571464618 -0.441811164170405 0 -0.4251134825296915 -0.45978081978711749 0 -0.42230446661952148 -0.43803153010994339 0 -0.40633665253164258 -0.43064653492326338 0 -0.40594219862252928 -0.45648248632812488 0 -0.42230446661952148 -0.43803153010994339 0 -0.40594219862252928 -0.45648248632812488 0 -0.4251134825296915 -0.45978081978711749 0 -0.42230446661952148 -0.43803153010994339 0 -0.40594219862252
[...]
<PointData Scalars="" Vectors="displacement," Tensors="">
<DataArray type="Float64" Name="displacement" NumberOfComponents="3" format="ascii">
-0.034996793113865061 -0.034998262806639313 0 -0.034329526128861219 -0.033601503791544689 0 -0.034997893884025133 -0.030358059204823575 0 -0.034996793113865061 -0.034998262806639313 0 -0.034329526128861219 -0.033601503791544689 0 -0.030268947231015544 -0.034996692039353829 0 -0.034329526128861219 -0.033601503791544689 0 -0.035053644662069838 -0.032063848515171328 0 -0.034995980089012217 -0.031073273509202231 0 -0.034329526128861219 -0.033601503791544689 0 -0.034997893884025133 -0.030358059204823575 0 -0.034995980089012217 -0.031073273509202231 0 -0.034757183850553243 -0.031910943649304739 0 -0.035053644662069838 -0.032063848515171328 0 -0.035465888210117112 -0.030849270818985634 0 -0.034329526128861219 -0.033601503791544689 0 -0.035053644662069838 -0.032063848515171328 0 -0.032775833194840148 -0.034186630810288589 0 -0.034757183850553243 -0.031910943649304739 0 -0.035053644662069838 -0.032063848515171328 0 -0.034710876639506984 -0.030403578389738076 0 -0.034790387299104296 -0.032141056390020781 0 -0.033746201443289249 -0.031823567964270078 0 -0.034329526128861219 -0.033601503791544689 0 -0.032775833194840148 -0.034186630810288589 0 -0.030268947231015544 -0.034996692039353829 0 -0.032775833194840148 -0.034186630810288589 0 -0.030268947231015544 -0.034996692039353829 0 -0.030560729171155755 -0.034900059830890479 0 -0.030259452813523581 -0.03499999646203527 0 -0.029846292511433264 -0.035471177949611091 0 -0.029477849903378702 -0.034999994535160478 0 -0.030259126890160498 -0.03499991130909344 0 -0.031064883701823698 -0.03343859900665954 0 -0.031064883701823698 -0.03343859900665954 0 -0.029479459886011399 -0.034998978567831858 0 -0.029450218654002464 -0.035202331062906496 0 -0.029475823646016273 -0.034999486696756871 0 -0.028495832787364631 -0.035201838596783962 0 -0.031064883701823698 -0.03343859900665954 0 -0.030420452492982381 -0.032171132156362477 0 -0.029475823646016273 -0.034999486696756871 0 -0.028495832787364631 -0.035201838596783962 0 -0.027700948042614856 -0.034999297119859225 0 -0.029450218654002464 -0.035202331062906496 0 -0.028495832787364631 -0.035201838596783962 0 -0.028230018254419346 -0.035356584205517648 0 -0.033340105412910361 -0.028475430799126837 0 -0.03226383413583938 -0.029619218999697883 0 -0.033379889048044668 -0.029771084944773027 0 -0.03226383413583938 -0.029619218999697883 0 -0.033379889048044668 -0.029771084944773027 0 -0.033189766186569498 -0.030565105334568795 0 -0.034710876639506984 -0.030403578389738076 0 -0.033340105412910361 -0.028475430799126837 0 -0.033379889048044668 -0.029771084944773027 0 -0.034710876639506984 -0.030403578389738076 0 -0.033379889048044668 -0.029771084944773027 0 -0.033189766186569498 -0.030565105334568795 0 -0.033746201443289249 -0.031823567964270078 0 -0.031064883701823698 -0.03343859900665954 0 -0.027700948042614856 -0.034999297119859225 0 -0.027451706569552974 -0.035123888999606223 0 -0.025923556271278635 -0.0349993250779084 0 -0.027451706569552974 -0.035123888999606223 0 -0.025923556271278635 -0.0349993250779084 0 -0.026816978768331275 -0.034714756601604418 0 -0.028495832787364631 -0.035201838596783962 0 -0.027700948042614856 -0.034999297119859225 0 -0.027451706569552974 -0.035123888999606223 0 -0.028495832787364631 -0.035201838596783962 0 -0.028230018254419346 -0.035356584205517648 0 -0.027451706569552974 -0.035123888999606223 0 -0.028230018254419346 -0.035356584205517648 0 -0.027451706569552974 -0.035123888999606223 0 -0.027519652190443025 -0.034770366933676494 0 -0.030420452492982381 -0.032171132156362477 0 -0.029177134553913357 -0.03279094962727773 0 -0.027451706569552974 -0.035123888999606223 0 -0.027519652190443025 -0.034770366933676494 0 -0.026816978768331275 -0.034714756601604418 0 -0.027519652190443025 -0.034770366933676494 0 -0.026816978768331275 -0.034714756601604418 0 -0.027382885715547235 -0.034079022363037836 0 -0.027519652190443025 -0.034770366933676494 0 -0.028324998371463874 -0.033170640280607282 0 -0.027382885715547235 -0.034079022363037836 0 -0.029177134553913357 -0.03279094962727773 0 -0.028459897638131441 -0.033146376772137928 0 -0.030860266782062936 -0.030674397384198807 0 -0.032428454579844813 -0.031179299536724041 0 -0.031071078692076051 -0.03301525537753066 0 -0.030860266782062936 -0.030674397384198807 0 -0.028324998371463874 -0.033170640280607282 0 -0.031071078692076051 -0.03301525537753066 0 -0.034368683893589276 -0.031604309530895873 0 -0.033265218988231378 -0.030638839284296209 0 -0.03402510377662727 -0.031524308268099044 0 -0.033189766186569498 -0.030565105334568795 0 -0.033277820761329666 -0.031344878735540302 0 -0.034757183850553243 -0.031910943649304739 0 -0.034710876639506984 -0.030403578389738076 0 -0.033189766186569498 -0.030565105334568795 0 -0.03226383413583938 -0.029619218999697883 0 -0.030860266782062936 -0.030674397384198807 0 -0.032428454579844813 -0.031179299536724041 0 -0.03226383413583938 -0.029619218999697883 0 -0.033189766186569498 -0.030565105334568795 0 -0.032428454579844813 -0.031179299536724041 0 -0.033189766186569498 -0.030565105334568795 0 -0.032428454579844813 -0.031179299536724041 0 -0.033277820761329666 -0.031344878735540302 0 -0.032428454579844813 -0.031179299536724041 0 -0.033277820761329666 -0.031344878735540302 0 -0.033297518182818002 -0.032054008989299519 0 -0.032428454579844813 -0.031179299536724041 0 -0.033297518182818002 -0.032054008989299519 0 -0.031071078692076051 -0.03301525537753066 0 -0.03402510377662727 -0.031524308268099044 0 -0.033277820761329666 -0.031344878735540302 0 -0.033297518182818002 -0.032054008989299519 0 -0.033297518182818002 -0.032054008989299519 0 -0.033498844308881837 -0.032944990970078754 0 -0.034065362442270646 -0.031569185776835838 0 -0.03402510377662727 -0.031524308268099044 0 -0.033297518182818002 -0.032054008989299519 0 -0.034065362442270646 -0.031569185776835838 0 -0.033297518182818002 -0.032054008989299519 0 -0.033498844308881837 -0.032944990970078754 0 -0.031071078692076051 -0.03301525537753066 0 -0.033498844308881837 -0.032944990970078754 0 -0.033972303822681411 -0.03143058755344854 0 -0.034065362442270646 -0.031569185776835838 0 -0.028229290135710648 -0.034741160370403382 0 -0.031071078692076051 -0.03301525537753066 0 -0.030073604590267637 -0.036354409565440116 0 -0.033498844308881837 -0.032944990970078754 0 -0.031071078692076051 -0.03301525537753066 0 -0.030073604590267637 -0.036354409565440116 0 -0.028324998371463874 -0.033170640280607282 0 -0.028229290135710648 -0.034741160370403382 0 -0.031071078692076051 -0.03301525537753066 0 -0.028324998371463874 -0.033170640280607282 0 -0.028229290135710648 -0.034741160370403382 0 -0.027093892943767205 -0.03433936361040802 0 -0.033332300716506121 -0.033128574028445941 0 -0.032558681529730508 -0.033700878536879871 0 -0.028229290135710648 -0.034741160370403382 0 -0.030073604590267637 -0.036354409565440116 0 -0.027329002398532923 -0.036412320827781598 0 -0.035054011593208159 -0.031285239121541498 0 -0.034931965873117948 -0.030777957093103589 0 -0.034638418516932529 -0.030691151349631421 0 -0.030073604590267637 -0.036354409565440116 0 -0.027329002398532923 -0.036412320827781598 0 -0.027673392046004816 -0.03804282953773417 0 -0.032558681529730508 -0.033700878536879871 0 -0.030861882762965163 -0.035024544765586217 0 -0.035054011593208159 -0.031285239121541498 0 -0.034931965873117948 -0.030777957093103589 0 -0.034321346468017794 -0.03058935683070085 0 -0.034931965873117948 -0.030777957093103589 0 -0.034321346468017794 -0.03058935683070085 0 -0.034828077302611969 -0.030393299636158874 0 -0.034931965873117948 -0.030777957093103589 0 -0.03472121503159787 -0.031042089776475389 0 -0.034828077302611969 -0.030393299636158874 0 -0.034931965873117948 -0.030777957093103589 0 -0.034638418516932529 -0.030691151349631421 0 -0.03472121503159787 -0.031042089776475389 0 -0.033972303822681411 -0.03143058755344854 0 -0.034321346468017794 -0.03058935683070085 0 -0.034332659940753497 -0.030135517440047683 0 -0.033498844308881837 -0.032944990970078754 0 -0.035054011593208159 -0.031285239121541498 0 -0.034321346468017794 -0.03058935683070085 0 -0.033498844308881837 -0.032944990970078754 0 -0.033972303822681411 -0.03143058755344854 0 -0.034321346468017794 -0.03058935683070085 0 -0.034321346468017794 -0.03058935683070085 0 -0.034487658267031991 -0.029614855421521102 0 -0.034443008485050525 -0.02982334744474191 0 -0.034321346468017794 -0.03058935683070085 0 -0.034487658267031991 -0.029614855421521102 0 -0.034332659940753497 -0.030135517440047683 0 -0.034487658267031991 -0.029614855421521102 0 -0.034332659940753497 -0.030135517440047683 0 -0.034912728446277991 -0.028553417523160131 0 -0.033972303822681411 -0.03143058755344854 0 -0.034332659940753497 -0.030135517440047683 0 -0.034481440421292871 -0.030130320746217947 0 -0.034481440421292871 -0.030130320746217947 0 -0.034912728446277991 -0.028553417523160131 0 -0.034998282931386224 -0.029172061933311132 0 -0.034332659940753497 -0.030135517440047683 0 -0.034481440421292871 -0.030130320746217947 0 -0.034912728446277991 -0.028553417523160131 0 -0.034912728446277991 -0.028553417523160131 0 -0.034998968404981338 -0.027017082357589033 0 -0.034998282931386224 -0.029172061933311132 0 -0.034912728446277991 -0.028553417523160131 0 -0.034998968404981338 -0.027017082357589033 0 -0.035111531327159419 -0.026894929898683521 0 -0.034915137439692968 -0.02942276020453299 0 -0.034875924849595494 -0.030843349405114479 0 -0.034998282931386224 -0.029172061933311132 0 -0.034995980089012217 -0.031073273509202231 0 -0.035465888210117112 -0.030849270818985634 0 -0.034998968404981338 -0.027017082357589033 0 -0.034998282931386224 -0.029172061933311132 0 -0.034997893884025133 -0.030358059204823575 0 -0.034998282931386224 -0.029172061933311132 0 -0.034997893884025133 -0.030358059204823575 0 -0.034995980089012217 -0.031073273509202231 0 -0.035053644662069838 -0.032063848515171328 0 -0.034995980089012217 -0.031073273509202231 0 -0.035465888210117112 -0.030849270818985634 0 -0.034368683893589276 -0.031604309530895873 0 -0.034875924849595494 -0.030843349405114479 0 -0.03402510377662727 -0.031524308268099044 0 -0.034233348959040538 -0.030935227356580559 0 -0.034065362442270646 -0.031569185776835838 0 -0.033972303822681411 -0.03143058755344854 0 -0.034481440421292871 -0.030130320746217947 0 -0.034065362442270646 -0.031569185776835838 0 -0.034481440421292871 -0.030130320746217947 0 -0.034233348959040538 -0.030935227356580559 0 -0.034065362442270646 -0.031569185776835838 0 -0.034481440421292871 -0.030130320746217947 0 -0.034998282931386224 -0.029172061933311132 0 -0.034233348959040538 -0.030935227356580559 0 -0.019931088548605265 -0.037097071411378829 0 -0.018524338198098206 -0.037021628837079226 0 -0.018021462679928379 -0.038291183631749964 0 -0.019856683589289378 -0.037169733824091174 0 -0.02070368240473652 -0.03716545222782603 0 -0.019931088548605265 -0.037097071411378829 0 -0.0198240176384205 -0.036005692481557015 0 -0.022776606651601413 -0.036028810216115835 0 -0.020180867386777868 -0.036531737856476489 0 -0.019931088548605265 -0.037097071411378829 0 -0.0198240176384205 -0.036005692481557015 0 -0.020180867386777868 -0.036531737856476489 0 -0.019931088548605265 -0.037097071411378829 0 -0.020276877257899426 -0.036565651551388946 0 -0.01922628268683195 -0.036452027777499396 0 -0.020246622245373436 -0.036063135573765684 0 -0.020276877257899426 -0.036565651551388946 0 -0.019931088548605265 -0.037097071411378829 0 -0.01922628268683195 -0.036452027777499396 0 -0.020276877257899426 -0.036565651551388946 0 -0.019931088548605265 -0.037097071411378829 0 -0.01922628268683195 -0.036452027777499396 0 -0.018524338198098206 -0.037021628837079226 0 -0.01922628268683195 -0.036452027777499396 0 -0.018524338198098206 -0.037021628837079226 0 -0.017824191083187339 -0.036354849603867229 0 -0.01922628268683195 -0.036452027777499396 0 -0.019018788232641137 -0.035746430457542964 0 -0.017824191083187339 -0.036354849603867229 0 -0.017793461247303338 -0.035597888956228486 0 -0.019018788232641137 -0.035746430457542964 0 -0.017824191083187339 -0.036354849603867229 0 -0.018565358618005953 -0.034999588467026423 0 -0.017793461247303338 -0.035597888956228486 0 -0.016704221538329497 -0.034999659683751613 0 -0.018565358618005953 -0.034999588467026423 0 -0.017793461247303338 -0.035597888956228486 0 -0.019018788232641137 -0.035746430457542964 0 -0.018565358618005953 -0.034999588467026423 0 -0.019018788232641137 -0.035746430457542964 0 -0.020425645590576635 -0.034999763755036245 0 -0.01922628268683195 -0.036452027777499396 0 -0.019018788232641137 -0.035746430457542964 0 -0.020246622245373436 -0.036063135573765684 0 -0.020246622245373436 -0.036063135573765684 0 -0.020425645590576635 -0.034999763755036245 0 -0.021454582817337111 -0.035978459248375685 0 -0.019018788232641137 -0.035746430457542964 0 -0.020246622245373436 -0.036063135573765684 0 -0.020425645590576635 -0.034999763755036245 0 -0.020425645590576635 -0.034999763755036245 0 -0.021454582817337111 -0.035978459248375685 0 -0.02228579745884016 -0.034999726529917105 0 -0.020246622245373436 -0.036063135573765684 0 -0.021454582817337111 -0.035978459248375685 0 -0.021072644884135731 -0.03637709309240128 0 -0.021454582817337111 -0.035978459248375685 0 -0.021072644884135731 -0.03637709309240128 0 -0.021681535783736994 -0.036560393145241503 0 -0.020246622245373436 -0.036063135573765684 0 -0.021072644884135731 -0.03637709309240128 0 -0.020276877257899426 -0.036565651551388946 0 -0.021072644884135731 -0.03637709309240128 0 -0.020276877257899426 -0.036565651551388946 0 -0.020785132503579367 -0.03641418080471337 0 -0.020180867386777868 -0.036531737856476489 0 -0.020276877257899426 -0.036565651551388946 0 -0.020785132503579367 -0.03641418080471337 0 -0.020180867386777868 -0.036531737856476489 0 -0.020785132503579367 -0.03641418080471337 0 -0.020623600963963772 -0.036375833528724699 0 -0.020785132503579367 -0.03641418080471337 0 -0.02140253577099328 -0.036333723727696221 0 -0.021182609338164689 -0.036285931559973963 0 -0.02140253577099328 -0.036333723727696221 0 -0.021681535783736994 -0.036560393145241503 0 -0.021926244300037499 -0.036092549869636843 0 -0.021072644884135731 -0.03637709309240128 0 -0.02140253577099328 -0.036333723727696221 0 -0.021681535783736994 -0.036560393145241503 0 -0.021072644884135731 -0.03637709309240128 0 -0.020785132503579367 -0.03641418080471337 0 -0.02140253577099328 -0.036333723727696221 0 -0.022970421360480071 -0.035445801370160415 0 -0.022017810899686158 -0.036132797604939947 0 -0.024293338551021244 -0.03419573621049217 0 -0.02387772363633631 -0.035471064502006572 0 -0.021926244300037499 -0.036092549869636843 0 -0.025028688160804943 -0.034857859703793272 0 -0.024293338551021244 -0.03419573621049217 0 -0.02387772363633631 -0.035471064502006572 0 -0.025028688160804943 -0.034857859703793272 0 -0.024293338551021244 -0.03419573621049217 0 -0.025931605878755364 -0.034279033184414151 0 -0.025028688160804943 -0.034857859703793272 0 -0.025931605878755364 -0.034279033184414151 0 -0.025920338545836138 -0.035028797609394813 0 -0.024293338551021244 -0.03419573621049217 0 -0.025292037388036329 -0.034279841314976904 0 -0.025931605878755364 -0.034279033184414151 0 -0.022970421360480071 -0.035445801370160415 0 -0.023988799707520513 -0.035108829623914178 0 -0.021454582817337111 -0.035978459248375685 0 -0.021681535783736994 -0.036560393145241503 0 -0.022774083848686542 -0.036081183093905241 0 -0.021454582817337111 -0.035978459248375685 0 -0.02228579745884016 -0.034999726529917105 0 -0.022774083848686542 -0.036081183093905241 0 -0.02228579745884016 -0.034999726529917105 0 -0.022774083848686542 -0.036081183093905241 0 -0.024146148298357473 -0.034999886935309685 0 -0.023988799707520513 -0.035108829623914178 0 -0.024146949630279694 -0.034999809581578951 0 -0.025292037388036329 -0.034279841314976904 0 -0.025450122459080921 -0.034676212013989405 0 -0.024151163751287359 -0.034998650782481718 0 -0.025292037388036329 -0.034279841314976904 0 -0.025450122459080921 -0.034676212013989405 0 -0.025931605878755364 -0.034279033184414151 0 -0.025450122459080921 -0.034676212013989405 0 -0.026816978768331275 -0.034714756601604418 0 -0.025931605878755364 -0.034279033184414151 0 -0.025450122459080921 -0.034676212013989405 0 -0.024151163751287359 -0.034998650782481718 0 -0.025923556271278635 -0.0349993250779084 0 -0.025450122459080921 -0.034676212013989405 0 -0.025923556271278635 -0.0349993250779084 0 -0.026816978768331275 -0.034714756601604418 0 -0.026816978768331275 -0.034714756601604418 0 -0.027382885715547235 -0.034079022363037836 0 -0.025931605878755364 -0.034279033184414151 0 -0.025931605878755364 -0.034279033184414151 0 -0.027093892943767205 -0.03433936361040802 0 -0.025920338545836138 -0.035028797609394813 0 -0.028324998371463874 -0.033170640280607282 0 -0.027382885715547235 -0.034079022363037836 0 -0.027093892943767205 -0.03433936361040802 0 -0.027382885715547235 -0.034079022363037836 0 -0.025931605878755364 -0.034279033184414151 0 -0.027093892943767205 -0.03433936361040802 0 -0.028229290135710648 -0.034741160370403382 0 -0.027093892943767205 -0.03433936361040802 0 -0.026865461916781106 -0.035362764452266736 0 -0.026865461916781106 -0.035362764452266736 0 -0.025920338545836138 -0.035028797609394813 0 -0.02567698891307427 -0.036420400856007534 0 -0.027093892943767205 -0.03433936361040802 0 -0.026865461916781106 -0.035362764452266736 0 -0.025920338545836138 -0.035028797609394813 0 -0.026865461916781106 -0.035362764452266736 0 -0.02567698891307427 -0.036420400856007534 0 -0.027329002398532923 -0.036412320827781598 0 -0.028229290135710648 -0.034741160370403382 0 -0.026865461916781106 -0.035362764452266736 0 -0.027329002398532923 -0.036412320827781598 0 -0.027329002398532923 -0.036412320827781598 0 -0.027673392046004816 -0.03804282953773417 0 -0.026128701125114506 -0.037737054189367354 0 -0.034638418516932529 -0.030691151349631421 0 -0.033431305948907496 -0.031133361546281071 0 -0.03472121503159787 -0.031042089776475389 0 -0.02575127313586411 -0.039008466920613008 0 -0.026128701125114506 -0.037737054189367354 0 -0.025324388725085956 -0.038298523416470068 0 -0.030037345268797536 -0.030746600356899929 0 -0.034760588577098107 -0.025867486642680314 0 -0.027673392046004816 -0.03804282953773417 0 -0.02575127313586411 -0.039008466920613008 0 -0.026128701125114506 -0.037737054189367354 0 -0.030861882762965163 -0.035024544765586217 0 -0.030037345268797536 -0.030746600356899929 0 -0.02567698891307427 -0.036420400856007534 0 -0.027329002398532923 -0.036412320827781598 0 -0.026128701125114506 -0.037737054189367354 0 -0.026128701125114506 -0.037737054189367354 0 -0.024785122845867338 -0.03765438522386684 0 -0.025324388725085956 -0.038298523416470068 0 -0.02567698891307427 -0.036420400856007534 0 -0.026128701125114506 -0.037737054189367354 0 -0.024785122845867338 -0.03765438522386684 0 -0.024785122845867338 -0.03765438522386684 0 -0.025324388725085956 -0.038298523416470068 0 -0.024739307532612314 -0.038795629868918102 0 -0.024526752911229834 -0.039471151932863463 0 -0.025093069012911841 -0.034380115437046319 0 -0.024785122845867338 -0.03765438522386684 0 -0.024502307272085886 -0.03925617492942117 0 -0.024347072668927782 -0.039232143996652098 0 -0.025093069012911841 -0.034380115437046319 0 -0.025410549764303517 -0.030882977470042448 0 -0.026444176124075645 -0.033436918692893121 0 -0.0247545795416966 -0.033152492356305789 0 -0.026166282910824339 -0.035101427410797852 0 -0.024408748515135387 -0.034068692750646404 0 -0.025410549764303517 -0.030882977470042448 0 -0.025093069012911841 -0.034380115437046319 0 -0.024408748515135387 -0.034068692750646404 0 -0.026575937967564908 -0.029895845493196821 0 -0.02651600683702322 -0.030255987974527599 0 -0.0273478780018197 -0.031389646706771357 0 -0.025410549764303517 -0.030882977470042448 0 -0.029258168297216034 -0.025268779261723179 0 -0.030037345268797536 -0.030746600356899929 0 -0