<?xml version="1.0"?>
<VTKFile type="UnstructuredGrid" version="0.1" byte_order="LittleEndian">
<UnstructuredGrid>
<Piece NumberOfPoints="30245" NumberOfCells="10573">
<Points>
<DataArray type="Float64" NumberOfComponents="3" format="ascii">
-0.5 -0.5 0 -0.46759993646961789 -0.47152999895804548 0 -0.43364758716418977 -0.5 0 -0.5 -0.5 0 -0.46759993646961789 -0.47152999895804548 0 -0.50000000000000133 -0.43227795473008679 0 -0.46759993646961789 -0.47152999895804548 0 -0.44668676524374362 -0.46176115096833431 0 -0.4352366895542642 -0.47550587658816268 0 -0.46759993646961789 -0.47152999895804548 0 -0.43364758716418977 -0.5 0 -0.4352366895542642 -0.47550587658816268 0 -0.44509729571464618 -0.441811164170405 0 -0.44668676524374362 -0.46176115096833431 0 -0.4251134825296915 -0.45978081978711749 0 -0.46759993646961789 -0.47152999895804548 0 -0.44668676524374362 -0.46176115096833431 0 -0.46992141005066013 -0.44404567392529931 0 -0.44509729571464618 -0.441811164170405 0 -0.44668676524374362 -0.46176115096833431 0 -0.46992141005066013 -0.44404567392529931 0 -0.44668676524374362 -0.46176115096833431 0 -0.46992141005066013 -0.44404567392529931 0 -0.46759993646961789 -0.47152999895804548 0 -0.46992141005066013 -0.44404567392529931 0 -0.50000000000000133 -0.43227795473008679 0 -0.46992141005066013 -0.44404567392529931 0 -0.50000000000000133 -0.43227795473008679 0 -0.49315605485757602 -0.42633019688226392 0 -0.50000000000000133 -0.43227795473008679 0 -0.49315605485757602 -0.42633019688226392 0 -0.49999999999999939 -0.42111196548419799 0 -0.50000000000000133 -0.43227795473008679 0 -0.49315605485757602 -0.42633019688226392 0 -0.49315605485757602 -0.42633019688226392 0 -0.49999999999999939 -0.42111196548419799 0 -0.49315605485757602 -0.42633019688226392 0 -0.49999999999999939 -0.42111196548419799 0 -0.48995175350861181 -0.41104390771552612 0 -0.49315605485757602 -0.42633019688226392 0 -0.47720741595474581 -0.41246996857498708 0 -0.49999999999999939 -0.42111196548419799 0 -0.48995175350861181 -0.41104390771552612 0 -0.5 -0.39572610351371229 0 -0.49315605485757602 -0.42633019688226392 0 -0.48995175350861181 -0.41104390771552612 0 -0.47720741595474581 -0.41246996857498708 0 -0.49315605485757602 -0.42633019688226392 0 -0.47720741595474581 -0.41246996857498708 0 -0.4763414974406458 -0.42667183698406091 0 -0.47720741595474581 -0.41246996857498708 0 -0.4763414974406458 -0.42667183698406091 0 -0.46508110889960091 -0.42384150855369263 0 -0.46992141005066013 -0.44404567392529931 0 -0.49315605485757602 -0.42633019688226392 0 -0.4763414974406458 -0.42667183698406091 0 -0.46992141005066013 -0.44404567392529931 0 -0.4763414974406458 -0.42667183698406091 0 -0.46508110889960091 -0.42384150855369263 0 -0.46992141005066013 -0.44404567392529931 0 -0.49315605485757602 -0.42633019688226392 0 -0.5 -0.39572610351371229 0 -0.48192140025881341 -0.39315001022299118 0 -0.5 -0.37034024154322642 0 -0.48192140025881341 -0.39315001022299118 0 -0.5 -0.37034024154322642 0 -0.47242492329905139 -0.37272342279306081 0 -0.48995175350861181 -0.41104390771552612 0 -0.5 -0.39572610351371229 0 -0.48192140025881341 -0.39315001022299118 0 -0.48995175350861181 -0.41104390771552612 0 -0.47720741595474581 -0.41246996857498708 0 -0.48192140025881341 -0.39315001022299118 0 -0.47720741595474581 -0.41246996857498708 0 -0.48192140025881341 -0.39315001022299118 0 -0.46125877705191332 -0.39860974026771312 0 -0.47720741595474581 -0.41246996857498708 0 -0.46125877705191332 -0.39860974026771312 0 -0.48192140025881341 -0.39315001022299118 0 -0.46125877705191332 -0.39860974026771312 0 -0.47242492329905139 -0.37272342279306081 0 -0.46125877705191332 -0.39860974026771312 0 -0.47242492329905139 -0.37272342279306081 0 -0.45532712530709141 -0.37261441733734468 0 -0.46125877705191332 -0.39860974026771312 0 -0.44531013814908071 -0.38474951196043911 0 -0.45532712530709141 -0.37261441733734468 0 -0.46125877705191332 -0.39860974026771312 0 -0.44531013814908071 -0.38474951196043911 0 -0.46125877705191332 -0.39860974026771312 0 -0.45423126706639688 -0.41390763113656132 0 -0.43432072618408502 -0.40031500636128131 0 -0.46125877705191332 -0.39860974026771312 0 -0.44531013814908071 -0.38474951196043911 0 -0.43432072618408502 -0.40031500636128131 0 -0.44509729571464618 -0.441811164170405 0 -0.46508110889960091 -0.42384150855369263 0 -0.44509729571464618 -0.441811164170405 0 -0.46508110889960091 -0.42384150855369263 0 -0.45026669392453111 -0.42537249392915638 0 -0.44509729571464618 -0.441811164170405 0 -0.46992141005066013 -0.44404567392529931 0 -0.46508110889960091 -0.42384150855369263 0 -0.47720741595474581 -0.41246996857498708 0 -0.46125877705191332 -0.39860974026771312 0 -0.45423126706639688 -0.41390763113656132 0 -0.47720741595474581 -0.41246996857498708 0 -0.46508110889960091 -0.42384150855369263 0 -0.45423126706639688 -0.41390763113656132 0 -0.46508110889960091 -0.42384150855369263 0 -0.45423126706639688 -0.41390763113656132 0 -0.45026669392453111 -0.42537249392915638 0 -0.45423126706639688 -0.41390763113656132 0 -0.45026669392453111 -0.42537249392915638 0 -0.43665710401748048 -0.42192967185596703 0 -0.45423126706639688 -0.41390763113656132 0 -0.43665710401748048 -0.42192967185596703 0 -0.43432072618408502 -0.40031500636128131 0 -0.44509729571464618 -0.441811164170405 0 -0.45026669392453111 -0.42537249392915638 0 -0.43665710401748048 -0.42192967185596703 0 -0.43665710401748048 -0.42192967185596703 0 -0.41452216568777839 -0.41528800566261842 0 -0.42230446661952148 -0.43803153010994339 0 -0.44509729571464618 -0.441811164170405 0 -0.43665710401748048 -0.42192967185596703 0 -0.42230446661952148 -0.43803153010994339 0 -0.43665710401748048 -0.42192967185596703 0 -0.41452216568777839 -0.41528800566261842 0 -0.43432072618408502 -0.40031500636128131 0 -0.41452216568777839 -0.41528800566261842 0 -0.40633665253164258 -0.43064653492326338 0 -0.42230446661952148 -0.43803153010994339 0 -0.42515071049241732 -0.37746334622276662 0 -0.43432072618408502 -0.40031500636128131 0 -0.40233836940040951 -0.39170267320408042 0 -0.41452216568777839 -0.41528800566261842 0 -0.43432072618408502 -0.40031500636128131 0 -0.40233836940040951 -0.39170267320408042 0 -0.44531013814908071 -0.38474951196043911 0 -0.42515071049241732 -0.37746334622276662 0 -0.43432072618408502 -0.40031500636128131 0 -0.44531013814908071 -0.38474951196043911 0 -0.42515071049241732 -0.37746334622276662 0 -0.44020875978186452 -0.3652632867931116 0 -0.41452216568777839 -0.41528800566261842 0 -0.40233836940040951 -0.39170267320408042 0 -0.42515071049241732 -0.37746334622276662 0 -0.40233836940040951 -0.39170267320408042 0 -0.40835188423754548 -0.36539913024142928 0 -0.40233836940040951 -0.39170267320408042 0 -0.38483526193024092 -0.38838364170517781 0 -0.39015457311304069 -0.36811734074554248 0 -0.40233836940040951 -0.39170267320408042 0 -0.40835188423754548 -0.36539913024142928 0 -0.39015457311304069 -0.36811734074554248 0 -0.40233836940040951 -0.39170267320408042 0 -0.39015457311304069 -0.36811734074554248 0 -0.40233836940040951 -0.39170267320408042 0 -0.38483526193024092 -0.38838364170517781 0 -0.38891343017814328 -0.41530018214575681 0 -0.38483526193024092 -0.38838364170517781 0 -0.38891343017814328 -0.41530018214575681 0 -0.36918969903118409 -0.39635467219133802 0 -0.38483526193024092 -0.38838364170517781 0 -0.37358023792842682 -0.37044334023917141 0 -0.36918969903118409 -0.39635467219133802 0 -0.38483526193024092 -0.38838364170517781 0 -0.39015457311304069 -0.36811734074554248 0 -0.37358023792842682 -0.37044334023917141 0 -0.40633665253164258 -0.43064653492326338 0 -0.38891343017814328 -0.41530018214575681 0 -0.39357366694042678 -0.44302263014151849 0 -0.41452216568777839 -0.41528800566261842 0 -0.40233836940040951 -0.39170267320408042 0 -0.38891343017814328 -0.41530018214575681 0 -0.41452216568777839 -0.41528800566261842 0 -0.40633665253164258 -0.43064653492326338 0 -0.38891343017814328 -0.41530018214575681 0 -0.38891343017814328 -0.41530018214575681 0 -0.37639534302634242 -0.43755855917123959 0 -0.36479916013394148 -0.42226600414350463 0 -0.38891343017814328 -0.41530018214575681 0 -0.37639534302634242 -0.43755855917123959 0 -0.39357366694042678 -0.44302263014151849 0 -0.37639534302634242 -0.43755855917123959 0 -0.39357366694042678 -0.44302263014151849 0 -0.38154298175095291 -0.46611371724090611 0 -0.40633665253164258 -0.43064653492326338 0 -0.39357366694042678 -0.44302263014151849 0 -0.40594219862252928 -0.45648248632812488 0 -0.40594219862252928 -0.45648248632812488 0 -0.38154298175095291 -0.46611371724090611 0 -0.40512966934473671 -0.47775047540382998 0 -0.39357366694042678 -0.44302263014151849 0 -0.40594219862252928 -0.45648248632812488 0 -0.38154298175095291 -0.46611371724090611 0 -0.38154298175095291 -0.46611371724090611 0 -0.38593640010864327 -0.5 0 -0.40512966934473671 -0.47775047540382998 0 -0.38154298175095291 -0.46611371724090611 0 -0.38593640010864327 -0.5 0 -0.36878125191031641 -0.48505059632218589 0 -0.40512966934473671 -0.47775047540382998 0 -0.4251134825296915 -0.45978081978711749 0 -0.40512966934473671 -0.47775047540382998 0 -0.4352366895542642 -0.47550587658816268 0 -0.4251134825296915 -0.45978081978711749 0 -0.38593640010864327 -0.5 0 -0.40512966934473671 -0.47775047540382998 0 -0.43364758716418977 -0.5 0 -0.40512966934473671 -0.47775047540382998 0 -0.43364758716418977 -0.5 0 -0.4352366895542642 -0.47550587658816268 0 -0.44668676524374362 -0.46176115096833431 0 -0.4352366895542642 -0.47550587658816268 0 -0.4251134825296915 -0.45978081978711749 0 -0.44509729571464618 -0.441811164170405 0 -0.4251134825296915 -0.45978081978711749 0 -0.44509729571464618 -0.441811164170405 0 -0.4251134825296915 -0.45978081978711749 0 -0.42230446661952148 -0.43803153010994339 0 -0.40633665253164258 -0.43064653492326338 0 -0.40594219862252928 -0.45648248632812488 0 -0.42230446661952148 -0.43803153010994339 0 -0.40594219862252928 -0.45648248632812488 0 -0.4251134825296915 -0.45978081978711749 0 -0.42230446661952148 -0.43803153010994339 0 -0.40594219862252
[...]
<PointData Scalars="" Vectors="displacement," Tensors="">
<DataArray type="Float64" Name="displacement" NumberOfComponents="3" format="ascii">
-1.2531287139910031e-06 -0.034996445991700646 0 -0.00025460583569188519 -0.034013781794496309 0 8.2042035093935883e-08 -0.034998858996987618 0 -1.2531287139910031e-06 -0.034996445991700646 0 -0.00025460583569188519 -0.034013781794496309 0 2.0439592216236365e-06 -0.030266712735451923 0 -0.00025460583569188519 -0.034013781794496309 0 -0.00019300040692839482 -0.033929091911855717 0 -0.00020814237999987526 -0.034462370152251329 0 -0.00025460583569188519 -0.034013781794496309 0 8.2042035093935883e-08 -0.034998858996987618 0 -0.00020814237999987526 -0.034462370152251329 0 0.00090309376644378658 -0.033506615074059082 0 -0.00019300040692839482 -0.033929091911855717 0 -0.00016310595533709505 -0.034471028822729947 0 -0.00025460583569188519 -0.034013781794496309 0 -0.00019300040692839482 -0.033929091911855717 0 0.00025579021852024025 -0.03313093591981002 0 0.00090309376644378658 -0.033506615074059082 0 -0.00019300040692839482 -0.033929091911855717 0 0.00068858367968419769 -0.031001621535333059 0 -0.00018731965737904337 -0.033715954706788433 0 0.00052384177226068003 -0.032207625735781321 0 -0.00025460583569188519 -0.034013781794496309 0 0.00025579021852024025 -0.03313093591981002 0 2.0439592216236365e-06 -0.030266712735451923 0 0.00025579021852024025 -0.03313093591981002 0 2.0439592216236365e-06 -0.030266712735451923 0 0.00063088531720397671 -0.030869825966975011 0 1.1614652267562542e-09 -0.030258025429089744 0 1.2806367358783186e-06 -0.029843602177073391 0 2.0259186660859348e-09 -0.029479269411320917 0 5.0834516979467246e-07 -0.030259166002328176 0 0.00059863702086161903 -0.029951847012717654 0 0.00059863702086161903 -0.029951847012717654 0 6.2659437159046961e-07 -0.029478158005411148 0 0.00054547757913758234 -0.028689257919987186 0 1.3510723445263966e-06 -0.029475253355132007 0 -9.7043555614734735e-05 -0.028187475952011622 0 0.00059863702086161903 -0.029951847012717654 0 0.00077177971356190357 -0.029085081555338382 0 1.3510723445263966e-06 -0.029475253355132007 0 -9.7043555614734735e-05 -0.028187475952011622 0 -7.3429630937839202e-07 -0.027701026369967793 0 0.00054547757913758234 -0.028689257919987186 0 -9.7043555614734735e-05 -0.028187475952011622 0 -5.2763685585694833e-05 -0.027569884562502801 0 0.0015476269742771755 -0.030120247891976985 0 0.0016171843196353711 -0.030745424598586663 0 0.0015224739361682613 -0.030659918669684674 0 0.0016171843196353711 -0.030745424598586663 0 0.0015224739361682613 -0.030659918669684674 0 0.001782793238140733 -0.030739771499275877 0 0.00068858367968419769 -0.031001621535333059 0 0.0015476269742771755 -0.030120247891976985 0 0.0015224739361682613 -0.030659918669684674 0 0.00068858367968419769 -0.031001621535333059 0 0.0015224739361682613 -0.030659918669684674 0 0.001782793238140733 -0.030739771499275877 0 0.00052384177226068003 -0.032207625735781321 0 0.00059863702086161903 -0.029951847012717654 0 -7.3429630937839202e-07 -0.027701026369967793 0 -0.00023260413343002446 -0.027328775198862509 0 -9.9933929507350513e-07 -0.025923329178271323 0 -0.00023260413343002446 -0.027328775198862509 0 -9.9933929507350513e-07 -0.025923329178271323 0 2.3173107302654656e-05 -0.026947066626809936 0 -9.7043555614734735e-05 -0.028187475952011622 0 -7.3429630937839202e-07 -0.027701026369967793 0 -0.00023260413343002446 -0.027328775198862509 0 -9.7043555614734735e-05 -0.028187475952011622 0 -5.2763685585694833e-05 -0.027569884562502801 0 -0.00023260413343002446 -0.027328775198862509 0 -5.2763685585694833e-05 -0.027569884562502801 0 -0.00023260413343002446 -0.027328775198862509 0 -0.00027867929787530487 -0.027465035402264332 0 0.00077177971356190357 -0.029085081555338382 0 0.00042074717813859352 -0.028783813479932134 0 -0.00023260413343002446 -0.027328775198862509 0 -0.00027867929787530487 -0.027465035402264332 0 2.3173107302654656e-05 -0.026947066626809936 0 -0.00027867929787530487 -0.027465035402264332 0 2.3173107302654656e-05 -0.026947066626809936 0 0.00026634899412687567 -0.027543132136605333 0 -0.00027867929787530487 -0.027465035402264332 0 0.00030747624694078943 -0.028485030178390346 0 0.00026634899412687567 -0.027543132136605333 0 0.00042074717813859352 -0.028783813479932134 0 0.00032006819944380789 -0.028554958971993619 0 0.0010254412038629799 -0.03006347617844194 0 0.0014928400404519242 -0.030077811623063857 0 0.0012241531473192288 -0.029075262887226474 0 0.0010254412038629799 -0.03006347617844194 0 0.00030747624694078943 -0.028485030178390346 0 0.0012241531473192288 -0.029075262887226474 0 0.0010773033696297098 -0.031701588587780147 0 0.0016944753286371064 -0.030890744767040661 0 0.0013764971164112818 -0.029865172179704018 0 0.001782793238140733 -0.030739771499275877 0 0.0016031806294306004 -0.030074303265483857 0 0.00090309376644378658 -0.033506615074059082 0 0.00068858367968419769 -0.031001621535333059 0 0.001782793238140733 -0.030739771499275877 0 0.0016171843196353711 -0.030745424598586663 0 0.0010254412038629799 -0.03006347617844194 0 0.0014928400404519242 -0.030077811623063857 0 0.0016171843196353711 -0.030745424598586663 0 0.001782793238140733 -0.030739771499275877 0 0.0014928400404519242 -0.030077811623063857 0 0.001782793238140733 -0.030739771499275877 0 0.0014928400404519242 -0.030077811623063857 0 0.0016031806294306004 -0.030074303265483857 0 0.0014928400404519242 -0.030077811623063857 0 0.0016031806294306004 -0.030074303265483857 0 0.0016843471240211632 -0.029841181186547244 0 0.0014928400404519242 -0.030077811623063857 0 0.0016843471240211632 -0.029841181186547244 0 0.0012241531473192288 -0.029075262887226474 0 0.0013764971164112818 -0.029865172179704018 0 0.0016031806294306004 -0.030074303265483857 0 0.0016843471240211632 -0.029841181186547244 0 0.0016843471240211632 -0.029841181186547244 0 0.0019519212457090335 -0.029994675896661428 0 0.0012758003524615256 -0.03078784455678266 0 0.0013764971164112818 -0.029865172179704018 0 0.0016843471240211632 -0.029841181186547244 0 0.0012758003524615256 -0.03078784455678266 0 0.0016843471240211632 -0.029841181186547244 0 0.0019519212457090335 -0.029994675896661428 0 0.0012241531473192288 -0.029075262887226474 0 0.0019519212457090335 -0.029994675896661428 0 0.0013678178043594158 -0.03148042751901025 0 0.0012758003524615256 -0.03078784455678266 0 0.00043469872396493777 -0.027891538852505237 0 0.0012241531473192288 -0.029075262887226474 0 0.001018534147143711 -0.027750354171363942 0 0.0019519212457090335 -0.029994675896661428 0 0.0012241531473192288 -0.029075262887226474 0 0.001018534147143711 -0.027750354171363942 0 0.00030747624694078943 -0.028485030178390346 0 0.00043469872396493777 -0.027891538852505237 0 0.0012241531473192288 -0.029075262887226474 0 0.00030747624694078943 -0.028485030178390346 0 0.00043469872396493777 -0.027891538852505237 0 0.00028674043076678716 -0.02753281591232952 0 0.0019532947752241439 -0.029864138560501439 0 0.0023236333811979411 -0.029640967447543215 0 0.00043469872396493777 -0.027891538852505237 0 0.001018534147143711 -0.027750354171363942 0 0.0002200300252429081 -0.027096919140243036 0 0.0039516475226250474 -0.031526300130330719 0 0.0040645899317921846 -0.032798353300054831 0 0.0051670696040325278 -0.032515684200430106 0 0.001018534147143711 -0.027750354171363942 0 0.0002200300252429081 -0.027096919140243036 0 0.00030470774985535292 -0.026587481069778825 0 0.0023236333811979411 -0.029640967447543215 0 0.0030613497432001283 -0.029432046548832923 0 0.0039516475226250474 -0.031526300130330719 0 0.0040645899317921846 -0.032798353300054831 0 0.002223968561665571 -0.032684737969791745 0 0.0040645899317921846 -0.032798353300054831 0 0.002223968561665571 -0.032684737969791745 0 0.0035173917919010932 -0.033866705675052254 0 0.0040645899317921846 -0.032798353300054831 0 0.0050402042282045607 -0.033369973923294403 0 0.0035173917919010932 -0.033866705675052254 0 0.0040645899317921846 -0.032798353300054831 0 0.0051670696040325278 -0.032515684200430106 0 0.0050402042282045607 -0.033369973923294403 0 0.0013678178043594158 -0.03148042751901025 0 0.002223968561665571 -0.032684737969791745 0 0.00079856265864602992 -0.032885251185191526 0 0.0019519212457090335 -0.029994675896661428 0 0.0039516475226250474 -0.031526300130330719 0 0.002223968561665571 -0.032684737969791745 0 0.0019519212457090335 -0.029994675896661428 0 0.0013678178043594158 -0.03148042751901025 0 0.002223968561665571 -0.032684737969791745 0 0.002223968561665571 -0.032684737969791745 0 0.0010478430640142159 -0.033757122291111608 0 0.0018260151820060711 -0.034280159054457068 0 0.002223968561665571 -0.032684737969791745 0 0.0010478430640142159 -0.033757122291111608 0 0.00079856265864602992 -0.032885251185191526 0 0.0010478430640142159 -0.033757122291111608 0 0.00079856265864602992 -0.032885251185191526 0 1.6406133340202369e-05 -0.034115847273607225 0 0.0013678178043594158 -0.03148042751901025 0 0.00079856265864602992 -0.032885251185191526 0 0.00036143903873294162 -0.032753313640841039 0 0.00036143903873294162 -0.032753313640841039 0 1.6406133340202369e-05 -0.034115847273607225 0 -0.00022065141631512838 -0.034074875731967207 0 0.00079856265864602992 -0.032885251185191526 0 0.00036143903873294162 -0.032753313640841039 0 1.6406133340202369e-05 -0.034115847273607225 0 1.6406133340202369e-05 -0.034115847273607225 0 -4.8703886241667287e-07 -0.034998294571979095 0 -0.00022065141631512838 -0.034074875731967207 0 1.6406133340202369e-05 -0.034115847273607225 0 -4.8703886241667287e-07 -0.034998294571979095 0 -4.6414718572817466e-05 -0.034744572076131103 0 -0.00021725217011408951 -0.033865344161164206 0 9.8630836207734996e-05 -0.032837047139501266 0 -0.00022065141631512838 -0.034074875731967207 0 -0.00020814237999987526 -0.034462370152251329 0 -0.00016310595533709505 -0.034471028822729947 0 -4.8703886241667287e-07 -0.034998294571979095 0 -0.00022065141631512838 -0.034074875731967207 0 8.2042035093935883e-08 -0.034998858996987618 0 -0.00022065141631512838 -0.034074875731967207 0 8.2042035093935883e-08 -0.034998858996987618 0 -0.00020814237999987526 -0.034462370152251329 0 -0.00019300040692839482 -0.033929091911855717 0 -0.00020814237999987526 -0.034462370152251329 0 -0.00016310595533709505 -0.034471028822729947 0 0.0010773033696297098 -0.031701588587780147 0 9.8630836207734996e-05 -0.032837047139501266 0 0.0013764971164112818 -0.029865172179704018 0 0.00015046482085433812 -0.031175897075031558 0 0.0012758003524615256 -0.03078784455678266 0 0.0013678178043594158 -0.03148042751901025 0 0.00036143903873294162 -0.032753313640841039 0 0.0012758003524615256 -0.03078784455678266 0 0.00036143903873294162 -0.032753313640841039 0 0.00015046482085433812 -0.031175897075031558 0 0.0012758003524615256 -0.03078784455678266 0 0.00036143903873294162 -0.032753313640841039 0 -0.00022065141631512838 -0.034074875731967207 0 0.00015046482085433812 -0.031175897075031558 0 0.00048314765683897737 -0.021288441513526362 0 0.00026220145499523744 -0.020308127588968813 0 0.00019504220590751793 -0.020184177372787621 0 0.00036086197529101892 -0.021193243535150355 0 -0.00017066976044137705 -0.02094311788819531 0 0.00048314765683897737 -0.021288441513526362 0 0.00084870804243286787 -0.021903747901528558 0 -0.00039130141574300544 -0.021620133720593935 0 0.00036462295758903925 -0.021795001689521264 0 0.00048314765683897737 -0.021288441513526362 0 0.00084870804243286787 -0.021903747901528558 0 0.00036462295758903925 -0.021795001689521264 0 0.00048314765683897737 -0.021288441513526362 0 0.00012092937474676153 -0.02110637237987369 0 0.00014645907258199192 -0.020199351482540203 0 -0.00012061389675624655 -0.020432771091112151 0 0.00012092937474676153 -0.02110637237987369 0 0.00048314765683897737 -0.021288441513526362 0 0.00014645907258199192 -0.020199351482540203 0 0.00012092937474676153 -0.02110637237987369 0 0.00048314765683897737 -0.021288441513526362 0 0.00014645907258199192 -0.020199351482540203 0 0.00026220145499523744 -0.020308127588968813 0 0.00014645907258199192 -0.020199351482540203 0 0.00026220145499523744 -0.020308127588968813 0 0.00010127842896568223 -0.0193487889943901 0 0.00014645907258199192 -0.020199351482540203 0 -6.9326034603727632e-05 -0.019424767996954844 0 0.00010127842896568223 -0.0193487889943901 0 -3.2825289498486027e-05 -0.018437230078348063 0 -6.9326034603727632e-05 -0.019424767996954844 0 0.00010127842896568223 -0.0193487889943901 0 2.3915788787253826e-07 -0.018565844676563515 0 -3.2825289498486027e-05 -0.018437230078348063 0 -1.4516204695393377e-06 -0.016704145985765379 0 2.3915788787253826e-07 -0.018565844676563515 0 -3.2825289498486027e-05 -0.018437230078348063 0 -6.9326034603727632e-05 -0.019424767996954844 0 2.3915788787253826e-07 -0.018565844676563515 0 -6.9326034603727632e-05 -0.019424767996954844 0 -5.4347210746031857e-07 -0.020425206662048601 0 0.00014645907258199192 -0.020199351482540203 0 -6.9326034603727632e-05 -0.019424767996954844 0 -0.00012061389675624655 -0.020432771091112151 0 -0.00012061389675624655 -0.020432771091112151 0 -5.4347210746031857e-07 -0.020425206662048601 0 -0.00039673575483822833 -0.021174688194913034 0 -6.9326034603727632e-05 -0.019424767996954844 0 -0.00012061389675624655 -0.020432771091112151 0 -5.4347210746031857e-07 -0.020425206662048601 0 -5.4347210746031857e-07 -0.020425206662048601 0 -0.00039673575483822833 -0.021174688194913034 0 -1.1461515849153458e-06 -0.022286415642349001 0 -0.00012061389675624655 -0.020432771091112151 0 -0.00039673575483822833 -0.021174688194913034 0 -0.0003322777842754076 -0.021261563130337349 0 -0.00039673575483822833 -0.021174688194913034 0 -0.0003322777842754076 -0.021261563130337349 0 -0.00094561417718012366 -0.02146428483116743 0 -0.00012061389675624655 -0.020432771091112151 0 -0.0003322777842754076 -0.021261563130337349 0 0.00012092937474676153 -0.02110637237987369 0 -0.0003322777842754076 -0.021261563130337349 0 0.00012092937474676153 -0.02110637237987369 0 -4.7151433551096397e-06 -0.022043090003742619 0 0.00036462295758903925 -0.021795001689521264 0 0.00012092937474676153 -0.02110637237987369 0 -4.7151433551096397e-06 -0.022043090003742619 0 0.00036462295758903925 -0.021795001689521264 0 -4.7151433551096397e-06 -0.022043090003742619 0 0.00014539805377512485 -0.022841829005772304 0 -4.7151433551096397e-06 -0.022043090003742619 0 -0.00035462335879741667 -0.02237861876702953 0 -0.0001728937339855523 -0.023155010701715408 0 -0.00035462335879741667 -0.02237861876702953 0 -0.00094561417718012366 -0.02146428483116743 0 -0.00068111965034254934 -0.024314734794578852 0 -0.0003322777842754076 -0.021261563130337349 0 -0.00035462335879741667 -0.02237861876702953 0 -0.00094561417718012366 -0.02146428483116743 0 -0.0003322777842754076 -0.021261563130337349 0 -4.7151433551096397e-06 -0.022043090003742619 0 -0.00035462335879741667 -0.02237861876702953 0 -0.00042616237201807932 -0.02410009294055554 0 -0.00060678676952305173 -0.024362476162085377 0 -3.9014031742094253e-05 -0.026649645980339587 0 -0.00018447494157185288 -0.02557600185477835 0 -0.00068111965034254934 -0.024314734794578852 0 0.00012323285723180841 -0.026408693014114946 0 -3.9014031742094253e-05 -0.026649645980339587 0 -0.00018447494157185288 -0.02557600185477835 0 0.00012323285723180841 -0.026408693014114946 0 -3.9014031742094253e-05 -0.026649645980339587 0 0.0003123926262841904 -0.026968768592190703 0 0.00012323285723180841 -0.026408693014114946 0 0.0003123926262841904 -0.026968768592190703 0 0.00014249142310456068 -0.026816812374016674 0 -3.9014031742094253e-05 -0.026649645980339587 0 0.00064495210810619811 -0.026454853674515319 0 0.0003123926262841904 -0.026968768592190703 0 -0.00042616237201807932 -0.02410009294055554 0 0.00016337548517092356 -0.024068867377629827 0 -0.00039673575483822833 -0.021174688194913034 0 -0.00094561417718012366 -0.02146428483116743 0 -8.7712364878171232e-05 -0.021748279531047545 0 -0.00039673575483822833 -0.021174688194913034 0 -1.1461515849153458e-06 -0.022286415642349001 0 -8.7712364878171232e-05 -0.021748279531047545 0 -1.1461515849153458e-06 -0.022286415642349001 0 -8.7712364878171232e-05 -0.021748279531047545 0 1.6267663156186859e-06 -0.024143578689748146 0 0.00016337548517092356 -0.024068867377629827 0 8.4930751215178541e-09 -0.024146518348445476 0 0.00064495210810619811 -0.026454853674515319 0 3.1775795925850496e-05 -0.026171120999444915 0 2.2454502320437613e-06 -0.024151247256112007 0 0.00064495210810619811 -0.026454853674515319 0 3.1775795925850496e-05 -0.026171120999444915 0 0.0003123926262841904 -0.026968768592190703 0 3.1775795925850496e-05 -0.026171120999444915 0 2.3173107302654656e-05 -0.026947066626809936 0 0.0003123926262841904 -0.026968768592190703 0 3.1775795925850496e-05 -0.026171120999444915 0 2.2454502320437613e-06 -0.024151247256112007 0 -9.9933929507350513e-07 -0.025923329178271323 0 3.1775795925850496e-05 -0.026171120999444915 0 -9.9933929507350513e-07 -0.025923329178271323 0 2.3173107302654656e-05 -0.026947066626809936 0 2.3173107302654656e-05 -0.026947066626809936 0 0.00026634899412687567 -0.027543132136605333 0 0.0003123926262841904 -0.026968768592190703 0 0.0003123926262841904 -0.026968768592190703 0 0.00028674043076678716 -0.02753281591232952 0 0.00014249142310456068 -0.026816812374016674 0 0.00030747624694078943 -0.028485030178390346 0 0.00026634899412687567 -0.027543132136605333 0 0.00028674043076678716 -0.02753281591232952 0 0.00026634899412687567 -0.027543132136605333 0 0.0003123926262841904 -0.026968768592190703 0 0.00028674043076678716 -0.02753281591232952 0 0.00043469872396493777 -0.027891538852505237 0 0.00028674043076678716 -0.02753281591232952 0 0.00019315512499174423 -0.027201584122970135 0 0.00019315512499174423 -0.027201584122970135 0 0.00014249142310456068 -0.026816812374016674 0 -8.3404161308348762e-05 -0.026512903061005368 0 0.00028674043076678716 -0.02753281591232952 0 0.00019315512499174423 -0.027201584122970135 0 0.00014249142310456068 -0.026816812374016674 0 0.00019315512499174423 -0.027201584122970135 0 -8.3404161308348762e-05 -0.026512903061005368 0 0.0002200300252429081 -0.027096919140243036 0 0.00043469872396493777 -0.027891538852505237 0 0.00019315512499174423 -0.027201584122970135 0 0.0002200300252429081 -0.027096919140243036 0 0.0002200300252429081 -0.027096919140243036 0 0.00030470774985535292 -0.026587481069778825 0 -7.1102647186166621e-05 -0.026497345551843632 0 0.0051670696040325278 -0.032515684200430106 0 0.006110897344663609 -0.033086226975079305 0 0.0050402042282045607 -0.033369973923294403 0 -0.00015743349727952901 -0.026240016283590812 0 -7.1102647186166621e-05 -0.026497345551843632 0 -0.00020734365736345127 -0.026318836235324366 0 0.00094496298075388125 -0.031108358733986111 0 0.002032177037863148 -0.034522479105515112 0 0.00030470774985535292 -0.026587481069778825 0 -0.00015743349727952901 -0.026240016283590812 0 -7.1102647186166621e-05 -0.026497345551843632 0 0.0030613497432001283 -0.029432046548832923 0 0.00094496298075388125 -0.031108358733986111 0 -8.3404161308348762e-05 -0.026512903061005368 0 0.0002200300252429081 -0.027096919140243036 0 -7.1102647186166621e-05 -0.026497345551843632 0 -7.1102647186166621e-05 -0.026497345551843632 0 -0.00026367295479004808 -0.026195487472897638 0 -0.00020734365736345127 -0.026318836235324366 0 -8.3404161308348762e-05 -0.026512903061005368 0 -7.1102647186166621e-05 -0.026497345551843632 0 -0.00026367295479004808 -0.026195487472897638 0 -0.00026367295479004808 -0.026195487472897638 0 -0.00020734365736345127 -0.026318836235324366 0 -0.00020031942080332084 -0.026326057047535555 0 -0.00023218732444037432 -0.025944859722511135 0 -0.0008518368599120241 -0.02708634330328288 0 -0.00026367295479004808 -0.026195487472897638 0 -0.0002581008053075093 -0.026250007239835546 0 -0.00025278374839848806 -0.02624874055146275 0 -0.0008518368599120241 -0.02708634330328288 0 -0.0011712789879747036 -0.02769163988574903 0 -0.0010971455395752379 -0.026885289435206221 0 -0.0012701788816708586 -0.026913943455829731 0 -0.001125809232048362 -0.02