<?xml version="1.0"?>
<VTKFile type="UnstructuredGrid" version="0.1" byte_order="LittleEndian">
<UnstructuredGrid>
<Piece NumberOfPoints="30245" NumberOfCells="10573">
<Points>
<DataArray type="Float64" NumberOfComponents="3" format="ascii">
-0.5 -0.5 0 -0.46759993646961789 -0.47152999895804548 0 -0.43364758716418977 -0.5 0 -0.5 -0.5 0 -0.46759993646961789 -0.47152999895804548 0 -0.50000000000000133 -0.43227795473008679 0 -0.46759993646961789 -0.47152999895804548 0 -0.44668676524374362 -0.46176115096833431 0 -0.4352366895542642 -0.47550587658816268 0 -0.46759993646961789 -0.47152999895804548 0 -0.43364758716418977 -0.5 0 -0.4352366895542642 -0.47550587658816268 0 -0.44509729571464618 -0.441811164170405 0 -0.44668676524374362 -0.46176115096833431 0 -0.4251134825296915 -0.45978081978711749 0 -0.46759993646961789 -0.47152999895804548 0 -0.44668676524374362 -0.46176115096833431 0 -0.46992141005066013 -0.44404567392529931 0 -0.44509729571464618 -0.441811164170405 0 -0.44668676524374362 -0.46176115096833431 0 -0.46992141005066013 -0.44404567392529931 0 -0.44668676524374362 -0.46176115096833431 0 -0.46992141005066013 -0.44404567392529931 0 -0.46759993646961789 -0.47152999895804548 0 -0.46992141005066013 -0.44404567392529931 0 -0.50000000000000133 -0.43227795473008679 0 -0.46992141005066013 -0.44404567392529931 0 -0.50000000000000133 -0.43227795473008679 0 -0.49315605485757602 -0.42633019688226392 0 -0.50000000000000133 -0.43227795473008679 0 -0.49315605485757602 -0.42633019688226392 0 -0.49999999999999939 -0.42111196548419799 0 -0.50000000000000133 -0.43227795473008679 0 -0.49315605485757602 -0.42633019688226392 0 -0.49315605485757602 -0.42633019688226392 0 -0.49999999999999939 -0.42111196548419799 0 -0.49315605485757602 -0.42633019688226392 0 -0.49999999999999939 -0.42111196548419799 0 -0.48995175350861181 -0.41104390771552612 0 -0.49315605485757602 -0.42633019688226392 0 -0.47720741595474581 -0.41246996857498708 0 -0.49999999999999939 -0.42111196548419799 0 -0.48995175350861181 -0.41104390771552612 0 -0.5 -0.39572610351371229 0 -0.49315605485757602 -0.42633019688226392 0 -0.48995175350861181 -0.41104390771552612 0 -0.47720741595474581 -0.41246996857498708 0 -0.49315605485757602 -0.42633019688226392 0 -0.47720741595474581 -0.41246996857498708 0 -0.4763414974406458 -0.42667183698406091 0 -0.47720741595474581 -0.41246996857498708 0 -0.4763414974406458 -0.42667183698406091 0 -0.46508110889960091 -0.42384150855369263 0 -0.46992141005066013 -0.44404567392529931 0 -0.49315605485757602 -0.42633019688226392 0 -0.4763414974406458 -0.42667183698406091 0 -0.46992141005066013 -0.44404567392529931 0 -0.4763414974406458 -0.42667183698406091 0 -0.46508110889960091 -0.42384150855369263 0 -0.46992141005066013 -0.44404567392529931 0 -0.49315605485757602 -0.42633019688226392 0 -0.5 -0.39572610351371229 0 -0.48192140025881341 -0.39315001022299118 0 -0.5 -0.37034024154322642 0 -0.48192140025881341 -0.39315001022299118 0 -0.5 -0.37034024154322642 0 -0.47242492329905139 -0.37272342279306081 0 -0.48995175350861181 -0.41104390771552612 0 -0.5 -0.39572610351371229 0 -0.48192140025881341 -0.39315001022299118 0 -0.48995175350861181 -0.41104390771552612 0 -0.47720741595474581 -0.41246996857498708 0 -0.48192140025881341 -0.39315001022299118 0 -0.47720741595474581 -0.41246996857498708 0 -0.48192140025881341 -0.39315001022299118 0 -0.46125877705191332 -0.39860974026771312 0 -0.47720741595474581 -0.41246996857498708 0 -0.46125877705191332 -0.39860974026771312 0 -0.48192140025881341 -0.39315001022299118 0 -0.46125877705191332 -0.39860974026771312 0 -0.47242492329905139 -0.37272342279306081 0 -0.46125877705191332 -0.39860974026771312 0 -0.47242492329905139 -0.37272342279306081 0 -0.45532712530709141 -0.37261441733734468 0 -0.46125877705191332 -0.39860974026771312 0 -0.44531013814908071 -0.38474951196043911 0 -0.45532712530709141 -0.37261441733734468 0 -0.46125877705191332 -0.39860974026771312 0 -0.44531013814908071 -0.38474951196043911 0 -0.46125877705191332 -0.39860974026771312 0 -0.45423126706639688 -0.41390763113656132 0 -0.43432072618408502 -0.40031500636128131 0 -0.46125877705191332 -0.39860974026771312 0 -0.44531013814908071 -0.38474951196043911 0 -0.43432072618408502 -0.40031500636128131 0 -0.44509729571464618 -0.441811164170405 0 -0.46508110889960091 -0.42384150855369263 0 -0.44509729571464618 -0.441811164170405 0 -0.46508110889960091 -0.42384150855369263 0 -0.45026669392453111 -0.42537249392915638 0 -0.44509729571464618 -0.441811164170405 0 -0.46992141005066013 -0.44404567392529931 0 -0.46508110889960091 -0.42384150855369263 0 -0.47720741595474581 -0.41246996857498708 0 -0.46125877705191332 -0.39860974026771312 0 -0.45423126706639688 -0.41390763113656132 0 -0.47720741595474581 -0.41246996857498708 0 -0.46508110889960091 -0.42384150855369263 0 -0.45423126706639688 -0.41390763113656132 0 -0.46508110889960091 -0.42384150855369263 0 -0.45423126706639688 -0.41390763113656132 0 -0.45026669392453111 -0.42537249392915638 0 -0.45423126706639688 -0.41390763113656132 0 -0.45026669392453111 -0.42537249392915638 0 -0.43665710401748048 -0.42192967185596703 0 -0.45423126706639688 -0.41390763113656132 0 -0.43665710401748048 -0.42192967185596703 0 -0.43432072618408502 -0.40031500636128131 0 -0.44509729571464618 -0.441811164170405 0 -0.45026669392453111 -0.42537249392915638 0 -0.43665710401748048 -0.42192967185596703 0 -0.43665710401748048 -0.42192967185596703 0 -0.41452216568777839 -0.41528800566261842 0 -0.42230446661952148 -0.43803153010994339 0 -0.44509729571464618 -0.441811164170405 0 -0.43665710401748048 -0.42192967185596703 0 -0.42230446661952148 -0.43803153010994339 0 -0.43665710401748048 -0.42192967185596703 0 -0.41452216568777839 -0.41528800566261842 0 -0.43432072618408502 -0.40031500636128131 0 -0.41452216568777839 -0.41528800566261842 0 -0.40633665253164258 -0.43064653492326338 0 -0.42230446661952148 -0.43803153010994339 0 -0.42515071049241732 -0.37746334622276662 0 -0.43432072618408502 -0.40031500636128131 0 -0.40233836940040951 -0.39170267320408042 0 -0.41452216568777839 -0.41528800566261842 0 -0.43432072618408502 -0.40031500636128131 0 -0.40233836940040951 -0.39170267320408042 0 -0.44531013814908071 -0.38474951196043911 0 -0.42515071049241732 -0.37746334622276662 0 -0.43432072618408502 -0.40031500636128131 0 -0.44531013814908071 -0.38474951196043911 0 -0.42515071049241732 -0.37746334622276662 0 -0.44020875978186452 -0.3652632867931116 0 -0.41452216568777839 -0.41528800566261842 0 -0.40233836940040951 -0.39170267320408042 0 -0.42515071049241732 -0.37746334622276662 0 -0.40233836940040951 -0.39170267320408042 0 -0.40835188423754548 -0.36539913024142928 0 -0.40233836940040951 -0.39170267320408042 0 -0.38483526193024092 -0.38838364170517781 0 -0.39015457311304069 -0.36811734074554248 0 -0.40233836940040951 -0.39170267320408042 0 -0.40835188423754548 -0.36539913024142928 0 -0.39015457311304069 -0.36811734074554248 0 -0.40233836940040951 -0.39170267320408042 0 -0.39015457311304069 -0.36811734074554248 0 -0.40233836940040951 -0.39170267320408042 0 -0.38483526193024092 -0.38838364170517781 0 -0.38891343017814328 -0.41530018214575681 0 -0.38483526193024092 -0.38838364170517781 0 -0.38891343017814328 -0.41530018214575681 0 -0.36918969903118409 -0.39635467219133802 0 -0.38483526193024092 -0.38838364170517781 0 -0.37358023792842682 -0.37044334023917141 0 -0.36918969903118409 -0.39635467219133802 0 -0.38483526193024092 -0.38838364170517781 0 -0.39015457311304069 -0.36811734074554248 0 -0.37358023792842682 -0.37044334023917141 0 -0.40633665253164258 -0.43064653492326338 0 -0.38891343017814328 -0.41530018214575681 0 -0.39357366694042678 -0.44302263014151849 0 -0.41452216568777839 -0.41528800566261842 0 -0.40233836940040951 -0.39170267320408042 0 -0.38891343017814328 -0.41530018214575681 0 -0.41452216568777839 -0.41528800566261842 0 -0.40633665253164258 -0.43064653492326338 0 -0.38891343017814328 -0.41530018214575681 0 -0.38891343017814328 -0.41530018214575681 0 -0.37639534302634242 -0.43755855917123959 0 -0.36479916013394148 -0.42226600414350463 0 -0.38891343017814328 -0.41530018214575681 0 -0.37639534302634242 -0.43755855917123959 0 -0.39357366694042678 -0.44302263014151849 0 -0.37639534302634242 -0.43755855917123959 0 -0.39357366694042678 -0.44302263014151849 0 -0.38154298175095291 -0.46611371724090611 0 -0.40633665253164258 -0.43064653492326338 0 -0.39357366694042678 -0.44302263014151849 0 -0.40594219862252928 -0.45648248632812488 0 -0.40594219862252928 -0.45648248632812488 0 -0.38154298175095291 -0.46611371724090611 0 -0.40512966934473671 -0.47775047540382998 0 -0.39357366694042678 -0.44302263014151849 0 -0.40594219862252928 -0.45648248632812488 0 -0.38154298175095291 -0.46611371724090611 0 -0.38154298175095291 -0.46611371724090611 0 -0.38593640010864327 -0.5 0 -0.40512966934473671 -0.47775047540382998 0 -0.38154298175095291 -0.46611371724090611 0 -0.38593640010864327 -0.5 0 -0.36878125191031641 -0.48505059632218589 0 -0.40512966934473671 -0.47775047540382998 0 -0.4251134825296915 -0.45978081978711749 0 -0.40512966934473671 -0.47775047540382998 0 -0.4352366895542642 -0.47550587658816268 0 -0.4251134825296915 -0.45978081978711749 0 -0.38593640010864327 -0.5 0 -0.40512966934473671 -0.47775047540382998 0 -0.43364758716418977 -0.5 0 -0.40512966934473671 -0.47775047540382998 0 -0.43364758716418977 -0.5 0 -0.4352366895542642 -0.47550587658816268 0 -0.44668676524374362 -0.46176115096833431 0 -0.4352366895542642 -0.47550587658816268 0 -0.4251134825296915 -0.45978081978711749 0 -0.44509729571464618 -0.441811164170405 0 -0.4251134825296915 -0.45978081978711749 0 -0.44509729571464618 -0.441811164170405 0 -0.4251134825296915 -0.45978081978711749 0 -0.42230446661952148 -0.43803153010994339 0 -0.40633665253164258 -0.43064653492326338 0 -0.40594219862252928 -0.45648248632812488 0 -0.42230446661952148 -0.43803153010994339 0 -0.40594219862252928 -0.45648248632812488 0 -0.4251134825296915 -0.45978081978711749 0 -0.42230446661952148 -0.43803153010994339 0 -0.40594219862252
[...]
<PointData Scalars="" Vectors="displacement," Tensors="">
<DataArray type="Float64" Name="displacement" NumberOfComponents="3" format="ascii">
-0.034997442940443761 -2.2787347520567781e-07 0 -0.033299350924666869 -0.00020284434195471458 0 -0.030357200878802323 -4.8237930490069622e-07 0 -0.034997442940443761 -2.2787347520567781e-07 0 -0.033299350924666869 -0.00020284434195471458 0 -0.034997533306468695 -5.508668165462669e-07 0 -0.033299350924666869 -0.00020284434195471458 0 -0.032219590990976266 -0.00030860703000661251 0 -0.031264949309619865 -0.00015860836405309905 0 -0.033299350924666869 -0.00020284434195471458 0 -0.030357200878802323 -4.8237930490069622e-07 0 -0.031264949309619865 -0.00015860836405309905 0 -0.032253095489037098 -0.0005258099821646129 0 -0.032219590990976266 -0.00030860703000661251 0 -0.03165062719014998 -3.1178142888795582e-05 0 -0.033299350924666869 -0.00020284434195471458 0 -0.032219590990976266 -0.00030860703000661251 0 -0.033972294126912723 -2.0812022153764209e-05 0 -0.032253095489037098 -0.0005258099821646129 0 -0.032219590990976266 -0.00030860703000661251 0 -0.032055544498360358 -0.0011931163400003284 0 -0.032379199669814389 -0.00035836866618002051 0 -0.032972633510704348 -0.00072852765646743529 0 -0.033299350924666869 -0.00020284434195471458 0 -0.033972294126912723 -2.0812022153764209e-05 0 -0.034997533306468695 -5.508668165462669e-07 0 -0.033972294126912723 -2.0812022153764209e-05 0 -0.034997533306468695 -5.508668165462669e-07 0 -0.034942226154553509 2.7046077845176707e-05 0 -0.03499999780183128 -2.6259020844669137e-10 0 -0.034997397477814919 -1.3355489378464438e-06 0 -0.034999995362957823 -1.1438018547198135e-09 0 -0.034999714790826933 2.845847617068025e-07 0 -0.034004798478230645 -0.00039731691994086311 0 -0.034004798478230645 -0.00039731691994086311 0 -0.034999295261766927 -5.6053703924064637e-07 0 -0.035045396403361871 -3.8318362456872202e-05 0 -0.035000208607616615 -4.7496303543107803e-08 0 -0.034984855948393553 -6.1345554103053198e-05 0 -0.034004798478230645 -0.00039731691994086311 0 -0.033588456211506641 -0.00094509793832302897 0 -0.035000208607616615 -4.7496303543107803e-08 0 -0.034984855948393553 -6.1345554103053198e-05 0 -0.034999739491262054 -6.9207813750965888e-08 0 -0.035045396403361871 -3.8318362456872202e-05 0 -0.034984855948393553 -6.1345554103053198e-05 0 -0.034982456117301663 -0.00018222966999028486 0 -0.032155356280412779 -0.0016094484313986452 0 -0.032327937955505169 -0.0015328930311993931 0 -0.032150633451231557 -0.0014132243652435843 0 -0.032327937955505169 -0.0015328930311993931 0 -0.032150633451231557 -0.0014132243652435843 0 -0.032130052764462673 -0.0013391729974765044 0 -0.032055544498360358 -0.0011931163400003284 0 -0.032155356280412779 -0.0016094484313986452 0 -0.032150633451231557 -0.0014132243652435843 0 -0.032055544498360358 -0.0011931163400003284 0 -0.032150633451231557 -0.0014132243652435843 0 -0.032130052764462673 -0.0013391729974765044 0 -0.032972633510704348 -0.00072852765646743529 0 -0.034004798478230645 -0.00039731691994086311 0 -0.034999739491262054 -6.9207813750965888e-08 0 -0.034832577606219911 -0.00014836910749552938 0 -0.034999784674108268 -1.0817656564200846e-07 0 -0.034832577606219911 -0.00014836910749552938 0 -0.034999784674108268 -1.0817656564200846e-07 0 -0.034592631211018562 -0.00029388745863455026 0 -0.034984855948393553 -6.1345554103053198e-05 0 -0.034999739491262054 -6.9207813750965888e-08 0 -0.034832577606219911 -0.00014836910749552938 0 -0.034984855948393553 -6.1345554103053198e-05 0 -0.034982456117301663 -0.00018222966999028486 0 -0.034832577606219911 -0.00014836910749552938 0 -0.034982456117301663 -0.00018222966999028486 0 -0.034832577606219911 -0.00014836910749552938 0 -0.034670587075062556 -0.00041747780819454219 0 -0.033588456211506641 -0.00094509793832302897 0 -0.033788466422852971 -0.0008660973352455399 0 -0.034832577606219911 -0.00014836910749552938 0 -0.034670587075062556 -0.00041747780819454219 0 -0.034592631211018562 -0.00029388745863455026 0 -0.034670587075062556 -0.00041747780819454219 0 -0.034592631211018562 -0.00029388745863455026 0 -0.034299138747570936 -0.00050343540894783468 0 -0.034670587075062556 -0.00041747780819454219 0 -0.033948335325430665 -0.0006955508334404052 0 -0.034299138747570936 -0.00050343540894783468 0 -0.033788466422852971 -0.0008660973352455399 0 -0.033954111305200728 -0.00069539552326526165 0 -0.03283006783071496 -0.0014551979077486663 0 -0.032229461913284303 -0.0012322887636620821 0 -0.032836709172921141 -0.00048061171761526472 0 -0.03283006783071496 -0.0014551979077486663 0 -0.033948335325430665 -0.0006955508334404052 0 -0.032836709172921141 -0.00048061171761526472 0 -0.03155511137968324 -0.00077837873938522777 0 -0.032049906228214235 -0.0012598012040280187 0 -0.030915075819871563 -0.001077243058692975 0 -0.032130052764462673 -0.0013391729974765044 0 -0.031753289988880919 -0.0011125876051847243 0 -0.032253095489037098 -0.0005258099821646129 0 -0.032055544498360358 -0.0011931163400003284 0 -0.032130052764462673 -0.0013391729974765044 0 -0.032327937955505169 -0.0015328930311993931 0 -0.03283006783071496 -0.0014551979077486663 0 -0.032229461913284303 -0.0012322887636620821 0 -0.032327937955505169 -0.0015328930311993931 0 -0.032130052764462673 -0.0013391729974765044 0 -0.032229461913284303 -0.0012322887636620821 0 -0.032130052764462673 -0.0013391729974765044 0 -0.032229461913284303 -0.0012322887636620821 0 -0.031753289988880919 -0.0011125876051847243 0 -0.032229461913284303 -0.0012322887636620821 0 -0.031753289988880919 -0.0011125876051847243 0 -0.031714291001252851 -0.00068277160248770023 0 -0.032229461913284303 -0.0012322887636620821 0 -0.031714291001252851 -0.00068277160248770023 0 -0.032836709172921141 -0.00048061171761526472 0 -0.030915075819871563 -0.001077243058692975 0 -0.031753289988880919 -0.0011125876051847243 0 -0.031714291001252851 -0.00068277160248770023 0 -0.031714291001252851 -0.00068277160248770023 0 -0.031716488918542791 0.00013169450411806095 0 -0.030820894051347879 -0.00032583296220889315 0 -0.030915075819871563 -0.001077243058692975 0 -0.031714291001252851 -0.00068277160248770023 0 -0.030820894051347879 -0.00032583296220889315 0 -0.031714291001252851 -0.00068277160248770023 0 -0.031716488918542791 0.00013169450411806095 0 -0.032836709172921141 -0.00048061171761526472 0 -0.031716488918542791 0.00013169450411806095 0 -0.030971214562467184 0.00012830377425737853 0 -0.030820894051347879 -0.00032583296220889315 0 -0.033893826498050027 -0.00010918459091670508 0 -0.032836709172921141 -0.00048061171761526472 0 -0.033252148320631524 0.00065554573007977561 0 -0.031716488918542791 0.00013169450411806095 0 -0.032836709172921141 -0.00048061171761526472 0 -0.033252148320631524 0.00065554573007977561 0 -0.033948335325430665 -0.0006955508334404052 0 -0.033893826498050027 -0.00010918459091670508 0 -0.032836709172921141 -0.00048061171761526472 0 -0.033948335325430665 -0.0006955508334404052 0 -0.033893826498050027 -0.00010918459091670508 0 -0.034279254909793506 -0.00038213098561920854 0 -0.031809661833841311 0.00017714529030509583 0 -0.032262866767498392 0.00044035025183440662 0 -0.033893826498050027 -0.00010918459091670508 0 -0.033252148320631524 0.00065554573007977561 0 -0.034105725503091197 0.00028600199995704076 0 -0.031681426810947405 0.00040035105607188451 0 -0.031671614245640273 0.00062562147569127102 0 -0.031767075538673174 0.00062514092240407645 0 -0.033252148320631524 0.00065554573007977561 0 -0.034105725503091197 0.00028600199995704076 0 -0.034000227187758567 0.00068186303084486703 0 -0.032262866767498392 0.00044035025183440662 0 -0.033627283801583689 0.00081745678111819426 0 -0.031681426810947405 0.00040035105607188451 0 -0.031671614245640273 0.00062562147569127102 0 -0.031343063868737198 0.00051851616204206413 0 -0.031671614245640273 0.00062562147569127102 0 -0.031343063868737198 0.00051851616204206413 0 -0.031573930585372438 0.00086311569812568152 0 -0.031671614245640273 0.00062562147569127102 0 -0.031740719493736705 0.00067478322092435095 0 -0.031573930585372438 0.00086311569812568152 0 -0.031671614245640273 0.00062562147569127102 0 -0.031767075538673174 0.00062514092240407645 0 -0.031740719493736705 0.00067478322092435095 0 -0.030971214562467184 0.00012830377425737853 0 -0.031343063868737198 0.00051851616204206413 0 -0.030320230877183336 0.00027442517317638086 0 -0.031716488918542791 0.00013169450411806095 0 -0.031681426810947405 0.00040035105607188451 0 -0.031343063868737198 0.00051851616204206413 0 -0.031716488918542791 0.00013169450411806095 0 -0.030971214562467184 0.00012830377425737853 0 -0.031343063868737198 0.00051851616204206413 0 -0.031343063868737198 0.00051851616204206413 0 -0.030452093453263225 0.00078012388202558156 0 -0.031019381270501151 0.0011532461630424091 0 -0.031343063868737198 0.00051851616204206413 0 -0.030452093453263225 0.00078012388202558156 0 -0.030320230877183336 0.00027442517317638086 0 -0.030452093453263225 0.00078012388202558156 0 -0.030320230877183336 0.00027442517317638086 0 -0.028969650661534986 0.00026343912041514099 0 -0.030971214562467184 0.00012830377425737853 0 -0.030320230877183336 0.00027442517317638086 0 -0.029855335464745655 -4.7457099835354308e-05 0 -0.029855335464745655 -4.7457099835354308e-05 0 -0.028969650661534986 0.00026343912041514099 0 -0.029308498121848155 -4.182926198627526e-05 0 -0.030320230877183336 0.00027442517317638086 0 -0.029855335464745655 -4.7457099835354308e-05 0 -0.028969650661534986 0.00026343912041514099 0 -0.028969650661534986 0.00026343912041514099 0 -0.027015921279611884 -6.9231252596976901e-07 0 -0.029308498121848155 -4.182926198627526e-05 0 -0.028969650661534986 0.00026343912041514099 0 -0.027015921279611884 -6.9231252596976901e-07 0 -0.027132343217200584 0.00029906209554872632 0 -0.02954931279961984 -3.7555538909104362e-05 0 -0.030729390653748405 -0.00033374543303885237 0 -0.029308498121848155 -4.182926198627526e-05 0 -0.031264949309619865 -0.00015860836405309905 0 -0.03165062719014998 -3.1178142888795582e-05 0 -0.027015921279611884 -6.9231252596976901e-07 0 -0.029308498121848155 -4.182926198627526e-05 0 -0.030357200878802323 -4.8237930490069622e-07 0 -0.029308498121848155 -4.182926198627526e-05 0 -0.030357200878802323 -4.8237930490069622e-07 0 -0.031264949309619865 -0.00015860836405309905 0 -0.032219590990976266 -0.00030860703000661251 0 -0.031264949309619865 -0.00015860836405309905 0 -0.03165062719014998 -3.1178142888795582e-05 0 -0.03155511137968324 -0.00077837873938522777 0 -0.030729390653748405 -0.00033374543303885237 0 -0.030915075819871563 -0.001077243058692975 0 -0.029910873709327872 -0.00050637164457611637 0 -0.030820894051347879 -0.00032583296220889315 0 -0.030971214562467184 0.00012830377425737853 0 -0.029855335464745655 -4.7457099835354308e-05 0 -0.030820894051347879 -0.00032583296220889315 0 -0.029855335464745655 -4.7457099835354308e-05 0 -0.029910873709327872 -0.00050637164457611637 0 -0.030820894051347879 -0.00032583296220889315 0 -0.029855335464745655 -4.7457099835354308e-05 0 -0.029308498121848155 -4.182926198627526e-05 0 -0.029910873709327872 -0.00050637164457611637 0 -0.034724717823069413 3.2281819908987273e-05 0 -0.034876606072663768 -2.2932442872643662e-05 0 -0.034915765428447675 -4.2612558624849657e-05 0 -0.034597235608546356 1.4193500943517143e-05 0 -0.033894627705339214 -0.0002373942168085839 0 -0.034724717823069413 3.2281819908987273e-05 0 -0.03486165887795787 -0.00053522964040317929 0 -0.032755918325213157 -0.00039662361147592212 0 -0.03489904539391063 -0.00018881864313730987 0 -0.034724717823069413 3.2281819908987273e-05 0 -0.03486165887795787 -0.00053522964040317929 0 -0.03489904539391063 -0.00018881864313730987 0 -0.034724717823069413 3.2281819908987273e-05 0 -0.034874084439294323 -4.9900043254177699e-05 0 -0.034872304008754414 -3.1321723160673346e-05 0 -0.034932422200943634 -2.4854361492631913e-05 0 -0.034874084439294323 -4.9900043254177699e-05 0 -0.034724717823069413 3.2281819908987273e-05 0 -0.034872304008754414 -3.1321723160673346e-05 0 -0.034874084439294323 -4.9900043254177699e-05 0 -0.034724717823069413 3.2281819908987273e-05 0 -0.034872304008754414 -3.1321723160673346e-05 0 -0.034876606072663768 -2.2932442872643662e-05 0 -0.034872304008754414 -3.1321723160673346e-05 0 -0.034876606072663768 -2.2932442872643662e-05 0 -0.034914222849459095 -2.0438403486165865e-05 0 -0.034872304008754414 -3.1321723160673346e-05 0 -0.034942312030466806 -1.393593769681856e-05 0 -0.034914222849459095 -2.0438403486165865e-05 0 -0.034960083080135845 -9.5987836025141023e-06 0 -0.034942312030466806 -1.393593769681856e-05 0 -0.034914222849459095 -2.0438403486165865e-05 0 -0.034999900926164618 -1.5272865928782165e-08 0 -0.034960083080135845 -9.5987836025141023e-06 0 -0.034999955762940245 -1.0681395123191641e-08 0 -0.034999900926164618 -1.5272865928782165e-08 0 -0.034960083080135845 -9.5987836025141023e-06 0 -0.034942312030466806 -1.393593769681856e-05 0 -0.034999900926164618 -1.5272865928782165e-08 0 -0.034942312030466806 -1.393593769681856e-05 0 -0.034999942718525565 5.055506191168361e-09 0 -0.034872304008754414 -3.1321723160673346e-05 0 -0.034942312030466806 -1.393593769681856e-05 0 -0.034932422200943634 -2.4854361492631913e-05 0 -0.034932422200943634 -2.4854361492631913e-05 0 -0.034999942718525565 5.055506191168361e-09 0 -0.034979161705455217 -2.2959540650026228e-05 0 -0.034942312030466806 -1.393593769681856e-05 0 -0.034932422200943634 -2.4854361492631913e-05 0 -0.034999942718525565 5.055506191168361e-09 0 -0.034999942718525565 5.055506191168361e-09 0 -0.034979161705455217 -2.2959540650026228e-05 0 -0.034999996947714732 -5.4888213941570283e-09 0 -0.034932422200943634 -2.4854361492631913e-05 0 -0.034979161705455217 -2.2959540650026228e-05 0 -0.034941902310100297 -7.3081760954520072e-05 0 -0.034979161705455217 -2.2959540650026228e-05 0 -0.034941902310100297 -7.3081760954520072e-05 0 -0.035005413110055512 -0.00010515168489584784 0 -0.034932422200943634 -2.4854361492631913e-05 0 -0.034941902310100297 -7.3081760954520072e-05 0 -0.034874084439294323 -4.9900043254177699e-05 0 -0.034941902310100297 -7.3081760954520072e-05 0 -0.034874084439294323 -4.9900043254177699e-05 0 -0.03491476808989015 -0.00016684729271104838 0 -0.03489904539391063 -0.00018881864313730987 0 -0.034874084439294323 -4.9900043254177699e-05 0 -0.03491476808989015 -0.00016684729271104838 0 -0.03489904539391063 -0.00018881864313730987 0 -0.03491476808989015 -0.00016684729271104838 0 -0.034886840796068942 -0.00030074518948019656 0 -0.03491476808989015 -0.00016684729271104838 0 -0.034929407998896801 -0.00016602616118927718 0 -0.03490653959318895 -0.00023123252575156091 0 -0.034929407998896801 -0.00016602616118927718 0 -0.035005413110055512 -0.00010515168489584784 0 -0.034880289167355284 -0.00021449916772288776 0 -0.034941902310100297 -7.3081760954520072e-05 0 -0.034929407998896801 -0.00016602616118927718 0 -0.035005413110055512 -0.00010515168489584784 0 -0.034941902310100297 -7.3081760954520072e-05 0 -0.03491476808989015 -0.00016684729271104838 0 -0.034929407998896801 -0.00016602616118927718 0 -0.034841557985080249 -0.000222170468145488 0 -0.034879733531673195 -0.00020766440840105417 0 -0.034675835211019308 -0.00035858259482800324 0 -0.034716119227139512 -0.0002312975410477372 0 -0.034880289167355284 -0.00021449916772288776 0 -0.034603753766284606 -0.00029116924496374669 0 -0.034675835211019308 -0.00035858259482800324 0 -0.034716119227139512 -0.0002312975410477372 0 -0.034603753766284606 -0.00029116924496374669 0 -0.034675835211019308 -0.00035858259482800324 0 -0.03453867168794255 -0.00040378669423865409 0 -0.034603753766284606 -0.00029116924496374669 0 -0.03453867168794255 -0.00040378669423865409 0 -0.034467399787352686 -0.00023384246998532312 0 -0.034675835211019308 -0.00035858259482800324 0 -0.034604660695285859 -0.00030688512864929441 0 -0.03453867168794255 -0.00040378669423865409 0 -0.034841557985080249 -0.000222170468145488 0 -0.03482117627958127 -0.00017477372998941695 0 -0.034979161705455217 -2.2959540650026228e-05 0 -0.035005413110055512 -0.00010515168489584784 0 -0.035017311447605164 -2.5480706488244534e-05 0 -0.034979161705455217 -2.2959540650026228e-05 0 -0.034999996947714732 -5.4888213941570283e-09 0 -0.035017311447605164 -2.5480706488244534e-05 0 -0.034999996947714732 -5.4888213941570283e-09 0 -0.035017311447605164 -2.5480706488244534e-05 0 -0.035000035004375686 -9.4101262174788343e-09 0 -0.03482117627958127 -0.00017477372998941695 0 -0.034999918194069758 -6.7076014133961989e-08 0 -0.034604660695285859 -0.00030688512864929441 0 -0.034755802495624676 -0.00022642911706388666 0 -0.03499914099771969 -2.0773615858035396e-07 0 -0.034604660695285859 -0.00030688512864929441 0 -0.034755802495624676 -0.00022642911706388666 0 -0.03453867168794255 -0.00040378669423865409 0 -0.034755802495624676 -0.00022642911706388666 0 -0.034592631211018562 -0.00029388745863455026 0 -0.03453867168794255 -0.00040378669423865409 0 -0.034755802495624676 -0.00022642911706388666 0 -0.03499914099771969 -2.0773615858035396e-07 0 -0.034999784674108268 -1.0817656564200846e-07 0 -0.034755802495624676 -0.00022642911706388666 0 -0.034999784674108268 -1.0817656564200846e-07 0 -0.034592631211018562 -0.00029388745863455026 0 -0.034592631211018562 -0.00029388745863455026 0 -0.034299138747570936 -0.00050343540894783468 0 -0.03453867168794255 -0.00040378669423865409 0 -0.03453867168794255 -0.00040378669423865409 0 -0.034279254909793506 -0.00038213098561920854 0 -0.034467399787352686 -0.00023384246998532312 0 -0.033948335325430665 -0.0006955508334404052 0 -0.034299138747570936 -0.00050343540894783468 0 -0.034279254909793506 -0.00038213098561920854 0 -0.034299138747570936 -0.00050343540894783468 0 -0.03453867168794255 -0.00040378669423865409 0 -0.034279254909793506 -0.00038213098561920854 0 -0.033893826498050027 -0.00010918459091670508 0 -0.034279254909793506 -0.00038213098561920854 0 -0.034255696435463723 -6.6766952778455528e-05 0 -0.034255696435463723 -6.6766952778455528e-05 0 -0.034467399787352686 -0.00023384246998532312 0 -0.03445686978195122 9.4923955380912307e-05 0 -0.034279254909793506 -0.00038213098561920854 0 -0.034255696435463723 -6.6766952778455528e-05 0 -0.034467399787352686 -0.00023384246998532312 0 -0.034255696435463723 -6.6766952778455528e-05 0 -0.03445686978195122 9.4923955380912307e-05 0 -0.034105725503091197 0.00028600199995704076 0 -0.033893826498050027 -0.00010918459091670508 0 -0.034255696435463723 -6.6766952778455528e-05 0 -0.034105725503091197 0.00028600199995704076 0 -0.034105725503091197 0.00028600199995704076 0 -0.034000227187758567 0.00068186303084486703 0 -0.034323019571836713 0.00047941748864954378 0 -0.031767075538673174 0.00062514092240407645 0 -0.031696995362541273 0.00064367701880727632 0 -0.031740719493736705 0.00067478322092435095 0 -0.034381118057409323 0.00074864308039037687 0 -0.034323019571836713 0.00047941748864954378 0 -0.034474157499883119 0.00056108215899136019 0 -0.029266968359622544 0.00062859511427749222 0 -0.025908240765817332 0.00037580980603308111 0 -0.034000227187758567 0.00068186303084486703 0 -0.034381118057409323 0.00074864308039037687 0 -0.034323019571836713 0.00047941748864954378 0 -0.033627283801583689 0.00081745678111819426 0 -0.029266968359622544 0.00062859511427749222 0 -0.03445686978195122 9.4923955380912307e-05 0 -0.034105725503091197 0.00028600199995704076 0 -0.034323019571836713 0.00047941748864954378 0 -0.034323019571836713 0.00047941748864954378 0 -0.034590573618637876 0.00029844684467871029 0 -0.034474157499883119 0.00056108215899136019 0 -0.03445686978195122 9.4923955380912307e-05 0 -0.034323019571836713 0.00047941748864954378 0 -0.034590573618637876 0.00029844684467871029 0 -0.034590573618637876 0.00029844684467871029 0 -0.034474157499883119 0.00056108215899136019 0 -0.034635402831298262 0.00071329772618902395 0 -0.034956898479855079 0.00069755634741627121 0 -0.031119760491472265 4.1582962881660461e-05 0 -0.034590573618637876 0.00029844684467871029 0 -0.034601892011334616 0.00052879566253793194 0 -0.034625484144905