<?xml version="1.0"?>
<VTKFile type="UnstructuredGrid" version="0.1" byte_order="LittleEndian">
<UnstructuredGrid>
<Piece NumberOfPoints="31276" NumberOfCells="10929">
<Points>
<DataArray type="Float64" NumberOfComponents="3" format="ascii">
-0.5 -0.5 0 -0.46923843965502993 -0.47425283389558609 0 -0.43682302177596799 -0.50000000000000022 0 -0.5 -0.5 0 -0.46923843965502993 -0.47425283389558609 0 -0.5 -0.46257642347735162 0 -0.46923843965502993 -0.47425283389558609 0 -0.43935653915708822 -0.47402027420018289 0 -0.43682302177596799 -0.50000000000000022 0 -0.46923843965502993 -0.47425283389558609 0 -0.43935653915708822 -0.47402027420018289 0 -0.45571557809183277 -0.45863326473851501 0 -0.45571557809183277 -0.45863326473851501 0 -0.45717673497480088 -0.4400850653914547 0 -0.43576510246219918 -0.45529637433737807 0 -0.45717673497480088 -0.4400850653914547 0 -0.43576510246219918 -0.45529637433737807 0 -0.45717673497480088 -0.4400850653914547 0 -0.43576510246219918 -0.45529637433737807 0 -0.43220274427772282 -0.43822953761653488 0 -0.43935653915708822 -0.47402027420018289 0 -0.45571557809183277 -0.45863326473851501 0 -0.43576510246219918 -0.45529637433737807 0 -0.46923843965502993 -0.47425283389558609 0 -0.45571557809183277 -0.45863326473851501 0 -0.47973031991980669 -0.44915648125863911 0 -0.45571557809183277 -0.45863326473851501 0 -0.45717673497480088 -0.4400850653914547 0 -0.47973031991980669 -0.44915648125863911 0 -0.45717673497480088 -0.4400850653914547 0 -0.47973031991980669 -0.44915648125863911 0 -0.47858836748740269 -0.42487375644553133 0 -0.47973031991980669 -0.44915648125863911 0 -0.5 -0.46257642347735162 0 -0.50000000000000333 -0.40966244749960651 0 -0.46923843965502993 -0.47425283389558609 0 -0.47973031991980669 -0.44915648125863911 0 -0.5 -0.46257642347735162 0 -0.47973031991980669 -0.44915648125863911 0 -0.50000000000000333 -0.40966244749960651 0 -0.47858836748740269 -0.42487375644553133 0 -0.50000000000000333 -0.40966244749960651 0 -0.47858836748740269 -0.42487375644553133 0 -0.50000000000000333 -0.40966244749960651 0 -0.47858836748740269 -0.42487375644553133 0 -0.47678800273139982 -0.4050100869172904 0 -0.47858836748740269 -0.42487375644553133 0 -0.47678800273139982 -0.4050100869172904 0 -0.45958029956000718 -0.418468782386959 0 -0.49023557346368879 -0.39028020158908988 0 -0.49999999999999772 -0.39110536279539732 0 -0.5 -0.36647695644839973 0 -0.50000000000000333 -0.40966244749960651 0 -0.49649642642249142 -0.40194663853446028 0 -0.47678800273139982 -0.4050100869172904 0 -0.49023557346368879 -0.39028020158908988 0 -0.49649642642249142 -0.40194663853446028 0 -0.47678800273139982 -0.4050100869172904 0 -0.50000000000000333 -0.40966244749960651 0 -0.49999999999999772 -0.39110536279539732 0 -0.49649642642249142 -0.40194663853446028 0 -0.49023557346368879 -0.39028020158908988 0 -0.49999999999999772 -0.39110536279539732 0 -0.49023557346368879 -0.39028020158908988 0 -0.49999999999999772 -0.39110536279539732 0 -0.49649642642249142 -0.40194663853446028 0 -0.49023557346368879 -0.39028020158908988 0 -0.49649642642249142 -0.40194663853446028 0 -0.49023557346368879 -0.39028020158908988 0 -0.47678800273139982 -0.4050100869172904 0 -0.46157147162619838 -0.38785788781961472 0 -0.49023557346368879 -0.39028020158908988 0 -0.46157147162619838 -0.38785788781961472 0 -0.49023557346368879 -0.39028020158908988 0 -0.46157147162619838 -0.38785788781961472 0 -0.47746603303382162 -0.36648551431137971 0 -0.49023557346368879 -0.39028020158908988 0 -0.47746603303382162 -0.36648551431137971 0 -0.46157147162619838 -0.38785788781961472 0 -0.47746603303382162 -0.36648551431137971 0 -0.46389872468676258 -0.37208028234858231 0 -0.47678800273139982 -0.4050100869172904 0 -0.46157147162619838 -0.38785788781961472 0 -0.4468951695169443 -0.40157663195815851 0 -0.46157147162619838 -0.38785788781961472 0 -0.4468951695169443 -0.40157663195815851 0 -0.43290736978870797 -0.38543557405013978 0 -0.46157147162619838 -0.38785788781961472 0 -0.43290736978870797 -0.38543557405013978 0 -0.46157147162619838 -0.38785788781961472 0 -0.43290736978870797 -0.38543557405013978 0 -0.46389872468676258 -0.37208028234858231 0 -0.45717673497480088 -0.4400850653914547 0 -0.47858836748740269 -0.42487375644553133 0 -0.45958029956000718 -0.418468782386959 0 -0.45717673497480088 -0.4400850653914547 0 -0.47858836748740269 -0.42487375644553133 0 -0.47678800273139982 -0.4050100869172904 0 -0.4468951695169443 -0.40157663195815851 0 -0.45958029956000718 -0.418468782386959 0 -0.4468951695169443 -0.40157663195815851 0 -0.43845322308948842 -0.42079837122236019 0 -0.42815873913274261 -0.40867043191173108 0 -0.4468951695169443 -0.40157663195815851 0 -0.45958029956000718 -0.418468782386959 0 -0.43845322308948842 -0.42079837122236019 0 -0.45717673497480088 -0.4400850653914547 0 -0.45958029956000718 -0.418468782386959 0 -0.43845322308948842 -0.42079837122236019 0 -0.45717673497480088 -0.4400850653914547 0 -0.43845322308948842 -0.42079837122236019 0 -0.43220274427772282 -0.43822953761653488 0 -0.43845322308948842 -0.42079837122236019 0 -0.41027287653904099 -0.42915817562833569 0 -0.43220274427772282 -0.43822953761653488 0 -0.43845322308948842 -0.42079837122236019 0 -0.42815873913274261 -0.40867043191173108 0 -0.41027287653904099 -0.42915817562833569 0 -0.41027287653904099 -0.42915817562833569 0 -0.41568579642774889 -0.40026933933609382 0 -0.41027287653904099 -0.42915817562833569 0 -0.41568579642774889 -0.40026933933609382 0 -0.39890337244936153 -0.41143880489529572 0 -0.42815873913274261 -0.40867043191173108 0 -0.41027287653904099 -0.42915817562833569 0 -0.41568579642774889 -0.40026933933609382 0 -0.43290736978870797 -0.38543557405013978 0 -0.42318566361039311 -0.38461402300793168 0 -0.43126905445349678 -0.37234441644099969 0 -0.42318566361039311 -0.38461402300793168 0 -0.43126905445349678 -0.37234441644099969 0 -0.42109871631645679 -0.37138050304385167 0 -0.43290736978870797 -0.38543557405013978 0 -0.42948663009049037 -0.39154964141370752 0 -0.43290736978870797 -0.38543557405013978 0 -0.42318566361039311 -0.38461402300793168 0 -0.43290736978870797 -0.38543557405013978 0 -0.42318566361039311 -0.38461402300793168 0 -0.42948663009049037 -0.39154964141370752 0 -0.4468951695169443 -0.40157663195815851 0 -0.43290736978870797 -0.38543557405013978 0 -0.42948663009049037 -0.39154964141370752 0 -0.4468951695169443 -0.40157663195815851 0 -0.42815873913274261 -0.40867043191173108 0 -0.42948663009049037 -0.39154964141370752 0 -0.42815873913274261 -0.40867043191173108 0 -0.42948663009049037 -0.39154964141370752 0 -0.41568579642774889 -0.40026933933609382 0 -0.42318566361039311 -0.38461402300793168 0 -0.42948663009049037 -0.39154964141370752 0 -0.41568579642774889 -0.40026933933609382 0 -0.41568579642774889 -0.40026933933609382 0 -0.40565570684054059 -0.38199308209152538 0 -0.42109871631645679 -0.37138050304385167 0 -0.41568579642774889 -0.40026933933609382 0 -0.42109871631645679 -0.37138050304385167 0 -0.42318566361039311 -0.38461402300793168 0 -0.41568579642774889 -0.40026933933609382 0 -0.42109871631645679 -0.37138050304385167 0 -0.40565570684054059 -0.38199308209152538 0 -0.38546681847730169 -0.39416962699579478 0 -0.39329765606401179 -0.36591906924242928 0 -0.41568579642774889 -0.40026933933609382 0 -0.40565570684054059 -0.38199308209152538 0 -0.38546681847730169 -0.39416962699579478 0 -0.41568579642774889 -0.40026933933609382 0 -0.38546681847730169 -0.39416962699579478 0 -0.39890337244936153 -0.41143880489529572 0 -0.38546681847730169 -0.39416962699579478 0 -0.39329765606401179 -0.36591906924242928 0 -0.37178503006078351 -0.36529734894278382 0 -0.41027287653904099 -0.42915817562833569 0 -0.38418799835335438 -0.42215807762095819 0 -0.38554242520648091 -0.43819238400717231 0 -0.41027287653904099 -0.42915817562833569 0 -0.39890337244936153 -0.41143880489529572 0 -0.38418799835335438 -0.42215807762095819 0 -0.38546681847730169 -0.39416962699579478 0 -0.39890337244936153 -0.41143880489529572 0 -0.38418799835335438 -0.42215807762095819 0 -0.38546681847730169 -0.39416962699579478 0 -0.38418799835335438 -0.42215807762095819 0 -0.36857509023582058 -0.4147292750795083 0 -0.38418799835335438 -0.42215807762095819 0 -0.38554242520648091 -0.43819238400717231 0 -0.37377006278066488 -0.4377091529438093 0 -0.38293400131272082 -0.44971448590963131 0 -0.38554242520648091 -0.43819238400717231 0 -0.37377006278066488 -0.4377091529438093 0 -0.38293400131272082 -0.44971448590963131 0 -0.38554242520648091 -0.43819238400717231 0 -0.39607208800642862 -0.44651253151289028 0 -0.41027287653904099 -0.42915817562833569 0 -0.38554242520648091 -0.43819238400717231 0 -0.39607208800642862 -0.44651253151289028 0 -0.41027287653904099 -0.42915817562833569 0 -0.39607208800642862 -0.44651253151289028 0 -0.40485995665033331 -0.45804701192057767 0 -0.38293400131272082 -0.44971448590963131 0 -0.39607208800642862 -0.44651253151289028 0 -0.3930467882704432 -0.45763966575418841 0 -0.39607208800642862 -0.44651253151289028 0 -0.40485995665033331 -0.45804701192057767 0 -0.39607208800642862 -0.44651253151289028 0 -0.40485995665033331 -0.45804701192057767 0 -0.3930467882704432 -0.45763966575418841 0 -0.40485995665033331 -0.45804701192057767 0 -0.3930467882704432 -0.45763966575418841 0 -0.39654655526454569 -0.46846263852393422 0 -0.3930467882704432 -0.45763966575418841 0 -0.39654655526454569 -0.46846263852393422 0 -0.38282279939685859 -0.46639898879402059 0 -0.38293400131272082 -0.44971448590963131 0 -0.3930467882704432 -0.45763966575418841 0 -0.38282279939685859 -0.46639898879402059 0 -0.38293400131272082 -0.44971448590963131 0 -0.38282279939685859 -0.46639898879402059 0 -0.36535057385478381 -0.45230285639076279 0 -0.38282279939685859 -0.46639898879402059 0 -0.38318830888483713 -0.47966333414824092 0 -0.36972453897116919 -0.47027377262069769 0 -0.38282279939685859 -0.46639898879402059 0 -0.38318830888483713 -0.47966333414824092 0 -0.40060672202465258 -0.4807465902147442 0 -0.38318830888483713 -0.47966333414824092 0 -0.38675538139731658 -0.4901
[...]
<PointData Scalars="" Vectors="displacement," Tensors="">
<DataArray type="Float64" Name="displacement" NumberOfComponents="3" format="ascii">
0.0049996861130466594 0.0049996103930408532 0 0.0048421040221783033 0.0048269326022134873 0 0.0049995178084474437 0.0043696813835890722 0 0.0049996861130466594 0.0049996103930408532 0 0.0048421040221783033 0.0048269326022134873 0 0.0046261130103001152 0.0049997192730745687 0 0.0048421040221783033 0.0048269326022134873 0 0.0048453073016625102 0.0046446834471993003 0 0.0049995178084474437 0.0043696813835890722 0 0.0048421040221783033 0.0048269326022134873 0 0.0048453073016625102 0.0046446834471993003 0 0.0047668665687123999 0.0048212994892672598 0 0.0047668665687123999 0.0048212994892672598 0 0.0046803591585001707 0.0049039826263071956 0 0.0048072139937137886 0.0047093551655469409 0 0.0042953018457437151 0.0048592622971978814 0 0.0043113688431443524 0.004779153796718387 0 0.003927885209732836 0.0048466097313957712 0 0.0038826920103539183 0.0047672629740542613 0 0.0039368855646227992 0.0047559750175387543 0 0.0048453073016625102 0.0046446834471993003 0 0.0047668665687123999 0.0048212994892672598 0 0.0048072139937137886 0.0047093551655469409 0 0.0048421040221783033 0.0048269326022134873 0 0.0047668665687123999 0.0048212994892672598 0 0.004616753682374377 0.0049592265213902051 0 0.0047668665687123999 0.0048212994892672598 0 0.0046803591585001707 0.0049039826263071956 0 0.004616753682374377 0.0049592265213902051 0 0.0046803591585001707 0.0049039826263071956 0 0.004616753682374377 0.0049592265213902051 0 0.0043935311289713744 0.0050097822265202062 0 0.004616753682374377 0.0049592265213902051 0 0.0046261130103001152 0.0049997192730745687 0 0.004097020141061003 0.004999876319531955 0 0.0048421040221783033 0.0048269326022134873 0 0.004616753682374377 0.0049592265213902051 0 0.0046261130103001152 0.0049997192730745687 0 0.004616753682374377 0.0049592265213902051 0 0.004097020141061003 0.004999876319531955 0 0.0043935311289713744 0.0050097822265202062 0 0.0040966281997956069 0.0049999486788520125 0 0.004184148527450123 0.0049556005447071051 0 0.0040963599898907023 0.0050000678679674847 0 0.0039864371732395171 0.0049346083692593957 0 0.0040490698470337927 0.0049354994737572265 0 0.0039864371732395171 0.0049346083692593957 0 0.0040490698470337927 0.0049354994737572265 0 0.0040005058446374144 0.0048582706446859717 0 0.0039019707562339004 0.0050959602160678668 0 0.00391104970923771 0.0049999978102619226 0 0.0036647689892035907 0.004999997674109905 0 0.0040963599898907023 0.0050000678679674847 0 0.0040422756932792367 0.0050103355987165558 0 0.0040490698470337927 0.0049354994737572265 0 0.0040963610315262597 0.0049853053789935412 0 0.0040422756932792367 0.0050103355987165558 0 0.0040490698470337927 0.0049354994737572265 0 0.0040963599898907023 0.0050000678679674847 0 0.0039112924290130094 0.0049998882039481805 0 0.0040422756932792367 0.0050103355987165558 0 0.0038953473107998723 0.0049489133509609583 0 0.0039110340425859867 0.0050000698046475875 0 0.0039040399575163858 0.0051025124280979807 0 0.0039112924290130094 0.0049998882039481805 0 0.0040422756932792367 0.0050103355987165558 0 0.0038953473107998723 0.0049489133509609583 0 0.0040326763398126683 0.0049915646368897237 0 0.0040963610315262597 0.0049853053789935412 0 0.0040490698470337927 0.0049354994737572265 0 0.0041078029395859939 0.0048681610236710601 0 0.0038953473107998723 0.0049489133509609583 0 0.0039415216877953536 0.0048566838672523625 0 0.0037724074457626913 0.00478621315756903 0 0.0037666555106365168 0.0048509888565387753 0 0.0037147240013822194 0.0048139948743268542 0 0.0038953473107998723 0.0049489133509609583 0 0.0036710536720299157 0.0050440721296754441 0 0.0037666555106365168 0.0048509888565387753 0 0.0037147240013822194 0.0048139948743268542 0 0.0037285759319462841 0.0048453445719118674 0 0.0040490698470337927 0.0049354994737572265 0 0.0041078029395859939 0.0048681610236710601 0 0.0040482598857263736 0.0048034712018832351 0 0.0041078029395859939 0.0048681610236710601 0 0.0040482598857263736 0.0048034712018832351 0 0.0040883382211742278 0.0047429464495054299 0 0.0039415216877953536 0.0048566838672523625 0 0.0039244924187035847 0.0047829839403019875 0 0.0037666555106365168 0.0048509888565387753 0 0.0037622967945306115 0.0049180099253634682 0 0.0037285759319462841 0.0048453445719118674 0 0.003927885209732836 0.0048466097313957712 0 0.0039864371732395171 0.0049346083692593957 0 0.0040005058446374144 0.0048582706446859717 0 0.0042953018457437151 0.0048592622971978814 0 0.004184148527450123 0.0049556005447071051 0 0.0040490698470337927 0.0049354994737572265 0 0.0040482598857263736 0.0048034712018832351 0 0.0040005058446374144 0.0048582706446859717 0 0.0040482598857263736 0.0048034712018832351 0 0.0039927772553497122 0.0047781025038379169 0 0.0040320110326363921 0.0047424751655361433 0 0.0040482598857263736 0.0048034712018832351 0 0.0040005058446374144 0.0048582706446859717 0 0.0039927772553497122 0.0047781025038379169 0 0.003927885209732836 0.0048466097313957712 0 0.0040005058446374144 0.0048582706446859717 0 0.0039927772553497122 0.0047781025038379169 0 0.003927885209732836 0.0048466097313957712 0 0.0039927772553497122 0.0047781025038379169 0 0.0039368855646227992 0.0047559750175387543 0 0.0039927772553497122 0.0047781025038379169 0 0.0039666561511919208 0.0046821395325493016 0 0.0039368855646227992 0.0047559750175387543 0 0.0039927772553497122 0.0047781025038379169 0 0.0040320110326363921 0.0047424751655361433 0 0.0039666561511919208 0.0046821395325493016 0 0.0037444418579774944 0.0040660700356684515 0 0.0036626813937441203 0.0040657471082935692 0 0.0035061549624862982 0.0033957695154016813 0 0.0032787534667481182 0.0034272339871801402 0 0.003354431905362225 0.0035045294594830329 0 0.0040320110326363921 0.0047424751655361433 0 0.0039666561511919208 0.0046821395325493016 0 0.0040604261878742672 0.0047206357494098137 0 0.004034229625916941 0.0046422045065699306 0 0.0040100407449976507 0.0047206316474873531 0 0.0039309682768681395 0.004649601725403494 0 0.0040100407449976507 0.0047206316474873531 0 0.0039309682768681395 0.004649601725403494 0 0.0039386483102227029 0.0047378860068232028 0 0.0039244924187035847 0.0047829839403019875 0 0.004008910311586256 0.0047817571803729277 0 0.0039244924187035847 0.0047829839403019875 0 0.0039820275012910989 0.0046961511906954646 0 0.0040290223707721128 0.0047086093033673043 0 0.0040100407449976507 0.0047206316474873531 0 0.0040538724408160634 0.0047249666445287105 0 0.0040482598857263736 0.0048034712018832351 0 0.0040883382211742278 0.0047429464495054299 0 0.0040538724408160634 0.0047249666445287105 0 0.0040482598857263736 0.0048034712018832351 0 0.0040320110326363921 0.0047424751655361433 0 0.0040538724408160634 0.0047249666445287105 0 0.0040320110326363921 0.0047424751655361433 0 0.0040538724408160634 0.0047249666445287105 0 0.0040604261878742672 0.0047206357494098137 0 0.0040100407449976507 0.0047206316474873531 0 0.0040538724408160634 0.0047249666445287105 0 0.0040604261878742672 0.0047206357494098137 0 0.0032787534667481182 0.0034272339871801402 0 0.0031881974557750369 0.003500203674251353 0 0.0031470217031857447 0.0034695117209195435 0 0.0036626813937441203 0.0040657471082935692 0 0.0035677310133510054 0.004135532397019367 0 0.0040100407449976507 0.0047206316474873531 0 0.0040604261878742672 0.0047206357494098137 0 0.0039386483102227029 0.0047378860068232028 0 0.0031881974557750369 0.003500203674251353 0 0.0032420576762014304 0.0035769361071352015 0 0.0031187271409409177 0.0035540257869020207 0 0.0032787534667481182 0.0034272339871801402 0 0.0031881974557750369 0.003500203674251353 0 0.0032420576762014304 0.0035769361071352015 0 0.0032787534667481182 0.0034272339871801402 0 0.0032420576762014304 0.0035769361071352015 0 0.003354431905362225 0.0035045294594830329 0 0.0032420576762014304 0.0035769361071352015 0 0.0031187271409409177 0.0035540257869020207 0 0.0031068967350997415 0.0036105445467357151 0 0.0035061549624862982 0.0033957695154016813 0 0.0034259297228331075 0.0036072462137629506 0 0.0036155444948584576 0.0036067972228530083 0 0.0035061549624862982 0.0033957695154016813 0 0.003354431905362225 0.0035045294594830329 0 0.0034259297228331075 0.0036072462137629506 0 0.0032420576762014304 0.0035769361071352015 0 0.003354431905362225 0.0035045294594830329 0 0.0034259297228331075 0.0036072462137629506 0 0.0032420576762014304 0.0035769361071352015 0 0.0034259297228331075 0.0036072462137629506 0 0.0033555371290950251 0.0036497555895740868 0 0.0034259297228331075 0.0036072462137629506 0 0.0036155444948584576 0.0036067972228530083 0 0.003632348299035853 0.0037280653815754163 0 0.003739046128856846 0.0036403549531094821 0 0.0036155444948584576 0.0036067972228530083 0 0.003632348299035853 0.0037280653815754163 0 0.003739046128856846 0.0036403549531094821 0 0.0036155444948584576 0.0036067972228530083 0 0.0036937350191454956 0.0035132459182308524 0 0.0035061549624862982 0.0033957695154016813 0 0.0036155444948584576 0.0036067972228530083 0 0.0036937350191454956 0.0035132459182308524 0 0.0035061549624862982 0.0033957695154016813 0 0.0036937350191454956 0.0035132459182308524 0 0.0038093333484923919 0.0034281119647423669 0 0.003739046128856846 0.0036403549531094821 0 0.0036937350191454956 0.0035132459182308524 0 0.0038183723680160972 0.0035413799701916929 0 0.0037986911660331611 0.0034930299325520719 0 0.0038355367757241547 0.0038825690546746248 0 0.0036937350191454956 0.0035132459182308524 0 0.0038232036410598921 0.0034137403612547888 0 0.0038183723680160972 0.0035413799701916929 0 0.0038232036410598921 0.0034137403612547888 0 0.0038183723680160972 0.0035413799701916929 0 0.0039370053081210629 0.0035033703994323843 0 0.0038183723680160972 0.0035413799701916929 0 0.0039370053081210629 0.0035033703994323843 0 0.0039102275730234773 0.0036446609597578995 0 0.003739046128856846 0.0036403549531094821 0 0.0038183723680160972 0.0035413799701916929 0 0.0039102275730234773 0.0036446609597578995 0 0.003739046128856846 0.0036403549531094821 0 0.0039102275730234773 0.0036446609597578995 0 0.0037720428789375358 0.0038082450059256315 0 0.0044804952024148177 0.0033543262485023228 0 0.0047176843469274215 0.0033774364480642777 0 0.0045383134888162249 0.0035530532528193597 0 0.0044804952024148177 0.0033543262485023228 0 0.0047176843469274215 0.0033774364480642777 0 0.0047381728029000378 0.0030878579013860472 0 0.0047176843469274215 0.0033774364480642777 0 0.0049025514610446718 0.0033317643367166794 0 0.0047381728029000378 0.0030878579013860472 0 0.0050940309960394708 0.0038680837396842154 0 0.0049999941210024075 0.0039699726090270905 0 0.004999998812896758 0.0037321703922380016 0 0.0048970560104186463 0.0035538852040478846 0 0.0049025514610446718 0.0033317643367166794 0 0.0049999796284148192 0.0037316124845429926 0 0.0049779605329303466 0.0035969578131580474 0 0.0050070667595983028 0.0036970181560808443 0 0.0047176843469274215 0.0033774364480642777 0 0.0048970560104186463 0.0035538852040478846 0 0.0049025514610446718 0.0033317643367166794 0 0.0047176843469274215 0.0033774364480642777 0 0.0048970560104186463 0.0035538852040478846 0 0.0048286684769511473 0.0035794075634031741 0 0.0050004745373763036 0.0039701052729860476 0 0.0047944261132520372 0.0037589428880677464 0 0.0050940309960394708 0.0038680837396842154 0 0.0049999941210024075 0.0039699726090270905 0 0.0051777069390027521 0.0039971360287674807 0 0.004999994124580541 0.0039700044922209394 0 0.0051813780954753303 0.0040096636345614512 0 0.0051323169719336634 0.0040726914577768726 0 0.0049779605329303466 0.0035969578131580474 0 0.0047944261132520372 0.0037589428880677464 0 0.0038232036410598921 0.0034137403612547888 0 0.0039370053081210629 0.0035033703994323843 0 0.0040734571504583037 0.0034616855246345003 0 0.0038355367757241547 0.0038825690546746248 0 0.0047944261132520372 0.0037589428880677464 0 0.0041682806333921581 0.0034448584022188349 0 0.0047944261132520372 0.0037589428880677464 0 0.0039370053081210629 0.0035033703994323843 0 0.0039102275730234773 0.0036446609597578995 0 0.0040734571504583037 0.0034616855246345003 0 0.0047944261132520372 0.0037589428880677464 0 0.004959711538718695 0.003899789376729329 0 0.0047944261132520372 0.0037589428880677464 0 0.0045978795601142606 0.0044042462559277309 0 0.0052741824811399609 0.0041439746623305853 0 0.0051323169719336634 0.0040726914577768726 0 0.0051400788852643204 0.0042531204236264846 0 0.004177869827774283 0.0040091756899062799 0 0.0046168004429542773 0.0040892751505033544 0 0.0044191489344853991 0.0038279604011512026 0 0.005179007001986053 0.0040124801314061686 0 0.0052741824811399609 0.0041439746623305853 0 0.0051323169719336634 0.0040726914577768726 0 0.0045978795601142606 0.0044042462559277309 0 0.0050628325486972341 0.0044038063881731175 0 0.004999995588525547 0.0041691081431619202 0 0.0051323169719336634 0.0040726914577768726 0 0.0051400788852643204 0.0042531204236264846 0 0.004999994124580541 0.0039700044922209394 0 0.004999995588525547 0.0041691081431619202 0 0.0051323169719336634 0.0040726914577768726 0 0.0048453073016625102 0.0046446834471993003 0 0.0048945894403247432 0.0046339829742885414 0 0.0049995178084474437 0.0043696813835890722 0 0.004999995588525547 0.0041691081431619202 0 0.0051400788852643204 0.0042531204236264846 0 0.0049999985517206738 0.0043682241466598869 0 0.0050628325486972341 0.0044038063881731175 0 0.0049999384917095921 0.0043683258113841666 0 0.0048453073016625102 0.0046446834471993003 0 0.0048461807519689128 0.0046817388337669257 0 0.0048945894403247432 0.0046339829742885414 0 0.0038373607701633599 0.0046909665677233158 0 0.0038826920103539183 0.0047672629740542613 0 0.0039135182744300303 0.0047111656804537374 0 0.0045978795601142606 0.0044042462559277309 0 0.0043113688431443524 0.004779153796718387 0 0.0048453073016625102 0.0046446834471993003 0 0.0048461807519689128 0.0046817388337669257 0 0.0048072139937137886 0.0047093551655469409 0 0.0038826920103539183 0.0047672629740542613 0 0.0039368855646227992 0.0047559750175387543 0 0.0039135182744300303 0.0047111656804537374 0 0.0037444418579774944 0.0040660700356684515 0 0.0038355367757241547 0.0038825690546746248 0 0.0039666561511919208 0.0046821395325493016 0 0.0038753113137221518 0.0046595505669978915 0 0.0039135182744300303 0.0047111656804537374 0 0.0039666561511919208 0.0046821395325493016 0 0.0039368855646227992 0.0047559750175387543 0 0.0039135182744300303 0.0047111656804537374 0 0.0038753113137221518 0.0046595505669978915 0 0.0038373607701633599 0.0046909665677233158 0 0.0039135182744300303 0.0047111656804537374 0 0.0038355367757241547 0.0038825690546746248 0 0.0045978795601142606 0.0044042462559277309 0 0.0021851142716835612 0.0051784717399801896 0 0.0021630925937269809 0.0052043664743003119 0 0.0021815088376568557 0.0051788286375826628 0 0.002187437257462085 0.0051784262382313807 0 0.0021851142716835612 0.0051784717399801896 0 0.0021815088376568557 0.0051788286375826628 0 0.0021851142716835612 0.0051784717399801896 0 0.0022346823652014815 0.0051126293242918092 0 0.0022120347141236442 0.0051894058202992489 0 0.002187437257462085 0.0051784262382313807 0 0.0021851142716835612 0.0051784717399801896 0 0.0021939446399599858 0.0051766037085566345 0 0.0025881253849557259 0.0046662399430485385 0 0.0027314806492418436 0.0043710933345643983 0 0.0020288099148332499 0.0053732572461726155 0 0.0025881253849557259 0.0046662399430485385 0 0.0021895700450217845 0.0051803949060461344 0 0.002195901177191842 0.0051750680735557948 0 0.0021939446399599858 0.0051766037085566345 0 0.002187437257462085 0.0051784262382313807 0 0.0021895700450217845 0.0051803949060461344 0 0.0021939446399599858 0.0051766037085566345 0 0.0023313920227569698 0.0052395479101663674 0 0.0026656920009333232 0.0050528758803081563 0 0.002187437257462085 0.0051784262382313807 0 0.0021895700450217845 0.0051803949060461344 0 0.0021815088376568557 0.0051788286375826628 0 0.0021895700450217845 0.0051803949060461344 0 0.002218418045505629 0.0051883987621917102 0 0.0021815088376568557 0.0051788286375826628 0 0.0023313920227569698 0.0052395479101663674 0 0.002251379243887683 0.0052019368154044478 0 0.002409133235823719 0.0051313876900433803 0 0.0026306765501825278 0.0050678876765276231 0 0.002699003739194366 0.0051910137306991891 0 0.0025354814784136269 0.0052974850406029743 0 0.002409133235823719 0.0051313876900433803 0 0.002699003739194366 0.0051910137306991891 0 0.0025354814784136269 0.0052974850406029743 0 0.002409133235823719 0.0051313876900433803 0 0.002218418045505629 0.0051883987621917102 0 0.002409133235823719 0.0051313876900433803 0 0.0026306765501825278 0.0050678876765276231 0 0.0022867306161869811 0.004972689202971366 0 0.0026049654941233884 0.0050642230304894795 0 0.0023781060312326042 0.0050286270371526142 0 0.002586481697085489 0.0049999709864779439 0 0.0026306765501825278 0.0050678876765276231 0 0.0024605233291173094 0.0050776513392900985 0 0.002586481697085489 0.0049999709864779439 0 0.0027376918397444862 0.0050545635423064773 0 0.0028704467716575304 0.0049999274106822846 0 0.002586481697085489 0.0049999709864779439 0 0.0026306765501825278 0.0050678876765276231 0 0.0027376918397444862 0.0050545635423064773 0 0.0026306765501825278 0.0050678876765276231 0 0.0027376918397444862 0.0050545635423064773 0 0.002699003739194366 0.0051910137306991891 0 0.0025354814784136269 0.0052974850406029743 0 0.002699003739194366 0.0051910137306991891 0 0.0028057466630391878 0.0053075145909746791 0 0.002699003739194366 0.0051910137306991891 0 0.0028207275591438583 0.0051231980394123482 0 0.0028057466630391878 0.0053075145909746791 0 0.0027376918397444862 0.0050545635423064773 0 0.002699003739194366 0.0051910137306991891 0 0.0028207275591438583 0.0051231980394123482 0 0.0028610072854923277 0.0051543255047016784 0 0.0029001360366911096 0.0052981002310890169 0 0.0028453803836499679 0.0052960921545324446 0 0.0028610072854923277 0.0051543255047016784 0 0.0030077162082018968 0.0051819187438471928 0 0.0029001360366911096 0.0052981002310890169 0 0.0028379466250946124 0.0051752529387937476 0 0.0026656920009333232 0.0050528758803081563 0 0.0030319893239264622 0.0049798753711123899 0 0.0029927327272968713 0.0046420735332492391 0 0.0027376918397444862 0.0050545635423064773 0 0.0028207275591438583 0.0051231980394123482 0 0.0028704467716575304 0.0049999274106822846 0 0.0028379466250946124 0.0051752529387937476 0 0.0028705568980605446 0.0049999990777457523 0 0.0028610072854923277 0.0051543255047016784 0 0.002994380337079845 0.0050772768629608741 0 0.0030077162082018968 0.0051819187438471928 0 0.0028610072854923277 0.0051543255047016784 0 0.0028705990795729543 0.0049999965580757207 0 0.002994380337079845 0.0050772768629608741 0 0.0028705990795729543 0.0049999965580757207 0 0.0030887119744891374 0.0049999947177335026 0 0.002994380337079845 0.0050772768629608741 0 0.0031137021986205153 0.0050613716370103892 0 0.0030887119744891374 0.0049999947177335026 0 0.002994380337079845 0.0050772768629608741 0 0.0031274007604168014 0.0050896316762219411 0 0.0030887647875212205 0.005000050116680501 0 0.0031137021986205153 0.0050613716370103892 0 0.002994380337079845 0.0050772768629608741 0 0.0030077162082018968 0.0051819187438471928 0 0.0031274007604168014 0.0050896316762219411 0 0.0030319893239264622 0.0049798753711123899 0 0.0030756443776135838 0.0046750343885021972 0 0.0030780542525145295 0.0046816408774708346 0 0.0030997009884584912 0.0046859520765329338 0 0.0031185866545428414 0.0050033939280553601 0 0.0031466559531734602 0.0049673918558218065 0 0.0030877082712356986 0.0049329169905911194 0 0.0030319893239264622 0.0049798753711123899 0 0.0031795869847620712 0.0048402043712688723 0 0.0030756443776135838 0.0046750343885021972 0 0.0030780542525145295 0.0046816408774708346 0 0.0030634892421038521 0.0046873724367342629 0 0.0030780542525145295 0.0046816408774708346 0 0.0030818127542202468 0.0046878046097179769 0 0.0030634892421038521 0.0046873724367342629 0 0.0030780542525145295 0.0046816408774708346 0 0.00308181275422024