<?xml version="1.0"?>
<VTKFile type="UnstructuredGrid" version="0.1" byte_order="LittleEndian">
<UnstructuredGrid>
<Piece NumberOfPoints="30373" NumberOfCells="10636">
<Points>
<DataArray type="Float64" NumberOfComponents="3" format="ascii">
-0.5 -0.5 0 -0.46278456118020223 -0.44637144598679751 0 -0.5 -0.42607079982994822 0 -0.5 -0.5 0 -0.4479631167738985 -0.47297268902557738 0 -0.43502217802224769 -0.5 0 -0.5 -0.5 0 -0.4479631167738985 -0.47297268902557738 0 -0.46278456118020223 -0.44637144598679751 0 -0.4479631167738985 -0.47297268902557738 0 -0.46278456118020223 -0.44637144598679751 0 -0.42782777685741952 -0.45078008844047351 0 -0.46278456118020223 -0.44637144598679751 0 -0.43347295005853198 -0.43476351387268802 0 -0.42782777685741952 -0.45078008844047351 0 -0.46278456118020223 -0.44637144598679751 0 -0.5 -0.42607079982994822 0 -0.47365860001851318 -0.40630807802558128 0 -0.47365860001851318 -0.40630807802558128 0 -0.47217513539997258 -0.37829579255265661 0 -0.5 -0.37112861530310493 0 -0.5 -0.42607079982994822 0 -0.47365860001851318 -0.40630807802558128 0 -0.5 -0.37112861530310493 0 -0.47217513539997258 -0.37829579255265661 0 -0.45349399227384118 -0.37688179994530813 0 -0.45573694165166168 -0.39574521214284852 0 -0.47365860001851318 -0.40630807802558128 0 -0.47217513539997258 -0.37829579255265661 0 -0.45573694165166168 -0.39574521214284852 0 -0.45349399227384118 -0.37688179994530813 0 -0.45573694165166168 -0.39574521214284852 0 -0.43799198969845488 -0.40252575945292279 0 -0.45349399227384118 -0.37688179994530813 0 -0.43799198969845488 -0.40252575945292279 0 -0.42886743220162538 -0.38805454875715423 0 -0.45349399227384118 -0.37688179994530813 0 -0.43799198969845488 -0.40252575945292279 0 -0.47365860001851318 -0.40630807802558128 0 -0.45573694165166168 -0.39574521214284852 0 -0.44138028287558101 -0.42067945548406971 0 -0.46278456118020223 -0.44637144598679751 0 -0.47365860001851318 -0.40630807802558128 0 -0.44138028287558101 -0.42067945548406971 0 -0.45573694165166168 -0.39574521214284852 0 -0.43799198969845488 -0.40252575945292279 0 -0.44138028287558101 -0.42067945548406971 0 -0.46278456118020223 -0.44637144598679751 0 -0.44138028287558101 -0.42067945548406971 0 -0.43347295005853198 -0.43476351387268802 0 -0.43347295005853198 -0.43476351387268802 0 -0.42423649397438318 -0.42027744992904709 0 -0.40934105195935427 -0.42840806868173442 0 -0.44138028287558101 -0.42067945548406971 0 -0.43347295005853198 -0.43476351387268802 0 -0.42423649397438318 -0.42027744992904709 0 -0.43799198969845488 -0.40252575945292279 0 -0.44138028287558101 -0.42067945548406971 0 -0.42447023570108172 -0.40465014875698918 0 -0.44138028287558101 -0.42067945548406971 0 -0.42423649397438318 -0.42027744992904709 0 -0.42447023570108172 -0.40465014875698918 0 -0.44138028287558101 -0.42067945548406971 0 -0.42447023570108172 -0.40465014875698918 0 -0.42423649397438318 -0.42027744992904709 0 -0.41006287890344301 -0.40737198014234638 0 -0.40934105195935427 -0.42840806868173442 0 -0.42423649397438318 -0.42027744992904709 0 -0.41006287890344301 -0.40737198014234638 0 -0.42447023570108172 -0.40465014875698918 0 -0.45349399227384118 -0.37688179994530813 0 -0.42886743220162538 -0.38805454875715423 0 -0.42208380192111561 -0.3713732453350983 0 -0.43799198969845488 -0.40252575945292279 0 -0.42886743220162538 -0.38805454875715423 0 -0.42447023570108172 -0.40465014875698918 0 -0.42886743220162538 -0.38805454875715423 0 -0.42447023570108172 -0.40465014875698918 0 -0.40756018852658238 -0.38862084202990871 0 -0.42447023570108172 -0.40465014875698918 0 -0.40756018852658238 -0.38862084202990871 0 -0.41006287890344301 -0.40737198014234638 0 -0.42447023570108172 -0.40465014875698918 0 -0.40756018852658238 -0.38862084202990871 0 -0.40756018852658238 -0.38862084202990871 0 -0.42208380192111561 -0.3713732453350983 0 -0.40769940833800511 -0.36936762560483061 0 -0.40756018852658238 -0.38862084202990871 0 -0.42208380192111561 -0.3713732453350983 0 -0.42886743220162538 -0.38805454875715423 0 -0.40756018852658238 -0.38862084202990871 0 -0.42208380192111561 -0.3713732453350983 0 -0.40756018852658238 -0.38862084202990871 0 -0.39540392860697449 -0.37709772699097732 0 -0.40769940833800511 -0.36936762560483061 0 -0.40756018852658238 -0.38862084202990871 0 -0.39540392860697449 -0.37709772699097732 0 -0.38758169734643189 -0.3909844534486191 0 -0.40756018852658238 -0.38862084202990871 0 -0.39540392860697449 -0.37709772699097732 0 -0.40756018852658238 -0.38862084202990871 0 -0.38758169734643189 -0.3909844534486191 0 -0.39237573569118211 -0.4066532222249698 0 -0.41006287890344301 -0.40737198014234638 0 -0.40756018852658238 -0.38862084202990871 0 -0.39237573569118211 -0.4066532222249698 0 -0.40756018852658238 -0.38862084202990871 0 -0.39237573569118211 -0.4066532222249698 0 -0.37686886400322728 -0.40435096115169189 0 -0.38758169734643189 -0.3909844534486191 0 -0.37184907483835877 -0.38939705677335812 0 -0.37686886400322728 -0.40435096115169189 0 -0.38758169734643189 -0.3909844534486191 0 -0.39237573569118211 -0.4066532222249698 0 -0.38758169734643189 -0.3909844534486191 0 -0.38164725830613899 -0.37914075032936601 0 -0.37184907483835877 -0.38939705677335812 0 -0.39540392860697449 -0.37709772699097732 0 -0.38758169734643189 -0.3909844534486191 0 -0.38164725830613899 -0.37914075032936601 0 -0.40934105195935427 -0.42840806868173442 0 -0.37719128285578268 -0.42468560242003139 0 -0.39070796240371652 -0.44565500202714498 0 -0.40934105195935427 -0.42840806868173442 0 -0.39237573569118211 -0.4066532222249698 0 -0.37719128285578268 -0.42468560242003139 0 -0.41006287890344301 -0.40737198014234638 0 -0.40934105195935427 -0.42840806868173442 0 -0.39237573569118211 -0.4066532222249698 0 -0.39237573569118211 -0.4066532222249698 0 -0.37719128285578268 -0.42468560242003139 0 -0.37686886400322728 -0.40435096115169189 0 -0.39237573569118211 -0.4066532222249698 0 -0.37719128285578268 -0.42468560242003139 0 -0.37719128285578268 -0.42468560242003139 0 -0.39070796240371652 -0.44565500202714498 0 -0.36551663301697418 -0.4373224669429574 0 -0.39070796240371652 -0.44565500202714498 0 -0.40330959819850781 -0.46718672562698232 0 -0.38393187030959491 -0.46475190734764837 0 -0.39070796240371652 -0.44565500202714498 0 -0.38393187030959491 -0.46475190734764837 0 -0.36735324222862981 -0.45442845011941468 0 -0.40330959819850781 -0.46718672562698232 0 -0.38393187030959491 -0.46475190734764837 0 -0.37879141953959611 -0.48359336281349108 0 -0.37879141953959611 -0.48359336281349108 0 -0.38812413330218692 -0.5 0 -0.39690905294185502 -0.48414508820793589 0 -0.40330959819850781 -0.46718672562698232 0 -0.37879141953959611 -0.48359336281349108 0 -0.40330959819850781 -0.46718672562698232 0 -0.37879141953959611 -0.48359336281349108 0 -0.39690905294185502 -0.48414508820793589 0 -0.38812413330218692 -0.5 0 -0.39690905294185502 -0.48414508820793589 0 -0.43502217802224769 -0.5 0 -0.4479631167738985 -0.47297268902557738 0 -0.40330959819850781 -0.46718672562698232 0 -0.43502217802224769 -0.5 0 -0.40330959819850781 -0.46718672562698232 0 -0.39690905294185502 -0.48414508820793589 0 -0.43502217802224769 -0.5 0 -0.4479631167738985 -0.47297268902557738 0 -0.40330959819850781 -0.46718672562698232 0 -0.42782777685741952 -0.45078008844047351 0 -0.40934105195935427 -0.42840806868173442 0 -0.39070796240371652 -0.44565500202714498 0 -0.42782777685741952 -0.45078008844047351 0 -0.39070796240371652 -0.44565500202714498 0 -0.40330959819850781 -0.46718672562698232 0 -0.42782777685741952 -0.45078008844047351 0 -0.43347295005853198 -0.43476351387268802 0 -0.40934105195935427 -0.42840806868173442 0 -0.42782777685741952 -0.45078008844047351 0 -0.40330959819850781 -0.46718672562698232 0 -0.42782777685741952 -0.45078008844047351 0 -0.44750537529870138 -0.25369843784153162 0 -0.46931789820554792 -0.26722866842968263 0 -0.46266564730582838 -0.2355681196285522 0 -0.44750537529870138 -0.25369843784153162 0 -0.44942813349220723 -0.27880629466569101 0 -0.4311345914808708 -0.27270177138623442 0 -0.44942813349220723 -0.27880629466569101 0 -0.46931789820554792 -0.26722866842968263 0 -0.46124020023695528 -0.29578579194820781 0 -0.44750537529870138 -0.25369843784153162 0 -0.44942813349220723 -0.27880629466569101 0 -0.46931789820554792 -0.26722866842968263 0 -0.46931789820554792 -0.26722866842968263 0 -0.47739559617414051 -0.2386715449111575 0 -0.4858679574491267 -0.25648904075215551 0 -0.46931789820554792 -0.26722866842968263 0 -0.47739559617414051 -0.2386715449111575 0 -0.4858679574491267 -0.25648904075215551 0 -0.5 -0.27133599655986701 0 -0.5 -0.24272207169726981 0 -0.4858679574491267 -0.25648904075215551 0 -0.5 -0.27133599655986701 0 -0.48206566217123981 -0.28411157568929041 0 -0.4858679574491267 -0.25648904075215551 0 -0.46931789820554792 -0.26722866842968263 0 -0.48206566217123981 -0.28411157568929041 0 -0.48206566217123981 -0.28411157568929041 0 -0.47500039289546658 -0.31020471509886438 0 -0.46124020023695528 -0.29578579194820781 0 -0.46931789820554792 -0.26722866842968263 0 -0.48206566217123981 -0.28411157568929041 0 -0.46124020023695528 -0.29578579194820781 0 -0.5 -0.27133599655986701 0 -0.48206566217123981 -0.28411157568929041 0 -0.5 -0.29994992142246413 0 -0.5 -0.29994992142246413 0 -0.47500039289546658 -0.31020471509886438 0 -0.48449799742461369 -0.32559388093007879 0 -0.48206566217123981 -0.28411157568929041 0 -0.5 -0.29994992142246413 0 -0.47500039289546658 -0.31020471509886438 0 -0.47500039289546658 -0.31020471509886438 0 -0.46124020023695528 -0.29578579194820781 0 -0.45316250226836269 -0.32434291546673277 0 -0.44942813349220723 -0.27880629466569101 0 -0.43794260223896009 -0.30461680372279909 0 -0.4311345914808708 -0.27270177138623442 0 -0.46124020023695528 -0.29578579194820781 0 -0.45316250226836269 -0.32434291546673277 0 -0.46931789820554792 -0.26722866842968263 0 -0.46124020023695528 -0.29578579194820781 0 -0.44942813349220723 -0.27880629466569101 0 -0.46124020023695528 -0.29578579194820781 0 -0.43794260223896009 -0.30461680372279909 0 -0.46124020
[...]
<PointData Scalars="" Vectors="displacement," Tensors="">
<DataArray type="Float64" Name="displacement" NumberOfComponents="3" format="ascii">
-0.049997063498561749 -0.049996241256593028 0 -0.046386055228460996 -0.048387831827905681 0 -0.04261270817992964 -0.049995739471392041 0 -0.049997063498561749 -0.049996241256593028 0 -0.048671246253562506 -0.046117877218132132 0 -0.049995504267390453 -0.043507747959302748 0 -0.049997063498561749 -0.049996241256593028 0 -0.048671246253562506 -0.046117877218132132 0 -0.046386055228460996 -0.048387831827905681 0 -0.048671246253562506 -0.046117877218132132 0 -0.046386055228460996 -0.048387831827905681 0 -0.047435374461389103 -0.045552932005310659 0 -0.046386055228460996 -0.048387831827905681 0 -0.046641563490896043 -0.046842030869396117 0 -0.047435374461389103 -0.045552932005310659 0 -0.046386055228460996 -0.048387831827905681 0 -0.04261270817992964 -0.049995739471392041 0 -0.042214736866010363 -0.049891620817276612 0 -0.042214736866010363 -0.049891620817276612 0 -0.038997957161955817 -0.05075973787599812 0 -0.037115426848953165 -0.049997785549383229 0 -0.04261270817992964 -0.049995739471392041 0 -0.042214736866010363 -0.049891620817276612 0 -0.037115426848953165 -0.049997785549383229 0 -0.038997957161955817 -0.05075973787599812 0 -0.039391684540004836 -0.051623194222539311 0 -0.041700804698388473 -0.050353218721537661 0 -0.042214736866010363 -0.049891620817276612 0 -0.038997957161955817 -0.05075973787599812 0 -0.041700804698388473 -0.050353218721537661 0 -0.039391684540004836 -0.051623194222539311 0 -0.041700804698388473 -0.050353218721537661 0 -0.043064211601684811 -0.05017490796922814 0 -0.038336390855998936 -0.047782084871031479 0 -0.043064211601684811 -0.05017490796922814 0 -0.040767824232814318 -0.051399877983974558 0 -0.038854241153831043 -0.049662782710318015 0 -0.042667266424057777 -0.050240470467423685 0 -0.042214736866010363 -0.049891620817276612 0 -0.041700804698388473 -0.050353218721537661 0 -0.045786371282020601 -0.04869713598744476 0 -0.046386055228460996 -0.048387831827905681 0 -0.042214736866010363 -0.049891620817276612 0 -0.045786371282020601 -0.04869713598744476 0 -0.041700804698388473 -0.050353218721537661 0 -0.043064211601684811 -0.05017490796922814 0 -0.045786371282020601 -0.04869713598744476 0 -0.046386055228460996 -0.048387831827905681 0 -0.045786371282020601 -0.04869713598744476 0 -0.046641563490896043 -0.046842030869396117 0 -0.046641563490896043 -0.046842030869396117 0 -0.047131811082837899 -0.046002193939189091 0 -0.047272903821007205 -0.043970417200788828 0 -0.045786371282020601 -0.04869713598744476 0 -0.046641563490896043 -0.046842030869396117 0 -0.047131811082837899 -0.046002193939189091 0 -0.043064211601684811 -0.05017490796922814 0 -0.045786371282020601 -0.04869713598744476 0 -0.043472121229117672 -0.051807310572140469 0 -0.045786371282020601 -0.04869713598744476 0 -0.047131811082837899 -0.046002193939189091 0 -0.04863674203770723 -0.046124932035573822 0 -0.045782990949643831 -0.048691433713160558 0 -0.046396139226225409 -0.049340034076977443 0 -0.047131811082837899 -0.046002193939189091 0 -0.048488419497359381 -0.044486935987854137 0 -0.047272903821007205 -0.043970417200788828 0 -0.047131811082837899 -0.046002193939189091 0 -0.048488419497359381 -0.044486935987854137 0 -0.04863674203770723 -0.046124932035573822 0 -0.038336390855998936 -0.047782084871031479 0 -0.040767824232814318 -0.051399877983974558 0 -0.03795910918820633 -0.052520210868112441 0 -0.043064211601684811 -0.05017490796922814 0 -0.040767824232814318 -0.051399877983974558 0 -0.043472121229117672 -0.051807310572140469 0 -0.040767824232814318 -0.051399877983974558 0 -0.043472121229117672 -0.051807310572140469 0 -0.041286957466170615 -0.053900509293358927 0 -0.046396139226225409 -0.049340034076977443 0 -0.040680337297949107 -0.044828160184948659 0 -0.048488419497359381 -0.044486935987854137 0 -0.04863674203770723 -0.046124932035573822 0 -0.049522178105480472 -0.044727265665230879 0 -0.031824194458591908 -0.044779802535289806 0 -0.03243772138569586 -0.045864962366510567 0 -0.032715180415866893 -0.044995935792765965 0 -0.040680337297949107 -0.044828160184948659 0 -0.034816754737817722 -0.049496324658716929 0 -0.040767824232814318 -0.051399877983974558 0 -0.041286957466170615 -0.053900509293358927 0 -0.03795910918820633 -0.052520210868112441 0 -0.031824194458591908 -0.044779802535289806 0 -0.032528839835577403 -0.043908657619958269 0 -0.032715180415866893 -0.044995935792765965 0 -0.039716216624162616 -0.035476199032728216 0 -0.037424588686466663 -0.037776434653101883 0 -0.040337914074398101 -0.039028152703699089 0 -0.040680337297949107 -0.044828160184948659 0 -0.035100768686935242 -0.040967622168720935 0 -0.039716216624162616 -0.035476199032728216 0 -0.040337914074398101 -0.039028152703699089 0 -0.043255455226945266 -0.037880081709785254 0 -0.048488419497359381 -0.044486935987854137 0 -0.049522178105480472 -0.044727265665230879 0 -0.048712538459193912 -0.042583861153957236 0 -0.040680337297949107 -0.044828160184948659 0 -0.046310115708178577 -0.039776241514697441 0 -0.04292368013681741 -0.040226029263142289 0 -0.040337914074398101 -0.039028152703699089 0 -0.040109512679627764 -0.04130923287790552 0 -0.04292368013681741 -0.040226029263142289 0 -0.040337914074398101 -0.039028152703699089 0 -0.043255455226945266 -0.037880081709785254 0 -0.040337914074398101 -0.039028152703699089 0 -0.037889249611711716 -0.040755012917651733 0 -0.040109512679627764 -0.04130923287790552 0 -0.037424588686466663 -0.037776434653101883 0 -0.040337914074398101 -0.039028152703699089 0 -0.037889249611711716 -0.040755012917651733 0 -0.047272903821007205 -0.043970417200788828 0 -0.046861517541363758 -0.040190179267646287 0 -0.047315860098306621 -0.04116593860576645 0 -0.047272903821007205 -0.043970417200788828 0 -0.048712538459193912 -0.042583861153957236 0 -0.046861517541363758 -0.040190179267646287 0 -0.048488419497359381 -0.044486935987854137 0 -0.047272903821007205 -0.043970417200788828 0 -0.048712538459193912 -0.042583861153957236 0 -0.046310115708178577 -0.039776241514697441 0 -0.046692338550544721 -0.04034598365339935 0 -0.04292368013681741 -0.040226029263142289 0 -0.043255455226945266 -0.037880081709785254 0 -0.046861517541363758 -0.040190179267646287 0 -0.046861517541363758 -0.040190179267646287 0 -0.047315860098306621 -0.04116593860576645 0 -0.047339744057800809 -0.039951568590196107 0 -0.047315860098306621 -0.04116593860576645 0 -0.046567291076447324 -0.041951450632415406 0 -0.047612429928726878 -0.040138081518325291 0 -0.047315860098306621 -0.04116593860576645 0 -0.047612429928726878 -0.040138081518325291 0 -0.048163529678331957 -0.039324945252170306 0 -0.046567291076447324 -0.041951450632415406 0 -0.047612429928726878 -0.040138081518325291 0 -0.047941218614829161 -0.039076732971158476 0 -0.051095163517095019 -0.038350489888316026 0 -0.049999070483478625 -0.038814214816492616 0 -0.050363413747625527 -0.040664341683910261 0 -0.048336677743705689 -0.042136730690608901 0 -0.049536965651200943 -0.03881428062173032 0 -0.050238200121603113 -0.042377260823721133 0 -0.051095163517095019 -0.038350489888316026 0 -0.050363413747625527 -0.040664341683910261 0 -0.049999070483478625 -0.038814214816492616 0 -0.050363413747625527 -0.040664341683910261 0 -0.049995504267390453 -0.043507747959302748 0 -0.048671246253562506 -0.046117877218132132 0 -0.050238200121603113 -0.042377260823721133 0 -0.049995504267390453 -0.043507747959302748 0 -0.050238200121603113 -0.042377260823721133 0 -0.050363413747625527 -0.040664341683910261 0 -0.049995504267390453 -0.043507747959302748 0 -0.048671246253562506 -0.046117877218132132 0 -0.050238200121603113 -0.042377260823721133 0 -0.047435374461389103 -0.045552932005310659 0 -0.047272903821007205 -0.043970417200788828 0 -0.047315860098306621 -0.04116593860576645 0 -0.047435374461389103 -0.045552932005310659 0 -0.047315860098306621 -0.04116593860576645 0 -0.046567291076447324 -0.041951450632415406 0 -0.047435374461389103 -0.045552932005310659 0 -0.046641563490896043 -0.046842030869396117 0 -0.047272903821007205 -0.043970417200788828 0 -0.047435374461389103 -0.045552932005310659 0 -0.048336677743705689 -0.042136730690608901 0 -0.047639890938873421 -0.045127996800021497 0 -0.026560589349537748 -0.048744724365837704 0 -0.027284258858223869 -0.047771811929037553 0 -0.025156160425838889 -0.050279483843244731 0 -0.026560589349537748 -0.048744724365837704 0 -0.028660744134447379 -0.047832616822369479 0 -0.028343741856346652 -0.048148245776920895 0 -0.028660744134447379 -0.047832616822369479 0 -0.027284258858223869 -0.047771811929037553 0 -0.03023093096706583 -0.046939969923769899 0 -0.026560589349537748 -0.048744724365837704 0 -0.028660744134447379 -0.047832616822369479 0 -0.027284258858223869 -0.047771811929037553 0 -0.027244975036589552 -0.049578532532190335 0 -0.025049302899804182 -0.050118880866599019 0 -0.025877038968186411 -0.050392927340654953 0 -0.027068602957392284 -0.051345842787209932 0 -0.024738592530963166 -0.050228949925422352 0 -0.025877038968186411 -0.050392927340654953 0 -0.027134499422232991 -0.049999427312988308 0 -0.024272919447093783 -0.049998896501922165 0 -0.025877038968186411 -0.050392927340654953 0 -0.027134499422232991 -0.049999427312988308 0 -0.028683194649570747 -0.050266460777474986 0 -0.025877038968186411 -0.050392927340654953 0 -0.027068602957392284 -0.051345842787209932 0 -0.028683194649570747 -0.050266460777474986 0 -0.028683194649570747 -0.050266460777474986 0 -0.030699592048140815 -0.049250368467023714 0 -0.029820565459483212 -0.050397826748721272 0 -0.027068602957392284 -0.051345842787209932 0 -0.028683194649570747 -0.050266460777474986 0 -0.029820565459483212 -0.050397826748721272 0 -0.027134499422232991 -0.049999427312988308 0 -0.028683194649570747 -0.050266460777474986 0 -0.029993655090822857 -0.049996676837687881 0 -0.029993655090822857 -0.049996676837687881 0 -0.030699592048140815 -0.049250368467023714 0 -0.031235659685732345 -0.048499685392647637 0 -0.028683194649570747 -0.050266460777474986 0 -0.029993655090822857 -0.049996676837687881 0 -0.030699592048140815 -0.049250368467023714 0 -0.030699592048140815 -0.049250368467023714 0 -0.029820565459483212 -0.050397826748721272 0 -0.031870236832893653 -0.048094920978213995 0 -0.028660744134447379 -0.047832616822369479 0 -0.031265578374390347 -0.047536179487593838 0 -0.028343741856346652 -0.048148245776920895 0 -0.029935440967239275 -0.048665394102470269 0 -0.031603052698560202 -0.048172588156454726 0 -0.027244975036589552 -0.049578532532190335 0 -0.029935440967239275 -0.048665394102470269 0 -0.028660744134447379 -0.047832616822369479 0 -0.03023093096706583 -0.046939969923769899 0 -0.031265578374390347 -0.047536179487593838 0 -0.03023093096706583 -0.046939969923769899 0 -0.031265578374390347 -0.047536179487593838 0 -0.031870236832893653 -0.048094920978213995 0 -0.029995224076789052 -0.050000318096160401 0 -0.03284488657424179 -0.051196052300165842 0 -0.037115426848953165 -0.049997785549383229 0 -0.031265578374390347 -0.047536179487593838 0 -0.03234667281381258 -0.047354777089442843 0 -0.031870236832893653 -0.048094920978213995 0 -0.03234667281381258 -0.047354777089442843 0 -0.032181334997945045 -0.048183033614077171 0 -0.032418930625720467 -0.046838337622199903 0 -0.03234667281381258 -0.047354777089442843 0 -0.032181334997945045 -0.048183033614077171 0 -0.031870236832893653 -0.048094920978213995 0 -0.032181334997945045 -0.048183033614077171 0 -0.031760653132416806 -0.048210011613957868 0 -0.031870236832893653 -0.048094920978213995 0 -0.032181334997945045 -0.048183033614077171 0 -0.031760653132416806 -0.048210011613957868 0 -0.033501087752698319 -0.047012150048933714 0 -0.030699592048140815 -0.049250368467023714 0 -0.031760653132416806 -0.048210011613957868 0 -0.031870236832893653 -0.048094920978213995 0 -0.030699592048140815 -0.049250368467023714 0 -0.031760653132416806 -0.048210011613957868 0 -0.031235659685732345 -0.048499685392647637 0 -0.029995609425911045 -0.049999940956009153 0 -0.032128970906078469 -0.049852618146599574 0 -0.032128970906078469 -0.049852618146599574 0 -0.034747700087582357 -0.049421193383475635 0 -0.031760653132416806 -0.048210011613957868 0 -0.031235659685732345 -0.048499685392647637 0 -0.033501087752698319 -0.047012150048933714 0 -0.03284488657424179 -0.051196052300165842 0 -0.035891266502256998 -0.051764359969264942 0 -0.037115426848953165 -0.049997785549383229 0 -0.038997957161955817 -0.05075973787599812 0 -0.035891266502256998 -0.051764359969264942 0 -0.037115426848953165 -0.049997785549383229 0 -0.038854241153831043 -0.049662782710318015 0 -0.034747700087582357 -0.049421193383475635 0 -0.038997957161955817 -0.05075973787599812 0 -0.039391684540004836 -0.051623194222539311 0 -0.035891266502256998 -0.051764359969264942 0 -0.038336390855998936 -0.047782084871031479 0 -0.033501087752698319 -0.047012150048933714 0 -0.034509524846712929 -0.048323844514524511 0 -0.032181334997945045 -0.048183033614077171 0 -0.033501087752698319 -0.047012150048933714 0 -0.034509524846712929 -0.048323844514524511 0 -0.032383733627518597 -0.048217810762781164 0 -0.033590152325116925 -0.048660537992154085 0 -0.032181334997945045 -0.048183033614077171 0 -0.034509524846712929 -0.048323844514524511 0 -0.034613657315715078 -0.050492132205532607 0 -0.038336390855998936 -0.047782084871031479 0 -0.034509524846712929 -0.048323844514524511 0 -0.034613657315715078 -0.050492132205532607 0 -0.038336390855998936 -0.047782084871031479 0 -0.03795910918820633 -0.052520210868112441 0 -0.034613657315715078 -0.050492132205532607 0 -0.034816754737817722 -0.049496324658716929 0 -0.033590152325116925 -0.048660537992154085 0 -0.03234667281381258 -0.047354777089442843 0 -0.032418930625720467 -0.046838337622199903 0 -0.032833559062632266 -0.04611953915046374 0 -0.03243772138569586 -0.045864962366510567 0 -0.032418930625720467 -0.046838337622199903 0 -0.032833559062632266 -0.04611953915046374 0 -0.032833559062632266 -0.04611953915046374 0 -0.033676390217780253 -0.044454452532994446 0 -0.033021425774702913 -0.045737140387704302 0 -0.032833559062632266 -0.04611953915046374 0 -0.032715180415866893 -0.044995935792765965 0 -0.033676390217780253 -0.044454452532994446 0 -0.03243772138569586 -0.045864962366510567 0 -0.032833559062632266 -0.04611953915046374 0 -0.032715180415866893 -0.044995935792765965 0 -0.032528839835577403 -0.043908657619958269 0 -0.032715180415866893 -0.044995935792765965 0 -0.033676390217780253 -0.044454452532994446 0 -0.032528839835577403 -0.043908657619958269 0 -0.034491897825519709 -0.042076387144557754 0 -0.033676390217780253 -0.044454452532994446 0 -0.037424588686466663 -0.037776434653101883 0 -0.037889249611711716 -0.040755012917651733 0 -0.034491897825519709 -0.042076387144557754 0 -0.035100768686935242 -0.040967622168720935 0 -0.03451523548788666 -0.041805877001696072 0 -0.037889249611711716 -0.040755012917651733 0 -0.034491897825519709 -0.042076387144557754 0 -0.037023914267058422 -0.042405853856843763 0 -0.034000619458146177 -0.04363736499411898 0 -0.033676390217780253 -0.044454452532994446 0 -0.033288712405165517 -0.045072453796466627 0 -0.034491897825519709 -0.042076387144557754 0 -0.034000619458146177 -0.04363736499411898 0 -0.035008626226275451 -0.043259280226472893 0 -0.034491897825519709 -0.042076387144557754 0 -0.034000619458146177 -0.04363736499411898 0 -0.033676390217780253 -0.044454452532994446 0 -0.033676390217780253 -0.044454452532994446 0 -0.033288712405165517 -0.045072453796466627 0 -0.033021425774702913 -0.045737140387704302 0 -0.033288712405165517 -0.045072453796466627 0 -0.032669688773961973 -0.046157587984627935 0 -0.033021425774702913 -0.045737140387704302 0 -0.034000619458146177 -0.04363736499411898 0 -0.033288712405165517 -0.045072453796466627 0 -0.033554509588544598 -0.044543354803025043 0 -0.033288712405165517 -0.045072453796466627 0 -0.03310678016857569 -0.045399509569562034 0 -0.033554509588544598 -0.044543354803025043 0 -0.03310678016857569 -0.045399509569562034 0 -0.0331271338603632 -0.045795593713645985 0 -0.033318001636311295 -0.045294477317617383 0 -0.03310678016857569 -0.045399509569562034 0 -0.033318001636311295 -0.045294477317617383 0 -0.033554509588544598 -0.044543354803025043 0 -0.03310678016857569 -0.045399509569562034 0 -0.032669688773961973 -0.046157587984627935 0 -0.032648792857888298 -0.045821043897573847 0 -0.033288712405165517 -0.045072453796466627 0 -0.03310678016857569 -0.045399509569562034 0 -0.032669688773961973 -0.046157587984627935 0 -0.032669688773961973 -0.046157587984627935 0 -0.032504161252627076 -0.046816595647128749 0 -0.032000458161885688 -0.04723036175005068 0 -0.032669688773961973 -0.046157587984627935 0 -0.033021425774702913 -0.045737140387704302 0 -0.032504161252627076 -0.046816595647128749 0 -0.032833559062632266 -0.04611953915046374 0 -0.033021425774702913 -0.045737140387704302 0 -0.032504161252627076 -0.046816595647128749 0 -0.03234667281381258 -0.047354777089442843 0 -0.032833559062632266 -0.04611953915046374 0 -0.032504161252627076 -0.046816595647128749 0 -0.031265578374390347 -0.047536179487593838 0 -0.03234667281381258 -0.047354777089442843 0 -0.032504161252627076 -0.046816595647128749 0 -0.031265578374390347 -0.047536179487593838 0 -0.029694132927095621 -0.047968803525039759 0 -0.028343741856346652 -0.048148245776920895 0 -0.031265578374390347 -0.047536179487593838 0 -0.032504161252627076 -0.046816595647128749 0 -0.032000458161885688 -0.04723036175005068 0 -0.029694132927095621 -0.047968803525039759 0 -0.032000458161885688 -0.04723036175005068 0 -0.029021628691138897 -0.049503039465443141 0 -0.031265578374390347 -0.047536179487593838 0 -0.029694132927095621 -0.047968803525039759 0 -0.032000458161885688 -0.04723036175005068 0 -0.032669688773961973 -0.046157587984627935 0 -0.032000458161885688 -0.04723036175005068 0 -0.032648792857888298 -0.045821043897573847 0 -0.03310678016857569 -0.045399509569562034 0 -0.032648792857888298 -0.045821043897573847 0 -0.0331271338603632 -0.045795593713645985 0 -0.032648792857888298 -0.045821043897573847 0 -0.032484490315229472 -0.046085606815706837 0 -0.0331271338603632 -0.045795593713645985 0 -0.032648792857888298 -0.045821043897573847 0 -0.032484490315229472 -0.046085606815706837 0 -0.032397342668209948 -0.045470996789900665 0 -0.031826536751270611 -0.047256392436537321 0 -0.030642520070556057 -0.047471947722832787 0 -0.032000458161885688 -0.04723036175005068 0 -0.032648792857888298 -0.045821043897573847 0 -0.032397342668209948 -0.045470996789900665 0 -0.029021628691138897 -0.049503039465443141 0 -0.02704640995204596 -0.049563842241674379 0 -0.027779561779912438 -0.048612355477951306 0 -0.032484490315229472 -0.046085606815706837 0 -0.032397342668209948 -0.045470996789900665 0 -0.031338807475645422 -0.046703804643210792 0 -0.032397342668209948 -0.045470996789900665 0 -0.02989910174577232 -0.045797599355815441 0 -0.031338807475645422 -0.046703804643210792 0 -0.030642520070556057 -0.047471947722832787 0 -0.028516842897736157 -0.047726564415765019 0 -0.02704640995204596 -0.049563842241674379 0 -0.027779561779912438 -0.048612355477951306 0 -0.026660417502387283 -0.048462649678550643 0 -0.027779561779912438 -0.048612355477951306 0 -0.027080636222347614 -0.048498883482191633 0 -0.026660417502387283 -0.048462649678550643 0 -0.029694132927095621 -0.047968803525039759 0 -0.029021628691138897 -0.049503039465443141 0 -0.027779561779912438 -0.048612355477951306 0 -0.029694132927095621 -0.047968803525039759 0 -0.027779561779912438 -0.048612355477951306 0 -0.028343741856346652 -0.048148245776920895 0 -0.027779561779912438 -0.048612355477951306 0 -0.028343741856346652 -0.048148245776920895 0 -0.027080636222347614 -0.048498883482191633 0 -0.026560589349537748 -0.048744724365837704 0 -0.027080636222347614 -0.048498883482191633 0 -0.026485082334503654 -0.04872462181885201 0 -0.026560589349537748 -0.048744724365837704 0 -0.028343741856346652 -0.048148245776920895 0 -0.027080636222347614 -0.048498883482191633 0 -0.027877319979479016 -0.0