<?xml version="1.0"?>
<VTKFile type="UnstructuredGrid" version="0.1" byte_order="LittleEndian">
<UnstructuredGrid>
<Piece NumberOfPoints="30373" NumberOfCells="10636">
<Points>
<DataArray type="Float64" NumberOfComponents="3" format="ascii">
-0.5 -0.5 0 -0.46278456118020223 -0.44637144598679751 0 -0.5 -0.42607079982994822 0 -0.5 -0.5 0 -0.4479631167738985 -0.47297268902557738 0 -0.43502217802224769 -0.5 0 -0.5 -0.5 0 -0.4479631167738985 -0.47297268902557738 0 -0.46278456118020223 -0.44637144598679751 0 -0.4479631167738985 -0.47297268902557738 0 -0.46278456118020223 -0.44637144598679751 0 -0.42782777685741952 -0.45078008844047351 0 -0.46278456118020223 -0.44637144598679751 0 -0.43347295005853198 -0.43476351387268802 0 -0.42782777685741952 -0.45078008844047351 0 -0.46278456118020223 -0.44637144598679751 0 -0.5 -0.42607079982994822 0 -0.47365860001851318 -0.40630807802558128 0 -0.47365860001851318 -0.40630807802558128 0 -0.47217513539997258 -0.37829579255265661 0 -0.5 -0.37112861530310493 0 -0.5 -0.42607079982994822 0 -0.47365860001851318 -0.40630807802558128 0 -0.5 -0.37112861530310493 0 -0.47217513539997258 -0.37829579255265661 0 -0.45349399227384118 -0.37688179994530813 0 -0.45573694165166168 -0.39574521214284852 0 -0.47365860001851318 -0.40630807802558128 0 -0.47217513539997258 -0.37829579255265661 0 -0.45573694165166168 -0.39574521214284852 0 -0.45349399227384118 -0.37688179994530813 0 -0.45573694165166168 -0.39574521214284852 0 -0.43799198969845488 -0.40252575945292279 0 -0.45349399227384118 -0.37688179994530813 0 -0.43799198969845488 -0.40252575945292279 0 -0.42886743220162538 -0.38805454875715423 0 -0.45349399227384118 -0.37688179994530813 0 -0.43799198969845488 -0.40252575945292279 0 -0.47365860001851318 -0.40630807802558128 0 -0.45573694165166168 -0.39574521214284852 0 -0.44138028287558101 -0.42067945548406971 0 -0.46278456118020223 -0.44637144598679751 0 -0.47365860001851318 -0.40630807802558128 0 -0.44138028287558101 -0.42067945548406971 0 -0.45573694165166168 -0.39574521214284852 0 -0.43799198969845488 -0.40252575945292279 0 -0.44138028287558101 -0.42067945548406971 0 -0.46278456118020223 -0.44637144598679751 0 -0.44138028287558101 -0.42067945548406971 0 -0.43347295005853198 -0.43476351387268802 0 -0.43347295005853198 -0.43476351387268802 0 -0.42423649397438318 -0.42027744992904709 0 -0.40934105195935427 -0.42840806868173442 0 -0.44138028287558101 -0.42067945548406971 0 -0.43347295005853198 -0.43476351387268802 0 -0.42423649397438318 -0.42027744992904709 0 -0.43799198969845488 -0.40252575945292279 0 -0.44138028287558101 -0.42067945548406971 0 -0.42447023570108172 -0.40465014875698918 0 -0.44138028287558101 -0.42067945548406971 0 -0.42423649397438318 -0.42027744992904709 0 -0.42447023570108172 -0.40465014875698918 0 -0.44138028287558101 -0.42067945548406971 0 -0.42447023570108172 -0.40465014875698918 0 -0.42423649397438318 -0.42027744992904709 0 -0.41006287890344301 -0.40737198014234638 0 -0.40934105195935427 -0.42840806868173442 0 -0.42423649397438318 -0.42027744992904709 0 -0.41006287890344301 -0.40737198014234638 0 -0.42447023570108172 -0.40465014875698918 0 -0.45349399227384118 -0.37688179994530813 0 -0.42886743220162538 -0.38805454875715423 0 -0.42208380192111561 -0.3713732453350983 0 -0.43799198969845488 -0.40252575945292279 0 -0.42886743220162538 -0.38805454875715423 0 -0.42447023570108172 -0.40465014875698918 0 -0.42886743220162538 -0.38805454875715423 0 -0.42447023570108172 -0.40465014875698918 0 -0.40756018852658238 -0.38862084202990871 0 -0.42447023570108172 -0.40465014875698918 0 -0.40756018852658238 -0.38862084202990871 0 -0.41006287890344301 -0.40737198014234638 0 -0.42447023570108172 -0.40465014875698918 0 -0.40756018852658238 -0.38862084202990871 0 -0.40756018852658238 -0.38862084202990871 0 -0.42208380192111561 -0.3713732453350983 0 -0.40769940833800511 -0.36936762560483061 0 -0.40756018852658238 -0.38862084202990871 0 -0.42208380192111561 -0.3713732453350983 0 -0.42886743220162538 -0.38805454875715423 0 -0.40756018852658238 -0.38862084202990871 0 -0.42208380192111561 -0.3713732453350983 0 -0.40756018852658238 -0.38862084202990871 0 -0.39540392860697449 -0.37709772699097732 0 -0.40769940833800511 -0.36936762560483061 0 -0.40756018852658238 -0.38862084202990871 0 -0.39540392860697449 -0.37709772699097732 0 -0.38758169734643189 -0.3909844534486191 0 -0.40756018852658238 -0.38862084202990871 0 -0.39540392860697449 -0.37709772699097732 0 -0.40756018852658238 -0.38862084202990871 0 -0.38758169734643189 -0.3909844534486191 0 -0.39237573569118211 -0.4066532222249698 0 -0.41006287890344301 -0.40737198014234638 0 -0.40756018852658238 -0.38862084202990871 0 -0.39237573569118211 -0.4066532222249698 0 -0.40756018852658238 -0.38862084202990871 0 -0.39237573569118211 -0.4066532222249698 0 -0.37686886400322728 -0.40435096115169189 0 -0.38758169734643189 -0.3909844534486191 0 -0.37184907483835877 -0.38939705677335812 0 -0.37686886400322728 -0.40435096115169189 0 -0.38758169734643189 -0.3909844534486191 0 -0.39237573569118211 -0.4066532222249698 0 -0.38758169734643189 -0.3909844534486191 0 -0.38164725830613899 -0.37914075032936601 0 -0.37184907483835877 -0.38939705677335812 0 -0.39540392860697449 -0.37709772699097732 0 -0.38758169734643189 -0.3909844534486191 0 -0.38164725830613899 -0.37914075032936601 0 -0.40934105195935427 -0.42840806868173442 0 -0.37719128285578268 -0.42468560242003139 0 -0.39070796240371652 -0.44565500202714498 0 -0.40934105195935427 -0.42840806868173442 0 -0.39237573569118211 -0.4066532222249698 0 -0.37719128285578268 -0.42468560242003139 0 -0.41006287890344301 -0.40737198014234638 0 -0.40934105195935427 -0.42840806868173442 0 -0.39237573569118211 -0.4066532222249698 0 -0.39237573569118211 -0.4066532222249698 0 -0.37719128285578268 -0.42468560242003139 0 -0.37686886400322728 -0.40435096115169189 0 -0.39237573569118211 -0.4066532222249698 0 -0.37719128285578268 -0.42468560242003139 0 -0.37719128285578268 -0.42468560242003139 0 -0.39070796240371652 -0.44565500202714498 0 -0.36551663301697418 -0.4373224669429574 0 -0.39070796240371652 -0.44565500202714498 0 -0.40330959819850781 -0.46718672562698232 0 -0.38393187030959491 -0.46475190734764837 0 -0.39070796240371652 -0.44565500202714498 0 -0.38393187030959491 -0.46475190734764837 0 -0.36735324222862981 -0.45442845011941468 0 -0.40330959819850781 -0.46718672562698232 0 -0.38393187030959491 -0.46475190734764837 0 -0.37879141953959611 -0.48359336281349108 0 -0.37879141953959611 -0.48359336281349108 0 -0.38812413330218692 -0.5 0 -0.39690905294185502 -0.48414508820793589 0 -0.40330959819850781 -0.46718672562698232 0 -0.37879141953959611 -0.48359336281349108 0 -0.40330959819850781 -0.46718672562698232 0 -0.37879141953959611 -0.48359336281349108 0 -0.39690905294185502 -0.48414508820793589 0 -0.38812413330218692 -0.5 0 -0.39690905294185502 -0.48414508820793589 0 -0.43502217802224769 -0.5 0 -0.4479631167738985 -0.47297268902557738 0 -0.40330959819850781 -0.46718672562698232 0 -0.43502217802224769 -0.5 0 -0.40330959819850781 -0.46718672562698232 0 -0.39690905294185502 -0.48414508820793589 0 -0.43502217802224769 -0.5 0 -0.4479631167738985 -0.47297268902557738 0 -0.40330959819850781 -0.46718672562698232 0 -0.42782777685741952 -0.45078008844047351 0 -0.40934105195935427 -0.42840806868173442 0 -0.39070796240371652 -0.44565500202714498 0 -0.42782777685741952 -0.45078008844047351 0 -0.39070796240371652 -0.44565500202714498 0 -0.40330959819850781 -0.46718672562698232 0 -0.42782777685741952 -0.45078008844047351 0 -0.43347295005853198 -0.43476351387268802 0 -0.40934105195935427 -0.42840806868173442 0 -0.42782777685741952 -0.45078008844047351 0 -0.40330959819850781 -0.46718672562698232 0 -0.42782777685741952 -0.45078008844047351 0 -0.44750537529870138 -0.25369843784153162 0 -0.46931789820554792 -0.26722866842968263 0 -0.46266564730582838 -0.2355681196285522 0 -0.44750537529870138 -0.25369843784153162 0 -0.44942813349220723 -0.27880629466569101 0 -0.4311345914808708 -0.27270177138623442 0 -0.44942813349220723 -0.27880629466569101 0 -0.46931789820554792 -0.26722866842968263 0 -0.46124020023695528 -0.29578579194820781 0 -0.44750537529870138 -0.25369843784153162 0 -0.44942813349220723 -0.27880629466569101 0 -0.46931789820554792 -0.26722866842968263 0 -0.46931789820554792 -0.26722866842968263 0 -0.47739559617414051 -0.2386715449111575 0 -0.4858679574491267 -0.25648904075215551 0 -0.46931789820554792 -0.26722866842968263 0 -0.47739559617414051 -0.2386715449111575 0 -0.4858679574491267 -0.25648904075215551 0 -0.5 -0.27133599655986701 0 -0.5 -0.24272207169726981 0 -0.4858679574491267 -0.25648904075215551 0 -0.5 -0.27133599655986701 0 -0.48206566217123981 -0.28411157568929041 0 -0.4858679574491267 -0.25648904075215551 0 -0.46931789820554792 -0.26722866842968263 0 -0.48206566217123981 -0.28411157568929041 0 -0.48206566217123981 -0.28411157568929041 0 -0.47500039289546658 -0.31020471509886438 0 -0.46124020023695528 -0.29578579194820781 0 -0.46931789820554792 -0.26722866842968263 0 -0.48206566217123981 -0.28411157568929041 0 -0.46124020023695528 -0.29578579194820781 0 -0.5 -0.27133599655986701 0 -0.48206566217123981 -0.28411157568929041 0 -0.5 -0.29994992142246413 0 -0.5 -0.29994992142246413 0 -0.47500039289546658 -0.31020471509886438 0 -0.48449799742461369 -0.32559388093007879 0 -0.48206566217123981 -0.28411157568929041 0 -0.5 -0.29994992142246413 0 -0.47500039289546658 -0.31020471509886438 0 -0.47500039289546658 -0.31020471509886438 0 -0.46124020023695528 -0.29578579194820781 0 -0.45316250226836269 -0.32434291546673277 0 -0.44942813349220723 -0.27880629466569101 0 -0.43794260223896009 -0.30461680372279909 0 -0.4311345914808708 -0.27270177138623442 0 -0.46124020023695528 -0.29578579194820781 0 -0.45316250226836269 -0.32434291546673277 0 -0.46931789820554792 -0.26722866842968263 0 -0.46124020023695528 -0.29578579194820781 0 -0.44942813349220723 -0.27880629466569101 0 -0.46124020023695528 -0.29578579194820781 0 -0.43794260223896009 -0.30461680372279909 0 -0.46124020
[...]
<PointData Scalars="" Vectors="displacement," Tensors="">
<DataArray type="Float64" Name="displacement" NumberOfComponents="3" format="ascii">
1.7960920514718819e-08 -0.049996316671456743 0 -5.0444967556559111e-05 -0.045271555830644905 0 -5.7195140794021589e-07 -0.042609217742982146 0 1.7960920514718819e-08 -0.049996316671456743 0 -3.882136652754776e-05 -0.047722187845701175 0 -6.7930755513243666e-07 -0.04999488826250028 0 1.7960920514718819e-08 -0.049996316671456743 0 -3.882136652754776e-05 -0.047722187845701175 0 -5.0444967556559111e-05 -0.045271555830644905 0 -3.882136652754776e-05 -0.047722187845701175 0 -5.0444967556559111e-05 -0.045271555830644905 0 0.00021729129169043051 -0.046475364040002513 0 -5.0444967556559111e-05 -0.045271555830644905 0 -7.217798635556742e-06 -0.045163206151849836 0 0.00021729129169043051 -0.046475364040002513 0 -5.0444967556559111e-05 -0.045271555830644905 0 -5.7195140794021589e-07 -0.042609217742982146 0 -0.00030802071534979806 -0.041680444854278832 0 -0.00030802071534979806 -0.041680444854278832 0 -0.00027067079187924044 -0.039454599918003722 0 -1.0458140923755565e-06 -0.037114103881080135 0 -5.7195140794021589e-07 -0.042609217742982146 0 -0.00030802071534979806 -0.041680444854278832 0 -1.0458140923755565e-06 -0.037114103881080135 0 -0.00027067079187924044 -0.039454599918003722 0 -0.00030433610045104282 -0.04064983776799283 0 -0.00070804893158908969 -0.041202833758566558 0 -0.00030802071534979806 -0.041680444854278832 0 -0.00027067079187924044 -0.039454599918003722 0 -0.00070804893158908969 -0.041202833758566558 0 -0.00030433610045104282 -0.04064983776799283 0 -0.00070804893158908969 -0.041202833758566558 0 -0.0012680194876012983 -0.040589709538362356 0 -0.0025446974883989509 -0.035658431982252208 0 -0.0012680194876012983 -0.040589709538362356 0 -0.0021856029388833014 -0.038636035542173555 0 -0.0012742795897087583 -0.038099738811825573 0 -0.0011741789116360252 -0.040160420863322131 0 -0.00030802071534979806 -0.041680444854278832 0 -0.00070804893158908969 -0.041202833758566558 0 0.00014611753236136752 -0.043347117720075976 0 -5.0444967556559111e-05 -0.045271555830644905 0 -0.00030802071534979806 -0.041680444854278832 0 0.00014611753236136752 -0.043347117720075976 0 -0.00070804893158908969 -0.041202833758566558 0 -0.0012680194876012983 -0.040589709538362356 0 0.00014611753236136752 -0.043347117720075976 0 -5.0444967556559111e-05 -0.045271555830644905 0 0.00014611753236136752 -0.043347117720075976 0 -7.217798635556742e-06 -0.045163206151849836 0 -7.217798635556742e-06 -0.045163206151849836 0 4.3620508223413046e-05 -0.044970736869119635 0 2.3891385320374273e-05 -0.045311978390455344 0 0.00014611753236136752 -0.043347117720075976 0 -7.217798635556742e-06 -0.045163206151849836 0 4.3620508223413046e-05 -0.044970736869119635 0 -0.0012680194876012983 -0.040589709538362356 0 0.00014611753236136752 -0.043347117720075976 0 -0.0010973715232737509 -0.03882585529337991 0 0.00014611753236136752 -0.043347117720075976 0 4.3620508223413046e-05 -0.044970736869119635 0 0.00030453595727167234 -0.044958413668802592 0 -4.844398719025677e-05 -0.042910589287475195 0 -0.00031067025464146566 -0.042211943056516897 0 4.3620508223413046e-05 -0.044970736869119635 0 3.4747639074629145e-05 -0.045025630256836272 0 2.3891385320374273e-05 -0.045311978390455344 0 4.3620508223413046e-05 -0.044970736869119635 0 3.4747639074629145e-05 -0.045025630256836272 0 0.00030453595727167234 -0.044958413668802592 0 -0.0025446974883989509 -0.035658431982252208 0 -0.0021856029388833014 -0.038636035542173555 0 -0.0018869407228629053 -0.038289334054382618 0 -0.0012680194876012983 -0.040589709538362356 0 -0.0021856029388833014 -0.038636035542173555 0 -0.0010973715232737509 -0.03882585529337991 0 -0.0021856029388833014 -0.038636035542173555 0 -0.0010973715232737509 -0.03882585529337991 0 -0.0020288945815683562 -0.038147731020987848 0 -0.00031067025464146566 -0.042211943056516897 0 -0.0017019531704013519 -0.040078549379886794 0 3.4747639074629145e-05 -0.045025630256836272 0 0.00030453595727167234 -0.044958413668802592 0 -0.00013374926820370264 -0.044960362097948799 0 -0.0051923362367510984 -0.034992002586586697 0 -0.003083013408623722 -0.033274894407086232 0 -0.0029048893483686221 -0.034896405014825112 0 -0.0017019531704013519 -0.040078549379886794 0 -0.0025888276130933753 -0.035389673392801947 0 -0.0021856029388833014 -0.038636035542173555 0 -0.0020288945815683562 -0.038147731020987848 0 -0.0018869407228629053 -0.038289334054382618 0 -0.0051923362367510984 -0.034992002586586697 0 -0.0038081060540962322 -0.036561525628313732 0 -0.0029048893483686221 -0.034896405014825112 0 -0.00060862545746556815 -0.041657379058864935 0 -0.00103615404849002 -0.041199840927085861 0 -0.00048033195958733398 -0.041249780955381794 0 -0.0017019531704013519 -0.040078549379886794 0 -0.0025847004292550097 -0.038586553116483256 0 -0.00060862545746556815 -0.041657379058864935 0 -0.00048033195958733398 -0.041249780955381794 0 -0.00031597226639696973 -0.041724234528299306 0 3.4747639074629145e-05 -0.045025630256836272 0 -0.00013374926820370264 -0.044960362097948799 0 -0.00020340857156065639 -0.044692958024420429 0 -0.0017019531704013519 -0.040078549379886794 0 -0.00013782463036158757 -0.043623015247784606 0 -0.00029578228141083818 -0.042152277307938177 0 -0.00048033195958733398 -0.041249780955381794 0 -0.00063436288488120344 -0.041050773758064624 0 -0.00029578228141083818 -0.042152277307938177 0 -0.00048033195958733398 -0.041249780955381794 0 -0.00031597226639696973 -0.041724234528299306 0 -0.00048033195958733398 -0.041249780955381794 0 -0.00096050007619932949 -0.040249317078967652 0 -0.00063436288488120344 -0.041050773758064624 0 -0.00103615404849002 -0.041199840927085861 0 -0.00048033195958733398 -0.041249780955381794 0 -0.00096050007619932949 -0.040249317078967652 0 2.3891385320374273e-05 -0.045311978390455344 0 2.1999518390085575e-05 -0.043877308587965527 0 0.00055606252100191226 -0.044944831456612502 0 2.3891385320374273e-05 -0.045311978390455344 0 -0.00020340857156065639 -0.044692958024420429 0 2.1999518390085575e-05 -0.043877308587965527 0 3.4747639074629145e-05 -0.045025630256836272 0 2.3891385320374273e-05 -0.045311978390455344 0 -0.00020340857156065639 -0.044692958024420429 0 -0.00013782463036158757 -0.043623015247784606 0 7.8781295877659846e-05 -0.043543268957145768 0 -0.00029578228141083818 -0.042152277307938177 0 -0.00031597226639696973 -0.041724234528299306 0 2.1999518390085575e-05 -0.043877308587965527 0 2.1999518390085575e-05 -0.043877308587965527 0 0.00055606252100191226 -0.044944831456612502 0 0.00038084892899489055 -0.044478461335380373 0 0.00055606252100191226 -0.044944831456612502 0 0.0008530905815987115 -0.045366274951469436 0 0.0007172670143328054 -0.045459238455004089 0 0.00055606252100191226 -0.044944831456612502 0 0.0007172670143328054 -0.045459238455004089 0 0.00074936687257212535 -0.045496704053552273 0 0.0008530905815987115 -0.045366274951469436 0 0.0007172670143328054 -0.045459238455004089 0 0.00019844811018964251 -0.045949291671916984 0 6.400874070426042e-05 -0.049973336873779625 0 6.9269619389990293e-08 -0.050000253986756824 0 9.3381787134190187e-06 -0.049558823890474016 0 0.00038292720460893215 -0.047181021875869915 0 0.00020984201967581926 -0.047969448590546027 0 7.6684801441469721e-05 -0.04894615068361393 0 6.400874070426042e-05 -0.049973336873779625 0 9.3381787134190187e-06 -0.049558823890474016 0 6.9269619389990293e-08 -0.050000253986756824 0 9.3381787134190187e-06 -0.049558823890474016 0 -6.7930755513243666e-07 -0.04999488826250028 0 -3.882136652754776e-05 -0.047722187845701175 0 7.6684801441469721e-05 -0.04894615068361393 0 -6.7930755513243666e-07 -0.04999488826250028 0 7.6684801441469721e-05 -0.04894615068361393 0 9.3381787134190187e-06 -0.049558823890474016 0 -6.7930755513243666e-07 -0.04999488826250028 0 -3.882136652754776e-05 -0.047722187845701175 0 7.6684801441469721e-05 -0.04894615068361393 0 0.00021729129169043051 -0.046475364040002513 0 2.3891385320374273e-05 -0.045311978390455344 0 0.00055606252100191226 -0.044944831456612502 0 0.00021729129169043051 -0.046475364040002513 0 0.00055606252100191226 -0.044944831456612502 0 0.0008530905815987115 -0.045366274951469436 0 0.00021729129169043051 -0.046475364040002513 0 -7.217798635556742e-06 -0.045163206151849836 0 2.3891385320374273e-05 -0.045311978390455344 0 0.00021729129169043051 -0.046475364040002513 0 0.00038292720460893215 -0.047181021875869915 0 0.00026200620940697268 -0.046590329268409843 0 0.0010507453445877265 -0.027453285337093659 0 0.00069523070929378573 -0.026914858961444486 0 0.0012071208211430202 -0.024853429125381694 0 0.0010507453445877265 -0.027453285337093659 0 0.0006943314901543486 -0.028712993606468298 0 0.00092932110258155836 -0.029340944015414885 0 0.0006943314901543486 -0.028712993606468298 0 0.00069523070929378573 -0.026914858961444486 0 0.00043050484648920643 -0.029116725892116894 0 0.0010507453445877265 -0.027453285337093659 0 0.0006943314901543486 -0.028712993606468298 0 0.00069523070929378573 -0.026914858961444486 0 0.00033199647294567355 -0.027135256759838074 0 0.00070199913780950775 -0.024998138296169023 0 0.00010124297480652485 -0.025935221580638965 0 -2.2703720134559578e-05 -0.027557880507337065 0 0.00067336262407519912 -0.024608934935841324 0 0.00010124297480652485 -0.025935221580638965 0 -4.3603775740625928e-07 -0.027134841063124814 0 7.6276697625217948e-07 -0.024272261997551996 0 0.00010124297480652485 -0.025935221580638965 0 -4.3603775740625928e-07 -0.027134841063124814 0 -0.000103000737789713 -0.028349784658061795 0 0.00010124297480652485 -0.025935221580638965 0 -2.2703720134559578e-05 -0.027557880507337065 0 -0.000103000737789713 -0.028349784658061795 0 -0.000103000737789713 -0.028349784658061795 0 0.0001680179942765082 -0.029684989015288012 0 0.00015051881065906682 -0.029340278510151377 0 -2.2703720134559578e-05 -0.027557880507337065 0 -0.000103000737789713 -0.028349784658061795 0 0.00015051881065906682 -0.029340278510151377 0 -4.3603775740625928e-07 -0.027134841063124814 0 -0.000103000737789713 -0.028349784658061795 0 4.5276676977049206e-07 -0.029990397927640272 0 4.5276676977049206e-07 -0.029990397927640272 0 0.0001680179942765082 -0.029684989015288012 0 0.00011642122950532507 -0.029920014186848413 0 -0.000103000737789713 -0.028349784658061795 0 4.5276676977049206e-07 -0.029990397927640272 0 0.0001680179942765082 -0.029684989015288012 0 0.0001680179942765082 -0.029684989015288012 0 0.00015051881065906682 -0.029340278510151377 0 2.9788679036112353e-05 -0.031139827819478088 0 0.0006943314901543486 -0.028712993606468298 0 0.00049061499051565604 -0.030667332007702379 0 0.00092932110258155836 -0.029340944015414885 0 0.00029675270826500226 -0.029270238267907027 0 -2.7955508120544471e-06 -0.030869378274709983 0 0.00033199647294567355 -0.027135256759838074 0 0.00029675270826500226 -0.029270238267907027 0 0.0006943314901543486 -0.028712993606468298 0 0.00043050484648920643 -0.029116725892116894 0 0.00049061499051565604 -0.030667332007702379 0 0.00043050484648920643 -0.029116725892116894 0 0.00049061499051565604 -0.030667332007702379 0 2.9788679036112353e-05 -0.031139827819478088 0 3.015467987069963e-06 -0.030000137295545137 0 0.00030048597737601163 -0.034130489176057266 0 -1.0458140923755565e-06 -0.037114103881080135 0 0.00049061499051565604 -0.030667332007702379 0 -0.00014539551793491773 -0.031858275368016352 0 2.9788679036112353e-05 -0.031139827819478088 0 -0.00014539551793491773 -0.031858275368016352 0 -7.5297650121207581e-05 -0.032131351872148002 0 -0.0012437434811206061 -0.03208263003297461 0 -0.00014539551793491773 -0.031858275368016352 0 -7.5297650121207581e-05 -0.032131351872148002 0 2.9788679036112353e-05 -0.031139827819478088 0 -7.5297650121207581e-05 -0.032131351872148002 0 -1.8250672771243466e-05 -0.030879666454144347 0 2.9788679036112353e-05 -0.031139827819478088 0 -7.5297650121207581e-05 -0.032131351872148002 0 -1.8250672771243466e-05 -0.030879666454144347 0 -0.0008280202182198125 -0.031667648048857265 0 0.0001680179942765082 -0.029684989015288012 0 -1.8250672771243466e-05 -0.030879666454144347 0 2.9788679036112353e-05 -0.031139827819478088 0 0.0001680179942765082 -0.029684989015288012 0 -1.8250672771243466e-05 -0.030879666454144347 0 0.00011642122950532507 -0.029920014186848413 0 -3.1999911372650849e-07 -0.029995895487987256 0 6.4624177335928016e-05 -0.032128244801370887 0 6.4624177335928016e-05 -0.032128244801370887 0 -0.00028387688925728951 -0.034747688231827396 0 -1.8250672771243466e-05 -0.030879666454144347 0 0.00011642122950532507 -0.029920014186848413 0 -0.0008280202182198125 -0.031667648048857265 0 0.00030048597737601163 -0.034130489176057266 0 0.00036391603806679786 -0.037733745241024304 0 -1.0458140923755565e-06 -0.037114103881080135 0 -0.00027067079187924044 -0.039454599918003722 0 0.00036391603806679786 -0.037733745241024304 0 -1.0458140923755565e-06 -0.037114103881080135 0 -0.0012742795897087583 -0.038099738811825573 0 -0.00028387688925728951 -0.034747688231827396 0 -0.00027067079187924044 -0.039454599918003722 0 -0.00030433610045104282 -0.04064983776799283 0 0.00036391603806679786 -0.037733745241024304 0 -0.0025446974883989509 -0.035658431982252208 0 -0.0008280202182198125 -0.031667648048857265 0 -0.0010062117466024896 -0.033837659586172165 0 -7.5297650121207581e-05 -0.032131351872148002 0 -0.0008280202182198125 -0.031667648048857265 0 -0.0010062117466024896 -0.033837659586172165 0 -0.00019669504897805508 -0.032489412566340699 0 -0.0011804184014663356 -0.034106804487824161 0 -7.5297650121207581e-05 -0.032131351872148002 0 -0.0010062117466024896 -0.033837659586172165 0 -0.00082995016585352556 -0.035981362815177886 0 -0.0025446974883989509 -0.035658431982252208 0 -0.0010062117466024896 -0.033837659586172165 0 -0.00082995016585352556 -0.035981362815177886 0 -0.0025446974883989509 -0.035658431982252208 0 -0.0018869407228629053 -0.038289334054382618 0 -0.00082995016585352556 -0.035981362815177886 0 -0.0025888276130933753 -0.035389673392801947 0 -0.0011804184014663356 -0.034106804487824161 0 -0.00014539551793491773 -0.031858275368016352 0 -0.0012437434811206061 -0.03208263003297461 0 -0.0010841990576876677 -0.033276193663528401 0 -0.003083013408623722 -0.033274894407086232 0 -0.0012437434811206061 -0.03208263003297461 0 -0.0010841990576876677 -0.033276193663528401 0 -0.0010841990576876677 -0.033276193663528401 0 -0.0011879523733241116 -0.035862926258654317 0 -0.00034844593783410976 -0.034167554268321181 0 -0.0010841990576876677 -0.033276193663528401 0 -0.0029048893483686221 -0.034896405014825112 0 -0.0011879523733241116 -0.035862926258654317 0 -0.003083013408623722 -0.033274894407086232 0 -0.0010841990576876677 -0.033276193663528401 0 -0.0029048893483686221 -0.034896405014825112 0 -0.0038081060540962322 -0.036561525628313732 0 -0.0029048893483686221 -0.034896405014825112 0 -0.0011879523733241116 -0.035862926258654317 0 -0.0038081060540962322 -0.036561525628313732 0 -0.001804435260936759 -0.038832354364033837 0 -0.0011879523733241116 -0.035862926258654317 0 -0.00103615404849002 -0.041199840927085861 0 -0.00096050007619932949 -0.040249317078967652 0 -0.001804435260936759 -0.038832354364033837 0 -0.0025847004292550097 -0.038586553116483256 0 -0.0018040085451214998 -0.039073893183987657 0 -0.00096050007619932949 -0.040249317078967652 0 -0.001804435260936759 -0.038832354364033837 0 -0.0010575527065726747 -0.039926787457789138 0 -0.00062504054507626363 -0.037880249435857778 0 -0.0011879523733241116 -0.035862926258654317 0 -7.3734410641388944e-05 -0.03575839965425865 0 -0.001804435260936759 -0.038832354364033837 0 -0.00062504054507626363 -0.037880249435857778 0 -0.00080118997469731505 -0.039177441433620543 0 -0.001804435260936759 -0.038832354364033837 0 -0.00062504054507626363 -0.037880249435857778 0 -0.0011879523733241116 -0.035862926258654317 0 -0.0011879523733241116 -0.035862926258654317 0 -7.3734410641388944e-05 -0.03575839965425865 0 -0.00034844593783410976 -0.034167554268321181 0 -7.3734410641388944e-05 -0.03575839965425865 0 0.00033091035859821873 -0.033982121253060625 0 -0.00034844593783410976 -0.034167554268321181 0 -0.00062504054507626363 -0.037880249435857778 0 -7.3734410641388944e-05 -0.03575839965425865 0 5.0635117191488216e-05 -0.03753138796434391 0 -7.3734410641388944e-05 -0.03575839965425865 0 0.0006137812550574993 -0.035965215042262411 0 5.0635117191488216e-05 -0.03753138796434391 0 0.0006137812550574993 -0.035965215042262411 0 0.0013432873193012283 -0.036549292066241836 0 0.00066118946842247004 -0.037146190347773757 0 0.0006137812550574993 -0.035965215042262411 0 0.00066118946842247004 -0.037146190347773757 0 5.0635117191488216e-05 -0.03753138796434391 0 0.0006137812550574993 -0.035965215042262411 0 0.00033091035859821873 -0.033982121253060625 0 0.0013742787610375351 -0.035005392410133243 0 -7.3734410641388944e-05 -0.03575839965425865 0 0.0006137812550574993 -0.035965215042262411 0 0.00033091035859821873 -0.033982121253060625 0 0.00033091035859821873 -0.033982121253060625 0 0.00010292909638981725 -0.0325135483377176 0 0.0010439231647485548 -0.032380430029684285 0 0.00033091035859821873 -0.033982121253060625 0 -0.00034844593783410976 -0.034167554268321181 0 0.00010292909638981725 -0.0325135483377176 0 -0.0010841990576876677 -0.033276193663528401 0 -0.00034844593783410976 -0.034167554268321181 0 0.00010292909638981725 -0.0325135483377176 0 -0.00014539551793491773 -0.031858275368016352 0 -0.0010841990576876677 -0.033276193663528401 0 0.00010292909638981725 -0.0325135483377176 0 0.00049061499051565604 -0.030667332007702379 0 -0.00014539551793491773 -0.031858275368016352 0 0.00010292909638981725 -0.0325135483377176 0 0.00049061499051565604 -0.030667332007702379 0 0.00087896681314120217 -0.030768451283883839 0 0.00092932110258155836 -0.029340944015414885 0 0.00049061499051565604 -0.030667332007702379 0 0.00010292909638981725 -0.0325135483377176 0 0.0010439231647485548 -0.032380430029684285 0 0.00087896681314120217 -0.030768451283883839 0 0.0010439231647485548 -0.032380430029684285 0 0.00066014767856232344 -0.030580705195815149 0 0.00049061499051565604 -0.030667332007702379 0 0.00087896681314120217 -0.030768451283883839 0 0.0010439231647485548 -0.032380430029684285 0 0.00033091035859821873 -0.033982121253060625 0 0.0010439231647485548 -0.032380430029684285 0 0.0013742787610375351 -0.035005392410133243 0 0.0006137812550574993 -0.035965215042262411 0 0.0013742787610375351 -0.035005392410133243 0 0.0013432873193012283 -0.036549292066241836 0 0.0013742787610375351 -0.035005392410133243 0 0.0022462519496446228 -0.035938087072453252 0 0.0013432873193012283 -0.036549292066241836 0 0.0013742787610375351 -0.035005392410133243 0 0.0022462519496446228 -0.035938087072453252 0 0.0029112137086457312 -0.034627418487840247 0 0.00099259846968813813 -0.032297707397087046 0 0.0016832467881586616 -0.032613786397771981 0 0.0010439231647485548 -0.032380430029684285 0 0.0013742787610375351 -0.035005392410133243 0 0.0029112137086457312 -0.034627418487840247 0 0.00066014767856232344 -0.030580705195815149 0 0.0010633343229810794 -0.031406510329355486 0 0.00099784243393628174 -0.029754453439597026 0 0.0022462519496446228 -0.035938087072453252 0 0.0029112137086457312 -0.034627418487840247 0 0.0029784489045777567 -0.035890177493242151 0 0.0029112137086457312 -0.034627418487840247 0 0.0034594797222522603 -0.035282929670794341 0 0.0029784489045777567 -0.035890177493242151 0 0.0016832467881586616 -0.032613786397771981 0 0.0023969499150132073 -0.033394515465105072 0 0.0010633343229810794 -0.031406510329355486 0 0.00099784243393628174 -0.029754453439597026 0 0.0021260461765806897 -0.028658019427745644 0 0.00099784243393628174 -0.029754453439597026 0 0.0014010329074410713 -0.028721543248913808 0 0.0021260461765806897 -0.028658019427745644 0 0.00087896681314120217 -0.030768451283883839 0 0.00066014767856232344 -0.030580705195815149 0 0.00099784243393628174 -0.029754453439597026 0 0.00087896681314120217 -0.030768451283883839 0 0.00099784243393628174 -0.0297