<?xml version="1.0"?>
<VTKFile type="UnstructuredGrid" version="0.1" byte_order="LittleEndian">
<UnstructuredGrid>
<Piece NumberOfPoints="30373" NumberOfCells="10636">
<Points>
<DataArray type="Float64" NumberOfComponents="3" format="ascii">
-0.5 -0.5 0 -0.46278456118020223 -0.44637144598679751 0 -0.5 -0.42607079982994822 0 -0.5 -0.5 0 -0.4479631167738985 -0.47297268902557738 0 -0.43502217802224769 -0.5 0 -0.5 -0.5 0 -0.4479631167738985 -0.47297268902557738 0 -0.46278456118020223 -0.44637144598679751 0 -0.4479631167738985 -0.47297268902557738 0 -0.46278456118020223 -0.44637144598679751 0 -0.42782777685741952 -0.45078008844047351 0 -0.46278456118020223 -0.44637144598679751 0 -0.43347295005853198 -0.43476351387268802 0 -0.42782777685741952 -0.45078008844047351 0 -0.46278456118020223 -0.44637144598679751 0 -0.5 -0.42607079982994822 0 -0.47365860001851318 -0.40630807802558128 0 -0.47365860001851318 -0.40630807802558128 0 -0.47217513539997258 -0.37829579255265661 0 -0.5 -0.37112861530310493 0 -0.5 -0.42607079982994822 0 -0.47365860001851318 -0.40630807802558128 0 -0.5 -0.37112861530310493 0 -0.47217513539997258 -0.37829579255265661 0 -0.45349399227384118 -0.37688179994530813 0 -0.45573694165166168 -0.39574521214284852 0 -0.47365860001851318 -0.40630807802558128 0 -0.47217513539997258 -0.37829579255265661 0 -0.45573694165166168 -0.39574521214284852 0 -0.45349399227384118 -0.37688179994530813 0 -0.45573694165166168 -0.39574521214284852 0 -0.43799198969845488 -0.40252575945292279 0 -0.45349399227384118 -0.37688179994530813 0 -0.43799198969845488 -0.40252575945292279 0 -0.42886743220162538 -0.38805454875715423 0 -0.45349399227384118 -0.37688179994530813 0 -0.43799198969845488 -0.40252575945292279 0 -0.47365860001851318 -0.40630807802558128 0 -0.45573694165166168 -0.39574521214284852 0 -0.44138028287558101 -0.42067945548406971 0 -0.46278456118020223 -0.44637144598679751 0 -0.47365860001851318 -0.40630807802558128 0 -0.44138028287558101 -0.42067945548406971 0 -0.45573694165166168 -0.39574521214284852 0 -0.43799198969845488 -0.40252575945292279 0 -0.44138028287558101 -0.42067945548406971 0 -0.46278456118020223 -0.44637144598679751 0 -0.44138028287558101 -0.42067945548406971 0 -0.43347295005853198 -0.43476351387268802 0 -0.43347295005853198 -0.43476351387268802 0 -0.42423649397438318 -0.42027744992904709 0 -0.40934105195935427 -0.42840806868173442 0 -0.44138028287558101 -0.42067945548406971 0 -0.43347295005853198 -0.43476351387268802 0 -0.42423649397438318 -0.42027744992904709 0 -0.43799198969845488 -0.40252575945292279 0 -0.44138028287558101 -0.42067945548406971 0 -0.42447023570108172 -0.40465014875698918 0 -0.44138028287558101 -0.42067945548406971 0 -0.42423649397438318 -0.42027744992904709 0 -0.42447023570108172 -0.40465014875698918 0 -0.44138028287558101 -0.42067945548406971 0 -0.42447023570108172 -0.40465014875698918 0 -0.42423649397438318 -0.42027744992904709 0 -0.41006287890344301 -0.40737198014234638 0 -0.40934105195935427 -0.42840806868173442 0 -0.42423649397438318 -0.42027744992904709 0 -0.41006287890344301 -0.40737198014234638 0 -0.42447023570108172 -0.40465014875698918 0 -0.45349399227384118 -0.37688179994530813 0 -0.42886743220162538 -0.38805454875715423 0 -0.42208380192111561 -0.3713732453350983 0 -0.43799198969845488 -0.40252575945292279 0 -0.42886743220162538 -0.38805454875715423 0 -0.42447023570108172 -0.40465014875698918 0 -0.42886743220162538 -0.38805454875715423 0 -0.42447023570108172 -0.40465014875698918 0 -0.40756018852658238 -0.38862084202990871 0 -0.42447023570108172 -0.40465014875698918 0 -0.40756018852658238 -0.38862084202990871 0 -0.41006287890344301 -0.40737198014234638 0 -0.42447023570108172 -0.40465014875698918 0 -0.40756018852658238 -0.38862084202990871 0 -0.40756018852658238 -0.38862084202990871 0 -0.42208380192111561 -0.3713732453350983 0 -0.40769940833800511 -0.36936762560483061 0 -0.40756018852658238 -0.38862084202990871 0 -0.42208380192111561 -0.3713732453350983 0 -0.42886743220162538 -0.38805454875715423 0 -0.40756018852658238 -0.38862084202990871 0 -0.42208380192111561 -0.3713732453350983 0 -0.40756018852658238 -0.38862084202990871 0 -0.39540392860697449 -0.37709772699097732 0 -0.40769940833800511 -0.36936762560483061 0 -0.40756018852658238 -0.38862084202990871 0 -0.39540392860697449 -0.37709772699097732 0 -0.38758169734643189 -0.3909844534486191 0 -0.40756018852658238 -0.38862084202990871 0 -0.39540392860697449 -0.37709772699097732 0 -0.40756018852658238 -0.38862084202990871 0 -0.38758169734643189 -0.3909844534486191 0 -0.39237573569118211 -0.4066532222249698 0 -0.41006287890344301 -0.40737198014234638 0 -0.40756018852658238 -0.38862084202990871 0 -0.39237573569118211 -0.4066532222249698 0 -0.40756018852658238 -0.38862084202990871 0 -0.39237573569118211 -0.4066532222249698 0 -0.37686886400322728 -0.40435096115169189 0 -0.38758169734643189 -0.3909844534486191 0 -0.37184907483835877 -0.38939705677335812 0 -0.37686886400322728 -0.40435096115169189 0 -0.38758169734643189 -0.3909844534486191 0 -0.39237573569118211 -0.4066532222249698 0 -0.38758169734643189 -0.3909844534486191 0 -0.38164725830613899 -0.37914075032936601 0 -0.37184907483835877 -0.38939705677335812 0 -0.39540392860697449 -0.37709772699097732 0 -0.38758169734643189 -0.3909844534486191 0 -0.38164725830613899 -0.37914075032936601 0 -0.40934105195935427 -0.42840806868173442 0 -0.37719128285578268 -0.42468560242003139 0 -0.39070796240371652 -0.44565500202714498 0 -0.40934105195935427 -0.42840806868173442 0 -0.39237573569118211 -0.4066532222249698 0 -0.37719128285578268 -0.42468560242003139 0 -0.41006287890344301 -0.40737198014234638 0 -0.40934105195935427 -0.42840806868173442 0 -0.39237573569118211 -0.4066532222249698 0 -0.39237573569118211 -0.4066532222249698 0 -0.37719128285578268 -0.42468560242003139 0 -0.37686886400322728 -0.40435096115169189 0 -0.39237573569118211 -0.4066532222249698 0 -0.37719128285578268 -0.42468560242003139 0 -0.37719128285578268 -0.42468560242003139 0 -0.39070796240371652 -0.44565500202714498 0 -0.36551663301697418 -0.4373224669429574 0 -0.39070796240371652 -0.44565500202714498 0 -0.40330959819850781 -0.46718672562698232 0 -0.38393187030959491 -0.46475190734764837 0 -0.39070796240371652 -0.44565500202714498 0 -0.38393187030959491 -0.46475190734764837 0 -0.36735324222862981 -0.45442845011941468 0 -0.40330959819850781 -0.46718672562698232 0 -0.38393187030959491 -0.46475190734764837 0 -0.37879141953959611 -0.48359336281349108 0 -0.37879141953959611 -0.48359336281349108 0 -0.38812413330218692 -0.5 0 -0.39690905294185502 -0.48414508820793589 0 -0.40330959819850781 -0.46718672562698232 0 -0.37879141953959611 -0.48359336281349108 0 -0.40330959819850781 -0.46718672562698232 0 -0.37879141953959611 -0.48359336281349108 0 -0.39690905294185502 -0.48414508820793589 0 -0.38812413330218692 -0.5 0 -0.39690905294185502 -0.48414508820793589 0 -0.43502217802224769 -0.5 0 -0.4479631167738985 -0.47297268902557738 0 -0.40330959819850781 -0.46718672562698232 0 -0.43502217802224769 -0.5 0 -0.40330959819850781 -0.46718672562698232 0 -0.39690905294185502 -0.48414508820793589 0 -0.43502217802224769 -0.5 0 -0.4479631167738985 -0.47297268902557738 0 -0.40330959819850781 -0.46718672562698232 0 -0.42782777685741952 -0.45078008844047351 0 -0.40934105195935427 -0.42840806868173442 0 -0.39070796240371652 -0.44565500202714498 0 -0.42782777685741952 -0.45078008844047351 0 -0.39070796240371652 -0.44565500202714498 0 -0.40330959819850781 -0.46718672562698232 0 -0.42782777685741952 -0.45078008844047351 0 -0.43347295005853198 -0.43476351387268802 0 -0.40934105195935427 -0.42840806868173442 0 -0.42782777685741952 -0.45078008844047351 0 -0.40330959819850781 -0.46718672562698232 0 -0.42782777685741952 -0.45078008844047351 0 -0.44750537529870138 -0.25369843784153162 0 -0.46931789820554792 -0.26722866842968263 0 -0.46266564730582838 -0.2355681196285522 0 -0.44750537529870138 -0.25369843784153162 0 -0.44942813349220723 -0.27880629466569101 0 -0.4311345914808708 -0.27270177138623442 0 -0.44942813349220723 -0.27880629466569101 0 -0.46931789820554792 -0.26722866842968263 0 -0.46124020023695528 -0.29578579194820781 0 -0.44750537529870138 -0.25369843784153162 0 -0.44942813349220723 -0.27880629466569101 0 -0.46931789820554792 -0.26722866842968263 0 -0.46931789820554792 -0.26722866842968263 0 -0.47739559617414051 -0.2386715449111575 0 -0.4858679574491267 -0.25648904075215551 0 -0.46931789820554792 -0.26722866842968263 0 -0.47739559617414051 -0.2386715449111575 0 -0.4858679574491267 -0.25648904075215551 0 -0.5 -0.27133599655986701 0 -0.5 -0.24272207169726981 0 -0.4858679574491267 -0.25648904075215551 0 -0.5 -0.27133599655986701 0 -0.48206566217123981 -0.28411157568929041 0 -0.4858679574491267 -0.25648904075215551 0 -0.46931789820554792 -0.26722866842968263 0 -0.48206566217123981 -0.28411157568929041 0 -0.48206566217123981 -0.28411157568929041 0 -0.47500039289546658 -0.31020471509886438 0 -0.46124020023695528 -0.29578579194820781 0 -0.46931789820554792 -0.26722866842968263 0 -0.48206566217123981 -0.28411157568929041 0 -0.46124020023695528 -0.29578579194820781 0 -0.5 -0.27133599655986701 0 -0.48206566217123981 -0.28411157568929041 0 -0.5 -0.29994992142246413 0 -0.5 -0.29994992142246413 0 -0.47500039289546658 -0.31020471509886438 0 -0.48449799742461369 -0.32559388093007879 0 -0.48206566217123981 -0.28411157568929041 0 -0.5 -0.29994992142246413 0 -0.47500039289546658 -0.31020471509886438 0 -0.47500039289546658 -0.31020471509886438 0 -0.46124020023695528 -0.29578579194820781 0 -0.45316250226836269 -0.32434291546673277 0 -0.44942813349220723 -0.27880629466569101 0 -0.43794260223896009 -0.30461680372279909 0 -0.4311345914808708 -0.27270177138623442 0 -0.46124020023695528 -0.29578579194820781 0 -0.45316250226836269 -0.32434291546673277 0 -0.46931789820554792 -0.26722866842968263 0 -0.46124020023695528 -0.29578579194820781 0 -0.44942813349220723 -0.27880629466569101 0 -0.46124020023695528 -0.29578579194820781 0 -0.43794260223896009 -0.30461680372279909 0 -0.46124020
[...]
<PointData Scalars="" Vectors="displacement," Tensors="">
<DataArray type="Float64" Name="displacement" NumberOfComponents="3" format="ascii">
-0.04999602786010604 -1.5492936079795028e-07 0 -0.047186524289985508 -0.00027740175173208704 0 -0.049995174092736232 -6.6684064974266216e-07 0 -0.04999602786010604 -1.5492936079795028e-07 0 -0.045646129910472212 -0.00027510863374787474 0 -0.043504510278913659 -1.2252541915494168e-06 0 -0.04999602786010604 -1.5492936079795028e-07 0 -0.045646129910472212 -0.00027510863374787474 0 -0.047186524289985508 -0.00027740175173208704 0 -0.045646129910472212 -0.00027510863374787474 0 -0.047186524289985508 -0.00027740175173208704 0 -0.044544343301183502 -0.00044266085907737163 0 -0.047186524289985508 -0.00027740175173208704 0 -0.045389928750430103 -0.00027583187206463414 0 -0.044544343301183502 -0.00044266085907737163 0 -0.047186524289985508 -0.00027740175173208704 0 -0.049995174092736232 -6.6684064974266216e-07 0 -0.048881385914596689 -0.00025906837244367577 0 -0.048881385914596689 -0.00025906837244367577 0 -0.049492784007266984 -6.3535510925293563e-05 0 -0.049999803812432735 -4.0225761515050556e-07 0 -0.049995174092736232 -6.6684064974266216e-07 0 -0.048881385914596689 -0.00025906837244367577 0 -0.049999803812432735 -4.0225761515050556e-07 0 -0.049492784007266984 -6.3535510925293563e-05 0 -0.049433743028145197 0.00022394548667791921 0 -0.048607809040929581 -9.1817587990043741e-06 0 -0.048881385914596689 -0.00025906837244367577 0 -0.049492784007266984 -6.3535510925293563e-05 0 -0.048607809040929581 -9.1817587990043741e-06 0 -0.049433743028145197 0.00022394548667791921 0 -0.048607809040929581 -9.1817587990043741e-06 0 -0.04774781212560239 0.00043070554287516982 0 -0.047325879128094578 0.00050579616864642265 0 -0.04774781212560239 0.00043070554287516982 0 -0.047539610212349821 0.00042112214110528231 0 -0.048365665629688061 0.00033002279566772953 0 -0.047834480299747233 0.00043595810850751652 0 -0.048881385914596689 -0.00025906837244367577 0 -0.048607809040929581 -9.1817587990043741e-06 0 -0.046385622831413925 8.8174560006403174e-06 0 -0.047186524289985508 -0.00027740175173208704 0 -0.048881385914596689 -0.00025906837244367577 0 -0.046385622831413925 8.8174560006403174e-06 0 -0.048607809040929581 -9.1817587990043741e-06 0 -0.04774781212560239 0.00043070554287516982 0 -0.046385622831413925 8.8174560006403174e-06 0 -0.047186524289985508 -0.00027740175173208704 0 -0.046385622831413925 8.8174560006403174e-06 0 -0.045389928750430103 -0.00027583187206463414 0 -0.045389928750430103 -0.00027583187206463414 0 -0.04487377135204608 -0.00042364854555483085 0 -0.043739885330101348 -0.00056890927537595873 0 -0.046385622831413925 8.8174560006403174e-06 0 -0.045389928750430103 -0.00027583187206463414 0 -0.04487377135204608 -0.00042364854555483085 0 -0.04774781212560239 0.00043070554287516982 0 -0.046385622831413925 8.8174560006403174e-06 0 -0.04765602060727836 0.00063334926342096913 0 -0.046385622831413925 8.8174560006403174e-06 0 -0.04487377135204608 -0.00042364854555483085 0 -0.044274902704094156 -0.00038529596602857833 0 -0.04618129259286393 -5.043948253720952e-05 0 -0.046131752438620811 9.7466620332360476e-05 0 -0.04487377135204608 -0.00042364854555483085 0 -0.044169757021795063 -0.00051248885727566372 0 -0.043739885330101348 -0.00056890927537595873 0 -0.04487377135204608 -0.00042364854555483085 0 -0.044169757021795063 -0.00051248885727566372 0 -0.044274902704094156 -0.00038529596602857833 0 -0.047325879128094578 0.00050579616864642265 0 -0.047539610212349821 0.00042112214110528231 0 -0.047331359625860388 0.0003124310157610227 0 -0.04774781212560239 0.00043070554287516982 0 -0.047539610212349821 0.00042112214110528231 0 -0.04765602060727836 0.00063334926342096913 0 -0.047539610212349821 0.00042112214110528231 0 -0.04765602060727836 0.00063334926342096913 0 -0.047513688473299724 0.00026848748405108907 0 -0.046131752438620811 9.7466620332360476e-05 0 -0.044816040367982209 3.6603581041470026e-05 0 -0.044169757021795063 -0.00051248885727566372 0 -0.044274902704094156 -0.00038529596602857833 0 -0.044264458977797239 -0.00048012853675296019 0 -0.044421499639755148 0.00063716697712827564 0 -0.044845019006365179 0.00038803243174376391 0 -0.044784773960055493 0.00066027533101677399 0 -0.044816040367982209 3.6603581041470026e-05 0 -0.046235360193546106 0.00035007134392193881 0 -0.047539610212349821 0.00042112214110528231 0 -0.047513688473299724 0.00026848748405108907 0 -0.047331359625860388 0.0003124310157610227 0 -0.044421499639755148 0.00063716697712827564 0 -0.044535268451031777 0.00078973435061766223 0 -0.044784773960055493 0.00066027533101677399 0 -0.042581106102762618 -0.00066449590513251058 0 -0.043182255882645688 -0.0001782668464487546 0 -0.042424546425256192 0.00025573647399159739 0 -0.044816040367982209 3.6603581041470026e-05 0 -0.043767149743789126 0.00021750238088371617 0 -0.042581106102762618 -0.00066449590513251058 0 -0.042424546425256192 0.00025573647399159739 0 -0.04185177743604368 0.00016436569597662548 0 -0.044169757021795063 -0.00051248885727566372 0 -0.044264458977797239 -0.00048012853675296019 0 -0.043872169535729713 -0.00020093672705394185 0 -0.044816040367982209 3.6603581041470026e-05 0 -0.042647917589500414 -6.9664506774583848e-05 0 -0.041873300401889038 0.00052550589617209314 0 -0.042424546425256192 0.00025573647399159739 0 -0.042405761906152119 0.00084743393293829452 0 -0.041873300401889038 0.00052550589617209314 0 -0.042424546425256192 0.00025573647399159739 0 -0.04185177743604368 0.00016436569597662548 0 -0.042424546425256192 0.00025573647399159739 0 -0.043062123389966525 0.00060227674703132645 0 -0.042405761906152119 0.00084743393293829452 0 -0.043182255882645688 -0.0001782668464487546 0 -0.042424546425256192 0.00025573647399159739 0 -0.043062123389966525 0.00060227674703132645 0 -0.043739885330101348 -0.00056890927537595873 0 -0.041971958133919254 0.00027159640710139977 0 -0.04174642519387526 -0.00044954831965501212 0 -0.043739885330101348 -0.00056890927537595873 0 -0.043872169535729713 -0.00020093672705394185 0 -0.041971958133919254 0.00027159640710139977 0 -0.044169757021795063 -0.00051248885727566372 0 -0.043739885330101348 -0.00056890927537595873 0 -0.043872169535729713 -0.00020093672705394185 0 -0.042647917589500414 -6.9664506774583848e-05 0 -0.042181444146393222 0.00023484153322429917 0 -0.041873300401889038 0.00052550589617209314 0 -0.04185177743604368 0.00016436569597662548 0 -0.041971958133919254 0.00027159640710139977 0 -0.041971958133919254 0.00027159640710139977 0 -0.04174642519387526 -0.00044954831965501212 0 -0.040956214997844041 0.00041679996796388204 0 -0.04174642519387526 -0.00044954831965501212 0 -0.041031275319096741 -0.00089253008404001084 0 -0.039971688968503234 -0.00056143067230476939 0 -0.04174642519387526 -0.00044954831965501212 0 -0.039971688968503234 -0.00056143067230476939 0 -0.039922072615406062 4.8755595061209532e-05 0 -0.041031275319096741 -0.00089253008404001084 0 -0.039971688968503234 -0.00056143067230476939 0 -0.037953422496106108 -0.00076445086622619685 0 -0.039729252128324823 0.00041773401098826884 0 -0.038813927140576569 3.070170623852392e-07 0 -0.041006657534720652 -2.5042022889516954e-05 0 -0.041882005503108603 -0.00042376396945916162 0 -0.038848855151009644 -0.0002488124522582081 0 -0.042721012999721392 -0.00010329810903329628 0 -0.039729252128324823 0.00041773401098826884 0 -0.041006657534720652 -2.5042022889516954e-05 0 -0.038813927140576569 3.070170623852392e-07 0 -0.041006657534720652 -2.5042022889516954e-05 0 -0.043504510278913659 -1.2252541915494168e-06 0 -0.045646129910472212 -0.00027510863374787474 0 -0.042721012999721392 -0.00010329810903329628 0 -0.043504510278913659 -1.2252541915494168e-06 0 -0.042721012999721392 -0.00010329810903329628 0 -0.041006657534720652 -2.5042022889516954e-05 0 -0.043504510278913659 -1.2252541915494168e-06 0 -0.045646129910472212 -0.00027510863374787474 0 -0.042721012999721392 -0.00010329810903329628 0 -0.044544343301183502 -0.00044266085907737163 0 -0.043739885330101348 -0.00056890927537595873 0 -0.04174642519387526 -0.00044954831965501212 0 -0.044544343301183502 -0.00044266085907737163 0 -0.04174642519387526 -0.00044954831965501212 0 -0.041031275319096741 -0.00089253008404001084 0 -0.044544343301183502 -0.00044266085907737163 0 -0.045389928750430103 -0.00027583187206463414 0 -0.043739885330101348 -0.00056890927537595873 0 -0.044544343301183502 -0.00044266085907737163 0 -0.041882005503108603 -0.00042376396945916162 0 -0.044177664066335762 -0.00051218283685338555 0 -0.048658617915358929 0.00031679171115657902 0 -0.048295445301879562 -0.00028819236505485212 0 -0.049444543085166284 6.8975611747490578e-05 0 -0.048658617915358929 0.00031679171115657902 0 -0.047819111929028588 0.00022020574748748831 0 -0.047951100502948554 0.00058814138644712162 0 -0.047819111929028588 0.00022020574748748831 0 -0.048295445301879562 -0.00028819236505485212 0 -0.04731330043216863 5.0503614527913197e-06 0 -0.048658617915358929 0.00031679171115657902 0 -0.047819111929028588 0.00022020574748748831 0 -0.048295445301879562 -0.00028819236505485212 0 -0.049134846342890622 -6.3513107876639479e-05 0 -0.049555635114794473 -0.00016921641285020238 0 -0.049961064884082279 5.2045466264835019e-06 0 -0.050025250813250988 0.00010207925671641695 0 -0.049612699130693799 -0.0001719238520640822 0 -0.049961064884082279 5.2045466264835019e-06 0 -0.050000550878936588 4.3396458412570002e-07 0 -0.049999514572244351 -7.7902309759534961e-08 0 -0.049961064884082279 5.2045466264835019e-06 0 -0.050000550878936588 4.3396458412570002e-07 0 -0.049841362306572941 1.8620433317115213e-05 0 -0.049961064884082279 5.2045466264835019e-06 0 -0.050025250813250988 0.00010207925671641695 0 -0.049841362306572941 1.8620433317115213e-05 0 -0.049841362306572941 1.8620433317115213e-05 0 -0.048692664169026859 0.00011233291191216123 0 -0.049332856571168433 0.00061783837702915822 0 -0.050025250813250988 0.00010207925671641695 0 -0.049841362306572941 1.8620433317115213e-05 0 -0.049332856571168433 0.00061783837702915822 0 -0.050000550878936588 4.3396458412570002e-07 0 -0.049841362306572941 1.8620433317115213e-05 0 -0.049997251113098433 -1.7487013045490556e-06 0 -0.049997251113098433 -1.7487013045490556e-06 0 -0.048692664169026859 0.00011233291191216123 0 -0.04784538964087752 -0.00028426163722193359 0 -0.049841362306572941 1.8620433317115213e-05 0 -0.049997251113098433 -1.7487013045490556e-06 0 -0.048692664169026859 0.00011233291191216123 0 -0.048692664169026859 0.00011233291191216123 0 -0.049332856571168433 0.00061783837702915822 0 -0.047206944177130478 0.00045057828427039253 0 -0.047819111929028588 0.00022020574748748831 0 -0.047053142369542326 0.00035267301351539758 0 -0.047951100502948554 0.00058814138644712162 0 -0.048318320523497361 0.00027966276134914109 0 -0.047324527578721437 0.00045234716825502322 0 -0.049134846342890622 -6.3513107876639479e-05 0 -0.048318320523497361 0.00027966276134914109 0 -0.047819111929028588 0.00022020574748748831 0 -0.04731330043216863 5.0503614527913197e-06 0 -0.047053142369542326 0.00035267301351539758 0 -0.04731330043216863 5.0503614527913197e-06 0 -0.047053142369542326 0.00035267301351539758 0 -0.047206944177130478 0.00045057828427039253 0 -0.049999986805073247 1.9966031117684266e-07 0 -0.049976155665702904 -5.399317393520567e-07 0 -0.049999803812432735 -4.0225761515050556e-07 0 -0.047053142369542326 0.00035267301351539758 0 -0.046646522371096816 0.00037595503971314833 0 -0.047206944177130478 0.00045057828427039253 0 -0.046646522371096816 0.00037595503971314833 0 -0.046901144819114435 0.00033962773295870497 0 -0.045675617839747766 0.000181100020393586 0 -0.046646522371096816 0.00037595503971314833 0 -0.046901144819114435 0.00033962773295870497 0 -0.047206944177130478 0.00045057828427039253 0 -0.046901144819114435 0.00033962773295870497 0 -0.047415339611589856 0.00023193617094982203 0 -0.047206944177130478 0.00045057828427039253 0 -0.046901144819114435 0.00033962773295870497 0 -0.047415339611589856 0.00023193617094982203 0 -0.046985658856354078 0.00033329920937232201 0 -0.048692664169026859 0.00011233291191216123 0 -0.047415339611589856 0.00023193617094982203 0 -0.047206944177130478 0.00045057828427039253 0 -0.048692664169026859 0.00011233291191216123 0 -0.047415339611589856 0.00023193617094982203 0 -0.04784538964087752 -0.00028426163722193359 0 -0.049999509947947773 -1.1960853150989284e-08 0 -0.048904343520729428 -8.070977785477399e-05 0 -0.048904343520729428 -8.070977785477399e-05 0 -0.048468786987701219 0.00015839395413632745 0 -0.047415339611589856 0.00023193617094982203 0 -0.04784538964087752 -0.00028426163722193359 0 -0.046985658856354078 0.00033329920937232201 0 -0.049976155665702904 -5.399317393520567e-07 0 -0.049893787810156125 3.5309631375892429e-06 0 -0.049999803812432735 -4.0225761515050556e-07 0 -0.049492784007266984 -6.3535510925293563e-05 0 -0.049893787810156125 3.5309631375892429e-06 0 -0.049999803812432735 -4.0225761515050556e-07 0 -0.048365665629688061 0.00033002279566772953 0 -0.048468786987701219 0.00015839395413632745 0 -0.049492784007266984 -6.3535510925293563e-05 0 -0.049433743028145197 0.00022394548667791921 0 -0.049893787810156125 3.5309631375892429e-06 0 -0.047325879128094578 0.00050579616864642265 0 -0.046985658856354078 0.00033329920937232201 0 -0.047070372880637715 0.00037952499100697435 0 -0.046901144819114435 0.00033962773295870497 0 -0.046985658856354078 0.00033329920937232201 0 -0.047070372880637715 0.00037952499100697435 0 -0.046780968004588995 0.00031523159653324735 0 -0.046358214478649941 0.00031717472965496366 0 -0.046901144819114435 0.00033962773295870497 0 -0.047070372880637715 0.00037952499100697435 0 -0.047099470720654256 0.0003193024269664542 0 -0.047325879128094578 0.00050579616864642265 0 -0.047070372880637715 0.00037952499100697435 0 -0.047099470720654256 0.0003193024269664542 0 -0.047325879128094578 0.00050579616864642265 0 -0.047331359625860388 0.0003124310157610227 0 -0.047099470720654256 0.0003193024269664542 0 -0.046235360193546106 0.00035007134392193881 0 -0.046358214478649941 0.00031717472965496366 0 -0.046646522371096816 0.00037595503971314833 0 -0.045675617839747766 0.000181100020393586 0 -0.045548691643347489 0.00051091166923939791 0 -0.044845019006365179 0.00038803243174376391 0 -0.045675617839747766 0.000181100020393586 0 -0.045548691643347489 0.00051091166923939791 0 -0.045548691643347489 0.00051091166923939791 0 -0.044934118700951153 0.00075784454398069754 0 -0.045752711733164857 0.00070057934869809481 0 -0.045548691643347489 0.00051091166923939791 0 -0.044784773960055493 0.00066027533101677399 0 -0.044934118700951153 0.00075784454398069754 0 -0.044845019006365179 0.00038803243174376391 0 -0.045548691643347489 0.00051091166923939791 0 -0.044784773960055493 0.00066027533101677399 0 -0.044535268451031777 0.00078973435061766223 0 -0.044784773960055493 0.00066027533101677399 0 -0.044934118700951153 0.00075784454398069754 0 -0.044535268451031777 0.00078973435061766223 0 -0.04419926130469972 0.0007439514577889507 0 -0.044934118700951153 0.00075784454398069754 0 -0.043182255882645688 -0.0001782668464487546 0 -0.043062123389966525 0.00060227674703132645 0 -0.04419926130469972 0.0007439514577889507 0 -0.043767149743789126 0.00021750238088371617 0 -0.044217826087578078 0.00073620043949169608 0 -0.043062123389966525 0.00060227674703132645 0 -0.04419926130469972 0.0007439514577889507 0 -0.043302470182156931 0.0011882572901056429 0 -0.044809265001767129 0.0011232516751570163 0 -0.044934118700951153 0.00075784454398069754 0 -0.045599068503997975 0.00096519332105522834 0 -0.04419926130469972 0.0007439514577889507 0 -0.044809265001767129 0.0011232516751570163 0 -0.044108714425646345 0.0014881397418075092 0 -0.04419926130469972 0.0007439514577889507 0 -0.044809265001767129 0.0011232516751570163 0 -0.044934118700951153 0.00075784454398069754 0 -0.044934118700951153 0.00075784454398069754 0 -0.045599068503997975 0.00096519332105522834 0 -0.045752711733164857 0.00070057934869809481 0 -0.045599068503997975 0.00096519332105522834 0 -0.046217260426143637 0.00083719356567707611 0 -0.045752711733164857 0.00070057934869809481 0 -0.044809265001767129 0.0011232516751570163 0 -0.045599068503997975 0.00096519332105522834 0 -0.045311829549071196 0.0013743354974934386 0 -0.045599068503997975 0.00096519332105522834 0 -0.046004071410133962 0.0011485126616148733 0 -0.045311829549071196 0.0013743354974934386 0 -0.046004071410133962 0.0011485126616148733 0 -0.046372274700926537 0.0014675782243084696 0 -0.045852181701109503 0.0015011406606338664 0 -0.046004071410133962 0.0011485126616148733 0 -0.045852181701109503 0.0015011406606338664 0 -0.045311829549071196 0.0013743354974934386 0 -0.046004071410133962 0.0011485126616148733 0 -0.046217260426143637 0.00083719356567707611 0 -0.046530276569962205 0.0010542321243530387 0 -0.045599068503997975 0.00096519332105522834 0 -0.046004071410133962 0.0011485126616148733 0 -0.046217260426143637 0.00083719356567707611 0 -0.046217260426143637 0.00083719356567707611 0 -0.046412726996529367 0.00054059182157793837 0 -0.046750959555802572 0.00085654364000213796 0 -0.046217260426143637 0.00083719356567707611 0 -0.045752711733164857 0.00070057934869809481 0 -0.046412726996529367 0.00054059182157793837 0 -0.045548691643347489 0.00051091166923939791 0 -0.045752711733164857 0.00070057934869809481 0 -0.046412726996529367 0.00054059182157793837 0 -0.046646522371096816 0.00037595503971314833 0 -0.045548691643347489 0.00051091166923939791 0 -0.046412726996529367 0.00054059182157793837 0 -0.047053142369542326 0.00035267301351539758 0 -0.046646522371096816 0.00037595503971314833 0 -0.046412726996529367 0.00054059182157793837 0 -0.047053142369542326 0.00035267301351539758 0 -0.047528381155211886 0.00082457183901713796 0 -0.047951100502948554 0.00058814138644712162 0 -0.047053142369542326 0.00035267301351539758 0 -0.046412726996529367 0.00054059182157793837 0 -0.046750959555802572 0.00085654364000213796 0 -0.047528381155211886 0.00082457183901713796 0 -0.046750959555802572 0.00085654364000213796 0 -0.047716286574284256 0.0013710742966695003 0 -0.047053142369542326 0.00035267301351539758 0 -0.047528381155211886 0.00082457183901713796 0 -0.046750959555802572 0.00085654364000213796 0 -0.046217260426143637 0.00083719356567707611 0 -0.046750959555802572 0.00085654364000213796 0 -0.046530276569962205 0.0010542321243530387 0 -0.046004071410133962 0.0011485126616148733 0 -0.046530276569962205 0.0010542321243530387 0 -0.046372274700926537 0.0014675782243084696 0 -0.046530276569962205 0.0010542321243530387 0 -0.046748634478697669 0.0013778838297653446 0 -0.046372274700926537 0.0014675782243084696 0 -0.046530276569962205 0.0010542321243530387 0 -0.046748634478697669 0.0013778838297653446 0 -0.046906877658384215 0.000938216813945963 0 -0.046782914320482018 0.00087354981803661213 0 -0.047305834631611296 0.0011371143086867307 0 -0.046750959555802572 0.00085654364000213796 0 -0.046530276569962205 0.0010542321243530387 0 -0.046906877658384215 0.000938216813945963 0 -0.047716286574284256 0.0013710742966695003 0 -0.04825399686518797 0.0014658417918918479 0 -0.048125009401899628 0.0010368814218565908 0 -0.046748634478697669 0.0013778838297653446 0 -0.046906877658384215 0.000938216813945963 0 -0.047146272385430739 0.0015094312517360709 0 -0.046906877658384215 0.000938216813945963 0 -0.047548794909396952 0.0011781339402128427 0 -0.047146272385430739 0.0015094312517360709 0 -0.047305834631611296 0.0011371143086867307 0 -0.047902985713456574 0.0013336701189538701 0 -0.04825399686518797 0.0014658417918918479 0 -0.048125009401899628 0.0010368814218565908 0 -0.048579195185802573 0.0010667049668513953 0 -0.048125009401899628 0.0010368814218565908 0 -0.04844609446327855 0.00072579681099149056 0 -0.048579195185802573 0.0010667049668513953 0 -0.047528381155211886 0.00082457183901713796 0 -0.047716286574284256 0.0013710742966695003 0 -0.048125009401899628 0.0010368814218565908 0 -0.047528381155211886 0.00082457183901713796 0 -0.048125009401