<?xml version="1.0"?>
<VTKFile type="UnstructuredGrid" version="0.1" byte_order="LittleEndian">
<UnstructuredGrid>
<Piece NumberOfPoints="31898" NumberOfCells="11152">
<Points>
<DataArray type="Float64" NumberOfComponents="3" format="ascii">
-0.5 -0.5 0 -0.47620991077874902 -0.44978878706170539 0 -0.49999999999999473 -0.42132396840504388 0 -0.5 -0.5 0 -0.47160970827802529 -0.4793630013852106 0 -0.47620991077874902 -0.44978878706170539 0 -0.5 -0.5 0 -0.47160970827802529 -0.4793630013852106 0 -0.44860394795025399 -0.5 0 -0.47160970827802529 -0.4793630013852106 0 -0.44860394795025399 -0.5 0 -0.4490820238307246 -0.45820516232899983 0 -0.44860394795025399 -0.5 0 -0.4490820238307246 -0.45820516232899983 0 -0.42881687682924802 -0.47781464288736519 0 -0.4490820238307246 -0.45820516232899983 0 -0.45555437223955858 -0.42914059360647611 0 -0.4490820238307246 -0.45820516232899983 0 -0.45555437223955858 -0.42914059360647611 0 -0.43867285131603428 -0.4271457417558665 0 -0.4490820238307246 -0.45820516232899983 0 -0.43867285131603428 -0.4271457417558665 0 -0.4263356171060747 -0.44269880333887462 0 -0.47160970827802529 -0.4793630013852106 0 -0.4490820238307246 -0.45820516232899983 0 -0.47620991077874902 -0.44978878706170539 0 -0.4490820238307246 -0.45820516232899983 0 -0.47620991077874902 -0.44978878706170539 0 -0.45555437223955858 -0.42914059360647611 0 -0.47620991077874902 -0.44978878706170539 0 -0.48101336032419229 -0.41069999664450008 0 -0.45555437223955858 -0.42914059360647611 0 -0.47620991077874902 -0.44978878706170539 0 -0.49999999999999473 -0.42132396840504388 0 -0.48101336032419229 -0.41069999664450008 0 -0.49999999999999473 -0.42132396840504388 0 -0.48101336032419229 -0.41069999664450008 0 -0.5 -0.393886241813306 0 -0.49999999999999473 -0.42132396840504388 0 -0.48101336032419229 -0.41069999664450008 0 -0.5 -0.393886241813306 0 -0.47854472220918332 -0.38978458738689759 0 -0.48422759779560409 -0.37130120630367158 0 -0.5 -0.393886241813306 0 -0.5 -0.36644851522156802 0 -0.48422759779560409 -0.37130120630367158 0 -0.48101336032419229 -0.41069999664450008 0 -0.5 -0.393886241813306 0 -0.47854472220918332 -0.38978458738689759 0 -0.48101336032419229 -0.41069999664450008 0 -0.47854472220918332 -0.38978458738689759 0 -0.46202672064839212 -0.40007602488395211 0 -0.48101336032419229 -0.41069999664450008 0 -0.46202672064839212 -0.40007602488395211 0 -0.47854472220918332 -0.38978458738689759 0 -0.46725442735267431 -0.37660061361585562 0 -0.46202672064839212 -0.40007602488395211 0 -0.47854472220918332 -0.38978458738689759 0 -0.46725442735267431 -0.37660061361585562 0 -0.48422759779560409 -0.37130120630367158 0 -0.46725442735267431 -0.37660061361585562 0 -0.46202672064839212 -0.40007602488395211 0 -0.46725442735267431 -0.37660061361585562 0 -0.45645674801697989 -0.38644133236760531 0 -0.46202672064839212 -0.40007602488395211 0 -0.46725442735267431 -0.37660061361585562 0 -0.45645674801697989 -0.38644133236760531 0 -0.4540003998136638 -0.37455519391687309 0 -0.45645674801697989 -0.38644133236760531 0 -0.46202672064839212 -0.40007602488395211 0 -0.44257020456291563 -0.38918913383950271 0 -0.46202672064839212 -0.40007602488395211 0 -0.44257020456291563 -0.38918913383950271 0 -0.44727608925983742 -0.41095911152778891 0 -0.46202672064839212 -0.40007602488395211 0 -0.44257020456291563 -0.38918913383950271 0 -0.44257020456291563 -0.38918913383950271 0 -0.44727608925983742 -0.41095911152778891 0 -0.43479358559901082 -0.4041454901736512 0 -0.44257020456291563 -0.38918913383950271 0 -0.4540003998136638 -0.37455519391687309 0 -0.44172858264042247 -0.37082207246888088 0 -0.45645674801697989 -0.38644133236760531 0 -0.44257020456291563 -0.38918913383950271 0 -0.4540003998136638 -0.37455519391687309 0 -0.46202672064839212 -0.40007602488395211 0 -0.45555437223955858 -0.42914059360647611 0 -0.44727608925983742 -0.41095911152778891 0 -0.46202672064839212 -0.40007602488395211 0 -0.45555437223955858 -0.42914059360647611 0 -0.48101336032419229 -0.41069999664450008 0 -0.46202672064839212 -0.40007602488395211 0 -0.45555437223955858 -0.42914059360647611 0 -0.44727608925983742 -0.41095911152778891 0 -0.43867285131603428 -0.4271457417558665 0 -0.43676601469929588 -0.41441201227470881 0 -0.44727608925983742 -0.41095911152778891 0 -0.43676601469929588 -0.41441201227470881 0 -0.43479358559901082 -0.4041454901736512 0 -0.45555437223955858 -0.42914059360647611 0 -0.44727608925983742 -0.41095911152778891 0 -0.43867285131603428 -0.4271457417558665 0 -0.43867285131603428 -0.4271457417558665 0 -0.42681803064840879 -0.42717069814352421 0 -0.4263356171060747 -0.44269880333887462 0 -0.42681803064840879 -0.42717069814352421 0 -0.41531815884496182 -0.42985383783075998 0 -0.4263356171060747 -0.44269880333887462 0 -0.42681803064840879 -0.42717069814352421 0 -0.42624289495594048 -0.42089725947505818 0 -0.42083332353326591 -0.42146747131641099 0 -0.42681803064840879 -0.42717069814352421 0 -0.43096994786351572 -0.41951492446283251 0 -0.42624289495594048 -0.42089725947505818 0 -0.43867285131603428 -0.4271457417558665 0 -0.42681803064840879 -0.42717069814352421 0 -0.43096994786351572 -0.41951492446283251 0 -0.43867285131603428 -0.4271457417558665 0 -0.43676601469929588 -0.41441201227470881 0 -0.43096994786351572 -0.41951492446283251 0 -0.43676601469929588 -0.41441201227470881 0 -0.43096994786351572 -0.41951492446283251 0 -0.42907264086257813 -0.41311715872526122 0 -0.43676601469929588 -0.41441201227470881 0 -0.42907264086257813 -0.41311715872526122 0 -0.43479358559901082 -0.4041454901736512 0 -0.42907264086257813 -0.41311715872526122 0 -0.43479358559901082 -0.4041454901736512 0 -0.42460885511582858 -0.40417321677700252 0 -0.42907264086257813 -0.41311715872526122 0 -0.41997834854398469 -0.41180534796019508 0 -0.42907264086257813 -0.41311715872526122 0 -0.42635027777857132 -0.41543594397746519 0 -0.41997834854398469 -0.41180534796019508 0 -0.42907264086257813 -0.41311715872526122 0 -0.41997834854398469 -0.41180534796019508 0 -0.42460885511582858 -0.40417321677700252 0 -0.42635027777857132 -0.41543594397746519 0 -0.41997834854398469 -0.41180534796019508 0 -0.42635027777857132 -0.41543594397746519 0 -0.42083332353326591 -0.42146747131641099 0 -0.41997834854398469 -0.41180534796019508 0 -0.43096994786351572 -0.41951492446283251 0 -0.42624289495594048 -0.42089725947505818 0 -0.42635027777857132 -0.41543594397746519 0 -0.43096994786351572 -0.41951492446283251 0 -0.42907264086257813 -0.41311715872526122 0 -0.42635027777857132 -0.41543594397746519 0 -0.42624289495594048 -0.42089725947505818 0 -0.42635027777857132 -0.41543594397746519 0 -0.42083332353326591 -0.42146747131641099 0 -0.42083332353326591 -0.42146747131641099 0 -0.41997834854398469 -0.41180534796019508 0 -0.40992282953163789 -0.42011435591993562 0 -0.41997834854398469 -0.41180534796019508 0 -0.39756877647335259 -0.40857286797681719 0 -0.41997834854398469 -0.41180534796019508 0 -0.40992282953163789 -0.42011435591993562 0 -0.39756877647335259 -0.40857286797681719 0 -0.40992282953163789 -0.42011435591993562 0 -0.41531815884496182 -0.42985383783075998 0 -0.39591554026262499 -0.42887225451549271 0 -0.41531815884496182 -0.42985383783075998 0 -0.39591554026262499 -0.42887225451549271 0 -0.41160927495564159 -0.44339431233754628 0 -0.42083332353326591 -0.42146747131641099 0 -0.40992282953163789 -0.42011435591993562 0 -0.41531815884496182 -0.42985383783075998 0 -0.42681803064840879 -0.42717069814352421 0 -0.42083332353326591 -0.42146747131641099 0 -0.41531815884496182 -0.42985383783075998 0 -0.44257020456291563 -0.38918913383950271 0 -0.42311368847744002 -0.37830224279505142 0 -0.42594061475171041 -0.39368797999533162 0 -0.44257020456291563 -0.38918913383950271 0 -0.42311368847744002 -0.37830224279505142 0 -0.44172858264042247 -0.37082207246888088 0 -0.44257020456291563 -0.38918913383950271 0 -0.42311368847744002 -0.37830224279505142 0 -0.42311368847744002 -0.37830224279505142 0 -0.42594061475171041 -0.39368797999533162 0 -0.416587075656149 -0.38785930376960043 0 -0.44257020456291563 -0.38918913383950271 0 -0.42594061475171041 -0.39368797999533162 0 -0.43479358559901082 -0.4041454901736512 0 -0.42594061475171041 -0.39368797999533162 0 -0.43479358559901082 -0.4041454901736512 0 -0.42460885511582858 -0.40417321677700252 0 -0.41997834854398469 -0.41180534796019508 0 -0.41325908582185972 -0.39811010703057192 0 -0.39770572831670092 -0.39911486077581648 0 -0.41997834854398469 -0.41180534796019508 0 -0.39770572831670092 -0.39911486077581648 0 -0.42594061475171041 -0.39368797999533162 0 -0.42460885511582858 -0.40417321677700252 0 -0.41325908582185972 -0.39811010703057192 0 -0.41997834854398469 -0.41180534796019508 0 -0.42460885511582858 -0.40417321677700252 0 -0.41325908582185972 -0.39811010703057192 0 -0.42594061475171041 -0.39368797999533162 0 -0.41325908582185972 -0.39811010703057192 0 -0.416587075656149 -0.38785930376960043 0 -0.41325908582185972 -0.39811010703057192 0 -0.416587075656149 -0.38785930376960043 0 -0.40403491357358612 -0.38133688525744702 0 -0.42311368847744002 -0.37830224279505142 0 -0.40403491357358612 -0.38133688525744702 0 -0.40365717239196519 -0.36741535175059892 0 -0.42311368847744002 -0.37830224279505142 0 -0.416587075656149 -0.38785930376960043 0 -0.40403491357358612 -0.38133688525744702 0 -0.40403491357358612 -0.38133688525744702 0 -0.39190790742475001 -0.38540387676521748 0 -0.39770572831670092 -0.39911486077581648 0 -0.40403491357358612 -0.38133688525744702 0 -0.39190790742475001 -0.38540387676521748 0 -0.3904578797192948 -0.37473938743617019 0 -0.41325908582185972 -0.39811010703057192 0 -0.40403491357358612 -0.38133688525744702 0 -0.39770572831670092 -0.39911486077581648 0 -0.39770572831670092 -0.39911486077581648 0 -0.37543310808941849 -0.38642437359143528 0 -0.39770572831670092 -0.39911486077581648 0 -0.37515920440272033 -0.40534038799344108 0 -0.37543310808941849 -0.38642437359143528 0 -0.39770572831670092 -0.39911486077581648 0 -0.37515920440272033 -0.40534038799344108 0 -0.39756877647335259 -0.40857286797681719
[...]
<PointData Scalars="" Vectors="displacement," Tensors="">
<DataArray type="Float64" Name="displacement" NumberOfComponents="3" format="ascii">
-4.1275534824007073e-06 -0.084992227734791467 0 -0.00041371558016460911 -0.079468015969954772 0 8.7385079796019131e-06 -0.071644889028448039 0 -4.1275534824007073e-06 -0.084992227734791467 0 -0.00038106530862346867 -0.083059123619463743 0 -0.00041371558016460911 -0.079468015969954772 0 -4.1275534824007073e-06 -0.084992227734791467 0 -0.00038106530862346867 -0.083059123619463743 0 1.4691435010673438e-08 -0.084997923712604798 0 -0.00038106530862346867 -0.083059123619463743 0 1.4691435010673438e-08 -0.084997923712604798 0 -0.00021005009959710491 -0.08306012149691179 0 1.4691435010673438e-08 -0.084997923712604798 0 -0.00021005009959710491 -0.08306012149691179 0 -0.00016553978796191753 -0.08442954930451653 0 -0.00072621100172196626 -0.077853947797615175 0 2.6627676813624328e-05 -0.075641826622180927 0 -0.00021005009959710491 -0.08306012149691179 0 0.00095568480122495037 -0.082987128279312747 0 0.0010306396849272159 -0.083458432475174274 0 -0.00021005009959710491 -0.08306012149691179 0 0.0010306396849272159 -0.083458432475174274 0 0.00050543346896534714 -0.083992761788836301 0 -0.00038106530862346867 -0.083059123619463743 0 -0.00021005009959710491 -0.08306012149691179 0 -0.00041371558016460911 -0.079468015969954772 0 -0.00021005009959710491 -0.08306012149691179 0 -0.00041371558016460911 -0.079468015969954772 0 0.0015135057692319666 -0.081062021108399884 0 -0.00041371558016460911 -0.079468015969954772 0 0.0032164639732445289 -0.076802786948215587 0 0.0015135057692319666 -0.081062021108399884 0 -0.00041371558016460911 -0.079468015969954772 0 8.7385079796019131e-06 -0.071644889028448039 0 0.0032164639732445289 -0.076802786948215587 0 4.809349059462342e-06 -0.071617730093250537 0 0.00073169218725180948 -0.066042985284119754 0 -2.0295419874504447e-06 -0.06696068626717129 0 2.9878763340729953e-06 -0.071622289672223657 0 0.0012587878667876991 -0.070343485953061641 0 -2.0295419874504447e-06 -0.06696068626717129 0 -0.00019286456498109446 -0.064330180194126896 0 -0.00040708700262912163 -0.062612243425863884 0 -2.0295419874504447e-06 -0.06696068626717129 0 -6.1893101764872917e-07 -0.062295707367693312 0 -0.00040708700262912163 -0.062612243425863884 0 0.00073169218725180948 -0.066042985284119754 0 -2.0295419874504447e-06 -0.06696068626717129 0 -0.00019286456498109446 -0.064330180194126896 0 0.00073169218725180948 -0.066042985284119754 0 -0.00019286456498109446 -0.064330180194126896 0 0.0003209005479307245 -0.063703046236735755 0 0.0012587878667876991 -0.070343485953061641 0 0.0018500747793912943 -0.067769992956768679 0 -0.00019286456498109446 -0.064330180194126896 0 -0.00050098757021011745 -0.063151103216802493 0 0.0003209005479307245 -0.063703046236735755 0 -0.00019286456498109446 -0.064330180194126896 0 -0.00050098757021011745 -0.063151103216802493 0 -0.00040708700262912163 -0.062612243425863884 0 0.0013233305372141809 -0.061555105269923888 0 0.0018500747793912943 -0.067769992956768679 0 0.0019204801278310372 -0.04952123743219717 0 0.0012665314815944204 -0.050184142411357983 0 0.00041571995894740455 -0.04985899290250044 0 0.0019204801278310372 -0.04952123743219717 0 0.0012665314815944204 -0.050184142411357983 0 0.0019655464303477486 -0.05029601008311399 0 0.0012665314815944204 -0.050184142411357983 0 0.00041571995894740455 -0.04985899290250044 0 0.0010718407956687487 -0.051044275128339249 0 0.0013604460350896558 -0.08316522950650912 0 0.0012016444297045738 -0.083375292589361064 0 0.0012905883744194476 -0.083280184040191704 0 0.0018500747793912943 -0.067769992956768679 0 0.0015926571932278267 -0.067054109356742719 0 0.0012016444297045738 -0.083375292589361064 0 0.0012905883744194476 -0.083280184040191704 0 0.0013180077109078577 -0.083363950064109238 0 0.0010718407956687487 -0.051044275128339249 0 0.0019655464303477486 -0.05029601008311399 0 0.0021766394685791787 -0.051073938882408007 0 0.0012665314815944204 -0.050184142411357983 0 0.0010718407956687487 -0.051044275128339249 0 0.0019655464303477486 -0.05029601008311399 0 0.0013604460350896558 -0.08316522950650912 0 0.00095568480122495037 -0.082987128279312747 0 0.0012905883744194476 -0.083280184040191704 0 0.0018500747793912943 -0.067769992956768679 0 2.6627676813624328e-05 -0.075641826622180927 0 0.0032164639732445289 -0.076802786948215587 0 0.004964273847324863 -0.079650508126873243 0 0.0015135057692319666 -0.081062021108399884 0 0.0012905883744194476 -0.083280184040191704 0 0.0010306396849272159 -0.083458432475174274 0 0.0013012264940381699 -0.08342224778822345 0 0.0012905883744194476 -0.083280184040191704 0 0.0013012264940381699 -0.08342224778822345 0 0.0013180077109078577 -0.083363950064109238 0 0.00095568480122495037 -0.082987128279312747 0 0.0012905883744194476 -0.083280184040191704 0 0.0010306396849272159 -0.083458432475174274 0 0.0010306396849272159 -0.083458432475174274 0 0.00098590965463270057 -0.083823102338427005 0 0.00050543346896534714 -0.083992761788836301 0 0.00098590965463270057 -0.083823102338427005 0 0.00088900045010559476 -0.0842357005938624 0 0.00050543346896534714 -0.083992761788836301 0 0.00098590965463270057 -0.083823102338427005 0 0.0011707503651158732 -0.083772296738599775 0 0.0011461218461093084 -0.083994761322655292 0 0.00098590965463270057 -0.083823102338427005 0 0.0012147340215779262 -0.083580514912423326 0 0.0011707503651158732 -0.083772296738599775 0 0.0010306396849272159 -0.083458432475174274 0 0.00098590965463270057 -0.083823102338427005 0 0.0012147340215779262 -0.083580514912423326 0 0.0010306396849272159 -0.083458432475174274 0 0.0013012264940381699 -0.08342224778822345 0 0.0012147340215779262 -0.083580514912423326 0 0.0013012264940381699 -0.08342224778822345 0 0.0012147340215779262 -0.083580514912423326 0 0.0014404898356472566 -0.083476044062890872 0 0.0013012264940381699 -0.08342224778822345 0 0.0014404898356472566 -0.083476044062890872 0 0.0013180077109078577 -0.083363950064109238 0 0.0014404898356472566 -0.083476044062890872 0 0.0013180077109078577 -0.083363950064109238 0 0.0013390814211107517 -0.083196449492082283 0 0.0030758695997796727 -0.081656482997226748 0 0.0031068211463907637 -0.081432379188775689 0 0.0014404898356472566 -0.083476044062890872 0 0.0013407070140284459 -0.083696671255626437 0 0.0016125321676447983 -0.084134877654702178 0 0.0014404898356472566 -0.083476044062890872 0 0.0015754933101585352 -0.083065663016498356 0 0.0013390814211107517 -0.083196449492082283 0 0.0031060781365502988 -0.08154490628869665 0 0.0031068211463907637 -0.081432379188775689 0 0.0013407070140284459 -0.083696671255626437 0 0.0011461218461093084 -0.083994761322655292 0 0.0014904617744467847 -0.084017581256874155 0 0.0012147340215779262 -0.083580514912423326 0 0.0011707503651158732 -0.083772296738599775 0 0.0013407070140284459 -0.083696671255626437 0 0.0012147340215779262 -0.083580514912423326 0 0.0014404898356472566 -0.083476044062890872 0 0.0013407070140284459 -0.083696671255626437 0 0.0011707503651158732 -0.083772296738599775 0 0.0013407070140284459 -0.083696671255626437 0 0.0011461218461093084 -0.083994761322655292 0 0.0011461218461093084 -0.083994761322655292 0 0.0014904617744467847 -0.084017581256874155 0 0.0011931050113029246 -0.084376621785587649 0 0.0031068211463907637 -0.081432379188775689 0 0.0025826743944130938 -0.080937851684148979 0 0.0014904617744467847 -0.084017581256874155 0 0.0011931050113029246 -0.084376621785587649 0 0.0015454814365428906 -0.084760576684496255 0 0.0011931050113029246 -0.084376621785587649 0 0.00088900045010559476 -0.0842357005938624 0 0.00092413015904709028 -0.084816610193741912 0 0.00088900045010559476 -0.0842357005938624 0 0.00092413015904709028 -0.084816610193741912 0 0.00049302127878624079 -0.084413377918126281 0 0.0011461218461093084 -0.083994761322655292 0 0.0011931050113029246 -0.084376621785587649 0 0.00088900045010559476 -0.0842357005938624 0 0.00098590965463270057 -0.083823102338427005 0 0.0011461218461093084 -0.083994761322655292 0 0.00088900045010559476 -0.0842357005938624 0 0.0012016444297045738 -0.083375292589361064 0 0.000678021459668907 -0.083052133206767909 0 0.0011338294264461673 -0.083157494528168216 0 0.0010718407956687487 -0.051044275128339249 0 0.0017029049010126556 -0.052274485299429081 0 0.0021766394685791787 -0.051073938882408007 0 0.0015926571932278267 -0.067054109356742719 0 0.0017322451865279702 -0.066627023994501641 0 0.000678021459668907 -0.083052133206767909 0 0.0011338294264461673 -0.083157494528168216 0 0.00093795393878136227 -0.082851781970089314 0 0.0012016444297045738 -0.083375292589361064 0 0.0011338294264461673 -0.083157494528168216 0 0.0013180077109078577 -0.083363950064109238 0 0.0011338294264461673 -0.083157494528168216 0 0.0013180077109078577 -0.083363950064109238 0 0.0013390814211107517 -0.083196449492082283 0 0.0015754933101585352 -0.083065663016498356 0 0.001239458192973846 -0.08277530788023664 0 0.0013460733327544719 -0.082167752747989833 0 0.0031068211463907637 -0.081432379188775689 0 0.0032579570221208738 -0.07883718409710358 0 0.0011338294264461673 -0.083157494528168216 0 0.0013390814211107517 -0.083196449492082283 0 0.001239458192973846 -0.08277530788023664 0 0.0015754933101585352 -0.083065663016498356 0 0.0013390814211107517 -0.083196449492082283 0 0.001239458192973846 -0.08277530788023664 0 0.0011338294264461673 -0.083157494528168216 0 0.001239458192973846 -0.08277530788023664 0 0.00093795393878136227 -0.082851781970089314 0 0.001239458192973846 -0.08277530788023664 0 0.00093795393878136227 -0.082851781970089314 0 0.00068849356711406077 -0.082398053820246217 0 0.000678021459668907 -0.083052133206767909 0 0.00068849356711406077 -0.082398053820246217 0 0.00022251759926296573 -0.082359504275921855 0 0.000678021459668907 -0.083052133206767909 0 0.00093795393878136227 -0.082851781970089314 0 0.00068849356711406077 -0.082398053820246217 0 0.00068849356711406077 -0.082398053820246217 0 0.00082504599163746284 -0.081875452055028192 0 0.0013460733327544719 -0.082167752747989833 0 0.00068849356711406077 -0.082398053820246217 0 0.00082504599163746284 -0.081875452055028192 0 0.00036653128801269683 -0.081785085585574735 0 0.001239458192973846 -0.08277530788023664 0 0.00068849356711406077 -0.082398053820246217 0 0.0013460733327544719 -0.082167752747989833 0 0.0032579570221208738 -0.07883718409710358 0 0.0029850949563070099 -0.073533624143263754 0 0.0031013025517268832 -0.078650420904416526 0 0.0036808923556203997 -0.076543771737336508 0 0.0019193078927199107 -0.076563866458156229 0 0.0031013025517268832 -0.078650420904416526 0 0.0036808923556203997 -0.076543771737336508 0 0.0039838745440416009 -0.078639485946565696 0 0.0017795280726625746 -0.078739189873758109 0 0.0029850949563070099 -0.073533624143263754 0 0.00088559555427869606 -0.08112812243775655 0 0.00036653128801269683 -0.081785085585574735 0 0.00011669844630454527 -0.081099421032456889 0 0.00082504599163746284 -0.081875452055028192 0 0.00088559555427869606 -0.08112812243775655 0 0.00036653128801269683 -0.081785085585574735 0 0.0029850949563070099 -0.073533624143263754 0 0.0020581846293364898 -0.068950310524116779 0 0.00082504599163746284 -0.081875452055028192 0 0.0013460733327544719 -0.082167752747989833 0 0.00088559555427869606 -0.08112812243775655 0 0.0042846929622425674 -0.080739019967377673 0 0.0031013025517268832 -0.078650420904416526 0 0.0039838745440416009 -0.078639485946565696 0 0.0011931050113029246 -0.084376621785587649 0 0.00092413015904709028 -0.084816610193741912 0 0.0015454814365428906 -0.084760576684496255 0 0.0016297151393098387 -0.085410605909783277 0 0.00092413015904709028 -0.084816610193741912 0 0.0015454814365428906 -0.084760576684496255 0 0.0017795280726625746 -0.078739189873758109 0 0.0025826743944130938 -0.080937851684148979 0 0.0016297151393098387 -0.085410605909783277 0 0.00092413015904709028 -0.084816610193741912 0 0.00073646908134322329 -0.085421053820740431 0 0.00092413015904709028 -0.084816610193741912 0 0.00042201714448792174 -0.08490593403233386 0 0.00073646908134322329 -0.085421053820740431 0 0.00042201714448792174 -0.08490593403233386 0 -0.00010392651488015034 -0.085424199269795498 0 0.00073646908134322329 -0.085421053820740431 0 0.00092413015904709028 -0.084816610193741912 0 0.00042201714448792174 -0.08490593403233386 0 0.00049302127878624079 -0.084413377918126281 0 0.00042201714448792174 -0.08490593403233386 0 0.00012315818735006933 -0.084613013836409998 0 0.00049302127878624079 -0.084413377918126281 0 0.00011534376907462244 -0.084682541701522868 0 -5.2477177008094399e-05 -0.08488314945094394 0 -5.4166553800393201e-05 -0.084607245670776099 0 1.2480610977371841e-05 -0.084986277265225979 0 1.0079733617321948e-05 -0.084993696034399671 0 2.2353440643844646e-06 -0.084993760027454901 0 0.00016199016022853447 -0.084741669345806792 0 1.44831234602443e-05 -0.084909495039054608 0 0.00016199016022853447 -0.084741669345806792 0 0.0001621240359360205 -0.084740592561821787 0 0.00016199016022853447 -0.084741669345806792 0 0.00017645465653438956 -0.084634704168648489 0 0.00042201714448792174 -0.08490593403233386 0 0.00012315818735006933 -0.084613013836409998 0 9.3304828350378467e-06 -0.085014069027711039 0 0.00042201714448792174 -0.08490593403233386 0 9.3304828350378467e-06 -0.085014069027711039 0 -0.00010392651488015034 -0.085424199269795498 0 0.00017645465653438956 -0.084634704168648489 0 0.0002940536789849303 -0.084195529350821169 0 1.0079733617321948e-05 -0.084993696034399671 0 5.0837466839714733e-06 -0.084995981970365425 0 7.9380586952182389e-06 -0.084999287063926537 0 5.0837466839714733e-06 -0.084995981970365425 0 2.2353440643844646e-06 -0.084993760027454901 0 1.7410686066342163e-06 -0.084999084506817216 0 2.2353440643844646e-06 -0.084993760027454901 0 8.6150436679239973e-07 -0.084999366179522806 0 1.7410686066342163e-06 -0.084999084506817216 0 5.0837466839714733e-06 -0.084995981970365425 0 1.7410686066342163e-06 -0.084999084506817216 0 7.9380586952182389e-06 -0.084999287063926537 0 1.0079733617321948e-05 -0.084993696034399671 0 5.0837466839714733e-06 -0.084995981970365425 0 2.2353440643844646e-06 -0.084993760027454901 0 -6.1004301173644601e-08 -0.084999863588972616 0 1.44831234602443e-05 -0.084909495039054608 0 -3.6789583493868174e-09 -0.084999994424995312 0 2.2353440643844646e-06 -0.084993760027454901 0 8.6150436679239973e-07 -0.084999366179522806 0 1.3799198193892437e-07 -0.084999960603167515 0 -5.2477177008094399e-05 -0.08488314945094394 0 -3.4210972794246767e-07 -0.084999710904662656 0 -5.2477177008094399e-05 -0.08488314945094394 0 -5.4166553800393201e-05 -0.084607245670776099 0 -3.4210972794246767e-07 -0.084999710904662656 0 -5.4166553800393201e-05 -0.084607245670776099 0 -3.4210972794246767e-07 -0.084999710904662656 0 -0.00016553978796191753 -0.08442954930451653 0 1.4691435010673438e-08 -0.084997923712604798 0 -3.4210972794246767e-07 -0.084999710904662656 0 -0.00016553978796191753 -0.08442954930451653 0 -5.4166553800393201e-05 -0.084607245670776099 0 -0.00016553978796191753 -0.08442954930451653 0 4.3781468157885654e-06 -0.084159509463293009 0 -0.00021005009959710491 -0.08306012149691179 0 -0.00016553978796191753 -0.08442954930451653 0 4.3781468157885654e-06 -0.084159509463293009 0 -0.00021005009959710491 -0.08306012149691179 0 4.3781468157885654e-06 -0.084159509463293009 0 0.00050543346896534714 -0.083992761788836301 0 4.3781468157885654e-06 -0.084159509463293009 0 0.00050543346896534714 -0.083992761788836301 0 0.00019393176404830457 -0.084368003409276637 0 0.00050543346896534714 -0.083992761788836301 0 0.00049302127878624079 -0.084413377918126281 0 0.00019393176404830457 -0.084368003409276637 0 0.00088900045010559476 -0.0842357005938624 0 0.00050543346896534714 -0.083992761788836301 0 0.00049302127878624079 -0.084413377918126281 0 0.00011690290875727704 -0.084715017840296322 0 0.00049302127878624079 -0.084413377918126281 0 0.00013376931642022769 -0.084634029389768384 0 0.00049302127878624079 -0.084413377918126281 0 0.00013376931642022769 -0.084634029389768384 0 0.00019393176404830457 -0.084368003409276637 0 0.00016199016022853447 -0.084741669345806792 0 0.00023190441753603028 -0.084690982635325165 0 -5.4166553800393201e-05 -0.084607245670776099 0 0.00013376931642022769 -0.084634029389768384 0 0.00019393176404830457 -0.084368003409276637 0 0.00011534376907462244 -0.084682541701522868 0 -5.4166553800393201e-05 -0.084607245670776099 0 0.00013376931642022769 -0.084634029389768384 0 -5.4166553800393201e-05 -0.084607245670776099 0 4.3781468157885654e-06 -0.084159509463293009 0 0.00019393176404830457 -0.084368003409276637 0 0.0026914759214576285 -0.043778029706682334 0 0.0037996618318753362 -0.041683370060606718 0 0.0012200134226654478 -0.042650491207394503 0 0.0014516013469706183 -0.041273088603270003 0 0.00079848259502309903 -0.04220300430257274 0 -0.00029431052937030822 -0.047585547678270487 0 0.00035550918668167045 -0.047481065952512926 0 0.00018903728636244171 -0.047791912731821568 0 -0.00029431052937030822 -0.047585547678270487 0 -0.00017275385821428779 -0.047661924522758414 0 0.00018903728636244171 -0.047791912731821568 0 -0.00029431052937030822 -0.047585547678270487 0 -0.00017046026688106075 -0.047430137387969196 0 -0.00017275385821428779 -0.047661924522758414 0 -0.00029431052937030822 -0.047585547678270487 0 -0.00027248615579808435 -0.046918109607199672 0 -0.00044004390998482717 -0.047750278718073663 0 -0.00029431052937030822 -0.047585547678270487 0 -0.00027248615579808435 -0.046918109607199672 0 0.00035550918668167045 -0.047481065952512926 0 0.0026914759214576285 -0.043778029706682334 0 0.0023208871531310779 -0.044159930970728956 0 -0.00027248615579808435 -0.046918109607199672 0 0.00035550918668167045 -0.047481065952512926 0 0.00034426811547465946 -0.044947403556333886 0 0.0012200134226654478 -0.042650491207394503 0 0.00034426811547465946 -0.044947403556333886 0 0.00011563537448395247 -0.043282760060224204 0 0.00034426811547465946 -0.044947403556333886 0 -9.9756503293041803e-07 -0.043638016013806437 0 -0.00029866906194121783 -0.046792229564220925 0 0.00034426811547465946 -0.044947403556333886 0 -9.9756503293041803e-07 -0.043638016013806437 0 -5.8308465543843104e-05 -0.04266281550602874 0 -9.9756503293041803e-07 -0.043638016013806437 0 -0.00029866906194121783 -0.046792229564220925 0 -8.8173099543660023e-07 -0.048303002389473347 0 -0.00027248615579808435 -0.046918109607199672 0 0.00034426811547465946 -0.044947403556333886 0 -0.00029866906194121783 -0.046792229564220925 0 -0.00027248615579808435 -0.046918109607199672 0 -0.00029866906194121783 -0.046792229564220925 0 -0.00044004390998482717 -0.047750278718073663 0 -0.00044004390998482717 -0.047750278718073663 0 -0.00018530728868271793 -0.049229969155782399 0 -5.6480494747965118e-05 -0.048936636006309424 0 -0.00029866906194121783 -0.046792229564220925 0 -0.00044004390998482717 -0.047750278718073663 0 -0.00018530728868271793 -0.049229969155782399 0 -8.8173099543660023e-07 -0.048303002389473347 0 -0.00018530728868271793 -0.049229969155782399 0 1.1124948253269148e-06 -0.052967097901585984 0 -0.00029866906194121783 -0.046792229564220925 0 -8.8173099543660023e-07 -0.048303002389473347 0 -0.00018530728868271793 -0.049229969155782399 0 -0.00018530728868271793 -0.049229969155782399 0 1.1124948253269148e-06 -0.052967097901585984 0 0.00035844629946605916 -0.051114914884351298 0 0.00035844629946605916 -0.051114914884351298 0 -5.6480494747965118e-05 -0.048936636006309424 0 0.0013310586065139426 -0.049512486683554097 0 -0.00018530728868271793 -0.049229969155782399 0 0.00035844629946605916 -0.051114914884351298 0 -5.6480494747965118e-05 -0.048936636006309424 0 -5.6480494747965118e-05 -0.048936636006309424 0 0.00062358833530109083 -0.048379215531744395 0 0.0013310586065139426 -0.049512486683554097 0 0.00062358833530109083 -0.048379215531744395 0 0.00044366608799599895 -0.047593449591304141 0 0.001188921713426102 -0.047900649958457074 0 0.00062358833530109083 -0.048379215531744395 0 -0.00019207138174032916 -0.047883871