<?xml version="1.0"?>
<VTKFile type="UnstructuredGrid" version="0.1" byte_order="LittleEndian">
<UnstructuredGrid>
<Piece NumberOfPoints="31898" NumberOfCells="11152">
<Points>
<DataArray type="Float64" NumberOfComponents="3" format="ascii">
-0.5 -0.5 0 -0.47620991077874902 -0.44978878706170539 0 -0.49999999999999473 -0.42132396840504388 0 -0.5 -0.5 0 -0.47160970827802529 -0.4793630013852106 0 -0.47620991077874902 -0.44978878706170539 0 -0.5 -0.5 0 -0.47160970827802529 -0.4793630013852106 0 -0.44860394795025399 -0.5 0 -0.47160970827802529 -0.4793630013852106 0 -0.44860394795025399 -0.5 0 -0.4490820238307246 -0.45820516232899983 0 -0.44860394795025399 -0.5 0 -0.4490820238307246 -0.45820516232899983 0 -0.42881687682924802 -0.47781464288736519 0 -0.4490820238307246 -0.45820516232899983 0 -0.45555437223955858 -0.42914059360647611 0 -0.4490820238307246 -0.45820516232899983 0 -0.45555437223955858 -0.42914059360647611 0 -0.43867285131603428 -0.4271457417558665 0 -0.4490820238307246 -0.45820516232899983 0 -0.43867285131603428 -0.4271457417558665 0 -0.4263356171060747 -0.44269880333887462 0 -0.47160970827802529 -0.4793630013852106 0 -0.4490820238307246 -0.45820516232899983 0 -0.47620991077874902 -0.44978878706170539 0 -0.4490820238307246 -0.45820516232899983 0 -0.47620991077874902 -0.44978878706170539 0 -0.45555437223955858 -0.42914059360647611 0 -0.47620991077874902 -0.44978878706170539 0 -0.48101336032419229 -0.41069999664450008 0 -0.45555437223955858 -0.42914059360647611 0 -0.47620991077874902 -0.44978878706170539 0 -0.49999999999999473 -0.42132396840504388 0 -0.48101336032419229 -0.41069999664450008 0 -0.49999999999999473 -0.42132396840504388 0 -0.48101336032419229 -0.41069999664450008 0 -0.5 -0.393886241813306 0 -0.49999999999999473 -0.42132396840504388 0 -0.48101336032419229 -0.41069999664450008 0 -0.5 -0.393886241813306 0 -0.47854472220918332 -0.38978458738689759 0 -0.48422759779560409 -0.37130120630367158 0 -0.5 -0.393886241813306 0 -0.5 -0.36644851522156802 0 -0.48422759779560409 -0.37130120630367158 0 -0.48101336032419229 -0.41069999664450008 0 -0.5 -0.393886241813306 0 -0.47854472220918332 -0.38978458738689759 0 -0.48101336032419229 -0.41069999664450008 0 -0.47854472220918332 -0.38978458738689759 0 -0.46202672064839212 -0.40007602488395211 0 -0.48101336032419229 -0.41069999664450008 0 -0.46202672064839212 -0.40007602488395211 0 -0.47854472220918332 -0.38978458738689759 0 -0.46725442735267431 -0.37660061361585562 0 -0.46202672064839212 -0.40007602488395211 0 -0.47854472220918332 -0.38978458738689759 0 -0.46725442735267431 -0.37660061361585562 0 -0.48422759779560409 -0.37130120630367158 0 -0.46725442735267431 -0.37660061361585562 0 -0.46202672064839212 -0.40007602488395211 0 -0.46725442735267431 -0.37660061361585562 0 -0.45645674801697989 -0.38644133236760531 0 -0.46202672064839212 -0.40007602488395211 0 -0.46725442735267431 -0.37660061361585562 0 -0.45645674801697989 -0.38644133236760531 0 -0.4540003998136638 -0.37455519391687309 0 -0.45645674801697989 -0.38644133236760531 0 -0.46202672064839212 -0.40007602488395211 0 -0.44257020456291563 -0.38918913383950271 0 -0.46202672064839212 -0.40007602488395211 0 -0.44257020456291563 -0.38918913383950271 0 -0.44727608925983742 -0.41095911152778891 0 -0.46202672064839212 -0.40007602488395211 0 -0.44257020456291563 -0.38918913383950271 0 -0.44257020456291563 -0.38918913383950271 0 -0.44727608925983742 -0.41095911152778891 0 -0.43479358559901082 -0.4041454901736512 0 -0.44257020456291563 -0.38918913383950271 0 -0.4540003998136638 -0.37455519391687309 0 -0.44172858264042247 -0.37082207246888088 0 -0.45645674801697989 -0.38644133236760531 0 -0.44257020456291563 -0.38918913383950271 0 -0.4540003998136638 -0.37455519391687309 0 -0.46202672064839212 -0.40007602488395211 0 -0.45555437223955858 -0.42914059360647611 0 -0.44727608925983742 -0.41095911152778891 0 -0.46202672064839212 -0.40007602488395211 0 -0.45555437223955858 -0.42914059360647611 0 -0.48101336032419229 -0.41069999664450008 0 -0.46202672064839212 -0.40007602488395211 0 -0.45555437223955858 -0.42914059360647611 0 -0.44727608925983742 -0.41095911152778891 0 -0.43867285131603428 -0.4271457417558665 0 -0.43676601469929588 -0.41441201227470881 0 -0.44727608925983742 -0.41095911152778891 0 -0.43676601469929588 -0.41441201227470881 0 -0.43479358559901082 -0.4041454901736512 0 -0.45555437223955858 -0.42914059360647611 0 -0.44727608925983742 -0.41095911152778891 0 -0.43867285131603428 -0.4271457417558665 0 -0.43867285131603428 -0.4271457417558665 0 -0.42681803064840879 -0.42717069814352421 0 -0.4263356171060747 -0.44269880333887462 0 -0.42681803064840879 -0.42717069814352421 0 -0.41531815884496182 -0.42985383783075998 0 -0.4263356171060747 -0.44269880333887462 0 -0.42681803064840879 -0.42717069814352421 0 -0.42624289495594048 -0.42089725947505818 0 -0.42083332353326591 -0.42146747131641099 0 -0.42681803064840879 -0.42717069814352421 0 -0.43096994786351572 -0.41951492446283251 0 -0.42624289495594048 -0.42089725947505818 0 -0.43867285131603428 -0.4271457417558665 0 -0.42681803064840879 -0.42717069814352421 0 -0.43096994786351572 -0.41951492446283251 0 -0.43867285131603428 -0.4271457417558665 0 -0.43676601469929588 -0.41441201227470881 0 -0.43096994786351572 -0.41951492446283251 0 -0.43676601469929588 -0.41441201227470881 0 -0.43096994786351572 -0.41951492446283251 0 -0.42907264086257813 -0.41311715872526122 0 -0.43676601469929588 -0.41441201227470881 0 -0.42907264086257813 -0.41311715872526122 0 -0.43479358559901082 -0.4041454901736512 0 -0.42907264086257813 -0.41311715872526122 0 -0.43479358559901082 -0.4041454901736512 0 -0.42460885511582858 -0.40417321677700252 0 -0.42907264086257813 -0.41311715872526122 0 -0.41997834854398469 -0.41180534796019508 0 -0.42907264086257813 -0.41311715872526122 0 -0.42635027777857132 -0.41543594397746519 0 -0.41997834854398469 -0.41180534796019508 0 -0.42907264086257813 -0.41311715872526122 0 -0.41997834854398469 -0.41180534796019508 0 -0.42460885511582858 -0.40417321677700252 0 -0.42635027777857132 -0.41543594397746519 0 -0.41997834854398469 -0.41180534796019508 0 -0.42635027777857132 -0.41543594397746519 0 -0.42083332353326591 -0.42146747131641099 0 -0.41997834854398469 -0.41180534796019508 0 -0.43096994786351572 -0.41951492446283251 0 -0.42624289495594048 -0.42089725947505818 0 -0.42635027777857132 -0.41543594397746519 0 -0.43096994786351572 -0.41951492446283251 0 -0.42907264086257813 -0.41311715872526122 0 -0.42635027777857132 -0.41543594397746519 0 -0.42624289495594048 -0.42089725947505818 0 -0.42635027777857132 -0.41543594397746519 0 -0.42083332353326591 -0.42146747131641099 0 -0.42083332353326591 -0.42146747131641099 0 -0.41997834854398469 -0.41180534796019508 0 -0.40992282953163789 -0.42011435591993562 0 -0.41997834854398469 -0.41180534796019508 0 -0.39756877647335259 -0.40857286797681719 0 -0.41997834854398469 -0.41180534796019508 0 -0.40992282953163789 -0.42011435591993562 0 -0.39756877647335259 -0.40857286797681719 0 -0.40992282953163789 -0.42011435591993562 0 -0.41531815884496182 -0.42985383783075998 0 -0.39591554026262499 -0.42887225451549271 0 -0.41531815884496182 -0.42985383783075998 0 -0.39591554026262499 -0.42887225451549271 0 -0.41160927495564159 -0.44339431233754628 0 -0.42083332353326591 -0.42146747131641099 0 -0.40992282953163789 -0.42011435591993562 0 -0.41531815884496182 -0.42985383783075998 0 -0.42681803064840879 -0.42717069814352421 0 -0.42083332353326591 -0.42146747131641099 0 -0.41531815884496182 -0.42985383783075998 0 -0.44257020456291563 -0.38918913383950271 0 -0.42311368847744002 -0.37830224279505142 0 -0.42594061475171041 -0.39368797999533162 0 -0.44257020456291563 -0.38918913383950271 0 -0.42311368847744002 -0.37830224279505142 0 -0.44172858264042247 -0.37082207246888088 0 -0.44257020456291563 -0.38918913383950271 0 -0.42311368847744002 -0.37830224279505142 0 -0.42311368847744002 -0.37830224279505142 0 -0.42594061475171041 -0.39368797999533162 0 -0.416587075656149 -0.38785930376960043 0 -0.44257020456291563 -0.38918913383950271 0 -0.42594061475171041 -0.39368797999533162 0 -0.43479358559901082 -0.4041454901736512 0 -0.42594061475171041 -0.39368797999533162 0 -0.43479358559901082 -0.4041454901736512 0 -0.42460885511582858 -0.40417321677700252 0 -0.41997834854398469 -0.41180534796019508 0 -0.41325908582185972 -0.39811010703057192 0 -0.39770572831670092 -0.39911486077581648 0 -0.41997834854398469 -0.41180534796019508 0 -0.39770572831670092 -0.39911486077581648 0 -0.42594061475171041 -0.39368797999533162 0 -0.42460885511582858 -0.40417321677700252 0 -0.41325908582185972 -0.39811010703057192 0 -0.41997834854398469 -0.41180534796019508 0 -0.42460885511582858 -0.40417321677700252 0 -0.41325908582185972 -0.39811010703057192 0 -0.42594061475171041 -0.39368797999533162 0 -0.41325908582185972 -0.39811010703057192 0 -0.416587075656149 -0.38785930376960043 0 -0.41325908582185972 -0.39811010703057192 0 -0.416587075656149 -0.38785930376960043 0 -0.40403491357358612 -0.38133688525744702 0 -0.42311368847744002 -0.37830224279505142 0 -0.40403491357358612 -0.38133688525744702 0 -0.40365717239196519 -0.36741535175059892 0 -0.42311368847744002 -0.37830224279505142 0 -0.416587075656149 -0.38785930376960043 0 -0.40403491357358612 -0.38133688525744702 0 -0.40403491357358612 -0.38133688525744702 0 -0.39190790742475001 -0.38540387676521748 0 -0.39770572831670092 -0.39911486077581648 0 -0.40403491357358612 -0.38133688525744702 0 -0.39190790742475001 -0.38540387676521748 0 -0.3904578797192948 -0.37473938743617019 0 -0.41325908582185972 -0.39811010703057192 0 -0.40403491357358612 -0.38133688525744702 0 -0.39770572831670092 -0.39911486077581648 0 -0.39770572831670092 -0.39911486077581648 0 -0.37543310808941849 -0.38642437359143528 0 -0.39770572831670092 -0.39911486077581648 0 -0.37515920440272033 -0.40534038799344108 0 -0.37543310808941849 -0.38642437359143528 0 -0.39770572831670092 -0.39911486077581648 0 -0.37515920440272033 -0.40534038799344108 0 -0.39756877647335259 -0.40857286797681719
[...]
<PointData Scalars="" Vectors="displacement," Tensors="">
<DataArray type="Float64" Name="displacement" NumberOfComponents="3" format="ascii">
-0.084993867820572278 -0.084995213616563633 0 -0.079243739639403371 -0.083484581655494675 0 -0.07165081121618172 -0.084988673961374508 0 -0.084993867820572278 -0.084995213616563633 0 -0.083644124291893621 -0.081900458194886588 0 -0.079243739639403371 -0.083484581655494675 0 -0.084993867820572278 -0.084995213616563633 0 -0.083644124291893621 -0.081900458194886588 0 -0.084995238180725671 -0.076270012409588195 0 -0.083644124291893621 -0.081900458194886588 0 -0.084995238180725671 -0.076270012409588195 0 -0.084159411009746166 -0.080717385899116575 0 -0.084995238180725671 -0.076270012409588195 0 -0.084159411009746166 -0.080717385899116575 0 -0.085270542669556942 -0.074703004461923267 0 -0.082455953540809326 -0.082993939399519295 0 -0.082131456258891664 -0.083663593815775303 0 -0.084159411009746166 -0.080717385899116575 0 -0.091443871509210115 -0.08145546160569804 0 -0.092013295988898944 -0.07782437095034335 0 -0.084159411009746166 -0.080717385899116575 0 -0.092013295988898944 -0.07782437095034335 0 -0.088959893699951859 -0.075029854593578305 0 -0.083644124291893621 -0.081900458194886588 0 -0.084159411009746166 -0.080717385899116575 0 -0.079243739639403371 -0.083484581655494675 0 -0.084159411009746166 -0.080717385899116575 0 -0.079243739639403371 -0.083484581655494675 0 -0.077337084406514281 -0.084949832991482593 0 -0.079243739639403371 -0.083484581655494675 0 -0.073748737533838912 -0.084092008564473505 0 -0.077337084406514281 -0.084949832991482593 0 -0.079243739639403371 -0.083484581655494675 0 -0.07165081121618172 -0.084988673961374508 0 -0.073748737533838912 -0.084092008564473505 0 -0.071625052020760485 -0.084999990016826996 0 -0.069816751809648039 -0.088206184443205243 0 -0.066960672877019234 -0.084999986308985254 0 -0.071627577615242605 -0.085001091362968337 0 -0.072785242103966682 -0.085419043320306559 0 -0.066960672877019234 -0.084999986308985254 0 -0.066269928502093386 -0.08862235148961399 0 -0.063126702343396859 -0.087663742827990401 0 -0.066960672877019234 -0.084999986308985254 0 -0.062296254409787893 -0.08499998387239599 0 -0.063126702343396859 -0.087663742827990401 0 -0.069816751809648039 -0.088206184443205243 0 -0.066960672877019234 -0.084999986308985254 0 -0.066269928502093386 -0.08862235148961399 0 -0.069816751809648039 -0.088206184443205243 0 -0.066269928502093386 -0.08862235148961399 0 -0.068022716893846868 -0.091404112486975067 0 -0.072785242103966682 -0.085419043320306559 0 -0.075284017180302282 -0.083944297968943676 0 -0.066269928502093386 -0.08862235148961399 0 -0.064032937422715624 -0.09053136640551615 0 -0.068022716893846868 -0.091404112486975067 0 -0.066269928502093386 -0.08862235148961399 0 -0.064032937422715624 -0.09053136640551615 0 -0.063126702343396859 -0.087663742827990401 0 -0.064546063398127879 -0.086094656857561874 0 -0.075284017180302282 -0.083944297968943676 0 -0.059199879489479204 -0.089835106773394457 0 -0.059038930640760136 -0.089783550004183824 0 -0.05892898501527799 -0.089835941712932063 0 -0.059199879489479204 -0.089835106773394457 0 -0.059038930640760136 -0.089783550004183824 0 -0.059063046064829837 -0.089814638401783081 0 -0.059038930640760136 -0.089783550004183824 0 -0.05892898501527799 -0.089835941712932063 0 -0.058955557788181089 -0.089647170269512078 0 -0.096548027379274579 -0.081866391222890397 0 -0.09799712982656103 -0.078468136002371555 0 -0.0947734116001165 -0.079440023843660834 0 -0.075284017180302282 -0.083944297968943676 0 -0.075997989807172733 -0.082522151596299304 0 -0.09799712982656103 -0.078468136002371555 0 -0.0947734116001165 -0.079440023843660834 0 -0.09581236777837808 -0.077262511629943201 0 -0.058955557788181089 -0.089647170269512078 0 -0.059063046064829837 -0.089814638401783081 0 -0.059067128772644147 -0.08964042108037383 0 -0.059038930640760136 -0.089783550004183824 0 -0.058955557788181089 -0.089647170269512078 0 -0.059063046064829837 -0.089814638401783081 0 -0.096548027379274579 -0.081866391222890397 0 -0.091443871509210115 -0.08145546160569804 0 -0.0947734116001165 -0.079440023843660834 0 -0.075284017180302282 -0.083944297968943676 0 -0.082131456258891664 -0.083663593815775303 0 -0.073748737533838912 -0.084092008564473505 0 -0.073378637124622309 -0.085362628527300158 0 -0.077337084406514281 -0.084949832991482593 0 -0.0947734116001165 -0.079440023843660834 0 -0.092013295988898944 -0.07782437095034335 0 -0.094241658143462997 -0.077540442743586152 0 -0.0947734116001165 -0.079440023843660834 0 -0.094241658143462997 -0.077540442743586152 0 -0.09581236777837808 -0.077262511629943201 0 -0.091443871509210115 -0.08145546160569804 0 -0.0947734116001165 -0.079440023843660834 0 -0.092013295988898944 -0.07782437095034335 0 -0.092013295988898944 -0.07782437095034335 0 -0.091933927361177364 -0.07543733983925624 0 -0.088959893699951859 -0.075029854593578305 0 -0.091933927361177364 -0.07543733983925624 0 -0.091413179380715762 -0.073197841384046544 0 -0.088959893699951859 -0.075029854593578305 0 -0.091933927361177364 -0.07543733983925624 0 -0.093098920964010401 -0.075429965071924579 0 -0.092979812159809147 -0.074330722336961502 0 -0.091933927361177364 -0.07543733983925624 0 -0.093367143306982397 -0.076414046931337617 0 -0.093098920964010401 -0.075429965071924579 0 -0.092013295988898944 -0.07782437095034335 0 -0.091933927361177364 -0.07543733983925624 0 -0.093367143306982397 -0.076414046931337617 0 -0.092013295988898944 -0.07782437095034335 0 -0.094241658143462997 -0.077540442743586152 0 -0.093367143306982397 -0.076414046931337617 0 -0.094241658143462997 -0.077540442743586152 0 -0.093367143306982397 -0.076414046931337617 0 -0.094573224492758817 -0.07622174470001257 0 -0.094241658143462997 -0.077540442743586152 0 -0.094573224492758817 -0.07622174470001257 0 -0.09581236777837808 -0.077262511629943201 0 -0.094573224492758817 -0.07622174470001257 0 -0.09581236777837808 -0.077262511629943201 0 -0.095788760619069921 -0.075808782062994642 0 -0.091463545694156781 -0.071224947800763064 0 -0.091414503412403425 -0.070648226839229555 0 -0.094573224492758817 -0.07622174470001257 0 -0.094117019231356069 -0.075540629209915999 0 -0.094991276286391479 -0.074037448194877675 0 -0.094573224492758817 -0.07622174470001257 0 -0.09486145624192055 -0.075216783111655458 0 -0.095788760619069921 -0.075808782062994642 0 -0.091404833013238318 -0.070869318386715466 0 -0.091414503412403425 -0.070648226839229555 0 -0.094117019231356069 -0.075540629209915999 0 -0.092979812159809147 -0.074330722336961502 0 -0.09484297850568274 -0.074167760424658336 0 -0.093367143306982397 -0.076414046931337617 0 -0.093098920964010401 -0.075429965071924579 0 -0.094117019231356069 -0.075540629209915999 0 -0.093367143306982397 -0.076414046931337617 0 -0.094573224492758817 -0.07622174470001257 0 -0.094117019231356069 -0.075540629209915999 0 -0.093098920964010401 -0.075429965071924579 0 -0.094117019231356069 -0.075540629209915999 0 -0.092979812159809147 -0.074330722336961502 0 -0.092979812159809147 -0.074330722336961502 0 -0.09484297850568274 -0.074167760424658336 0 -0.093238349459527636 -0.072227659982906062 0 -0.091414503412403425 -0.070648226839229555 0 -0.091983245695743454 -0.06760282918717786 0 -0.09484297850568274 -0.074167760424658336 0 -0.093238349459527636 -0.072227659982906062 0 -0.095370581463460599 -0.069920396973478099 0 -0.093238349459527636 -0.072227659982906062 0 -0.091413179380715762 -0.073197841384046544 0 -0.091630269565635913 -0.069626277466878952 0 -0.091413179380715762 -0.073197841384046544 0 -0.091630269565635913 -0.069626277466878952 0 -0.088999450011907094 -0.072472025291931058 0 -0.092979812159809147 -0.074330722336961502 0 -0.093238349459527636 -0.072227659982906062 0 -0.091413179380715762 -0.073197841384046544 0 -0.091933927361177364 -0.07543733983925624 0 -0.092979812159809147 -0.074330722336961502 0 -0.091413179380715762 -0.073197841384046544 0 -0.09799712982656103 -0.078468136002371555 0 -0.098955040001935279 -0.075672355800521063 0 -0.09715469147562765 -0.076044065303972452 0 -0.058955557788181089 -0.089647170269512078 0 -0.058976487980614577 -0.089329431851243798 0 -0.059067128772644147 -0.08964042108037383 0 -0.075997989807172733 -0.082522151596299304 0 -0.075937069926790418 -0.079959251618359886 0 -0.098955040001935279 -0.075672355800521063 0 -0.09715469147562765 -0.076044065303972452 0 -0.097767229980544754 -0.074879669041850158 0 -0.09799712982656103 -0.078468136002371555 0 -0.09715469147562765 -0.076044065303972452 0 -0.09581236777837808 -0.077262511629943201 0 -0.09715469147562765 -0.076044065303972452 0 -0.09581236777837808 -0.077262511629943201 0 -0.095788760619069921 -0.075808782062994642 0 -0.09486145624192055 -0.075216783111655458 0 -0.096557640049099253 -0.074461898588388475 0 -0.096497645148531708 -0.072721358719388007 0 -0.091414503412403425 -0.070648226839229555 0 -0.090865081137984388 -0.067731066591386641 0 -0.09715469147562765 -0.076044065303972452 0 -0.095788760619069921 -0.075808782062994642 0 -0.096557640049099253 -0.074461898588388475 0 -0.09486145624192055 -0.075216783111655458 0 -0.095788760619069921 -0.075808782062994642 0 -0.096557640049099253 -0.074461898588388475 0 -0.09715469147562765 -0.076044065303972452 0 -0.096557640049099253 -0.074461898588388475 0 -0.097767229980544754 -0.074879669041850158 0 -0.096557640049099253 -0.074461898588388475 0 -0.097767229980544754 -0.074879669041850158 0 -0.098389657212895901 -0.073378327629167281 0 -0.098955040001935279 -0.075672355800521063 0 -0.098389657212895901 -0.073378327629167281 0 -0.10002484272725298 -0.073340253382322099 0 -0.098955040001935279 -0.075672355800521063 0 -0.097767229980544754 -0.074879669041850158 0 -0.098389657212895901 -0.073378327629167281 0 -0.098389657212895901 -0.073378327629167281 0 -0.097895889058440516 -0.072198062624395778 0 -0.096497645148531708 -0.072721358719388007 0 -0.098389657212895901 -0.073378327629167281 0 -0.097895889058440516 -0.072198062624395778 0 -0.098868711866076903 -0.072078830874965263 0 -0.096557640049099253 -0.074461898588388475 0 -0.098389657212895901 -0.073378327629167281 0 -0.096497645148531708 -0.072721358719388007 0 -0.090865081137984388 -0.067731066591386641 0 -0.088798272739721379 -0.063186061684949904 0 -0.09153267025795632 -0.066602218402794733 0 -0.090830352552588978 -0.064058746464317209 0 -0.092950709410503055 -0.064087676008705768 0 -0.09153267025795632 -0.066602218402794733 0 -0.090830352552588978 -0.064058746464317209 0 -0.090468334984865589 -0.066588333217817583 0 -0.092277845028461716 -0.063295665680549951 0 -0.088798272739721379 -0.063186061684949904 0 -0.097797176049397999 -0.070668739454802232 0 -0.098868711866076903 -0.072078830874965263 0 -0.099322011701126714 -0.070756417233020993 0 -0.097895889058440516 -0.072198062624395778 0 -0.097797176049397999 -0.070668739454802232 0 -0.098868711866076903 -0.072078830874965263 0 -0.088798272739721379 -0.063186061684949904 0 -0.084046894651033613 -0.064783155571182124 0 -0.097895889058440516 -0.072198062624395778 0 -0.096497645148531708 -0.072721358719388007 0 -0.097797176049397999 -0.070668739454802232 0 -0.090110164069357984 -0.069128438641959972 0 -0.09153267025795632 -0.066602218402794733 0 -0.090468334984865589 -0.066588333217817583 0 -0.093238349459527636 -0.072227659982906062 0 -0.091630269565635913 -0.069626277466878952 0 -0.095370581463460599 -0.069920396973478099 0 -0.095944661375210183 -0.065815812594006151 0 -0.091630269565635913 -0.069626277466878952 0 -0.095370581463460599 -0.069920396973478099 0 -0.092277845028461716 -0.063295665680549951 0 -0.091983245695743454 -0.06760282918717786 0 -0.095944661375210183 -0.065815812594006151 0 -0.091630269565635913 -0.069626277466878952 0 -0.090437618300249975 -0.065761653835326561 0 -0.091630269565635913 -0.069626277466878952 0 -0.088428097487816798 -0.069090647128290966 0 -0.090437618300249975 -0.065761653835326561 0 -0.088428097487816798 -0.069090647128290966 0 -0.084990483188076532 -0.065691894736656403 0 -0.090437618300249975 -0.065761653835326561 0 -0.091630269565635913 -0.069626277466878952 0 -0.088428097487816798 -0.069090647128290966 0 -0.088999450011907094 -0.072472025291931058 0 -0.088428097487816798 -0.069090647128290966 0 -0.086441855303374074 -0.071073527351171908 0 -0.088999450011907094 -0.072472025291931058 0 -0.087514232438686793 -0.071227102966980024 0 -0.086454706308531068 -0.068423398780632846 0 -0.086402469208204866 -0.071956535096521612 0 -0.092047289401017668 -0.068514457096475773 0 -0.091391388872628779 -0.066082966071494928 0 -0.088561225308391625 -0.066640947428817945 0 -0.089087816759076427 -0.067610055117436882 0 -0.087154793126885524 -0.066457129369799431 0 -0.089087816759076427 -0.067610055117436882 0 -0.089089870168188992 -0.067644518863561653 0 -0.089087816759076427 -0.067610055117436882 0 -0.089097613598483338 -0.066226005380366507 0 -0.088428097487816798 -0.069090647128290966 0 -0.086441855303374074 -0.071073527351171908 0 -0.08571683293370265 -0.068381685119005442 0 -0.088428097487816798 -0.069090647128290966 0 -0.08571683293370265 -0.068381685119005442 0 -0.084990483188076532 -0.065691894736656403 0 -0.089097613598483338 -0.066226005380366507 0 -0.08906839746178187 -0.064111088099234756 0 -0.091391388872628779 -0.066082966071494928 0 -0.089743344886152265 -0.065201657524362966 0 -0.090734808395551189 -0.063633266652022027 0 -0.089743344886152265 -0.065201657524362966 0 -0.088561225308391625 -0.066640947428817945 0 -0.088801051133876999 -0.063594318041733988 0 -0.088561225308391625 -0.066640947428817945 0 -0.086723635099210813 -0.063306205959531542 0 -0.088801051133876999 -0.063594318041733988 0 -0.089743344886152265 -0.065201657524362966 0 -0.088801051133876999 -0.063594318041733988 0 -0.090734808395551189 -0.063633266652022027 0 -0.091391388872628779 -0.066082966071494928 0 -0.089743344886152265 -0.065201657524362966 0 -0.088561225308391625 -0.066640947428817945 0 -0.085001606058522305 -0.064763112795693037 0 -0.087154793126885524 -0.066457129369799431 0 -0.085000007885837323 -0.064760914303903946 0 -0.088561225308391625 -0.066640947428817945 0 -0.086723635099210813 -0.063306205959531542 0 -0.08499971747120004 -0.064763920973317957 0 -0.086454706308531068 -0.068423398780632846 0 -0.084997891542963749 -0.069697772766550495 0 -0.086454706308531068 -0.068423398780632846 0 -0.086402469208204866 -0.071956535096521612 0 -0.084997891542963749 -0.069697772766550495 0 -0.086402469208204866 -0.071956535096521612 0 -0.084997891542963749 -0.069697772766550495 0 -0.085270542669556942 -0.074703004461923267 0 -0.084995238180725671 -0.076270012409588195 0 -0.084997891542963749 -0.069697772766550495 0 -0.085270542669556942 -0.074703004461923267 0 -0.086402469208204866 -0.071956535096521612 0 -0.085270542669556942 -0.074703004461923267 0 -0.086244106670604281 -0.074900210193363556 0 -0.084159411009746166 -0.080717385899116575 0 -0.085270542669556942 -0.074703004461923267 0 -0.086244106670604281 -0.074900210193363556 0 -0.084159411009746166 -0.080717385899116575 0 -0.086244106670604281 -0.074900210193363556 0 -0.088959893699951859 -0.075029854593578305 0 -0.086244106670604281 -0.074900210193363556 0 -0.088959893699951859 -0.075029854593578305 0 -0.087526229354082885 -0.073123393964944328 0 -0.088959893699951859 -0.075029854593578305 0 -0.088999450011907094 -0.072472025291931058 0 -0.087526229354082885 -0.073123393964944328 0 -0.091413179380715762 -0.073197841384046544 0 -0.088959893699951859 -0.075029854593578305 0 -0.088999450011907094 -0.072472025291931058 0 -0.087423339855725118 -0.071244022312127647 0 -0.088999450011907094 -0.072472025291931058 0 -0.087494320317238181 -0.071579221047725225 0 -0.088999450011907094 -0.072472025291931058 0 -0.087494320317238181 -0.071579221047725225 0 -0.087526229354082885 -0.073123393964944328 0 -0.089087816759076427 -0.067610055117436882 0 -0.089261907535835169 -0.068172010298846078 0 -0.086402469208204866 -0.071956535096521612 0 -0.087494320317238181 -0.071579221047725225 0 -0.087526229354082885 -0.073123393964944328 0 -0.087514232438686793 -0.071227102966980024 0 -0.086402469208204866 -0.071956535096521612 0 -0.087494320317238181 -0.071579221047725225 0 -0.086402469208204866 -0.071956535096521612 0 -0.086244106670604281 -0.074900210193363556 0 -0.087526229354082885 -0.073123393964944328 0 -0.036303007175029843 -0.089159652470297016 0 -0.032429740869276899 -0.084493412556557942 0 -0.042770844800092203 -0.09178675077249196 0 -0.042540667038715479 -0.096983053922544527 0 -0.039784202186459228 -0.093015068364366529 0 -0.046708119014275885 -0.09296901717432271 0 -0.043494175972038661 -0.091903457888065629 0 -0.043219247979851376 -0.095527332643585719 0 -0.046708119014275885 -0.09296901717432271 0 -0.04653220300537235 -0.09612085260700011 0 -0.043219247979851376 -0.095527332643585719 0 -0.046708119014275885 -0.09296901717432271 0 -0.049636288765372745 -0.094331692373599701 0 -0.04653220300537235 -0.09612085260700011 0 -0.046708119014275885 -0.09296901717432271 0 -0.045486540174087688 -0.090174957241342849 0 -0.04803116839099271 -0.089858022269364249 0 -0.046708119014275885 -0.09296901717432271 0 -0.045486540174087688 -0.090174957241342849 0 -0.043494175972038661 -0.091903457888065629 0 -0.036303007175029843 -0.089159652470297016 0 -0.037566838719269961 -0.088958926679561359 0 -0.045486540174087688 -0.090174957241342849 0 -0.043494175972038661 -0.091903457888065629 0 -0.043575310428705646 -0.088109566463169725 0 -0.042770844800092203 -0.09178675077249196 0 -0.043575310428705646 -0.088109566463169725 0 -0.039210235027717283 -0.089010366155604856 0 -0.043575310428705646 -0.088109566463169725 0 -0.043638192859842904 -0.084999241225037131 0 -0.046506726279947695 -0.087481975489295552 0 -0.043575310428705646 -0.088109566463169725 0 -0.043638192859842904 -0.084999241225037131 0 -0.040779969167082861 -0.086642036348067428 0 -0.043638192859842904 -0.084999241225037131 0 -0.046506726279947695 -0.087481975489295552 0 -0.048302879002835537 -0.084999895364881894 0 -0.045486540174087688 -0.090174957241342849 0 -0.043575310428705646 -0.088109566463169725 0 -0.046506726279947695 -0.087481975489295552 0 -0.045486540174087688 -0.090174957241342849 0 -0.046506726279947695 -0.087481975489295552 0 -0.04803116839099271 -0.089858022269364249 0 -0.04803116839099271 -0.089858022269364249 0 -0.049560177657159539 -0.08722485017245489 0 -0.050640431454026261 -0.089460247324548325 0 -0.046506726279947695 -0.087481975489295552 0 -0.04803116839099271 -0.089858022269364249 0 -0.049560177657159539 -0.08722485017245489 0 -0.048302879002835537 -0.084999895364881894 0 -0.049560177657159539 -0.08722485017245489 0 -0.052967236301597567 -0.084999858907074316 0 -0.046506726279947695 -0.087481975489295552 0 -0.048302879002835537 -0.084999895364881894 0 -0.049560177657159539 -0.08722485017245489 0 -0.049560177657159539 -0.08722485017245489 0 -0.052967236301597567 -0.084999858907074316 0 -0.051953433542834153 -0.0877289445165748 0 -0.051953433542834153 -0.0877289445165748 0 -0.050640431454026261 -0.089460247324548325 0 -0.053336124873002662 -0.089356661897065648 0 -0.049560177657159539 -0.08722485017245489 0 -0.051953433542834153 -0.0877289445165748 0 -0.050640431454026261 -0.089460247324548325 0 -0.050640431454026261 -0.089460247324548325 0 -0.051967139910748986 -0.091110767494797518 0 -0.053336124873002662 -0.089356661897065648 0 -0.051967139910748986 -0.091110767494797518 0 -0.051437392776564062 -0.093312423031983338 0 -0.053156022214909227 -0.092462403271022606 0 -0.051967139910748986 -0.091110767494797518 0 -0.049684884538978319 -0.091824502683621953 0 -0.051437392776564062 -0.093312423031983338 0 -0.050640431454026261 -0.089460247324548325 0 -0.051967139910748986 -0.091110767494797518 0 -0.049684884538978319 -0.091824502683621953 0 -0.046708119014275885 -0.09296901717432271 0 -0.04803116839099271 -0.089858022269364249 0 -0.049684884538978319 -0.091824502683621953 0 -0.04803116839099271 -0.089858022269364249 0 -0.