<?xml version="1.0"?>
<VTKFile type="UnstructuredGrid" version="0.1" byte_order="LittleEndian">
<UnstructuredGrid>
<Piece NumberOfPoints="29309" NumberOfCells="10224">
<Points>
<DataArray type="Float64" NumberOfComponents="3" format="ascii">
-0.49999999999999911 -0.49532622771744478 0 -0.48615541693063252 -0.5 0 -0.49999999999999911 -0.49532622771744478 0 -0.5 -0.5 0 -0.48615541693063252 -0.5 0 -0.49999999999999911 -0.49532622771744478 0 -0.48520599427574013 -0.48580804396970712 0 -0.48615541693063252 -0.5 0 -0.48520599427574013 -0.48580804396970712 0 -0.48615541693063252 -0.5 0 -0.48191894400668528 -0.50000000000000244 0 -0.48520599427574013 -0.48580804396970712 0 -0.5 -0.46989090573171949 0 -0.48011350871725877 -0.46780705049992172 0 -0.49999999999999911 -0.49532622771744478 0 -0.48520599427574013 -0.48580804396970712 0 -0.5 -0.46989090573171949 0 -0.48520599427574013 -0.48580804396970712 0 -0.46978046352871933 -0.4828496742093798 0 -0.48011350871725877 -0.46780705049992172 0 -0.46978046352871933 -0.4828496742093798 0 -0.45764198305075432 -0.46569934841875638 0 -0.48011350871725877 -0.46780705049992172 0 -0.48520599427574013 -0.48580804396970712 0 -0.46978046352871933 -0.4828496742093798 0 -0.48191894400668528 -0.50000000000000244 0 -0.46978046352871933 -0.4828496742093798 0 -0.48191894400668528 -0.50000000000000244 0 -0.46978046352871933 -0.4828496742093798 0 -0.4538757231698809 -0.5 0 -0.4510667084392157 -0.48327163927400429 0 -0.46978046352871933 -0.4828496742093798 0 -0.48191894400668528 -0.50000000000000244 0 -0.4538757231698809 -0.5 0 -0.46978046352871933 -0.4828496742093798 0 -0.45764198305075432 -0.46569934841875638 0 -0.46978046352871933 -0.4828496742093798 0 -0.4510667084392157 -0.48327163927400429 0 -0.45764198305075432 -0.46569934841875638 0 -0.4510667084392157 -0.48327163927400429 0 -0.43984629167316908 -0.47211939879000658 0 -0.43418908077355522 -0.49568977495187833 0 -0.4510667084392157 -0.48327163927400429 0 -0.43984629167316908 -0.47211939879000658 0 -0.45764198305075432 -0.46569934841875638 0 -0.4538757231698809 -0.5 0 -0.42583250233307651 -0.5 0 -0.43418908077355522 -0.49568977495187833 0 -0.4538757231698809 -0.5 0 -0.4510667084392157 -0.48327163927400429 0 -0.43418908077355522 -0.49568977495187833 0 -0.43984629167316908 -0.47211939879000658 0 -0.44550350257278581 -0.44854902262813562 0 -0.45764198305075432 -0.46569934841875638 0 -0.43984629167316908 -0.47211939879000658 0 -0.44550350257278581 -0.44854902262813562 0 -0.42918026569216838 -0.45870374125566138 0 -0.44550350257278581 -0.44854902262813562 0 -0.45764198305075432 -0.46569934841875638 0 -0.43984629167316908 -0.47211939879000658 0 -0.44550350257278581 -0.44854902262813562 0 -0.44550350257278581 -0.44854902262813562 0 -0.45764198305075432 -0.46569934841875638 0 -0.46006326994291141 -0.44835485634661137 0 -0.45764198305075432 -0.46569934841875638 0 -0.46006326994291141 -0.44835485634661137 0 -0.47547070664579311 -0.4494059160538344 0 -0.44550350257278581 -0.44854902262813562 0 -0.46006326994291141 -0.44835485634661137 0 -0.46017397261349868 -0.43165762058906387 0 -0.46006326994291141 -0.44835485634661137 0 -0.47547070664579311 -0.4494059160538344 0 -0.46017397261349868 -0.43165762058906387 0 -0.45764198305075432 -0.46569934841875638 0 -0.47547070664579311 -0.4494059160538344 0 -0.48011350871725877 -0.46780705049992172 0 -0.47547070664579311 -0.4494059160538344 0 -0.48011350871725877 -0.46780705049992172 0 -0.5 -0.44445558374599431 0 -0.5 -0.46989090573171949 0 -0.48011350871725877 -0.46780705049992172 0 -0.5 -0.44445558374599431 0 -0.47547070664579311 -0.4494059160538344 0 -0.5 -0.44445558374599431 0 -0.48039016628270881 -0.42888933741111901 0 -0.5 -0.44445558374599431 0 -0.5 -0.41902026176026907 0 -0.48039016628270881 -0.42888933741111901 0 -0.5 -0.41902026176026907 0 -0.47950130143004399 -0.41160388182976632 0 -0.48746864446835469 -0.40064741743319232 0 -0.5 -0.41902026176026907 0 -0.47950130143004399 -0.41160388182976632 0 -0.48039016628270881 -0.42888933741111901 0 -0.47950130143004399 -0.41160388182976632 0 -0.48039016628270881 -0.42888933741111901 0 -0.46643743848989261 -0.41758077542317329 0 -0.47950130143004399 -0.41160388182976632 0 -0.46903330510697933 -0.4063542943137825 0 -0.46643743848989261 -0.41758077542317329 0 -0.47950130143004399 -0.41160388182976632 0 -0.46903330510697933 -0.4063542943137825 0 -0.47623606316038591 -0.40121060678393572 0 -0.47547070664579311 -0.4494059160538344 0 -0.48039016628270881 -0.42888933741111901 0 -0.46017397261349868 -0.43165762058906387 0 -0.48039016628270881 -0.42888933741111901 0 -0.46017397261349868 -0.43165762058906387 0 -0.46643743848989261 -0.41758077542317329 0 -0.50000000000000022 -0.39186333439717241 0 -0.49509224694774079 -0.37005158701295748 0 -0.50000000000000022 -0.39186333439717241 0 -0.50000000000000133 -0.3935849397745439 0 -0.48159491317046837 -0.38422256161601631 0 -0.49039945445104022 -0.37987346372960218 0 -0.50000000000000022 -0.39186333439717241 0 -0.49509224694774079 -0.37005158701295748 0 -0.50000000000000133 -0.3935849397745439 0 -0.49323870232452249 -0.39259526696436209 0 -0.48159491317046837 -0.38422256161601631 0 -0.49039945445104022 -0.37987346372960218 0 -0.50000000000000022 -0.39186333439717241 0 -0.48159491317046837 -0.38422256161601631 0 -0.50000000000000133 -0.3935849397745439 0 -0.48159491317046837 -0.38422256161601631 0 -0.49039945445104022 -0.37987346372960218 0 -0.48159491317046837 -0.38422256161601631 0 -0.48491065768595137 -0.37335637189226278 0 -0.49323870232452249 -0.39259526696436209 0 -0.48746864446835469 -0.40064741743319232 0 -0.47684869752946668 -0.38941726441995073 0 -0.5 -0.41902026176026907 0 -0.50000000000000133 -0.3935849397745439 0 -0.48746864446835469 -0.40064741743319232 0 -0.49323870232452249 -0.39259526696436209 0 -0.47684869752946668 -0.38941726441995073 0 -0.50000000000000133 -0.3935849397745439 0 -0.49323870232452249 -0.39259526696436209 0 -0.48746864446835469 -0.40064741743319232 0 -0.47950130143004399 -0.41160388182976632 0 -0.48746864446835469 -0.40064741743319232 0 -0.47623606316038591 -0.40121060678393572 0 -0.46903330510697933 -0.4063542943137825 0 -0.47623606316038591 -0.40121060678393572 0 -0.46682973909756759 -0.39723500456206268 0 -0.47623606316038591 -0.40121060678393572 0 -0.47684869752946668 -0.38941726441995073 0 -0.46682973909756759 -0.39723500456206268 0 -0.48746864446835469 -0.40064741743319232 0 -0.47623606316038591 -0.40121060678393572 0 -0.47684869752946668 -0.38941726441995073 0 -0.49323870232452249 -0.39259526696436209 0 -0.47684869752946668 -0.38941726441995073 0 -0.48159491317046837 -0.38422256161601631 0 -0.47684869752946668 -0.38941726441995073 0 -0.48159491317046837 -0.38422256161601631 0 -0.46318982634093547 -0.37486018345748873 0 -0.48159491317046837 -0.38422256161601631 0 -0.46318982634093547 -0.37486018345748873 0 -0.48159491317046837 -0.38422256161601631 0 -0.47541868980982199 -0.37121554065115991 0 -0.46318982634093547 -0.37486018345748873 0 -0.48159491317046837 -0.38422256161601631 0 -0.48491065768595137 -0.37335637189226278 0 -0.47541868980982199 -0.37121554065115991 0 -0.47684869752946668 -0.38941726441995073 0 -0.46045869273441098 -0.38623926187553942 0 -0.46318982634093547 -0.37486018345748873 0 -0.47684869752946668 -0.38941726441995073 0 -0.46045869273441098 -0.38623926187553942 0 -0.46045869273441098 -0.38623926187553942 0 -0.4484166608936313 -0.37603761414193632 0 -0.46318982634093547 -0.37486018345748873 0 -0.46045869273441098 -0.38623926187553942 0 -0.46318982634093547 -0.37486018345748873 0 -0.47684869752946668 -0.38941726441995073 0 -0.46045869273441098 -0.38623926187553942 0 -0.46682973909756759 -0.39723500456206268 0 -0.46045869273441098 -0.38623926187553942 0 -0.46682973909756759 -0.39723500456206268 0 -0.45616198335700658 -0.40414120296997458 0 -0.46045869273441098 -0.38623926187553942 0 -0.45616198335700658 -0.40414120296997458 0 -0.46903330510697933 -0.4063542943137825 0 -0.46682973909756759 -0.39723500456206268 0 -0.45616198335700658 -0.40414120296997458 0 -0.45616198335700658 -0.40414120296997458 0 -0.44214758509232022 -0.38268875976128069 0 -0.43616488300048672 -0.40387531211529432 0 -0.46045869273441098 -0.38623926187553942 0 -0.45616198335700658 -0.40414120296997458 0 -0.44214758509232022 -0.38268875976128069 0 -0.46045869273441098 -0.38623926187553942 0 -0.44214758509232022 -0.38268875976128069 0 -0.4484166608936313 -0.37603761414193632 0 -0.46045869273441098 -0.38623926187553942 0 -0.44214758509232022 -0.38268875976128069 0 -0.44214758509232022 -0.38268875976128069 0 -0.4484166608936313 -0.37603761414193632 0 -0.43758707977579769 -0.37399721028401112 0 -0.46017397261349868 -0.43165762058906387 0 -0.46643743848989261 -0.41758077542317329 0 -0.45186527397959902 -0.42204314406440901 0 -0.46017397261349868 -0.43165762058906387 0 -0.45186527397959902 -0.42204314406440901 0 -0.45616198335700658 -0.40414120296997458 0 -0.45186527397959902 -0.42204314406440901 0 -0.45616198335700658 -0.40414120296997458 0 -0.46643743848989261 -0.41758077542317329 0 -0.45186527397959902 -0.42204314406440901 0 -0.46903330510697933 -0.4063542943137825 0 -0.45616198335700658 -0.40414120296997458 0 -0.46643743848989261 -0.41758077542317329 0 -0.45186527397959902 -0.42204314406440901 0 -0.43616488300048672 -0.40387531211529432 0 -0.45616198335700658 -0.40414120296997458 0 -0.45186527397959902 -0.42204314406440901 0 -0.43616488300048672 -0.40387531211529432 0 -0.45186527397959902 -0.42204314406440901 0 -0.42889835840991791 -0.42508779675966579 0 -0.43616488300048672 -0.40387531211529432 0 -0.44550350257278581 -0.44854902262813562 0 -0.45186527397959902 -0.42204314406440901 0 -0.42889835840991791 -0.42508779675966579 0 -0.44550350257278581 -0.44854902262813562 0 -0.46017397261349868 -0.43165762058906387 0 -0.45186527397959902 -0.42204314406440901 0 -0.44550350257278581 -0.44854902262813562 0 -0.45186527397959902 -0.42204314406440901 0 -0.44550350257278581 -0.44854902262813562 0 -0.42889835840991791 -0.42
[...]
<PointData Scalars="" Vectors="displacement," Tensors="">
<DataArray type="Float64" Name="displacement" NumberOfComponents="3" format="ascii">
-0.014859920649857576 -0.014999828081159025 0 -0.014999866093996764 -0.014584833436654549 0 -0.014860714702604281 -0.015000102664380364 0 -0.014999381621113044 -0.014999792241356582 0 -0.015000308222086884 -0.014584975580313884 0 -0.014859519562617022 -0.014999208869216686 0 -0.014666783071090631 -0.014967108678171548 0 -0.014999122487969712 -0.014584307194453697 0 -0.014666783071090631 -0.014967108678171548 0 -0.014999122487969712 -0.014584307194453697 0 -0.015000472177289585 -0.014459322424310887 0 -0.014666783071090631 -0.014967108678171548 0 -0.014097001173019366 -0.014999798470301248 0 -0.014060308843209973 -0.015340307340075106 0 -0.014859519562617022 -0.014999208869216686 0 -0.014666783071090631 -0.014967108678171548 0 -0.014097001173019366 -0.014999798470301248 0 -0.014666783071090631 -0.014967108678171548 0 -0.014566523880875608 -0.015552627764281507 0 -0.014060308843209973 -0.015340307340075106 0 -0.014566523880875608 -0.015552627764281507 0 -0.013997726422819655 -0.016041903110415569 0 -0.014060308843209973 -0.015340307340075106 0 -0.014666783071090631 -0.014967108678171548 0 -0.014566523880875608 -0.015552627764281507 0 -0.015000472177289585 -0.014459322424310887 0 -0.015003073070527456 -0.014789570061488641 0 -0.01499992307561039 -0.01445781565064987 0 -0.015491048576818997 -0.014083695303979514 0 -0.014999979446396888 -0.013616294188127626 0 -0.015477241671476858 -0.013537882775133981 0 -0.015491048576818997 -0.014083695303979514 0 -0.014999991738459144 -0.014457528709892243 0 -0.014999979446396888 -0.013616294188127626 0 -0.015003073070527456 -0.014789570061488641 0 -0.014896503812423346 -0.014975776116911466 0 -0.015491048576818997 -0.014083695303979514 0 -0.015477241671476858 -0.013537882775133981 0 -0.015954810250306407 -0.013724110152588554 0 -0.015477241671476858 -0.013537882775133981 0 -0.015787477497748715 -0.013228725099494902 0 -0.015115966521329589 -0.013010787851253591 0 -0.015477241671476858 -0.013537882775133981 0 -0.015787477497748715 -0.013228725099494902 0 -0.015954810250306407 -0.013724110152588554 0 -0.014999979446396888 -0.013616294188127626 0 -0.014999938211189709 -0.012774827340294644 0 -0.015115966521329589 -0.013010787851253591 0 -0.014999979446396888 -0.013616294188127626 0 -0.015477241671476858 -0.013537882775133981 0 -0.015115966521329589 -0.013010787851253591 0 -0.015787477497748715 -0.013228725099494902 0 -0.016394336782576093 -0.013402798024438228 0 -0.015954810250306407 -0.013724110152588554 0 -0.015695637871135686 -0.013041321401306257 0 -0.016334973599457604 -0.013199839598741589 0 -0.016052455214721845 -0.012727955875549105 0 -0.015141765034358023 -0.014145345652863765 0 -0.014896503812423346 -0.014975776116911466 0 -0.015969386729594932 -0.013081625799227919 0 -0.015141765034358023 -0.014145345652863765 0 -0.013481804906550446 -0.016416422218536782 0 -0.013997726422819655 -0.016041903110415569 0 -0.013471787458155138 -0.015999608691670674 0 -0.013997726422819655 -0.016041903110415569 0 -0.013471787458155138 -0.015999608691670674 0 -0.01349185738346197 -0.015558099010892161 0 -0.013481804906550446 -0.016416422218536782 0 -0.013471787458155138 -0.015999608691670674 0 -0.012983058600323387 -0.016021997506713865 0 -0.013471787458155138 -0.015999608691670674 0 -0.01349185738346197 -0.015558099010892161 0 -0.012983058600323387 -0.016021997506713865 0 -0.013997726422819655 -0.016041903110415569 0 -0.01349185738346197 -0.015558099010892161 0 -0.014060308843209973 -0.015340307340075106 0 -0.01349185738346197 -0.015558099010892161 0 -0.014060308843209973 -0.015340307340075106 0 -0.013333675062506638 -0.014999928760765396 0 -0.014097001173019366 -0.014999798470301248 0 -0.014060308843209973 -0.015340307340075106 0 -0.013333675062506638 -0.014999928760765396 0 -0.01349185738346197 -0.015558099010892161 0 -0.013333675062506638 -0.014999928760765396 0 -0.01288964208561964 -0.015484579716060763 0 -0.013333675062506638 -0.014999928760765396 0 -0.012570624728666565 -0.014999935495225481 0 -0.01288964208561964 -0.015484579716060763 0 -0.012570624728666565 -0.014999935495225481 0 -0.012378773089629177 -0.015525389938203123 0 -0.012048813092824748 -0.015322909852851617 0 -0.012570624728666565 -0.014999935495225481 0 -0.012378773089629177 -0.015525389938203123 0 -0.01288964208561964 -0.015484579716060763 0 -0.012378773089629177 -0.015525389938203123 0 -0.01288964208561964 -0.015484579716060763 0 -0.012563210912723425 -0.015870599057355488 0 -0.012378773089629177 -0.015525389938203123 0 -0.012236561124172178 -0.015807788988645762 0 -0.012563210912723425 -0.015870599057355488 0 -0.012378773089629177 -0.015525389938203123 0 -0.012236561124172178 -0.015807788988645762 0 -0.012083314285921522 -0.015617198866174093 0 -0.01349185738346197 -0.015558099010892161 0 -0.01288964208561964 -0.015484579716060763 0 -0.012983058600323387 -0.016021997506713865 0 -0.01288964208561964 -0.015484579716060763 0 -0.012983058600323387 -0.016021997506713865 0 -0.012563210912723425 -0.015870599057355488 0 -0.011755733151082349 -0.015000022835373019 0 -0.011079285329473368 -0.015124488574214947 0 -0.011755834079781806 -0.014999886703478901 0 -0.011807570718077013 -0.015000068446341148 0 -0.01148341324920845 -0.015503572105289697 0 -0.011364365831144882 -0.015252097981230906 0 -0.011755834079781806 -0.014999886703478901 0 -0.011056263208549357 -0.015096038906725949 0 -0.011807726079768958 -0.014999988038648404 0 -0.011809521852319241 -0.015165192023094147 0 -0.011653107871805131 -0.015435733742235041 0 -0.011364365831144882 -0.015252097981230906 0 -0.011755834079781806 -0.014999886703478901 0 -0.01148341324920845 -0.015503572105289697 0 -0.011807532200356494 -0.015000038283198965 0 -0.011532222863769015 -0.015506630467322041 0 -0.011364365831144882 -0.015252097981230906 0 -0.01148341324920845 -0.015503572105289697 0 -0.011157694994690026 -0.015403810252946475 0 -0.011809521852319241 -0.015165192023094147 0 -0.012048813092824748 -0.015322909852851617 0 -0.011763111137558792 -0.015602597537675874 0 -0.012570624728666565 -0.014999935495225481 0 -0.011807726079768958 -0.014999988038648404 0 -0.012048813092824748 -0.015322909852851617 0 -0.011815752930673835 -0.015188934335873028 0 -0.011753446515867193 -0.01564266992223802 0 -0.011807726079768958 -0.014999988038648404 0 -0.011809521852319241 -0.015165192023094147 0 -0.012048813092824748 -0.015322909852851617 0 -0.012378773089629177 -0.015525389938203123 0 -0.012048813092824748 -0.015322909852851617 0 -0.012083314285921522 -0.015617198866174093 0 -0.012236561124172178 -0.015807788988645762 0 -0.012083314285921522 -0.015617198866174093 0 -0.011982347926612104 -0.015870429423020655 0 -0.012083314285921522 -0.015617198866174093 0 -0.011763111137558792 -0.015602597537675874 0 -0.011982347926612104 -0.015870429423020655 0 -0.012048813092824748 -0.015322909852851617 0 -0.012083314285921522 -0.015617198866174093 0 -0.011763111137558792 -0.015602597537675874 0 -0.011809521852319241 -0.015165192023094147 0 -0.011760972326563207 -0.015532590786066407 0 -0.011653107871805131 -0.015435733742235041 0 -0.011760972326563207 -0.015532590786066407 0 -0.011653107871805131 -0.015435733742235041 0 -0.011483787493049147 -0.015796588363361307 0 -0.011532222863769015 -0.015506630467322041 0 -0.011715099139548922 -0.015769982544729333 0 -0.01148341324920845 -0.015503572105289697 0 -0.011085604792258882 -0.015675405826798109 0 -0.011190898993791816 -0.016032062153389325 0 -0.01148341324920845 -0.015503572105289697 0 -0.011157694994690026 -0.015403810252946475 0 -0.011085604792258882 -0.015675405826798109 0 -0.011760972326563207 -0.015532590786066407 0 -0.01170468869548323 -0.015848080387974962 0 -0.011483787493049147 -0.015796588363361307 0 -0.011753446515867193 -0.01564266992223802 0 -0.012567342299531974 -0.015601060493697395 0 -0.012528922357474527 -0.015685866236168911 0 -0.012784040929075561 -0.015387025923982601 0 -0.012808323213508938 -0.015755044852943274 0 -0.012567342299531974 -0.015601060493697395 0 -0.011715099139548922 -0.015769982544729333 0 -0.011763111137558792 -0.015602597537675874 0 -0.011686641954331363 -0.016041777997426752 0 -0.011982347926612104 -0.015870429423020655 0 -0.011686641954331363 -0.016041777997426752 0 -0.011982347926612104 -0.015870429423020655 0 -0.012178160197523959 -0.016163291126930077 0 -0.012567342299531974 -0.015601060493697395 0 -0.012779275246577968 -0.015597128521517968 0 -0.012236561124172178 -0.015807788988645762 0 -0.011982347926612104 -0.015870429423020655 0 -0.012178160197523959 -0.016163291126930077 0 -0.01347954104785991 -0.015041452045183742 0 -0.013861537035326475 -0.014791585505405063 0 -0.013489413316379407 -0.014683036433530848 0 -0.013791297638573884 -0.015119165677611785 0 -0.01347954104785991 -0.015041452045183742 0 -0.013861537035326475 -0.014791585505405063 0 -0.012528922357474527 -0.015685866236168911 0 -0.012623105202169293 -0.015231157248093275 0 -0.012784040929075561 -0.015387025923982601 0 -0.012567342299531974 -0.015601060493697395 0 -0.013256424948220638 -0.01498831292718014 0 -0.012623105202169293 -0.015231157248093275 0 -0.012784040929075561 -0.015387025923982601 0 -0.01283878889264139 -0.015119185559993732 0 -0.012983058600323387 -0.016021997506713865 0 -0.012563210912723425 -0.015870599057355488 0 -0.012697945772090369 -0.016278403991342543 0 -0.012702759431621856 -0.016200915027676697 0 -0.013467191349910626 -0.01531431116625033 0 -0.012779275246577968 -0.015597128521517968 0 -0.013467191349910626 -0.01531431116625033 0 -0.012178160197523959 -0.016163291126930077 0 -0.012563210912723425 -0.015870599057355488 0 -0.012697945772090369 -0.016278403991342543 0 -0.012236561124172178 -0.015807788988645762 0 -0.012178160197523959 -0.016163291126930077 0 -0.012563210912723425 -0.015870599057355488 0 -0.013467191349910626 -0.01531431116625033 0 -0.01453101523910901 -0.014138153153561346 0 -0.01347954104785991 -0.015041452045183742 0 -0.013168653579594826 -0.014966666732000674 0 -0.013489413316379407 -0.014683036433530848 0 -0.014973853751308171 -0.014110554897611063 0 -0.014934550766428717 -0.013740276881805073 0 -0.015266043149426521 -0.013854515957648179 0 -0.014568184052480325 -0.014009143252248233 0 -0.014973853751308171 -0.014110554897611063 0 -0.014934550766428717 -0.013740276881805073 0 -0.013481804906550446 -0.016416422218536782 0 -0.012983058600323387 -0.016021997506713865 0 -0.012720805698894928 -0.01624649549978615 0 -0.015141765034358023 -0.014145345652863765 0 -0.013467191349910626 -0.01531431116625033 0 -0.015141765034358023 -0.014145345652863765 0 -0.01611485634180649 -0.013133616916864351 0 -0.014934550766428717 -0.013740276881805073 0 -0.015266043149426521 -0.013854515957648179 0 -0.015309015092421956 -0.013738836063548207 0 -0.014934550766428717 -0.013740276881805073 0 -0.015309015092421956 -0.013738836063548207 0 -0.015308857350435015 -0.013466263533111911 0 -0.017424230817130303 -0.012039575262382564 0 -0.017105889827805927 -0.012261133447609401 0 -0.017722517440628922 -0.012194867918652057 0 -0.017040532118281597 -0.012697079529170933 0 -0.017105889827805927 -0.012261133447609401 0 -0.017722517440628922 -0.012194867918652057 0 -0.01611485634180649 -0.013133616916864351 0 -0.01623032851878561 -0.012669027528310504 0 -0.017092772344619526 -0.012018137759648953 0 -0.01623032851878561 -0.012669027528310504 0 -0.017040532118281597 -0.012697079529170933 0 -0.017105889827805927 -0.012261133447609401 0 -0.016510265302177932 -0.012452195105232546 0 -0.017424230817130303 -0.012039575262382564 0 -0.017105889827805927 -0.012261133447609401 0 -0.016797009983698402 -0.011930340994881402 0 -0.017105889827805927 -0.012261133447609401 0 -0.016797009983698402 -0.011930340994881402 0 -0.016510265302177932 -0.012452195105232546 0 -0.012623105202169293 -0.015231157248093275 0 -0.01271809499002826 -0.014779089808132626 0 -0.01283878889264139 -0.015119185559993732 0 -0.013861537035326475 -0.014791585505405063 0 -0.013931449396212029 -0.014458872185636649 0 -0.013782559496154249 -0.014602602839755686 0 -0.013256424948220638 -0.01498831292718014 0 -0.013504325655756553 -0.014485978340974388 0 -0.013504325655756553 -0.014485978340974388 0 -0.014518125990780777 -0.013861831687226123 0 -0.013931449396212029 -0.014458872185636649 0 -0.013782559496154249 -0.014602602839755686 0 -0.013814417236888516 -0.014396961699693242 0 -0.013861537035326475 -0.014791585505405063 0 -0.013782559496154249 -0.014602602839755686 0 -0.013489413316379407 -0.014683036433530848 0 -0.013782559496154249 -0.014602602839755686 0 -0.013489413316379407 -0.014683036433530848 0 -0.013814417236888516 -0.014396961699693242 0 -0.015266043149426521 -0.013854515957648179 0 -0.015309015092421956 -0.013738836063548207 0 -0.01553265094058894 -0.013612107759542082 0 -0.01453101523910901 -0.014138153153561346 0 -0.014518125990780777 -0.013861831687226123 0 -0.015292577687577089 -0.013832252665127184 0 -0.015673512796332716 -0.013123144260879798 0 -0.015309015092421956 -0.013738836063548207 0 -0.015308857350435015 -0.013466263533111911 0 -0.015398926177180835 -0.013512131976760803 0 -0.016806484021204108 -0.012553964731226934 0 -0.016193001642102633 -0.012336584996467509 0 -0.015872405589306925 -0.012449841790880331 0 -0.017092772344619526 -0.012018137759648953 0 -0.015945198985772218 -0.012210756702313636 0 -0.016806484021204108 -0.012553964731226934 0 -0.016193001642102633 -0.012336584996467509 0 -0.01626849804252959 -0.012283044520884117 0 -0.01623032851878561 -0.012669027528310504 0 -0.015673512796332716 -0.013123144260879798 0 -0.016193001642102633 -0.012336584996467509 0 -0.016267777571093423 -0.012284062821623943 0 -0.015985888995825658 -0.012141150126142622 0 -0.016243684442775245 -0.01264821823249755 0 -0.01623032851878561 -0.012669027528310504 0 -0.016193001642102633 -0.012336584996467509 0 -0.015872405589306925 -0.012449841790880331 0 -0.015985888995825658 -0.012141150126142622 0 -0.015945198985772218 -0.012210756702313636 0 -0.015673512796332716 -0.013123144260879798 0 -0.015374860206525691 -0.013320470270539037 0 -0.015459871758699091 -0.013087755491905858 0 -0.015061523704050299 -0.013141670172299696 0 -0.015309015092421956 -0.013738836063548207 0 -0.015380752992474961 -0.013533225470943535 0 -0.01553265094058894 -0.013612107759542082 0 -0.015673512796332716 -0.013123144260879798 0 -0.014518125990780777 -0.013861831687226123 0 -0.015239052805485702 -0.012124283486684002 0 -0.01576743138759247 -0.012074108130910952 0 -0.015744886712990205 -0.012187476041747648 0 -0.015945198985772218 -0.012210756702313636 0 -0.014693050733553214 -0.013058935406829978 0 -0.015374860206525691 -0.013320470270539037 0 -0.015061523704050299 -0.013141670172299696 0 -0.014702583383654643 -0.013244919109846922 0 -0.015053317196757508 -0.012883325298405388 0 -0.015061523704050299 -0.013141670172299696 0 -0.014716691852102193 -0.013172086539484741 0 -0.015459871758699091 -0.013087755491905858 0 -0.015053317196757508 -0.012883325298405388 0 -0.015061523704050299 -0.013141670172299696 0 -0.015061523704050299 -0.013141670172299696 0 -0.014702583383654643 -0.013244919109846922 0 -0.014716691852102193 -0.013172086539484741 0 -0.01576743138759247 -0.012074108130910952 0 -0.015739861906454732 -0.012192647445192177 0 -0.015789323158793018 -0.012197737675931799 0 -0.014902020638407882 -0.012604371722381422 0 -0.014693050733553214 -0.013058935406829978 0 -0.014683787754846848 -0.013202902321838968 0 -0.014570055542831263 -0.013189349187034219 0 -0.014709632347414202 -0.013069596628710151 0 -0.014693050733553214 -0.013058935406829978 0 -0.014377428820831709 -0.013517301024490416 0 -0.014693050733553214 -0.013058935406829978 0 -0.014526446240179491 -0.013174848169179642 0 -0.014526446240179491 -0.013174848169179642 0 -0.014377428820831709 -0.013517301024490416 0 -0.014106641915421969 -0.014102364722888436 0 -0.013897284648397913 -0.013993494855410286 0 -0.014175495476749882 -0.013751093428403456 0 -0.013504325655756553 -0.014485978340974388 0 -0.014377428820831709 -0.013517301024490416 0 -0.014518125990780777 -0.013861831687226123 0 -0.014377428820831709 -0.013517301024490416 0 -0.012732876387046196 -0.014778355356231797 0 -0.012787500477775292 -0.014511819297901872 0 -0.01289805397677455 -0.014716797461706684 0 -0.016507364187767635 -0.010074613889352832 0 -0.016625636171092008 -0.010280779934355479 0 -0.016653084710427448 -0.010144567161819105 0 -0.01576743138759247 -0.012074108130910952 0 -0.015475936484754907 -0.011477463694123582 0 -0.015841335216216414 -0.012151817095953595 0 -0.015945198985772218 -0.012210756702313636 0 -0.016406884435191279 -0.010512373339583934 0 -0.015239052805485702 -0.012124283486684002 0 -0.01576743138759247 -0.012074108130910952 0 -0.015475936484754907 -0.011477463694123582 0 -0.016406884435191279 -0.010512373339583934 0 -0.01488661548040203 -0.012672233053466568 0 -0.016973950667640448 -0.011321286170841261 0 -0.01683698758982909 -0.011085514990517574 0 -0.017144009952716435 -0.010917512500817735 0 -0.016661549828685895 -0.011261158812825176 0 -0.016973950667640448 -0.011321286170841261 0 -0.01683698758982909 -0.011085514990517574 0 -0.01683698758982909 -0.011085514990517574 0 -0.016868180887542859 -0.01084463876285011 0 -0.01666202297575246 -0.010908926779191617 0 -0.016868180887542859 -0.01084463876285011 0 -0.016704821397672914 -0.0106421033019113 0 -0.01666202297575246 -0.010908926779191617 0 -0.016868180887542859 -0.01084463876285011 0 -0.016704821397672914 -0.0106421033019113 0 -0.017008731667266127 -0.010617526199158702 0 -0.016868180887542859 -0.01084463876285011 0 -0.017144009952716435 -0.010917512500817735 0 -0.017008731667266127 -0.010617526199158702 0 -0.01683698758982909 -0.011085514990517574 0 -0.016868180887542859 -0.01084463876285011 0 -0.017144009952716435 -0.010917512500817735 0 -0.016507364187767635 -0.010074613889352832 0 -0.016625893573494307 -0.010064520197111725 0 -0.016578588193795114 -0.0098772788407232408 0 -0.016406884435191279 -0.010512373339583934 0 -0.016688301227065203 -0.0098808168087238975 0 -0.016698155014474157 -0.010183013460287629 0 -0.016742026764810028 -0.010053761375566546 0 -0.016651239360026729 -0.010094588089807796 0 -0.016406884435191279 -0.010512373339583934 0 -0.016822507017000648 -0.010402287409571141 0 -0.016507364187767635 -0.010074613889352832 0 -0.016653084710427448 -0.010144567161819105 0 -0.016625893573494307 -0.010064520197111725 0 -0.01761525929255562 -0.01201834116389921 0 -0.016797009983698402 -0.011930340994881402 0 -0.016955443809005495 -0.011675211554938251 0 -0.016433991718823586 -0.011131955367504128 0 -0.01647946752616326 -0.010981274594828151 0 -0.016280251714585883 -0.011280730965354835 0 -0.016797009983698402 -0.011930340994881402 0 -0.016955443809005495 -0.011675211554938251 0 -0.016280251714585883 -0.011280730965354835 0 -0.017092772344619526 -0.012018137759648953 0 -0.017011611515091788 -0.011953035632406706 0 -0.016433991718823586 -0.011131955367504128 0 -0.016604777059480456 -0.011073466266251289 0 -0.01647946752616326 -0.010981274594828151 0 -0.016661549828685895 -0.011261158812825176 0 -0.016433991718823586 -0.011131955367504128 0 -0.016604777059480456 -0.011073466266251289 0 -0.017092772344619526 -0.012018137759648953 0 -0.016663377932507082 -0.011384052114152022 0 -0.016661549828685895 -0.011261158812825176 0 -0.01683698758982909 -0.011085514990517574 0 -0.016604777059480456 -0.011073466266251289 0 -0.01683698758982909 -0.011085514990517574 0 -0.016604777059480456 -0.011073466266251289 0 -0.01666202297575246 -0.010908926779191617 0 -0.01666202297575246 -0.010908926779191617 0 -0.016551535452920655 -0.010726901252425034 0 -0.01647946752616326 -0.010981274594828151 0 -0.016604777059480456 -0.011073466266251289 0 -0.01666202297575246 -0.010908926779191617 0 -0.01647946752616326 -0.010981274594828151 0 -0.016704821397672914 -0.0106421033019113 0 -0.016662022975752