<?xml version="1.0"?>
<VTKFile type="UnstructuredGrid" version="0.1" byte_order="LittleEndian">
<UnstructuredGrid>
<Piece NumberOfPoints="30618" NumberOfCells="10744">
<Points>
<DataArray type="Float64" NumberOfComponents="3" format="ascii">
-0.49427958746526202 -0.49999999999999512 0 -0.4943900888896422 -0.47349089190363358 0 -0.49427958746526202 -0.49999999999999512 0 -0.5 -0.5 0 -0.4943900888896422 -0.47349089190363358 0 -0.5 -0.5 0 -0.4943900888896422 -0.47349089190363358 0 -0.5 -0.44150235328842258 0 -0.49427958746526202 -0.49999999999999512 0 -0.4943900888896422 -0.47349089190363358 0 -0.48436842240857858 -0.48714093788813112 0 -0.49427958746526202 -0.49999999999999512 0 -0.47650045540741742 -0.5 0 -0.48436842240857858 -0.48714093788813112 0 -0.4943900888896422 -0.47349089190363358 0 -0.47066899942757451 -0.47576530412887819 0 -0.48436842240857858 -0.48714093788813112 0 -0.47066899942757451 -0.47576530412887819 0 -0.47650045540741742 -0.5 0 -0.48436842240857858 -0.48714093788813112 0 -0.47066899942757451 -0.47576530412887819 0 -0.45872132334957288 -0.49999999999999928 0 -0.45242967983978871 -0.4846708604340636 0 -0.47066899942757451 -0.47576530412887819 0 -0.47650045540741742 -0.5 0 -0.45872132334957288 -0.49999999999999928 0 -0.47066899942757451 -0.47576530412887819 0 -0.45872132334957288 -0.49999999999999928 0 -0.47066899942757451 -0.47576530412887819 0 -0.45242967983978871 -0.4846708604340636 0 -0.45249717469141032 -0.46588444847215849 0 -0.43763952177061649 -0.47770500498713542 0 -0.45242967983978871 -0.4846708604340636 0 -0.45249717469141032 -0.46588444847215849 0 -0.43763952177061649 -0.47770500498713542 0 -0.44291044788006362 -0.49999999999999939 0 -0.45242967983978871 -0.4846708604340636 0 -0.43763952177061649 -0.47770500498713542 0 -0.44291044788006362 -0.49999999999999939 0 -0.45872132334957288 -0.49999999999999928 0 -0.44291044788006362 -0.49999999999999939 0 -0.45242967983978871 -0.4846708604340636 0 -0.44838221886832419 -0.4464230337388379 0 -0.4323685956611692 -0.45541000997427139 0 -0.435988539966085 -0.44148905847597392 0 -0.44838221886832419 -0.4464230337388379 0 -0.44213238819953832 -0.43491600865963681 0 -0.435988539966085 -0.44148905847597392 0 -0.44838221886832419 -0.4464230337388379 0 -0.45249717469141032 -0.46588444847215849 0 -0.45755175660874181 -0.45423607616472811 0 -0.44838221886832419 -0.4464230337388379 0 -0.45249717469141032 -0.46588444847215849 0 -0.4323685956611692 -0.45541000997427139 0 -0.43763952177061649 -0.47770500498713542 0 -0.45249717469141032 -0.46588444847215849 0 -0.4323685956611692 -0.45541000997427139 0 -0.47066899942757451 -0.47576530412887819 0 -0.45249717469141032 -0.46588444847215849 0 -0.4675747862741928 -0.45726336772241771 0 -0.45249717469141032 -0.46588444847215849 0 -0.45755175660874181 -0.45423607616472811 0 -0.4675747862741928 -0.45726336772241771 0 -0.44838221886832419 -0.4464230337388379 0 -0.46897642374787268 -0.44262015471777721 0 -0.45660235518767722 -0.42786105997071933 0 -0.44838221886832419 -0.4464230337388379 0 -0.45755175660874181 -0.45423607616472811 0 -0.46897642374787268 -0.44262015471777721 0 -0.45755175660874181 -0.45423607616472811 0 -0.4675747862741928 -0.45726336772241771 0 -0.46897642374787268 -0.44262015471777721 0 -0.4943900888896422 -0.47349089190363358 0 -0.5 -0.44150235328842258 0 -0.49450059031402238 -0.44698178380727199 0 -0.46897642374787268 -0.44262015471777721 0 -0.48473746643246862 -0.43972512984246093 0 -0.48043585850414389 -0.43127077967876992 0 -0.46897642374787268 -0.44262015471777721 0 -0.4826166755055763 -0.45153060825775743 0 -0.48473746643246862 -0.43972512984246093 0 -0.4675747862741928 -0.45726336772241771 0 -0.46897642374787268 -0.44262015471777721 0 -0.4826166755055763 -0.45153060825775743 0 -0.47066899942757451 -0.47576530412887819 0 -0.4826166755055763 -0.45153060825775743 0 -0.4943900888896422 -0.47349089190363358 0 -0.47066899942757451 -0.47576530412887819 0 -0.4826166755055763 -0.45153060825775743 0 -0.47066899942757451 -0.47576530412887819 0 -0.4675747862741928 -0.45726336772241771 0 -0.4826166755055763 -0.45153060825775743 0 -0.4943900888896422 -0.47349089190363358 0 -0.49450059031402238 -0.44698178380727199 0 -0.4943900888896422 -0.47349089190363358 0 -0.4826166755055763 -0.45153060825775743 0 -0.49450059031402238 -0.44698178380727199 0 -0.4826166755055763 -0.45153060825775743 0 -0.48473746643246862 -0.43972512984246093 0 -0.49450059031402238 -0.44698178380727199 0 -0.5 -0.44150235328842258 0 -0.49461109173840262 -0.42047267571091063 0 -0.5 -0.39656953661894012 0 -0.49450059031402238 -0.44698178380727199 0 -0.49461109173840262 -0.42047267571091063 0 -0.48473746643246862 -0.43972512984246093 0 -0.49461109173840262 -0.42047267571091063 0 -0.48043585850414389 -0.43127077967876992 0 -0.5 -0.44150235328842258 0 -0.49450059031402238 -0.44698178380727199 0 -0.49461109173840262 -0.42047267571091063 0 -0.48473746643246862 -0.43972512984246093 0 -0.49450059031402238 -0.44698178380727199 0 -0.49461109173840262 -0.42047267571091063 0 -0.49461109173840262 -0.42047267571091063 0 -0.4947215931627828 -0.39396356761454909 0 -0.49461109173840262 -0.42047267571091063 0 -0.48393842445605872 -0.40713040098299402 0 -0.4947215931627828 -0.39396356761454909 0 -0.49461109173840262 -0.42047267571091063 0 -0.48393842445605872 -0.40713040098299402 0 -0.47214510592166908 -0.41939033492402211 0 -0.48393842445605872 -0.40713040098299402 0 -0.47214510592166908 -0.41939033492402211 0 -0.47427590700138023 -0.39469502568249409 0 -0.46897642374787268 -0.44262015471777721 0 -0.47214510592166908 -0.41939033492402211 0 -0.48043585850414389 -0.43127077967876992 0 -0.49461109173840262 -0.42047267571091063 0 -0.47214510592166908 -0.41939033492402211 0 -0.48043585850414389 -0.43127077967876992 0 -0.5 -0.39656953661894012 0 -0.4947215931627828 -0.39396356761454909 0 -0.48030453056746109 -0.36861144308094029 0 -0.49461109173840262 -0.42047267571091063 0 -0.5 -0.39656953661894012 0 -0.4947215931627828 -0.39396356761454909 0 -0.48393842445605872 -0.40713040098299402 0 -0.4947215931627828 -0.39396356761454909 0 -0.47427590700138023 -0.39469502568249409 0 -0.47427590700138023 -0.39469502568249409 0 -0.48030453056746109 -0.36861144308094029 0 -0.4947215931627828 -0.39396356761454909 0 -0.47427590700138023 -0.39469502568249409 0 -0.48030453056746109 -0.36861144308094029 0 -0.47427590700138023 -0.39469502568249409 0 -0.46334377193483078 -0.37842983215876019 0 -0.48030453056746109 -0.36861144308094029 0 -0.46334377193483078 -0.37842983215876019 0 -0.45726543839001688 -0.40541672899881109 0 -0.44416021803808919 -0.38243724496113263 0 -0.47427590700138023 -0.39469502568249409 0 -0.46334377193483078 -0.37842983215876019 0 -0.45726543839001688 -0.40541672899881109 0 -0.45726543839001688 -0.40541672899881109 0 -0.43814282409564848 -0.40387353522152758 0 -0.44416021803808919 -0.38243724496113263 0 -0.43814282409564848 -0.40387353522152758 0 -0.44416021803808919 -0.38243724496113263 0 -0.4329908326547659 -0.40007252460533121 0 -0.43814282409564848 -0.40387353522152758 0 -0.44416021803808919 -0.38243724496113263 0 -0.46897642374787268 -0.44262015471777721 0 -0.47214510592166908 -0.41939033492402211 0 -0.45660235518767722 -0.42786105997071933 0 -0.47214510592166908 -0.41939033492402211 0 -0.47427590700138023 -0.39469502568249409 0 -0.45726543839001688 -0.40541672899881109 0 -0.47214510592166908 -0.41939033492402211 0 -0.45726543839001688 -0.40541672899881109 0 -0.45660235518767722 -0.42786105997071933 0 -0.45726543839001688 -0.40541672899881109 0 -0.45660235518767722 -0.42786105997071933 0 -0.44309263043645408 -0.41812298423377797 0 -0.45726543839001688 -0.40541672899881109 0 -0.43814282409564848 -0.40387353522152758 0 -0.44309263043645408 -0.41812298423377797 0 -0.43814282409564848 -0.40387353522152758 0 -0.44309263043645408 -0.41812298423377797 0 -0.43209373842114163 -0.42530092927673752 0 -0.44838221886832419 -0.4464230337388379 0 -0.45660235518767722 -0.42786105997071933 0 -0.44213238819953832 -0.43491600865963681 0 -0.45660235518767722 -0.42786105997071933 0 -0.44213238819953832 -0.43491600865963681 0 -0.43132710435572019 -0.42815377149591122 0 -0.45660235518767722 -0.42786105997071933 0 -0.44309263043645408 -0.41812298423377797 0 -0.43132710435572019 -0.42815377149591122 0 -0.45660235518767722 -0.42786105997071933 0 -0.43132710435572019 -0.42815377149591122 0 -0.44213238819953832 -0.43491600865963681 0 -0.42986244815509678 -0.43337144475258638 0 -0.435988539966085 -0.44148905847597392 0 -0.44213238819953832 -0.43491600865963681 0 -0.42986244815509678 -0.43337144475258638 0 -0.43132710435572019 -0.42815377149591122 0 -0.42986244815509678 -0.43337144475258638 0 -0.43132710435572019 -0.42815377149591122 0 -0.42986244815509678 -0.43337144475258638 0 -0.42494843276815808 -0.42822764260015772 0 -0.42026026496879931 -0.43681168621285732 0 -0.42986244815509678 -0.43337144475258638 0 -0.42494843276815808 -0.42822764260015772 0 -0.43132710435572019 -0.42815377149591122 0 -0.42494843276815808 -0.42822764260015772 0 -0.43209373842114163 -0.42530092927673752 0 -0.42214799869492048 -0.41876725226122891 0 -0.42494843276815808 -0.42822764260015772 0 -0.43209373842114163 -0.42530092927673752 0 -0.42494843276815808 -0.42822764260015772 0 -0.43209373842114163 -0.42530092927673752 0 -0.43132710435572019 -0.42815377149591122 0 -0.42494843276815808 -0.42822764260015772 0 -0.43132710435572019 -0.42815377149591122 0 -0.44309263043645408 -0.41812298423377797 0 -0.43209373842114163 -0.42530092927673752 0 -0.43132710435572019 -0.42815377149591122 0 -0.43209373842114163 -0.42530092927673752 0 -0.43132710435572019 -0.42815377149591122 0 -0.43814282409564848 -0.40387353522152758 0 -0.43209373842114163 -0.42530092927673752 0 -0.43814282409564848 -0.40387353522152758 0 -0.43209373842114163 -0.42530092927673752 0 -0.42736227186559528 -0.41250939947999687 0 -0.43814282409564848 -0.40387353522152758 0 -0.42736227186559528 -0.41250939947999687 0 -0.42798743510346321 -0.40461924019690898 0
[...]
<PointData Scalars="" Vectors="displacement," Tensors="">
<DataArray type="Float64" Name="displacement" NumberOfComponents="3" format="ascii">
0.044999523048608055 0.044485126542703639 0 0.044297495054194093 0.044315332980323412 0 0.044998939357160088 0.044490843783673552 0 0.045000678716762221 0.04499625366706915 0 0.042665959234651225 0.045462996589098241 0 0.045000678716762221 0.04499625366706915 0 0.042665959234651225 0.045462996589098241 0 0.039734329081958404 0.04500195569628767 0 0.045000138496208375 0.044483800215278729 0 0.046178166536245083 0.043224670770186727 0 0.045716247873326933 0.043354047993103849 0 0.045000138496208375 0.044483800215278729 0 0.044999779022458782 0.042885086547423713 0 0.045716247873326933 0.043354047993103849 0 0.046178166536245083 0.043224670770186727 0 0.046215224673771177 0.042886658172829537 0 0.045716247873326933 0.043354047993103849 0 0.046215224673771177 0.042886658172829537 0 0.044999779022458782 0.042885086547423713 0 0.045716247873326933 0.043354047993103849 0 0.045398840582368094 0.042563507182975122 0 0.044999172035183915 0.041283384770624189 0 0.045271497152095698 0.041381973014354166 0 0.046215224673771177 0.042886658172829537 0 0.044999779022458782 0.042885086547423713 0 0.044999932922155719 0.041285810289821125 0 0.045789806641684937 0.042675566163325768 0 0.045000131450581536 0.041285390361526675 0 0.045398840582368094 0.042563507182975122 0 0.045271497152095698 0.041381973014354166 0 0.045473794674747048 0.042183185012035392 0 0.045200796553942685 0.041089994367149545 0 0.045271497152095698 0.041381973014354166 0 0.045473794674747048 0.042183185012035392 0 0.045200796553942685 0.041089994367149545 0 0.044999739515230119 0.039865636786401995 0 0.045271497152095698 0.041381973014354166 0 0.045559316382408427 0.040272869724812053 0 0.044999831366285319 0.039862229903273025 0 0.044999172035183915 0.041283384770624189 0 0.044999739515230119 0.039865636786401995 0 0.045271497152095698 0.041381973014354166 0 0.045923661471724969 0.04280461573069886 0 0.046138676005013778 0.040514311460006697 0 0.046592596554032979 0.041501041731160329 0 0.045923661471724969 0.04280461573069886 0 0.046327663835937297 0.0426162367041409 0 0.046592596554032979 0.041501041731160329 0 0.045923661471724969 0.04280461573069886 0 0.045473794674747048 0.042183185012035392 0 0.045633814499831837 0.042866642101113996 0 0.045923661471724969 0.04280461573069886 0 0.045473794674747048 0.042183185012035392 0 0.046138676005013778 0.040514311460006697 0 0.045200796553942685 0.041089994367149545 0 0.045473794674747048 0.042183185012035392 0 0.046138676005013778 0.040514311460006697 0 0.045398840582368094 0.042563507182975122 0 0.045473794674747048 0.042183185012035392 0 0.045570606019290028 0.043020141165309153 0 0.045473794674747048 0.042183185012035392 0 0.045633814499831837 0.042866642101113996 0 0.045570606019290028 0.043020141165309153 0 0.045923661471724969 0.04280461573069886 0 0.045292198692661247 0.043770850539459283 0 0.044608217733796009 0.045151073662844321 0 0.045923661471724969 0.04280461573069886 0 0.045633814499831837 0.042866642101113996 0 0.045292198692661247 0.043770850539459283 0 0.045633814499831837 0.042866642101113996 0 0.045570606019290028 0.043020141165309153 0 0.045292198692661247 0.043770850539459283 0 0.042665959234651225 0.045462996589098241 0 0.039734329081958404 0.04500195569628767 0 0.040240573119510376 0.045494529191056336 0 0.045292198692661247 0.043770850539459283 0 0.044578401575449907 0.043016883804082556 0 0.043602810268000745 0.043409206454058567 0 0.045292198692661247 0.043770850539459283 0 0.045582969807752449 0.043077604224373192 0 0.044578401575449907 0.043016883804082556 0 0.045570606019290028 0.043020141165309153 0 0.045292198692661247 0.043770850539459283 0 0.045582969807752449 0.043077604224373192 0 0.045789806641684937 0.042675566163325768 0 0.045622348312619458 0.043028129801904895 0 0.046178166536245083 0.043224670770186727 0 0.046215224673771177 0.042886658172829537 0 0.045582969807752449 0.043077604224373192 0 0.045398840582368094 0.042563507182975122 0 0.045570606019290028 0.043020141165309153 0 0.045582969807752449 0.043077604224373192 0 0.044297495054194093 0.044315332980323412 0 0.042739173341788846 0.043902839470192946 0 0.046178166536245083 0.043224670770186727 0 0.045582969807752449 0.043077604224373192 0 0.045334669025365433 0.042287479696852079 0 0.045582969807752449 0.043077604224373192 0 0.044578401575449907 0.043016883804082556 0 0.045334669025365433 0.042287479696852079 0 0.039734329081958404 0.04500195569628767 0 0.03780919144044545 0.045479396223429849 0 0.035694566373249949 0.044995495973678377 0 0.042739173341788846 0.043902839470192946 0 0.039822418883058278 0.043875794821038309 0 0.044578401575449907 0.043016883804082556 0 0.041847706489119278 0.041978647765256998 0 0.043602810268000745 0.043409206454058567 0 0.039734329081958404 0.04500195569628767 0 0.040240573119510376 0.045494529191056336 0 0.03780919144044545 0.045479396223429849 0 0.044578401575449907 0.043016883804082556 0 0.045334669025365433 0.042287479696852079 0 0.041847706489119278 0.041978647765256998 0 0.039822418883058278 0.043875794821038309 0 0.036155226624008829 0.044671749268989258 0 0.041847706489119278 0.041978647765256998 0 0.039031970801287091 0.044294810366589568 0 0.035707187330146058 0.044916438929090419 0 0.041847706489119278 0.041978647765256998 0 0.039031970801287091 0.044294810366589568 0 0.042039123763413615 0.044597875991106206 0 0.039031970801287091 0.044294810366589568 0 0.042039123763413615 0.044597875991106206 0 0.037066470292862592 0.045481726183336325 0 0.045292198692661247 0.043770850539459283 0 0.042039123763413615 0.044597875991106206 0 0.043602810268000745 0.043409206454058567 0 0.041847706489119278 0.041978647765256998 0 0.042039123763413615 0.044597875991106206 0 0.043602810268000745 0.043409206454058567 0 0.035694566373249949 0.044995495973678377 0 0.035707187330146058 0.044916438929090419 0 0.033621636852452376 0.046085156972435141 0 0.03780919144044545 0.045479396223429849 0 0.035694566373249949 0.044995495973678377 0 0.035707187330146058 0.044916438929090419 0 0.039031970801287091 0.044294810366589568 0 0.035707187330146058 0.044916438929090419 0 0.037066470292862592 0.045481726183336325 0 0.036761466584635569 0.045540033183927617 0 0.034057558693541053 0.045288847144612121 0 0.035707187330146058 0.044916438929090419 0 0.037066470292862592 0.045481726183336325 0 0.033621636852452376 0.046085156972435141 0 0.037066470292862592 0.045481726183336325 0 0.03539936038475841 0.046453759061865808 0 0.034314202205896101 0.044653405549965053 0 0.03539936038475841 0.046453759061865808 0 0.03931629657970135 0.04675118604313417 0 0.035935406616509048 0.048834740735833687 0 0.037066470292862592 0.045481726183336325 0 0.03539936038475841 0.046453759061865808 0 0.03931629657970135 0.04675118604313417 0 0.03931629657970135 0.04675118604313417 0 0.039164633820428049 0.049805252646311866 0 0.035935406616509048 0.048834740735833687 0 0.036612648858208266 0.039237955884851732 0 0.036595482481682665 0.039151911141672928 0 0.036710186526416264 0.03907980875001292 0 0.037458253153281065 0.044704487484464636 0 0.036908573501742155 0.043965464206760875 0 0.045292198692661247 0.043770850539459283 0 0.042039123763413615 0.044597875991106206 0 0.044608217733796009 0.045151073662844321 0 0.042039123763413615 0.044597875991106206 0 0.037066470292862592 0.045481726183336325 0 0.03931629657970135 0.04675118604313417 0 0.042039123763413615 0.044597875991106206 0 0.03931629657970135 0.04675118604313417 0 0.044608217733796009 0.045151073662844321 0 0.03931629657970135 0.04675118604313417 0 0.044608217733796009 0.045151073662844321 0 0.042114613466851539 0.048822593815852383 0 0.03931629657970135 0.04675118604313417 0 0.039164633820428049 0.049805252646311866 0 0.042114613466851539 0.048822593815852383 0 0.039164633820428049 0.049805252646311866 0 0.042114613466851539 0.048822593815852383 0 0.043785425004341627 0.051404174269393449 0 0.045923661471724969 0.04280461573069886 0 0.044608217733796009 0.045151073662844321 0 0.046327663835937297 0.0426162367041409 0 0.044608217733796009 0.045151073662844321 0 0.046327663835937297 0.0426162367041409 0 0.048299722514966004 0.040950949961126179 0 0.044608217733796009 0.045151073662844321 0 0.042114613466851539 0.048822593815852383 0 0.044478231324469306 0.051610186916231142 0 0.045352430469477387 0.046230294644002065 0 0.044511297328610984 0.043182464980421824 0 0.046327663835937297 0.0426162367041409 0 0.047707448126090575 0.040668564570784216 0 0.046592596554032979 0.041501041731160329 0 0.046327663835937297 0.0426162367041409 0 0.047707448126090575 0.040668564570784216 0 0.048299722514966004 0.040950949961126179 0 0.046398909906232938 0.042880123974560938 0 0.044511297328610984 0.043182464980421824 0 0.047707448126090575 0.040668564570784216 0 0.04860309055375981 0.03991424136848111 0 0.047899078454948882 0.039307873460437445 0 0.047707448126090575 0.040668564570784216 0 0.04860309055375981 0.03991424136848111 0 0.048570878092778082 0.040930826827363459 0 0.034817885440036778 0.038412481787217699 0 0.035064938657640855 0.038948029306157241 0 0.035500139206155884 0.038194284806012037 0 0.044333138979243326 0.038875294661462612 0 0.041556887124170848 0.042225004564023033 0 0.04327556021132218 0.039967811002044926 0 0.044450431629284526 0.042876926447351485 0 0.043296984093145807 0.042564663183378454 0 0.044333138979243326 0.038875294661462612 0 0.044511297328610984 0.043182464980421824 0 0.042114613466851539 0.048822593815852383 0 0.043785425004341627 0.051404174269393449 0 0.044478231324469306 0.051610186916231142 0 0.041556887124170848 0.042225004564023033 0 0.044511297328610984 0.043182464980421824 0 0.037458253153281065 0.044704487484464636 0 0.041556887124170848 0.042225004564023033 0 0.036612648858208266 0.039237955884851732 0 0.035064938657640855 0.038948029306157241 0 0.035960538217576429 0.03858855742328321 0 0.036612648858208266 0.039237955884851732 0 0.035960538217576429 0.03858855742328321 0 0.036467103257163451 0.038672123304197198 0 0.035960538217576429 0.03858855742328321 0 0.035500139206155884 0.038194284806012037 0 0.036111454333169431 0.037765087104318119 0 0.035960538217576429 0.03858855742328321 0 0.036111454333169431 0.037765087104318119 0 0.036467103257163451 0.038672123304197198 0 0.035064938657640855 0.038948029306157241 0 0.035960538217576429 0.03858855742328321 0 0.035500139206155884 0.038194284806012037 0 0.036111454333169431 0.037765087104318119 0 0.035411231792345739 0.037499094753377947 0 0.035913314257948435 0.036505135052215677 0 0.036111454333169431 0.037765087104318119 0 0.036706481137893508 0.036808924441029595 0 0.035913314257948435 0.036505135052215677 0 0.035500139206155884 0.038194284806012037 0 0.036111454333169431 0.037765087104318119 0 0.035411231792345739 0.037499094753377947 0 0.04860309055375981 0.03991424136848111 0 0.047899078454948882 0.039307873460437445 0 0.048496819364377233 0.037337392247309621 0 0.044333138979243326 0.038875294661462612 0 0.049088450416597602 0.036334629346672219 0 0.04926661838104588 0.036655080863988186 0 0.04882519989801843 0.03521904082082581 0 0.049354561658107102 0.035089997808868983 0 0.044333138979243326 0.038875294661462612 0 0.041819734906434917 0.035468322505613048 0 0.034817885440036778 0.038412481787217699 0 0.035411231792345739 0.037499094753377947 0 0.034715374419007579 0.036584016034451057 0 0.034817885440036778 0.038412481787217699 0 0.035500139206155884 0.038194284806012037 0 0.035411231792345739 0.037499094753377947 0 0.038919883160881137 0.037996745332680611 0 0.032212943286975375 0.040872716156689297 0 0.036710186526416264 0.03907980875001292 0 0.037439009347856538 0.037884363144456271 0 0.038493580907303773 0.037967348225438874 0 0.036567845369964026 0.03920295433558655 0 0.036710186526416264 0.03907980875001292 0 0.0365028075355497 0.039358079339699675 0 0.036595482481682665 0.039151911141672928 0 0.036567845369964026 0.03920295433558655 0 0.036710186526416264 0.03907980875001292 0 0.036567845369964026 0.03920295433558655 0 0.0365028075355497 0.039358079339699675 0 0.036433230217270081 0.03923336117712696 0 0.036595482481682665 0.039151911141672928 0 0.036567845369964026 0.03920295433558655 0 0.036433230217270081 0.03923336117712696 0 0.036710186526416264 0.03907980875001292 0 0.036706929637470569 0.038184132547934665 0 0.037439009347856538 0.037884363144456271 0 0.036612648858208266 0.039237955884851732 0 0.036710186526416264 0.03907980875001292 0 0.036467103257163451 0.038672123304197198 0 0.036710186526416264 0.03907980875001292 0 0.036467103257163451 0.038672123304197198 0 0.036706929637470569 0.038184132547934665 0 0.036111454333169431 0.037765087104318119 0 0.036467103257163451 0.038672123304197198 0 0.036706929637470569 0.038184132547934665 0 0.037198819683008165 0.036964052841390094 0 0.037439009347856538 0.037884363144456271 0 0.037926291879794564 0.036557101619555596 0 0.036111454333169431 0.037765087104318119 0 0.036706929637470569 0.038184132547934665 0 0.036830748699542941 0.037523122860866807 0 0.036111454333169431 0.037765087104318119 0 0.036830748699542941 0.037523122860866807 0 0.036706481137893508 0.036808924441029595 0 0.036830748699542941 0.037523122860866807 0 0.037198819683008165 0.036964052841390094 0 0.036706481137893508 0.036808924441029595 0 0.036830748699542941 0.037523122860866807 0 0.037198819683008165 0.036964052841390094 0 0.037439009347856538 0.037884363144456271 0 0.036706929637470569 0.038184132547934665 0 0.036830748699542941 0.037523122860866807 0 0.037439009347856538 0.037884363144456271 0 0.037452472252915245 0.037853616791287042 0 0.034737465038305673 0.035194869319985805 0 0.037439009347856538 0.037884363144456271 0 0.038136537335700736 0.037287462740927486 0 0.037783737744632763 0.036619418824803192 0 0.037439009347856538 0.037884363144456271 0 0.038147261098090454 0.037734544965633394 0 0.038493580907303773 0.037967348225438874 0 0.037439009347856538 0.037884363144456271 0 0.038141701122262797 0.037479237685776018 0 0.038147261098090454 0.037734544965633394 0 0.037439009347856538 0.037884363144456271 0 0.038141701122262797 0.037479237685776018 0 0.038136537335700736 0.037287462740927486 0 0.032072940997143598 0.037269759419413732 0 0.032814409577780042 0.036205691553015222 0 0.038141701122262797 0.037479237685776018 0 0.038290729647667242 0.037586960827539671 0 0.038132516595281218 0.03728617560174901 0 0.028466658216573303 0.03446316306022601 0 0.028287449221930588 0.034112983537344432 0 0.029588525404142602 0.033359690555643737 0 0.033138492195370288 0.036472119072760566 0 0.032814409577780042 0.036205691553015222 0 0.032072940997143598 0.037269759419413732 0 0.032212943286975375 0.040872716156689297 0 0.038289626581587639 0.037593950344064438 0 0.038147261098090454 0.037734544965633394 0 0.038493580907303773 0.037967348225438874 0 0.038141701122262797 0.037479237685776018 0 0.038290729647667242 0.037586960827539671 0 0.038147261098090454 0.037734544965633394 0 0.032072940997143598 0.037269759419413732 0 0.03307841988171429 0.036776665139991387 0 0.031745643563789193 0.036268918000950306 0 0.031689438726958487 0.031025846222358783 0 0.030492791240166513 0.033825942180852574 0 0.03309236964496768 0.032082807782710727 0 0.032975896839866951 0.032375012073944824 0 0.032703248792364602 0.031798845831000386 0 0.028287449221930588 0.034112983537344432 0 0.028263468749757565 0.032429788652110658 0 0.029588525404142602 0.033359690555643737 0 0.032814409577780042 0.036205691553015222 0 0.028509860053209879 0.029720492601493478 0 0.032814409577780042 0.036205691553015222 0 0.034737465038305673 0.035194869319985805 0 0.028509860053209879 0.029720492601493478 0 0.034737465038305673 0.035194869319985805 0 0.037926291879794564 0.036557101619555596 0 0.037124343665811264 0.036053475485664031 0 0.037150831412392463 0.034995745299515546 0 0.034737465038305673 0.035194869319985805 0 0.03415486961773407 0.031655077952179624 0 0.037198819683008165 0.036964052841390094 0 0.037124343665811264 0.036053475485664031 0 0.036706481137893508 0.036808924441029595 0 0.037198819683008165 0.036964052841390094 0 0.037926291879794564 0.036557101619555596 0 0.037124343665811264 0.036053475485664031 0 0.037124343665811264 0.036053475485664031 0 0.036706481137893508 0.036808924441029595 0 0.036614134429940777 0.036172007373048105 0 0.036706481137893508 0.036808924441029595 0 0.036614134429940777 0.036172007373048105 0 0.035913314257948435 0.036505135052215677 0 0.036614134429940777 0.036172007373048105 0 0.036825006103098745 0.035451703643625758 0 0.036330067555641769 0.035635082642427277 0 0.037124343665811264 0.036053475485664031 0 0.036614134429940777 0.036172007373048105 0 0.036825006103098745 0.035451703643625758 0 0.036529571902690496 0.03483182188768174 0 0.036832963071596156 0.034839803513402275 0 0.036330067555641769 0.035635082642427277 0 0.036832963071596156 0.034839803513402275 0 0.037343611258744171 0.034669390895393212 0 0.036330067555641769 0.035635082642427277 0 0.036825006103098745 0.035451703643625758 0 0.037000582803148441 0.034898822273231496 0 0.036330067555641769 0.035635082642427277 0 0.034530193067186438 0.031172483322196007 0 0.035811594150929424 0.035084591912408203 0 0.034530193067186438 0.031172483322196007 0 0.034280730566920638 0.02708545287963993 0 0.03699949526984337 0.034258214911397605 0 0.037338792262900204 0.03466113721182365 0 0.037071483582369134 0.03380530970205433 0 0.036529571902690496 0.03483182188768174 0 0.036832963071596156 0.034839803513402275 0 0.036812346972990156 0.034504934112852874 0 0.036529571902690496 0.03483182188768174 0 0.036566846709360695 0.034240070955148402 0 0.036812346972990156 0.034504934112852874 0 0.036566846709360695 0.034240070955148402 0 0.036812346972990156 0.034504934112852874 0 0.03699949526984337 0.034258214911397605 0 0.036812346972990156 0.034504934112852874 0 0.03699949526984337 0.034258214911397605 0 0.037147411928167742 0.034525281106632159 0 0.03699949526984337 0.034258214911397605 0 0.037147411928167742 0.034525281106632159 0 0.037338792262900204 0.03466113721182365 0 0.035129883573182474 0.031663068560901959 0 0.034530193067186438 0.031172483322196007 0 0.036832963071596156 0.034839803513402275 0 0.037147411928167742 0.034525281106632159 0 0.037343611258744171 0.034669390895393212 0 0.036832963071596156 0.034839803513402275 0 0.036812346972990156 0.034504934112852874 0 0.037147411928167742 0.034525281106632159 0 0.03412234847455585 0.027612769364328424 0 0.034272472565238632 0.027451237097635185 0 0.034016403431144371 0.027294831831476875 0 0.031794500050439968 0.027867085938109614 0 0.031249335103891013 0.029333870577538484 0 0.027780929051772658 0.027289697427578443 0 0.031794500050439968 0.027867085938109614 0 0.032336857165637979 0.028236834234779427 0 0.031249335103891013 0.029333870577538484 0 0.03415486961773407 0.031655077952179624 0 0.034530193067186438 0.031172483322196007 0 0.034530193067186438 0.031172483322196007 0 0.032327981157263042 0.025701571993481193 0 0.037124343665811264 0.036053475485664031 0 0.036825006103098745 0.035451703643625758 0 0.037150831412392463 0.034995745299515546 0 0.036825006103098745 0.035451703643625758 0 0.037150831412392463 0.034995745299515546 0 0.037000582803148441 0.034898822273231496 0 0.028509860053209879 0.029720492601493478 0 0.03415486961773407 0.031655077952179624 0 0.031794500050439968 0.027867085938109614 0 0.027780929051772658 0.027289697427578443 0 0.027773239766845897 0.026136992034041465 0 0.02776584277620785 0.025143367417743638 0 0.031794500050439968 0.027867085938109614 0 0.027773239766845897 0.026136992034041465 0 0.032327981157263042 0.025701571993481193 0 0.023688585179806262 0.021298547294340817 0 0.023688585179806262 0.021298547294340817 0 0.020310389606012124 0.015926022606467177 0 0.016347982266921496 0.016007125271825833 0 0.01726290605272154 0.015002613340962236 0 0.01716927971126456 0