<?xml version="1.0"?>
<VTKFile type="UnstructuredGrid" version="0.1" byte_order="LittleEndian">
<UnstructuredGrid>
<Piece NumberOfPoints="30618" NumberOfCells="10744">
<Points>
<DataArray type="Float64" NumberOfComponents="3" format="ascii">
-0.49427958746526202 -0.49999999999999512 0 -0.4943900888896422 -0.47349089190363358 0 -0.49427958746526202 -0.49999999999999512 0 -0.5 -0.5 0 -0.4943900888896422 -0.47349089190363358 0 -0.5 -0.5 0 -0.4943900888896422 -0.47349089190363358 0 -0.5 -0.44150235328842258 0 -0.49427958746526202 -0.49999999999999512 0 -0.4943900888896422 -0.47349089190363358 0 -0.48436842240857858 -0.48714093788813112 0 -0.49427958746526202 -0.49999999999999512 0 -0.47650045540741742 -0.5 0 -0.48436842240857858 -0.48714093788813112 0 -0.4943900888896422 -0.47349089190363358 0 -0.47066899942757451 -0.47576530412887819 0 -0.48436842240857858 -0.48714093788813112 0 -0.47066899942757451 -0.47576530412887819 0 -0.47650045540741742 -0.5 0 -0.48436842240857858 -0.48714093788813112 0 -0.47066899942757451 -0.47576530412887819 0 -0.45872132334957288 -0.49999999999999928 0 -0.45242967983978871 -0.4846708604340636 0 -0.47066899942757451 -0.47576530412887819 0 -0.47650045540741742 -0.5 0 -0.45872132334957288 -0.49999999999999928 0 -0.47066899942757451 -0.47576530412887819 0 -0.45872132334957288 -0.49999999999999928 0 -0.47066899942757451 -0.47576530412887819 0 -0.45242967983978871 -0.4846708604340636 0 -0.45249717469141032 -0.46588444847215849 0 -0.43763952177061649 -0.47770500498713542 0 -0.45242967983978871 -0.4846708604340636 0 -0.45249717469141032 -0.46588444847215849 0 -0.43763952177061649 -0.47770500498713542 0 -0.44291044788006362 -0.49999999999999939 0 -0.45242967983978871 -0.4846708604340636 0 -0.43763952177061649 -0.47770500498713542 0 -0.44291044788006362 -0.49999999999999939 0 -0.45872132334957288 -0.49999999999999928 0 -0.44291044788006362 -0.49999999999999939 0 -0.45242967983978871 -0.4846708604340636 0 -0.44838221886832419 -0.4464230337388379 0 -0.4323685956611692 -0.45541000997427139 0 -0.435988539966085 -0.44148905847597392 0 -0.44838221886832419 -0.4464230337388379 0 -0.44213238819953832 -0.43491600865963681 0 -0.435988539966085 -0.44148905847597392 0 -0.44838221886832419 -0.4464230337388379 0 -0.45249717469141032 -0.46588444847215849 0 -0.45755175660874181 -0.45423607616472811 0 -0.44838221886832419 -0.4464230337388379 0 -0.45249717469141032 -0.46588444847215849 0 -0.4323685956611692 -0.45541000997427139 0 -0.43763952177061649 -0.47770500498713542 0 -0.45249717469141032 -0.46588444847215849 0 -0.4323685956611692 -0.45541000997427139 0 -0.47066899942757451 -0.47576530412887819 0 -0.45249717469141032 -0.46588444847215849 0 -0.4675747862741928 -0.45726336772241771 0 -0.45249717469141032 -0.46588444847215849 0 -0.45755175660874181 -0.45423607616472811 0 -0.4675747862741928 -0.45726336772241771 0 -0.44838221886832419 -0.4464230337388379 0 -0.46897642374787268 -0.44262015471777721 0 -0.45660235518767722 -0.42786105997071933 0 -0.44838221886832419 -0.4464230337388379 0 -0.45755175660874181 -0.45423607616472811 0 -0.46897642374787268 -0.44262015471777721 0 -0.45755175660874181 -0.45423607616472811 0 -0.4675747862741928 -0.45726336772241771 0 -0.46897642374787268 -0.44262015471777721 0 -0.4943900888896422 -0.47349089190363358 0 -0.5 -0.44150235328842258 0 -0.49450059031402238 -0.44698178380727199 0 -0.46897642374787268 -0.44262015471777721 0 -0.48473746643246862 -0.43972512984246093 0 -0.48043585850414389 -0.43127077967876992 0 -0.46897642374787268 -0.44262015471777721 0 -0.4826166755055763 -0.45153060825775743 0 -0.48473746643246862 -0.43972512984246093 0 -0.4675747862741928 -0.45726336772241771 0 -0.46897642374787268 -0.44262015471777721 0 -0.4826166755055763 -0.45153060825775743 0 -0.47066899942757451 -0.47576530412887819 0 -0.4826166755055763 -0.45153060825775743 0 -0.4943900888896422 -0.47349089190363358 0 -0.47066899942757451 -0.47576530412887819 0 -0.4826166755055763 -0.45153060825775743 0 -0.47066899942757451 -0.47576530412887819 0 -0.4675747862741928 -0.45726336772241771 0 -0.4826166755055763 -0.45153060825775743 0 -0.4943900888896422 -0.47349089190363358 0 -0.49450059031402238 -0.44698178380727199 0 -0.4943900888896422 -0.47349089190363358 0 -0.4826166755055763 -0.45153060825775743 0 -0.49450059031402238 -0.44698178380727199 0 -0.4826166755055763 -0.45153060825775743 0 -0.48473746643246862 -0.43972512984246093 0 -0.49450059031402238 -0.44698178380727199 0 -0.5 -0.44150235328842258 0 -0.49461109173840262 -0.42047267571091063 0 -0.5 -0.39656953661894012 0 -0.49450059031402238 -0.44698178380727199 0 -0.49461109173840262 -0.42047267571091063 0 -0.48473746643246862 -0.43972512984246093 0 -0.49461109173840262 -0.42047267571091063 0 -0.48043585850414389 -0.43127077967876992 0 -0.5 -0.44150235328842258 0 -0.49450059031402238 -0.44698178380727199 0 -0.49461109173840262 -0.42047267571091063 0 -0.48473746643246862 -0.43972512984246093 0 -0.49450059031402238 -0.44698178380727199 0 -0.49461109173840262 -0.42047267571091063 0 -0.49461109173840262 -0.42047267571091063 0 -0.4947215931627828 -0.39396356761454909 0 -0.49461109173840262 -0.42047267571091063 0 -0.48393842445605872 -0.40713040098299402 0 -0.4947215931627828 -0.39396356761454909 0 -0.49461109173840262 -0.42047267571091063 0 -0.48393842445605872 -0.40713040098299402 0 -0.47214510592166908 -0.41939033492402211 0 -0.48393842445605872 -0.40713040098299402 0 -0.47214510592166908 -0.41939033492402211 0 -0.47427590700138023 -0.39469502568249409 0 -0.46897642374787268 -0.44262015471777721 0 -0.47214510592166908 -0.41939033492402211 0 -0.48043585850414389 -0.43127077967876992 0 -0.49461109173840262 -0.42047267571091063 0 -0.47214510592166908 -0.41939033492402211 0 -0.48043585850414389 -0.43127077967876992 0 -0.5 -0.39656953661894012 0 -0.4947215931627828 -0.39396356761454909 0 -0.48030453056746109 -0.36861144308094029 0 -0.49461109173840262 -0.42047267571091063 0 -0.5 -0.39656953661894012 0 -0.4947215931627828 -0.39396356761454909 0 -0.48393842445605872 -0.40713040098299402 0 -0.4947215931627828 -0.39396356761454909 0 -0.47427590700138023 -0.39469502568249409 0 -0.47427590700138023 -0.39469502568249409 0 -0.48030453056746109 -0.36861144308094029 0 -0.4947215931627828 -0.39396356761454909 0 -0.47427590700138023 -0.39469502568249409 0 -0.48030453056746109 -0.36861144308094029 0 -0.47427590700138023 -0.39469502568249409 0 -0.46334377193483078 -0.37842983215876019 0 -0.48030453056746109 -0.36861144308094029 0 -0.46334377193483078 -0.37842983215876019 0 -0.45726543839001688 -0.40541672899881109 0 -0.44416021803808919 -0.38243724496113263 0 -0.47427590700138023 -0.39469502568249409 0 -0.46334377193483078 -0.37842983215876019 0 -0.45726543839001688 -0.40541672899881109 0 -0.45726543839001688 -0.40541672899881109 0 -0.43814282409564848 -0.40387353522152758 0 -0.44416021803808919 -0.38243724496113263 0 -0.43814282409564848 -0.40387353522152758 0 -0.44416021803808919 -0.38243724496113263 0 -0.4329908326547659 -0.40007252460533121 0 -0.43814282409564848 -0.40387353522152758 0 -0.44416021803808919 -0.38243724496113263 0 -0.46897642374787268 -0.44262015471777721 0 -0.47214510592166908 -0.41939033492402211 0 -0.45660235518767722 -0.42786105997071933 0 -0.47214510592166908 -0.41939033492402211 0 -0.47427590700138023 -0.39469502568249409 0 -0.45726543839001688 -0.40541672899881109 0 -0.47214510592166908 -0.41939033492402211 0 -0.45726543839001688 -0.40541672899881109 0 -0.45660235518767722 -0.42786105997071933 0 -0.45726543839001688 -0.40541672899881109 0 -0.45660235518767722 -0.42786105997071933 0 -0.44309263043645408 -0.41812298423377797 0 -0.45726543839001688 -0.40541672899881109 0 -0.43814282409564848 -0.40387353522152758 0 -0.44309263043645408 -0.41812298423377797 0 -0.43814282409564848 -0.40387353522152758 0 -0.44309263043645408 -0.41812298423377797 0 -0.43209373842114163 -0.42530092927673752 0 -0.44838221886832419 -0.4464230337388379 0 -0.45660235518767722 -0.42786105997071933 0 -0.44213238819953832 -0.43491600865963681 0 -0.45660235518767722 -0.42786105997071933 0 -0.44213238819953832 -0.43491600865963681 0 -0.43132710435572019 -0.42815377149591122 0 -0.45660235518767722 -0.42786105997071933 0 -0.44309263043645408 -0.41812298423377797 0 -0.43132710435572019 -0.42815377149591122 0 -0.45660235518767722 -0.42786105997071933 0 -0.43132710435572019 -0.42815377149591122 0 -0.44213238819953832 -0.43491600865963681 0 -0.42986244815509678 -0.43337144475258638 0 -0.435988539966085 -0.44148905847597392 0 -0.44213238819953832 -0.43491600865963681 0 -0.42986244815509678 -0.43337144475258638 0 -0.43132710435572019 -0.42815377149591122 0 -0.42986244815509678 -0.43337144475258638 0 -0.43132710435572019 -0.42815377149591122 0 -0.42986244815509678 -0.43337144475258638 0 -0.42494843276815808 -0.42822764260015772 0 -0.42026026496879931 -0.43681168621285732 0 -0.42986244815509678 -0.43337144475258638 0 -0.42494843276815808 -0.42822764260015772 0 -0.43132710435572019 -0.42815377149591122 0 -0.42494843276815808 -0.42822764260015772 0 -0.43209373842114163 -0.42530092927673752 0 -0.42214799869492048 -0.41876725226122891 0 -0.42494843276815808 -0.42822764260015772 0 -0.43209373842114163 -0.42530092927673752 0 -0.42494843276815808 -0.42822764260015772 0 -0.43209373842114163 -0.42530092927673752 0 -0.43132710435572019 -0.42815377149591122 0 -0.42494843276815808 -0.42822764260015772 0 -0.43132710435572019 -0.42815377149591122 0 -0.44309263043645408 -0.41812298423377797 0 -0.43209373842114163 -0.42530092927673752 0 -0.43132710435572019 -0.42815377149591122 0 -0.43209373842114163 -0.42530092927673752 0 -0.43132710435572019 -0.42815377149591122 0 -0.43814282409564848 -0.40387353522152758 0 -0.43209373842114163 -0.42530092927673752 0 -0.43814282409564848 -0.40387353522152758 0 -0.43209373842114163 -0.42530092927673752 0 -0.42736227186559528 -0.41250939947999687 0 -0.43814282409564848 -0.40387353522152758 0 -0.42736227186559528 -0.41250939947999687 0 -0.42798743510346321 -0.40461924019690898 0
[...]
<PointData Scalars="" Vectors="displacement," Tensors="">
<DataArray type="Float64" Name="displacement" NumberOfComponents="3" format="ascii">
0.044484767281879486 -1.9914534498724041e-07 0 0.043283488147913676 -0.00036865767447236743 0 0.04449049793319141 -5.7724491552902548e-07 0 0.04499650027725402 4.2073853322086264e-07 0 0.044989958809824551 -1.4551962859531283e-06 0 0.04499650027725402 4.2073853322086264e-07 0 0.044989958809824551 -1.4551962859531283e-06 0 0.045001480173906747 -3.8718939982758036e-07 0 0.044482730115567928 -2.1833391594191608e-06 0 0.041619844042351813 -0.00086761767454060403 0 0.042874477188534314 7.788819010752366e-05 0 0.044482730115567928 -2.1833391594191608e-06 0 0.04288402665859202 1.283396639861945e-06 0 0.042874477188534314 7.788819010752366e-05 0 0.041619844042351813 -0.00086761767454060403 0 0.042121482017688387 0.00067483672946808137 0 0.042874477188534314 7.788819010752366e-05 0 0.042121482017688387 0.00067483672946808137 0 0.04288402665859202 1.283396639861945e-06 0 0.042874477188534314 7.788819010752366e-05 0 0.039344793061144738 -0.00081156995347780338 0 0.04127938059828503 -2.1689415689357301e-06 0 0.039976656834039143 -2.4094068358380303e-05 0 0.042121482017688387 0.00067483672946808137 0 0.04288402665859202 1.283396639861945e-06 0 0.041288637329842851 -2.2203276638126436e-07 0 0.040697230094963364 -4.9428119338614344e-05 0 0.041284817736970549 4.4986677469694628e-09 0 0.039344793061144738 -0.00081156995347780338 0 0.039976656834039143 -2.4094068358380303e-05 0 0.039133592385493104 -0.00046697199582784846 0 0.039684935980084643 0.00016451116946129712 0 0.039976656834039143 -2.4094068358380303e-05 0 0.039133592385493104 -0.00046697199582784846 0 0.039684935980084643 0.00016451116946129712 0 0.039866791141292476 1.6940172615008792e-06 0 0.039976656834039143 -2.4094068358380303e-05 0 0.038593547978128265 6.8233749567646879e-05 0 0.039861473904854221 1.1546276567301739e-08 0 0.04127938059828503 -2.1689415689357301e-06 0 0.039866791141292476 1.6940172615008792e-06 0 0.039976656834039143 -2.4094068358380303e-05 0 0.038781146637247646 -0.00064669175043275198 0 0.038036753675332283 -1.7116672596820809e-05 0 0.038343234425270226 -0.00038533690826366497 0 0.038781146637247646 -0.00064669175043275198 0 0.038766150285545357 -0.00068288831242096441 0 0.038343234425270226 -0.00038533690826366497 0 0.038781146637247646 -0.00064669175043275198 0 0.039133592385493104 -0.00046697199582784846 0 0.039099769692187848 -0.00060261372534406866 0 0.038781146637247646 -0.00064669175043275198 0 0.039133592385493104 -0.00046697199582784846 0 0.038036753675332283 -1.7116672596820809e-05 0 0.039684935980084643 0.00016451116946129712 0 0.039133592385493104 -0.00046697199582784846 0 0.038036753675332283 -1.7116672596820809e-05 0 0.039344793061144738 -0.00081156995347780338 0 0.039133592385493104 -0.00046697199582784846 0 0.039322950874710688 -0.0005976324672463555 0 0.039133592385493104 -0.00046697199582784846 0 0.039099769692187848 -0.00060261372534406866 0 0.039322950874710688 -0.0005976324672463555 0 0.038781146637247646 -0.00064669175043275198 0 0.039500372097652586 -0.00062275811913796919 0 0.039877143679507399 -0.0013159674128598779 0 0.038781146637247646 -0.00064669175043275198 0 0.039099769692187848 -0.00060261372534406866 0 0.039500372097652586 -0.00062275811913796919 0 0.039099769692187848 -0.00060261372534406866 0 0.039322950874710688 -0.0005976324672463555 0 0.039500372097652586 -0.00062275811913796919 0 0.044989958809824551 -1.4551962859531283e-06 0 0.045001480173906747 -3.8718939982758036e-07 0 0.044994888016590719 -2.2656571149385585e-06 0 0.039500372097652586 -0.00062275811913796919 0 0.039908303277764449 -0.00010815018765255106 0 0.040376056134404779 -0.00018823061657373535 0 0.039500372097652586 -0.00062275811913796919 0 0.039694980083419137 -7.9770972182841273e-05 0 0.039908303277764449 -0.00010815018765255106 0 0.039322950874710688 -0.0005976324672463555 0 0.039500372097652586 -0.00062275811913796919 0 0.039694980083419137 -7.9770972182841273e-05 0 0.040697230094963364 -4.9428119338614344e-05 0 0.039788741406753855 -0.00012778943269067916 0 0.041619844042351813 -0.00086761767454060403 0 0.042121482017688387 0.00067483672946808137 0 0.039694980083419137 -7.9770972182841273e-05 0 0.039344793061144738 -0.00081156995347780338 0 0.039322950874710688 -0.0005976324672463555 0 0.039694980083419137 -7.9770972182841273e-05 0 0.043283488147913676 -0.00036865767447236743 0 0.04240487741345407 -7.4862139705569164e-05 0 0.041619844042351813 -0.00086761767454060403 0 0.039694980083419137 -7.9770972182841273e-05 0 0.039616945149083309 -0.00018244245043276541 0 0.039694980083419137 -7.9770972182841273e-05 0 0.039908303277764449 -0.00010815018765255106 0 0.039616945149083309 -0.00018244245043276541 0 0.045001480173906747 -3.8718939982758036e-07 0 0.045007641896488294 3.0642025544801664e-06 0 0.044997428100615335 1.1422494568210787e-06 0 0.04240487741345407 -7.4862139705569164e-05 0 0.043158248524730707 0.00033864870628874682 0 0.039908303277764449 -0.00010815018765255106 0 0.041225643111443618 0.00084605350559184057 0 0.040376056134404779 -0.00018823061657373535 0 0.045001480173906747 -3.8718939982758036e-07 0 0.044994888016590719 -2.2656571149385585e-06 0 0.045007641896488294 3.0642025544801664e-06 0 0.039908303277764449 -0.00010815018765255106 0 0.039616945149083309 -0.00018244245043276541 0 0.041225643111443618 0.00084605350559184057 0 0.043158248524730707 0.00033864870628874682 0 0.044663945577024036 0.00017466239366083607 0 0.041225643111443618 0.00084605350559184057 0 0.042850145222998876 -0.00014936206062166274 0 0.044825947925409518 9.5953548562233745e-05 0 0.041225643111443618 0.00084605350559184057 0 0.042850145222998876 -0.00014936206062166274 0 0.041197504564448088 -0.0006926697180264298 0 0.042850145222998876 -0.00014936206062166274 0 0.041197504564448088 -0.0006926697180264298 0 0.043958727220365403 -0.00065189778983450219 0 0.039500372097652586 -0.00062275811913796919 0 0.041197504564448088 -0.0006926697180264298 0 0.040376056134404779 -0.00018823061657373535 0 0.041225643111443618 0.00084605350559184057 0 0.041197504564448088 -0.0006926697180264298 0 0.040376056134404779 -0.00018823061657373535 0 0.044997428100615335 1.1422494568210787e-06 0 0.044825947925409518 9.5953548562233745e-05 0 0.044944460783581539 -5.7710079238101799e-05 0 0.045007641896488294 3.0642025544801664e-06 0 0.044997428100615335 1.1422494568210787e-06 0 0.044825947925409518 9.5953548562233745e-05 0 0.042850145222998876 -0.00014936206062166274 0 0.044825947925409518 9.5953548562233745e-05 0 0.043958727220365403 -0.00065189778983450219 0 0.043940467494416026 -0.00062355116307558534 0 0.045466740896682185 -0.00016174059680603751 0 0.044825947925409518 9.5953548562233745e-05 0 0.043958727220365403 -0.00065189778983450219 0 0.044944460783581539 -5.7710079238101799e-05 0 0.043958727220365403 -0.00065189778983450219 0 0.045044616659975077 -0.0014441845866303338 0 0.045720739131331942 -0.00028880209521449731 0 0.045044616659975077 -0.0014441845866303338 0 0.042654607097986054 -0.0018471698169716245 0 0.04467302921705095 -0.0030122714656837793 0 0.043958727220365403 -0.00065189778983450219 0 0.045044616659975077 -0.0014441845866303338 0 0.042654607097986054 -0.0018471698169716245 0 0.042654607097986054 -0.0018471698169716245 0 0.0427220012924307 -0.0036576967935878484 0 0.04467302921705095 -0.0030122714656837793 0 0.034250413991720227 -0.001219806262812536 0 0.036162886561434286 -0.00050713807997736942 0 0.034486010721947291 -0.0015356631267132877 0 0.038491697984154041 -0.0024881023191566363 0 0.040504491447142604 -0.0017780647404769992 0 0.039500372097652586 -0.00062275811913796919 0 0.041197504564448088 -0.0006926697180264298 0 0.039877143679507399 -0.0013159674128598779 0 0.041197504564448088 -0.0006926697180264298 0 0.043958727220365403 -0.00065189778983450219 0 0.042654607097986054 -0.0018471698169716245 0 0.041197504564448088 -0.0006926697180264298 0 0.042654607097986054 -0.0018471698169716245 0 0.039877143679507399 -0.0013159674128598779 0 0.042654607097986054 -0.0018471698169716245 0 0.039877143679507399 -0.0013159674128598779 0 0.041129292890495571 -0.0031394503960947583 0 0.042654607097986054 -0.0018471698169716245 0 0.0427220012924307 -0.0036576967935878484 0 0.041129292890495571 -0.0031394503960947583 0 0.0427220012924307 -0.0036576967935878484 0 0.041129292890495571 -0.0031394503960947583 0 0.040235847477576643 -0.0044948316964497585 0 0.038781146637247646 -0.00064669175043275198 0 0.039877143679507399 -0.0013159674128598779 0 0.038766150285545357 -0.00068288831242096441 0 0.039877143679507399 -0.0013159674128598779 0 0.038766150285545357 -0.00068288831242096441 0 0.038023657166918745 -0.00031435724246954588 0 0.039877143679507399 -0.0013159674128598779 0 0.041129292890495571 -0.0031394503960947583 0 0.039875253597533925 -0.0045978117694025064 0 0.039919335474082607 -0.0014649008774935089 0 0.03794173104614175 -0.0019217886562856977 0 0.038766150285545357 -0.00068288831242096441 0 0.038053512961919729 -0.00024366512449232249 0 0.038343234425270226 -0.00038533690826366497 0 0.038766150285545357 -0.00068288831242096441 0 0.038053512961919729 -0.00024366512449232249 0 0.038023657166918745 -0.00031435724246954588 0 0.0381741266944573 -0.0014552908719012874 0 0.03794173104614175 -0.0019217886562856977 0 0.038053512961919729 -0.00024366512449232249 0 0.037850944045880137 -0.00012458307870903649 0 0.037647883386154678 -7.6249994985181196e-05 0 0.038053512961919729 -0.00024366512449232249 0 0.037850944045880137 -0.00012458307870903649 0 0.037869397488500961 -0.00031089182254693084 0 0.033792828093294598 -0.0016443297199067427 0 0.033834519984782881 -0.0015070421563547927 0 0.033967626007232056 -0.0016959076410723521 0 0.035873503604762789 -0.0010865809251586983 0 0.036923901860141023 -0.0023562439358032123 0 0.036691303147952464 -0.0015910158774898177 0 0.036722967678333392 -0.0015221871407745064 0 0.036694561456009661 -0.001529260944384577 0 0.035873503604762789 -0.0010865809251586983 0 0.03794173104614175 -0.0019217886562856977 0 0.041129292890495571 -0.0031394503960947583 0 0.040235847477576643 -0.0044948316964497585 0 0.039875253597533925 -0.0045978117694025064 0 0.036923901860141023 -0.0023562439358032123 0 0.03794173104614175 -0.0019217886562856977 0 0.038491697984154041 -0.0024881023191566363 0 0.036923901860141023 -0.0023562439358032123 0 0.034250413991720227 -0.001219806262812536 0 0.033834519984782881 -0.0015070421563547927 0 0.034089608912685407 -0.0015919632207733981 0 0.034250413991720227 -0.001219806262812536 0 0.034089608912685407 -0.0015919632207733981 0 0.03429978766851572 -0.0016109987665150322 0 0.034089608912685407 -0.0015919632207733981 0 0.033967626007232056 -0.0016959076410723521 0 0.034141684315883797 -0.0018106449019847646 0 0.034089608912685407 -0.0015919632207733981 0 0.034141684315883797 -0.0018106449019847646 0 0.03429978766851572 -0.0016109987665150322 0 0.033834519984782881 -0.0015070421563547927 0 0.034089608912685407 -0.0015919632207733981 0 0.033967626007232056 -0.0016959076410723521 0 0.034141684315883797 -0.0018106449019847646 0 0.033952598184507327 -0.0018619305151188941 0 0.034046515738587954 -0.0020721447285084686 0 0.034141684315883797 -0.0018106449019847646 0 0.03425422198484035 -0.002007396031679451 0 0.034046515738587954 -0.0020721447285084686 0 0.033967626007232056 -0.0016959076410723521 0 0.034141684315883797 -0.0018106449019847646 0 0.033952598184507327 -0.0018619305151188941 0 0.037850944045880137 -0.00012458307870903649 0 0.037647883386154678 -7.6249994985181196e-05 0 0.037081305039101016 -2.981617087083793e-05 0 0.035873503604762789 -0.0010865809251586983 0 0.03544471278306642 -0.0001248647253719509 0 0.033705493471908342 -0.0008346087551853572 0 0.03377766008864061 -0.00055716082244834317 0 0.03366486066785454 -0.00053445779684901148 0 0.035873503604762789 -0.0010865809251586983 0 0.033539797655096668 -0.00133549145075399 0 0.033792828093294598 -0.0016443297199067427 0 0.033952598184507327 -0.0018619305151188941 0 0.033809992450472587 -0.0020559011839843739 0 0.033792828093294598 -0.0016443297199067427 0 0.033967626007232056 -0.0016959076410723521 0 0.033952598184507327 -0.0018619305151188941 0 0.034584779846610687 -0.0014513857105087186 0 0.035411005126538886 -0.0028777869831015271 0 0.034486010721947291 -0.0015356631267132877 0 0.034490802975012273 -0.001776747634937663 0 0.034621709236247598 -0.0017892481815113776 0 0.036205374676925403 -0.0016022377287058954 0 0.034486010721947291 -0.0015356631267132877 0 0.03670112135006029 -0.0029307793685052724 0 0.036162886561434286 -0.00050713807997736942 0 0.036205374676925403 -0.0016022377287058954 0 0.034486010721947291 -0.0015356631267132877 0 0.036205374676925403 -0.0016022377287058954 0 0.03670112135006029 -0.0029307793685052724 0 0.037501467635648988 -0.001433237258909916 0 0.036162886561434286 -0.00050713807997736942 0 0.036205374676925403 -0.0016022377287058954 0 0.037501467635648988 -0.001433237258909916 0 0.034486010721947291 -0.0015356631267132877 0 0.034348167912570386 -0.0017229606694819206 0 0.034490802975012273 -0.001776747634937663 0 0.034250413991720227 -0.001219806262812536 0 0.034486010721947291 -0.0015356631267132877 0 0.03429978766851572 -0.0016109987665150322 0 0.034486010721947291 -0.0015356631267132877 0 0.03429978766851572 -0.0016109987665150322 0 0.034348167912570386 -0.0017229606694819206 0 0.034141684315883797 -0.0018106449019847646 0 0.03429978766851572 -0.0016109987665150322 0 0.034348167912570386 -0.0017229606694819206 0 0.03438355924341957 -0.0019726789931748551 0 0.034490802975012273 -0.001776747634937663 0 0.034527004261991782 -0.0020548423307285915 0 0.034141684315883797 -0.0018106449019847646 0 0.034348167912570386 -0.0017229606694819206 0 0.03432807612856157 -0.0018570269197100992 0 0.034141684315883797 -0.0018106449019847646 0 0.03432807612856157 -0.0018570269197100992 0 0.03425422198484035 -0.002007396031679451 0 0.03432807612856157 -0.0018570269197100992 0 0.03438355924341957 -0.0019726789931748551 0 0.03425422198484035 -0.002007396031679451 0 0.03432807612856157 -0.0018570269197100992 0 0.03438355924341957 -0.0019726789931748551 0 0.034490802975012273 -0.001776747634937663 0 0.034348167912570386 -0.0017229606694819206 0 0.03432807612856157 -0.0018570269197100992 0 0.034490802975012273 -0.001776747634937663 0 0.034523711052921582 -0.001921218606625815 0 0.032916196760478626 -0.0021298470843634908 0 0.034490802975012273 -0.001776747634937663 0 0.034575595029598546 -0.0018692467530773346 0 0.034519583578851189 -0.0019650645391341521 0 0.034490802975012273 -0.001776747634937663 0 0.034578341671819807 -0.0018105062771929955 0 0.034621709236247598 -0.0017892481815113776 0 0.034490802975012273 -0.001776747634937663 0 0.034576785015296561 -0.0018435166671148865 0 0.034578341671819807 -0.0018105062771929955 0 0.034490802975012273 -0.001776747634937663 0 0.034576785015296561 -0.0018435166671148865 0 0.034575595029598546 -0.0018692467530773346 0 0.033376785490669296 -0.002927876467280622 0 0.032775998324491344 -0.0024746528341986827 0 0.034576785015296561 -0.0018435166671148865 0 0.034596531611474482 -0.0018299478943171947 0 0.034574545404346818 -0.0018704678604049153 0 0.031054007756098144 -0.0029518791334365389 0 0.03109345614316961 -0.0028687459273747783 0 0.030767928990226071 -0.0026941286136136305 0 0.032885774352530109 -0.0023383719541089716 0 0.032775998324491344 -0.0024746528341986827 0 0.033376785490669296 -0.002927876467280622 0 0.035411005126538886 -0.0028777869831015271 0 0.034595078223737308 -0.0018292284508494982 0 0.034578341671819807 -0.0018105062771929955 0 0.034621709236247598 -0.0017892481815113776 0 0.034576785015296561 -0.0018435166671148865 0 0.034596531611474482 -0.0018299478943171947 0 0.034578341671819807 -0.0018105062771929955 0 0.033376785490669296 -0.002927876467280622 0 0.033481050225885697 -0.0028603530794481663 0 0.031347928182653258 -0.0023484259481161445 0 0.031325935745697156 -0.0020301766692921684 0 0.031413668593562837 -0.0021999022360466485 0 0.031264315586907815 -0.0021380301455303577 0 0.031276331216202879 -0.0021511648904892319 0 0.031283403231212724 -0.0021245797184087879 0 0.03109345614316961 -0.0028687459273747783 0 0.031080542383926265 -0.0024733008176674345 0 0.030767928990226071 -0.0026941286136136305 0 0.032775998324491344 -0.0024746528341986827 0 0.029201500936299279 -0.0021255060432873872 0 0.032775998324491344 -0.0024746528341986827 0 0.032916196760478626 -0.0021298470843634908 0 0.029201500936299279 -0.0021255060432873872 0 0.032916196760478626 -0.0021298470843634908 0 0.034527004261991782 -0.0020548423307285915 0 0.034326055486914288 -0.0021661075660504422 0 0.034313731778419149 -0.0024161384880779266 0 0.032916196760478626 -0.0021298470843634908 0 0.03110081804357712 -0.0019260179615295167 0 0.03438355924341957 -0.0019726789931748551 0 0.034326055486914288 -0.0021661075660504422 0 0.03425422198484035 -0.002007396031679451 0 0.03438355924341957 -0.0019726789931748551 0 0.034527004261991782 -0.0020548423307285915 0 0.034326055486914288 -0.0021661075660504422 0 0.034326055486914288 -0.0021661075660504422 0 0.03425422198484035 -0.002007396031679451 0 0.034197583749309785 -0.0021367048596727246 0 0.03425422198484035 -0.002007396031679451 0 0.034197583749309785 -0.0021367048596727246 0 0.034046515738587954 -0.0020721447285084686 0 0.034197583749309785 -0.0021367048596727246 0 0.034231707727931437 -0.0023017403772601758 0 0.034085462173229941 -0.0022463520100332902 0 0.034326055486914288 -0.0021661075660504422 0 0.034197583749309785 -0.0021367048596727246 0 0.034231707727931437 -0.0023017403772601758 0 0.034029952691031623 -0.0022897770911233166 0 0.034030327724767773 -0.0022881796093048978 0 0.034085462173229941 -0.0022463520100332902 0 0.034030327724767773 -0.0022881796093048978 0 0.034006717807163987 -0.0023017846844584017 0 0.034085462173229941 -0.0022463520100332902 0 0.034231707727931437 -0.0023017403772601758 0 0.034275032630933219 -0.0024453918223173617 0 0.034085462173229941 -0.0022463520100332902 0 0.030961596428260359 -0.0020501857030939975 0 0.034251021782117065 -0.00294934439921965 0 0.030961596428260359 -0.0020501857030939975 0 0.027617397283661398 -0.0010017000177088542 0 0.034012148453519783 -0.0022977097177964163 0 0.034011438968094485 -0.0022932342018946979 0 0.034006406850419259 -0.0023030035605029328 0 0.034029952691031623 -0.0022897770911233166 0 0.034030327724767773 -0.0022881796093048978 0 0.03401907098767494 -0.0022943549044276246 0 0.034029952691031623 -0.0022897770911233166 0 0.034010498056585355 -0.0022994257447492058 0 0.03401907098767494 -0.0022943549044276246 0 0.034010498056585355 -0.0022994257447492058 0 0.03401907098767494 -0.0022943549044276246 0 0.034012148453519783 -0.0022977097177964163 0 0.03401907098767494 -0.0022943549044276246 0 0.034012148453519783 -0.0022977097177964163 0 0.034012902860924475 -0.0022950702621397658 0 0.034012148453519783 -0.0022977097177964163 0 0.034012902860924475 -0.0022950702621397658 0 0.034011438968094485 -0.0022932342018946979 0 0.031385097710815539 -0.0018808619004798987 0 0.030961596428260359 -0.0020501857030939975 0 0.034030327724767773 -0.0022881796093048978 0 0.034012902860924475 -0.0022950702621397658 0 0.034006717807163987 -0.0023017846844584017 0 0.034030327724767773 -0.0022881796093048978 0 0.03401907098767494 -0.0022943549044276246 0 0.034012902860924475 -0.0022950702621397658 0 0.028621754951009853 -0.0006935525262196867 0 0.028912630311324995 -0.00099442416441953879 0 0.028402646038774123 -0.0012987773947278551 0 0.028052469632590209 -0.0015500899305910712 0 0.02798118442643097 -0.0013716796361919381 0 0.02756536867622706 -0.0016158326959685864 0 0.028052469632590209 -0.0015500899305910712 0 0.028118121026425955 -0.0015068453871270632 0 0.02798118442643097 -0.0013716796361919381 0 0.03110081804357712 -0.0019260179615295167 0 0.030961596428260359 -0.0020501857030939975 0 0.0309