<?xml version="1.0"?>
<VTKFile type="UnstructuredGrid" version="0.1" byte_order="LittleEndian">
<UnstructuredGrid>
<Piece NumberOfPoints="30618" NumberOfCells="10744">
<Points>
<DataArray type="Float64" NumberOfComponents="3" format="ascii">
-0.49427958746526202 -0.49999999999999512 0 -0.4943900888896422 -0.47349089190363358 0 -0.49427958746526202 -0.49999999999999512 0 -0.5 -0.5 0 -0.4943900888896422 -0.47349089190363358 0 -0.5 -0.5 0 -0.4943900888896422 -0.47349089190363358 0 -0.5 -0.44150235328842258 0 -0.49427958746526202 -0.49999999999999512 0 -0.4943900888896422 -0.47349089190363358 0 -0.48436842240857858 -0.48714093788813112 0 -0.49427958746526202 -0.49999999999999512 0 -0.47650045540741742 -0.5 0 -0.48436842240857858 -0.48714093788813112 0 -0.4943900888896422 -0.47349089190363358 0 -0.47066899942757451 -0.47576530412887819 0 -0.48436842240857858 -0.48714093788813112 0 -0.47066899942757451 -0.47576530412887819 0 -0.47650045540741742 -0.5 0 -0.48436842240857858 -0.48714093788813112 0 -0.47066899942757451 -0.47576530412887819 0 -0.45872132334957288 -0.49999999999999928 0 -0.45242967983978871 -0.4846708604340636 0 -0.47066899942757451 -0.47576530412887819 0 -0.47650045540741742 -0.5 0 -0.45872132334957288 -0.49999999999999928 0 -0.47066899942757451 -0.47576530412887819 0 -0.45872132334957288 -0.49999999999999928 0 -0.47066899942757451 -0.47576530412887819 0 -0.45242967983978871 -0.4846708604340636 0 -0.45249717469141032 -0.46588444847215849 0 -0.43763952177061649 -0.47770500498713542 0 -0.45242967983978871 -0.4846708604340636 0 -0.45249717469141032 -0.46588444847215849 0 -0.43763952177061649 -0.47770500498713542 0 -0.44291044788006362 -0.49999999999999939 0 -0.45242967983978871 -0.4846708604340636 0 -0.43763952177061649 -0.47770500498713542 0 -0.44291044788006362 -0.49999999999999939 0 -0.45872132334957288 -0.49999999999999928 0 -0.44291044788006362 -0.49999999999999939 0 -0.45242967983978871 -0.4846708604340636 0 -0.44838221886832419 -0.4464230337388379 0 -0.4323685956611692 -0.45541000997427139 0 -0.435988539966085 -0.44148905847597392 0 -0.44838221886832419 -0.4464230337388379 0 -0.44213238819953832 -0.43491600865963681 0 -0.435988539966085 -0.44148905847597392 0 -0.44838221886832419 -0.4464230337388379 0 -0.45249717469141032 -0.46588444847215849 0 -0.45755175660874181 -0.45423607616472811 0 -0.44838221886832419 -0.4464230337388379 0 -0.45249717469141032 -0.46588444847215849 0 -0.4323685956611692 -0.45541000997427139 0 -0.43763952177061649 -0.47770500498713542 0 -0.45249717469141032 -0.46588444847215849 0 -0.4323685956611692 -0.45541000997427139 0 -0.47066899942757451 -0.47576530412887819 0 -0.45249717469141032 -0.46588444847215849 0 -0.4675747862741928 -0.45726336772241771 0 -0.45249717469141032 -0.46588444847215849 0 -0.45755175660874181 -0.45423607616472811 0 -0.4675747862741928 -0.45726336772241771 0 -0.44838221886832419 -0.4464230337388379 0 -0.46897642374787268 -0.44262015471777721 0 -0.45660235518767722 -0.42786105997071933 0 -0.44838221886832419 -0.4464230337388379 0 -0.45755175660874181 -0.45423607616472811 0 -0.46897642374787268 -0.44262015471777721 0 -0.45755175660874181 -0.45423607616472811 0 -0.4675747862741928 -0.45726336772241771 0 -0.46897642374787268 -0.44262015471777721 0 -0.4943900888896422 -0.47349089190363358 0 -0.5 -0.44150235328842258 0 -0.49450059031402238 -0.44698178380727199 0 -0.46897642374787268 -0.44262015471777721 0 -0.48473746643246862 -0.43972512984246093 0 -0.48043585850414389 -0.43127077967876992 0 -0.46897642374787268 -0.44262015471777721 0 -0.4826166755055763 -0.45153060825775743 0 -0.48473746643246862 -0.43972512984246093 0 -0.4675747862741928 -0.45726336772241771 0 -0.46897642374787268 -0.44262015471777721 0 -0.4826166755055763 -0.45153060825775743 0 -0.47066899942757451 -0.47576530412887819 0 -0.4826166755055763 -0.45153060825775743 0 -0.4943900888896422 -0.47349089190363358 0 -0.47066899942757451 -0.47576530412887819 0 -0.4826166755055763 -0.45153060825775743 0 -0.47066899942757451 -0.47576530412887819 0 -0.4675747862741928 -0.45726336772241771 0 -0.4826166755055763 -0.45153060825775743 0 -0.4943900888896422 -0.47349089190363358 0 -0.49450059031402238 -0.44698178380727199 0 -0.4943900888896422 -0.47349089190363358 0 -0.4826166755055763 -0.45153060825775743 0 -0.49450059031402238 -0.44698178380727199 0 -0.4826166755055763 -0.45153060825775743 0 -0.48473746643246862 -0.43972512984246093 0 -0.49450059031402238 -0.44698178380727199 0 -0.5 -0.44150235328842258 0 -0.49461109173840262 -0.42047267571091063 0 -0.5 -0.39656953661894012 0 -0.49450059031402238 -0.44698178380727199 0 -0.49461109173840262 -0.42047267571091063 0 -0.48473746643246862 -0.43972512984246093 0 -0.49461109173840262 -0.42047267571091063 0 -0.48043585850414389 -0.43127077967876992 0 -0.5 -0.44150235328842258 0 -0.49450059031402238 -0.44698178380727199 0 -0.49461109173840262 -0.42047267571091063 0 -0.48473746643246862 -0.43972512984246093 0 -0.49450059031402238 -0.44698178380727199 0 -0.49461109173840262 -0.42047267571091063 0 -0.49461109173840262 -0.42047267571091063 0 -0.4947215931627828 -0.39396356761454909 0 -0.49461109173840262 -0.42047267571091063 0 -0.48393842445605872 -0.40713040098299402 0 -0.4947215931627828 -0.39396356761454909 0 -0.49461109173840262 -0.42047267571091063 0 -0.48393842445605872 -0.40713040098299402 0 -0.47214510592166908 -0.41939033492402211 0 -0.48393842445605872 -0.40713040098299402 0 -0.47214510592166908 -0.41939033492402211 0 -0.47427590700138023 -0.39469502568249409 0 -0.46897642374787268 -0.44262015471777721 0 -0.47214510592166908 -0.41939033492402211 0 -0.48043585850414389 -0.43127077967876992 0 -0.49461109173840262 -0.42047267571091063 0 -0.47214510592166908 -0.41939033492402211 0 -0.48043585850414389 -0.43127077967876992 0 -0.5 -0.39656953661894012 0 -0.4947215931627828 -0.39396356761454909 0 -0.48030453056746109 -0.36861144308094029 0 -0.49461109173840262 -0.42047267571091063 0 -0.5 -0.39656953661894012 0 -0.4947215931627828 -0.39396356761454909 0 -0.48393842445605872 -0.40713040098299402 0 -0.4947215931627828 -0.39396356761454909 0 -0.47427590700138023 -0.39469502568249409 0 -0.47427590700138023 -0.39469502568249409 0 -0.48030453056746109 -0.36861144308094029 0 -0.4947215931627828 -0.39396356761454909 0 -0.47427590700138023 -0.39469502568249409 0 -0.48030453056746109 -0.36861144308094029 0 -0.47427590700138023 -0.39469502568249409 0 -0.46334377193483078 -0.37842983215876019 0 -0.48030453056746109 -0.36861144308094029 0 -0.46334377193483078 -0.37842983215876019 0 -0.45726543839001688 -0.40541672899881109 0 -0.44416021803808919 -0.38243724496113263 0 -0.47427590700138023 -0.39469502568249409 0 -0.46334377193483078 -0.37842983215876019 0 -0.45726543839001688 -0.40541672899881109 0 -0.45726543839001688 -0.40541672899881109 0 -0.43814282409564848 -0.40387353522152758 0 -0.44416021803808919 -0.38243724496113263 0 -0.43814282409564848 -0.40387353522152758 0 -0.44416021803808919 -0.38243724496113263 0 -0.4329908326547659 -0.40007252460533121 0 -0.43814282409564848 -0.40387353522152758 0 -0.44416021803808919 -0.38243724496113263 0 -0.46897642374787268 -0.44262015471777721 0 -0.47214510592166908 -0.41939033492402211 0 -0.45660235518767722 -0.42786105997071933 0 -0.47214510592166908 -0.41939033492402211 0 -0.47427590700138023 -0.39469502568249409 0 -0.45726543839001688 -0.40541672899881109 0 -0.47214510592166908 -0.41939033492402211 0 -0.45726543839001688 -0.40541672899881109 0 -0.45660235518767722 -0.42786105997071933 0 -0.45726543839001688 -0.40541672899881109 0 -0.45660235518767722 -0.42786105997071933 0 -0.44309263043645408 -0.41812298423377797 0 -0.45726543839001688 -0.40541672899881109 0 -0.43814282409564848 -0.40387353522152758 0 -0.44309263043645408 -0.41812298423377797 0 -0.43814282409564848 -0.40387353522152758 0 -0.44309263043645408 -0.41812298423377797 0 -0.43209373842114163 -0.42530092927673752 0 -0.44838221886832419 -0.4464230337388379 0 -0.45660235518767722 -0.42786105997071933 0 -0.44213238819953832 -0.43491600865963681 0 -0.45660235518767722 -0.42786105997071933 0 -0.44213238819953832 -0.43491600865963681 0 -0.43132710435572019 -0.42815377149591122 0 -0.45660235518767722 -0.42786105997071933 0 -0.44309263043645408 -0.41812298423377797 0 -0.43132710435572019 -0.42815377149591122 0 -0.45660235518767722 -0.42786105997071933 0 -0.43132710435572019 -0.42815377149591122 0 -0.44213238819953832 -0.43491600865963681 0 -0.42986244815509678 -0.43337144475258638 0 -0.435988539966085 -0.44148905847597392 0 -0.44213238819953832 -0.43491600865963681 0 -0.42986244815509678 -0.43337144475258638 0 -0.43132710435572019 -0.42815377149591122 0 -0.42986244815509678 -0.43337144475258638 0 -0.43132710435572019 -0.42815377149591122 0 -0.42986244815509678 -0.43337144475258638 0 -0.42494843276815808 -0.42822764260015772 0 -0.42026026496879931 -0.43681168621285732 0 -0.42986244815509678 -0.43337144475258638 0 -0.42494843276815808 -0.42822764260015772 0 -0.43132710435572019 -0.42815377149591122 0 -0.42494843276815808 -0.42822764260015772 0 -0.43209373842114163 -0.42530092927673752 0 -0.42214799869492048 -0.41876725226122891 0 -0.42494843276815808 -0.42822764260015772 0 -0.43209373842114163 -0.42530092927673752 0 -0.42494843276815808 -0.42822764260015772 0 -0.43209373842114163 -0.42530092927673752 0 -0.43132710435572019 -0.42815377149591122 0 -0.42494843276815808 -0.42822764260015772 0 -0.43132710435572019 -0.42815377149591122 0 -0.44309263043645408 -0.41812298423377797 0 -0.43209373842114163 -0.42530092927673752 0 -0.43132710435572019 -0.42815377149591122 0 -0.43209373842114163 -0.42530092927673752 0 -0.43132710435572019 -0.42815377149591122 0 -0.43814282409564848 -0.40387353522152758 0 -0.43209373842114163 -0.42530092927673752 0 -0.43814282409564848 -0.40387353522152758 0 -0.43209373842114163 -0.42530092927673752 0 -0.42736227186559528 -0.41250939947999687 0 -0.43814282409564848 -0.40387353522152758 0 -0.42736227186559528 -0.41250939947999687 0 -0.42798743510346321 -0.40461924019690898 0
[...]
<PointData Scalars="" Vectors="displacement," Tensors="">
<DataArray type="Float64" Name="displacement" NumberOfComponents="3" format="ascii">
1.7040795622047248e-07 0.044999286485703428 0 0.00011570544348518738 0.043072405896189311 0 3.6029541115171516e-09 0.044999306131275792 0 -6.8767054319173369e-09 0.04499988271318988 0 2.7710108014167871e-07 0.042618733539093935 0 -6.8767054319173369e-09 0.04499988271318988 0 2.7710108014167871e-07 0.042618733539093935 0 3.5728361836979328e-08 0.039734867566213028 0 1.2492727947217963e-07 0.044999342902315109 0 0.00013336099692534063 0.043554545776181168 0 8.8367304504473383e-05 0.044389301642637304 0 1.2492727947217963e-07 0.044999342902315109 0 1.4043770298936689e-07 0.044998976089499487 0 8.8367304504473383e-05 0.044389301642637304 0 0.00013336099692534063 0.043554545776181168 0 0.00010376522178679696 0.044102842763484161 0 8.8367304504473383e-05 0.044389301642637304 0 0.00010376522178679696 0.044102842763484161 0 1.4043770298936689e-07 0.044998976089499487 0 8.8367304504473383e-05 0.044389301642637304 0 0.00057783380145280173 0.043168458778635017 0 8.3772966921162429e-07 0.044998834694404764 0 0.00038779300841157839 0.044151974290149512 0 0.00010376522178679696 0.044102842763484161 0 1.4043770298936689e-07 0.044998976089499487 0 -5.0090566648672709e-08 0.045000107576955439 0 0.00032529134653386086 0.043588529845366444 0 -1.6365207958383304e-08 0.044999445633091967 0 0.00057783380145280173 0.043168458778635017 0 0.00038779300841157839 0.044151974290149512 0 0.00055637580481641741 0.043286701483130199 0 0.00057145479392738184 0.043819281615444371 0 0.00038779300841157839 0.044151974290149512 0 0.00055637580481641741 0.043286701483130199 0 0.00057145479392738184 0.043819281615444371 0 9.9272350006135916e-09 0.044998437960058577 0 0.00038779300841157839 0.044151974290149512 0 0.00038378991367007893 0.044276167897526135 0 2.3806217210860492e-07 0.044999648082974457 0 8.3772966921162429e-07 0.044998834694404764 0 9.9272350006135916e-09 0.044998437960058577 0 0.00038779300841157839 0.044151974290149512 0 0.00029972064342126474 0.042756585347686421 0 0.00036279319143489488 0.043879556928547538 0 6.2411376655957044e-05 0.043397896113147504 0 0.00029972064342126474 0.042756585347686421 0 -7.4331647225406167e-05 0.042807470918840837 0 6.2411376655957044e-05 0.043397896113147504 0 0.00029972064342126474 0.042756585347686421 0 0.00055637580481641741 0.043286701483130199 0 0.00043186021577064929 0.042653697159178106 0 0.00029972064342126474 0.042756585347686421 0 0.00055637580481641741 0.043286701483130199 0 0.00036279319143489488 0.043879556928547538 0 0.00057145479392738184 0.043819281615444371 0 0.00055637580481641741 0.043286701483130199 0 0.00036279319143489488 0.043879556928547538 0 0.00057783380145280173 0.043168458778635017 0 0.00055637580481641741 0.043286701483130199 0 0.00043412361271886888 0.04246471128445653 0 0.00055637580481641741 0.043286701483130199 0 0.00043186021577064929 0.042653697159178106 0 0.00043412361271886888 0.04246471128445653 0 0.00029972064342126474 0.042756585347686421 0 0.00036929683139879808 0.041614711582477995 0 6.2648057690623899e-05 0.041276199445734608 0 0.00029972064342126474 0.042756585347686421 0 0.00043186021577064929 0.042653697159178106 0 0.00036929683139879808 0.041614711582477995 0 0.00043186021577064929 0.042653697159178106 0 0.00043412361271886888 0.04246471128445653 0 0.00036929683139879808 0.041614711582477995 0 2.7710108014167871e-07 0.042618733539093935 0 3.5728361836979328e-08 0.039734867566213028 0 -1.2141415623934779e-06 0.040231812763094031 0 0.00036929683139879808 0.041614711582477995 0 0.00043429069464721035 0.041199300877060467 0 0.00042975709960814434 0.040641909361743687 0 0.00036929683139879808 0.041614711582477995 0 0.00034847779375470078 0.042047606940587685 0 0.00043429069464721035 0.041199300877060467 0 0.00043412361271886888 0.04246471128445653 0 0.00036929683139879808 0.041614711582477995 0 0.00034847779375470078 0.042047606940587685 0 0.00032529134653386086 0.043588529845366444 0 0.00034283892039021585 0.042325786049183127 0 0.00013336099692534063 0.043554545776181168 0 0.00010376522178679696 0.044102842763484161 0 0.00034847779375470078 0.042047606940587685 0 0.00057783380145280173 0.043168458778635017 0 0.00043412361271886888 0.04246471128445653 0 0.00034847779375470078 0.042047606940587685 0 0.00011570544348518738 0.043072405896189311 0 0.00021819980616938494 0.040978958543593111 0 0.00013336099692534063 0.043554545776181168 0 0.00034847779375470078 0.042047606940587685 0 0.00040150491938293617 0.041752543944844928 0 0.00034847779375470078 0.042047606940587685 0 0.00043429069464721035 0.041199300877060467 0 0.00040150491938293617 0.041752543944844928 0 3.5728361836979328e-08 0.039734867566213028 0 2.5304768726393183e-05 0.037846740168835054 0 2.4018957299156543e-07 0.035692903562678527 0 0.00021819980616938494 0.040978958543593111 0 0.00020262357298680631 0.038529134829434382 0 0.00043429069464721035 0.041199300877060467 0 0.00047759615553441179 0.039380552968541149 0 0.00042975709960814434 0.040641909361743687 0 3.5728361836979328e-08 0.039734867566213028 0 -1.2141415623934779e-06 0.040231812763094031 0 2.5304768726393183e-05 0.037846740168835054 0 0.00043429069464721035 0.041199300877060467 0 0.00040150491938293617 0.041752543944844928 0 0.00047759615553441179 0.039380552968541149 0 0.00020262357298680631 0.038529134829434382 0 -0.00010306331132968366 0.03641311440358265 0 0.00047759615553441179 0.039380552968541149 0 0.00023264400274446726 0.0383806781859704 0 -3.4026677359404991e-05 0.035919858283685373 0 0.00047759615553441179 0.039380552968541149 0 0.00023264400274446726 0.0383806781859704 0 0.00033583321923170664 0.040055188861271719 0 0.00023264400274446726 0.0383806781859704 0 0.00033583321923170664 0.040055188861271719 0 -0.00031439079986418747 0.038157637896283063 0 0.00036929683139879808 0.041614711582477995 0 0.00033583321923170664 0.040055188861271719 0 0.00042975709960814434 0.040641909361743687 0 0.00047759615553441179 0.039380552968541149 0 0.00033583321923170664 0.040055188861271719 0 0.00042975709960814434 0.040641909361743687 0 2.4018957299156543e-07 0.035692903562678527 0 -3.4026677359404991e-05 0.035919858283685373 0 -0.00028463657633446469 0.034605871692864332 0 2.5304768726393183e-05 0.037846740168835054 0 2.4018957299156543e-07 0.035692903562678527 0 -3.4026677359404991e-05 0.035919858283685373 0 0.00023264400274446726 0.0383806781859704 0 -3.4026677359404991e-05 0.035919858283685373 0 -0.00031439079986418747 0.038157637896283063 0 -0.00014108332376051429 0.03776661267109533 0 -0.0014896969739162129 0.036521295986382332 0 -3.4026677359404991e-05 0.035919858283685373 0 -0.00031439079986418747 0.038157637896283063 0 -0.00028463657633446469 0.034605871692864332 0 -0.00031439079986418747 0.038157637896283063 0 -0.0018580829777430955 0.039164012418321292 0 -0.0027641119810343333 0.037477963259238779 0 -0.0018580829777430955 0.039164012418321292 0 4.4941759949611881e-05 0.040190554971123747 0 -0.0015083099312783244 0.040761425281823381 0 -0.00031439079986418747 0.038157637896283063 0 -0.0018580829777430955 0.039164012418321292 0 4.4941759949611881e-05 0.040190554971123747 0 4.4941759949611881e-05 0.040190554971123747 0 -0.00012945217658870927 0.041094896703247299 0 -0.0015083099312783244 0.040761425281823381 0 -0.00017756531739931831 0.034764464013989693 0 -0.00076557077050066981 0.03456939667081612 0 -0.00030101495691412612 0.034921710955630014 0 -5.8480224119178778e-05 0.037751311542421 0 -0.001281897116529936 0.038107597628832923 0 0.00036929683139879808 0.041614711582477995 0 0.00033583321923170664 0.040055188861271719 0 6.2648057690623899e-05 0.041276199445734608 0 0.00033583321923170664 0.040055188861271719 0 -0.00031439079986418747 0.038157637896283063 0 4.4941759949611881e-05 0.040190554971123747 0 0.00033583321923170664 0.040055188861271719 0 4.4941759949611881e-05 0.040190554971123747 0 6.2648057690623899e-05 0.041276199445734608 0 4.4941759949611881e-05 0.040190554971123747 0 6.2648057690623899e-05 0.041276199445734608 0 0.00015669569747418349 0.040953621065449343 0 4.4941759949611881e-05 0.040190554971123747 0 -0.00012945217658870927 0.041094896703247299 0 0.00015669569747418349 0.040953621065449343 0 -0.00012945217658870927 0.041094896703247299 0 0.00015669569747418349 0.040953621065449343 0 0.00015521686831967456 0.040916387786685694 0 0.00029972064342126474 0.042756585347686421 0 6.2648057690623899e-05 0.041276199445734608 0 -7.4331647225406167e-05 0.042807470918840837 0 6.2648057690623899e-05 0.041276199445734608 0 -7.4331647225406167e-05 0.042807470918840837 0 -0.0008377060879944131 0.0437340889089433 0 6.2648057690623899e-05 0.041276199445734608 0 0.00015669569747418349 0.040953621065449343 0 0.00013471924682385573 0.040897199860468081 0 -4.4478296964584511e-05 0.041781464064668511 0 -0.0002132349939598887 0.041411474371738859 0 -7.4331647225406167e-05 0.042807470918840837 0 -0.00037576095805273517 0.043815973324949992 0 6.2411376655957044e-05 0.043397896113147504 0 -7.4331647225406167e-05 0.042807470918840837 0 -0.00037576095805273517 0.043815973324949992 0 -0.0008377060879944131 0.0437340889089433 0 -0.00013491198758806041 0.042037037373960889 0 -0.0002132349939598887 0.041411474371738859 0 -0.00037576095805273517 0.043815973324949992 0 -0.00054963841792061941 0.044015106218043464 0 -0.00024424562053182349 0.044184621632772425 0 -0.00037576095805273517 0.043815973324949992 0 -0.00054963841792061941 0.044015106218043464 0 -0.00056601893822880612 0.043759113316944882 0 0.00077592944732410426 0.035291901426747249 0 0.00066029172691209489 0.035014367334620281 0 0.00041286212278817005 0.035382464645882725 0 -0.0002147989921841489 0.040460892501355011 0 -0.00047169585670651427 0.039789245177148352 0 -1.7638574530129478e-05 0.040503769125423326 0 6.3667330607309789e-06 0.040568825745853604 0 -1.8805496288667233e-05 0.040562466113006013 0 -0.0002147989921841489 0.040460892501355011 0 -0.0002132349939598887 0.041411474371738859 0 0.00015669569747418349 0.040953621065449343 0 0.00015521686831967456 0.040916387786685694 0 0.00013471924682385573 0.040897199860468081 0 -0.00047169585670651427 0.039789245177148352 0 -0.0002132349939598887 0.041411474371738859 0 -5.8480224119178778e-05 0.037751311542421 0 -0.00047169585670651427 0.039789245177148352 0 -0.00017756531739931831 0.034764464013989693 0 0.00066029172691209489 0.035014367334620281 0 0.00016645897482642899 0.035170514587216185 0 -0.00017756531739931831 0.034764464013989693 0 0.00016645897482642899 0.035170514587216185 0 -0.00013272794600724708 0.035125522003750402 0 0.00016645897482642899 0.035170514587216185 0 0.00041286212278817005 0.035382464645882725 0 7.6146507738465962e-05 0.035584717259095282 0 0.00016645897482642899 0.035170514587216185 0 7.6146507738465962e-05 0.035584717259095282 0 -0.00013272794600724708 0.035125522003750402 0 0.00066029172691209489 0.035014367334620281 0 0.00016645897482642899 0.035170514587216185 0 0.00041286212278817005 0.035382464645882725 0 7.6146507738465962e-05 0.035584717259095282 0 0.00045430856030218182 0.035729022646438083 0 0.00018474416631152228 0.036216867513811632 0 7.6146507738465962e-05 0.035584717259095282 0 -0.00023963589603144829 0.036053275469027472 0 0.00018474416631152228 0.036216867513811632 0 0.00041286212278817005 0.035382464645882725 0 7.6146507738465962e-05 0.035584717259095282 0 0.00045430856030218182 0.035729022646438083 0 -0.00054963841792061941 0.044015106218043464 0 -0.00024424562053182349 0.044184621632772425 0 -0.00018607512986328883 0.044665983880998752 0 -0.0002147989921841489 0.040460892501355011 0 -0.00015022975132937804 0.044286726245841908 0 -0.0007013420429328993 0.041797083445952135 0 -0.0002201420422707437 0.043049658015583289 0 -0.00067202634993637832 0.043150819331363575 0 -0.0002147989921841489 0.040460892501355011 0 9.4678431527351372e-05 0.039223100994883665 0 0.00077592944732410426 0.035291901426747249 0 0.00045430856030218182 0.035729022646438083 0 0.00081085363304119308 0.036185951791016829 0 0.00077592944732410426 0.035291901426747249 0 0.00041286212278817005 0.035382464645882725 0 0.00045430856030218182 0.035729022646438083 0 -0.0009361375036225527 0.036133150750766424 0 -0.00025825617281753676 0.031403487411480489 0 -0.00030101495691412612 0.034921710955630014 0 -0.00064392952406806087 0.035477059880471618 0 -0.0011383289386407685 0.035411467142920733 0 -0.00077074653007836293 0.034866125026217124 0 -0.00030101495691412612 0.034921710955630014 0 -0.00090127615358907994 0.035174703617048733 0 -0.00076557077050066981 0.03456939667081612 0 -0.00077074653007836293 0.034866125026217124 0 -0.00030101495691412612 0.034921710955630014 0 -0.00077074653007836293 0.034866125026217124 0 -0.00090127615358907994 0.035174703617048733 0 -0.0011083541322436574 0.034792207361080851 0 -0.00076557077050066981 0.03456939667081612 0 -0.00077074653007836293 0.034866125026217124 0 -0.0011083541322436574 0.034792207361080851 0 -0.00030101495691412612 0.034921710955630014 0 -0.00026033907818544889 0.03535959032793299 0 -0.00064392952406806087 0.035477059880471618 0 -0.00017756531739931831 0.034764464013989693 0 -0.00030101495691412612 0.034921710955630014 0 -0.00013272794600724708 0.035125522003750402 0 -0.00030101495691412612 0.034921710955630014 0 -0.00013272794600724708 0.035125522003750402 0 -0.00026033907818544889 0.03535959032793299 0 7.6146507738465962e-05 0.035584717259095282 0 -0.00013272794600724708 0.035125522003750402 0 -0.00026033907818544889 0.03535959032793299 0 -0.00050169329481357155 0.035967484044232743 0 -0.00064392952406806087 0.035477059880471618 0 -0.00087996325954999195 0.036169949483315963 0 7.6146507738465962e-05 0.035584717259095282 0 -0.00026033907818544889 0.03535959032793299 0 -0.00031315230809474484 0.035687277868155613 0 7.6146507738465962e-05 0.035584717259095282 0 -0.00031315230809474484 0.035687277868155613 0 -0.00023963589603144829 0.036053275469027472 0 -0.00031315230809474484 0.035687277868155613 0 -0.00050169329481357155 0.035967484044232743 0 -0.00023963589603144829 0.036053275469027472 0 -0.00031315230809474484 0.035687277868155613 0 -0.00050169329481357155 0.035967484044232743 0 -0.00064392952406806087 0.035477059880471618 0 -0.00026033907818544889 0.03535959032793299 0 -0.00031315230809474484 0.035687277868155613 0 -0.00064392952406806087 0.035477059880471618 0 -0.00081426840424816092 0.03598742514544441 0 -0.00053534633882315651 0.034678340816359114 0 -0.00064392952406806087 0.035477059880471618 0 -0.00096290272207458824 0.035693189490050653 0 -0.00082868302132598295 0.035947800971849561 0 -0.00064392952406806087 0.035477059880471618 0 -0.00097239594792047847 0.035517854210126348 0 -0.0011383289386407685 0.035411467142920733 0 -0.00064392952406806087 0.035477059880471618 0 -0.00096693247072504867 0.035616289555249078 0 -0.00097239594792047847 0.035517854210126348 0 -0.00064392952406806087 0.035477059880471618 0 -0.00096693247072504867 0.035616289555249078 0 -0.00096290272207458824 0.035693189490050653 0 -0.00043006181666524105 0.03240854191914707 0 -0.0003754706323800745 0.033438587503568901 0 -0.00096693247072504867 0.035616289555249078 0 -0.001023881153850632 0.035574498593468437 0 -0.00096292333457880679 0.035680517068589712 0 -1.679067499039178e-05 0.031565180603786117 0 -0.00017113968489556537 0.031261288987815487 0 0.00099326350776862585 0.030597524463358845 0 -0.00040907196610339748 0.033914108559600767 0 -0.0003754706323800745 0.033438587503568901 0 -0.00043006181666524105 0.03240854191914707 0 -0.00025825617281753676 0.031403487411480489 0 -0.0010417892746340585 0.035578700156157203 0 -0.00097239594792047847 0.035517854210126348 0 -0.0011383289386407685 0.035411467142920733 0 -0.00096693247072504867 0.035616289555249078 0 -0.001023881153850632 0.035574498593468437 0 -0.00097239594792047847 0.035517854210126348 0 -0.00043006181666524105 0.03240854191914707 0 -0.00081153393158951443 0.032960714980661901 0 -5.165215302992885e-05 0.034010825457122501 0 -5.5650157721385808e-05 0.031406461372746768 0 -0.00066459791234058346 0.032798719053427683 0 -0.00030206680199919192 0.033146302113340777 0 -0.00021780974547554858 0.032952519371816917 0 -5.581033034197383e-06 0.033350768548906964 0 -0.00017113968489556537 0.031261288987815487 0 -0.00017584979801055369 0.029807587066594747 0 0.00099326350776862585 0.030597524463358845 0 -0.0003754706323800745 0.033438587503568901 0 0.00014314627277067083 0.030383936697378659 0 -0.0003754706323800745 0.033438587503568901 0 -0.00053534633882315651 0.034678340816359114 0 0.00014314627277067083 0.030383936697378659 0 -0.00053534633882315651 0.034678340816359114 0 -0.00087996325954999195 0.036169949483315963 0 -0.00045877167966970828 0.03642923737778854 0 -0.00046962885548137507 0.036951167819252159 0 -0.00053534633882315651 0.034678340816359114 0 0.00014606378639034449 0.034105494305088128 0 -0.00050169329481357155 0.035967484044232743 0 -0.00045877167966970828 0.03642923737778854 0 -0.00023963589603144829 0.036053275469027472 0 -0.00050169329481357155 0.035967484044232743 0 -0.00087996325954999195 0.036169949483315963 0 -0.00045877167966970828 0.03642923737778854 0 -0.00045877167966970828 0.03642923737778854 0 -0.00023963589603144829 0.036053275469027472 0 -0.00018849293473390972 0.036376771176239525 0 -0.00023963589603144829 0.036053275469027472 0 -0.00018849293473390972 0.036376771176239525 0 0.00018474416631152228 0.036216867513811632 0 -0.00018849293473390972 0.036376771176239525 0 -0.00029953208965372881 0.036733099488200673 0 -3.3566926920232874e-05 0.036654864652766371 0 -0.00045877167966970828 0.03642923737778854 0 -0.00018849293473390972 0.036376771176239525 0 -0.00029953208965372881 0.036733099488200673 0 -7.5812542109350301e-05 0.036959440923479671 0 -0.0001709937673938043 0.036943100572096856 0 -3.3566926920232874e-05 0.036654864652766371 0 -0.0001709937673938043 0.036943100572096856 0 -0.00032524682803496526 0.036997913561530968 0 -3.3566926920232874e-05 0.036654864652766371 0 -0.00029953208965372881 0.036733099488200673 0 -0.00039619666060555114 0.036997639895704114 0 -3.3566926920232874e-05 0.036654864652766371 0 -1.0077548654467694e-06 0.034388594103517717 0 -0.0006417470642468906 0.036894785145782476 0 -1.0077548654467694e-06 0.034388594103517717 0 0.00068440482948601352 0.033572463297208942 0 -0.0002092501406980723 0.037102831622683567 0 -0.00031776333118743152 0.036993656134012703 0 -0.00021814408869373774 0.037217045463213999 0 -7.5812542109350301e-05 0.036959440923479671 0 -0.0001709937673938043 0.036943100572096856 0 -0.00015838208755636555 0.037041244609611675 0 -7.5812542109350301e-05 0.036959440923479671 0 -8.4193744451923404e-05 0.037115650898148549 0 -0.00015838208755636555 0.037041244609611675 0 -8.4193744451923404e-05 0.037115650898148549 0 -0.00015838208755636555 0.037041244609611675 0 -0.0002092501406980723 0.037102831622683567 0 -0.00015838208755636555 0.037041244609611675 0 -0.0002092501406980723 0.037102831622683567 0 -0.00026015262030853266 0.037032226109563922 0 -0.0002092501406980723 0.037102831622683567 0 -0.00026015262030853266 0.037032226109563922 0 -0.00031776333118743152 0.036993656134012703 0 0.00012407016403564203 0.034619556447401043 0 -1.0077548654467694e-06 0.034388594103517717 0 -0.0001709937673938043 0.036943100572096856 0 -0.00026015262030853266 0.037032226109563922 0 -0.00032524682803496526 0.036997913561530968 0 -0.0001709937673938043 0.036943100572096856 0 -0.00015838208755636555 0.037041244609611675 0 -0.00026015262030853266 0.037032226109563922 0 0.00049209234879468613 0.032624434537684148 0 0.00027567827718789841 0.032843743984041711 0 0.00065161952740134068 0.033069174699825454 0 0.0011929197839330179 0.031030339119737019 0 0.00097595506881032639 0.031619148553220199 0 -0.00040611341749208056 0.030783249762094154 0 0.0011929197839330179 0.031030339119737019 0 0.001408620685390804 0.031180902481099112 0 0.00097595506881032639 0.03161914855322