<?xml version="1.0"?>
<VTKFile type="UnstructuredGrid" version="0.1" byte_order="LittleEndian">
<UnstructuredGrid>
<Piece NumberOfPoints="31947" NumberOfCells="11176">
<Points>
<DataArray type="Float64" NumberOfComponents="3" format="ascii">
-0.5 -0.5 0 -0.47291164641495098 -0.47998228002335619 0 -0.43145591371879038 -0.5 0 -0.5 -0.5 0 -0.50000000000000433 -0.47788428187462728 0 -0.47291164641495098 -0.47998228002335619 0 -0.50000000000000433 -0.47788428187462728 0 -0.47291164641495098 -0.47998228002335619 0 -0.48585201880880391 -0.46271394907832608 0 -0.50000000000000433 -0.47788428187462728 0 -0.48585201880880391 -0.46271394907832608 0 -0.47291164641495098 -0.47998228002335619 0 -0.4691647414294921 -0.46441675892759238 0 -0.48585201880880391 -0.46271394907832608 0 -0.47291164641495098 -0.47998228002335619 0 -0.45099720453261299 -0.47487869025959373 0 -0.43145591371879038 -0.5 0 -0.47291164641495098 -0.47998228002335619 0 -0.45099720453261299 -0.47487869025959373 0 -0.4691647414294921 -0.46441675892759238 0 -0.44944164227175931 -0.44308997408865619 0 -0.44458614074969038 -0.45362674204253639 0 -0.45904879883441019 -0.45293501062497732 0 -0.44944164227175931 -0.44308997408865619 0 -0.44224392598280859 -0.44224994629392461 0 -0.44458614074969038 -0.45362674204253639 0 -0.44944164227175931 -0.44308997408865619 0 -0.45012294552657017 -0.43389347947670209 0 -0.44944164227175931 -0.44308997408865619 0 -0.44224392598280859 -0.44224994629392461 0 -0.45012294552657017 -0.43389347947670209 0 -0.44224392598280859 -0.44224994629392461 0 -0.43800636655066633 -0.43637152333098561 0 -0.43643311689447861 -0.44657975739963329 0 -0.44224392598280859 -0.44224994629392461 0 -0.45012294552657017 -0.43389347947670209 0 -0.43800636655066633 -0.43637152333098561 0 -0.44224392598280859 -0.44224994629392461 0 -0.44458614074969038 -0.45362674204253639 0 -0.43643311689447861 -0.44657975739963329 0 -0.45099720453261299 -0.47487869025959373 0 -0.44458614074969038 -0.45362674204253639 0 -0.42935215598207299 -0.46202707358843342 0 -0.45099720453261299 -0.47487869025959373 0 -0.44458614074969038 -0.45362674204253639 0 -0.45904879883441019 -0.45293501062497732 0 -0.45904879883441019 -0.45293501062497732 0 -0.47170403761760121 -0.4475436162820271 0 -0.4691647414294921 -0.46441675892759238 0 -0.45099720453261299 -0.47487869025959373 0 -0.45904879883441019 -0.45293501062497732 0 -0.4691647414294921 -0.46441675892759238 0 -0.44944164227175931 -0.44308997408865619 0 -0.45904879883441019 -0.45293501062497732 0 -0.4575560564263994 -0.43237328348572729 0 -0.45904879883441019 -0.45293501062497732 0 -0.47170403761760121 -0.4475436162820271 0 -0.4575560564263994 -0.43237328348572729 0 -0.47170403761760121 -0.4475436162820271 0 -0.4575560564263994 -0.43237328348572729 0 -0.47170403761760121 -0.4475436162820271 0 -0.48668318433556729 -0.44193098916938089 0 -0.47875519273360789 -0.42803770414879561 0 -0.47170403761760121 -0.4475436162820271 0 -0.48585201880880391 -0.46271394907832608 0 -0.48668318433556729 -0.44193098916938089 0 -0.47170403761760121 -0.4475436162820271 0 -0.4691647414294921 -0.46441675892759238 0 -0.48585201880880391 -0.46271394907832608 0 -0.47170403761760121 -0.4475436162820271 0 -0.48585201880880391 -0.46271394907832608 0 -0.50000000000000433 -0.47788428187462728 0 -0.48585201880880391 -0.46271394907832608 0 -0.5 -0.45079320334324668 0 -0.5 -0.45079320334324668 0 -0.48668318433556729 -0.44193098916938089 0 -0.49995432904081683 -0.42370212481186631 0 -0.48585201880880391 -0.46271394907832608 0 -0.5 -0.45079320334324668 0 -0.48668318433556729 -0.44193098916938089 0 -0.49995432904081683 -0.42370212481186631 0 -0.49031232461334501 -0.41958847723210829 0 -0.47875519273360789 -0.42803770414879561 0 -0.48668318433556729 -0.44193098916938089 0 -0.49995432904081683 -0.42370212481186631 0 -0.47875519273360789 -0.42803770414879561 0 -0.49995432904081683 -0.42370212481186631 0 -0.47875519273360789 -0.42803770414879561 0 -0.49031232461334501 -0.41958847723210829 0 -0.47814957490924243 -0.41402158561491431 0 -0.48533645757380739 -0.40368392297237921 0 -0.49031232461334501 -0.41958847723210829 0 -0.48533645757380739 -0.40368392297237921 0 -0.49031232461334501 -0.41958847723210829 0 -0.5 -0.40374154659835249 0 -0.48533645757380739 -0.40368392297237921 0 -0.49995432904081683 -0.42370212481186631 0 -0.49031232461334501 -0.41958847723210829 0 -0.5 -0.40374154659835249 0 -0.47814957490924243 -0.41402158561491431 0 -0.48533645757380739 -0.40368392297237921 0 -0.46906812126939468 -0.40328547935508458 0 -0.49031232461334501 -0.41958847723210829 0 -0.47814957490924243 -0.41402158561491431 0 -0.47875519273360789 -0.42803770414879561 0 -0.47875519273360789 -0.42803770414879561 0 -0.46126253921706689 -0.42204745915435937 0 -0.46727577835605699 -0.41551234436620321 0 -0.47814957490924243 -0.41402158561491431 0 -0.46906812126939468 -0.40328547935508458 0 -0.46727577835605699 -0.41551234436620321 0 -0.47814957490924243 -0.41402158561491431 0 -0.47875519273360789 -0.42803770414879561 0 -0.46727577835605699 -0.41551234436620321 0 -0.47170403761760121 -0.4475436162820271 0 -0.47875519273360789 -0.42803770414879561 0 -0.4575560564263994 -0.43237328348572729 0 -0.49999999999999789 -0.38378096838483872 0 -0.49142426202701889 -0.39474645166705657 0 -0.48036059053426933 -0.38777936871265029 0 -0.49999999999999789 -0.38378096838483872 0 -0.48036059053426933 -0.38777936871265029 0 -0.49999999999999789 -0.38378096838483872 0 -0.48036059053426933 -0.38777936871265029 0 -0.48736435168140257 -0.37133275655010689 0 -0.49999999999999789 -0.38378096838483872 0 -0.49142426202701889 -0.39474645166705657 0 -0.5 -0.40374154659835249 0 -0.49142426202701889 -0.39474645166705657 0 -0.48533645757380739 -0.40368392297237921 0 -0.48036059053426933 -0.38777936871265029 0 -0.49142426202701889 -0.39474645166705657 0 -0.5 -0.40374154659835249 0 -0.48533645757380739 -0.40368392297237921 0 -0.48533645757380739 -0.40368392297237921 0 -0.48036059053426933 -0.38777936871265029 0 -0.48533645757380739 -0.40368392297237921 0 -0.46906812126939468 -0.40328547935508458 0 -0.48036059053426933 -0.38777936871265029 0 -0.48036059053426933 -0.38777936871265029 0 -0.46681845321594467 -0.37776328035327839 0 -0.47223744594528688 -0.36181505076594062 0 -0.48036059053426933 -0.38777936871265029 0 -0.46681845321594467 -0.37776328035327839 0 -0.45312848313319598 -0.39332357142148261 0 -0.46681845321594467 -0.37776328035327839 0 -0.45312848313319598 -0.39332357142148261 0 -0.45518352746400748 -0.36558378890584831 0 -0.45312848313319598 -0.39332357142148261 0 -0.45518352746400748 -0.36558378890584831 0 -0.48036059053426933 -0.38777936871265029 0 -0.45312848313319598 -0.39332357142148261 0 -0.46906812126939468 -0.40328547935508458 0 -0.48036059053426933 -0.38777936871265029 0 -0.45312848313319598 -0.39332357142148261 0 -0.46906812126939468 -0.40328547935508458 0 -0.45312848313319598 -0.39332357142148261 0 -0.45195138390082318 -0.40921251173085083 0 -0.44436579112745322 -0.39510757366704208 0 -0.44130764633640812 -0.41495074205422311 0 -0.45312848313319598 -0.39332357142148261 0 -0.45195138390082318 -0.40921251173085083 0 -0.45312848313319598 -0.39332357142148261 0 -0.44436579112745322 -0.39510757366704208 0 -0.45195138390082318 -0.40921251173085083 0 -0.45312848313319598 -0.39332357142148261 0 -0.44436579112745322 -0.39510757366704208 0 -0.44436579112745322 -0.39510757366704208 0 -0.44687421819164608 -0.3788313199175451 0 -0.43569662450111191 -0.38128365304766082 0 -0.45312848313319598 -0.39332357142148261 0 -0.45518352746400748 -0.36558378890584831 0 -0.44868375247440512 -0.3670899224597412 0 -0.45312848313319598 -0.39332357142148261 0 -0.44687421819164608 -0.3788313199175451 0 -0.44868375247440512 -0.3670899224597412 0 -0.45312848313319598 -0.39332357142148261 0 -0.44436579112745322 -0.39510757366704208 0 -0.44687421819164608 -0.3788313199175451 0 -0.44436579112745322 -0.39510757366704208 0 -0.44687421819164608 -0.3788313199175451 0 -0.44687421819164608 -0.3788313199175451 0 -0.43569662450111191 -0.38128365304766082 0 -0.43935121753743761 -0.37636839254663379 0 -0.44687421819164608 -0.3788313199175451 0 -0.43569662450111191 -0.38128365304766082 0 -0.43935121753743761 -0.37636839254663379 0 -0.43569662450111191 -0.38128365304766082 0 -0.47875519273360789 -0.42803770414879561 0 -0.4575560564263994 -0.43237328348572729 0 -0.46126253921706689 -0.42204745915435937 0 -0.47875519273360789 -0.42803770414879561 0 -0.4575560564263994 -0.43237328348572729 0 -0.4575560564263994 -0.43237328348572729 0 -0.46126253921706689 -0.42204745915435937 0 -0.45077428466844838 -0.42510145204021887 0 -0.4575560564263994 -0.43237328348572729 0 -0.45077428466844838 -0.42510145204021887 0 -0.4575560564263994 -0.43237328348572729 0 -0.45012294552657017 -0.43389347947670209 0 -0.46126253921706689 -0.42204745915435937 0 -0.45195138390082318 -0.40921251173085083 0 -0.45077428466844838 -0.42510145204021887 0 -0.46906812126939468 -0.40328547935508458 0 -0.46727577835605699 -0.41551234436620321 0 -0.45195138390082318 -0.40921251173085083 0 -0.46126253921706689 -0.42204745915435937 0 -0.46727577835605699 -0.41551234436620321 0 -0.45195138390082318 -0.40921251173085083 0 -0.45195138390082318 -0.40921251173085083 0 -0.44130764633640812 -0.41495074205422311 0 -0.45077428466844838 -0.42510145204021887 0 -0.44436579112745322 -0.39510757366704208 0 -0.45195138390082318 -0.40921251173085083 0 -0.44130764633640812 -0.41495074205422311 0 -0.44130764633640812 -0.41495074205422311 0 -0.45077428466844838 -0.42510145204021887 0 -0.45195138390082318 -0.40921251173085083 0 -0.45077428466844838 -0.42510145204021887 0 -0.44436579112745322 -0.39510757366704208 0 -0.44130764633640812 -0.41495074205422311 0 -0.42827303486001211 -0.41305505942262499 0 -0.44130764633640812 -0.41495074205422311 0 -0.43800636655066633 -0.43637152333098561 0 -0.4361379896120311 -0.4195955178792854 0 -0.44130764633640812 -0.41495074205422311 0 -0.43800636655066633 -0.43637152333098561 0 -0.4413076
[...]
<PointData Scalars="" Vectors="displacement," Tensors="">
<DataArray type="Float64" Name="displacement" NumberOfComponents="3" format="ascii">
0.04999379779411562 0.049999975658040853 0 0.049962333160520615 0.047123959364520976 0 0.049998652253192416 0.043144068481715571 0 0.04999379779411562 0.049999975658040853 0 0.047800379859913887 0.049996874569846007 0 0.049962333160520615 0.047123959364520976 0 0.047800379859913887 0.049996874569846007 0 0.049962333160520615 0.047123959364520976 0 0.051013272344391854 0.048214509704244131 0 0.047788933611322991 0.049999797893843137 0 0.048514221000930544 0.049707852624625903 0 0.049962333160520615 0.047123959364520976 0 0.051111623490123138 0.046376040712936481 0 0.051013272344391854 0.048214509704244131 0 0.049962333160520615 0.047123959364520976 0 0.050654551670384726 0.044541102442262212 0 0.049998652253192416 0.043144068481715571 0 0.049962333160520615 0.047123959364520976 0 0.050654551670384726 0.044541102442262212 0 0.051111623490123138 0.046376040712936481 0 0.052685864616810539 0.04373608203614452 0 0.051825864643490094 0.043267094163288104 0 0.051975948799025312 0.045007709670050064 0 0.052685864616810539 0.04373608203614452 0 0.052560950385669533 0.042782491582393646 0 0.051825864643490094 0.043267094163288104 0 0.053002304200923195 0.044626048260325686 0 0.049964105189453968 0.045441007590547866 0 0.052685864616810539 0.04373608203614452 0 0.052560950385669533 0.042782491582393646 0 0.053582797701872867 0.043655590962854735 0 0.052560950385669533 0.042782491582393646 0 0.052680683305669371 0.042370991645742512 0 0.052117364167559084 0.04192845103882941 0 0.052560950385669533 0.042782491582393646 0 0.053582797701872867 0.043655590962854735 0 0.052680683305669371 0.042370991645742512 0 0.052560950385669533 0.042782491582393646 0 0.051825864643490094 0.043267094163288104 0 0.052117364167559084 0.04192845103882941 0 0.050654551670384726 0.044541102442262212 0 0.051825864643490094 0.043267094163288104 0 0.051397798172704449 0.041900432087896011 0 0.050654551670384726 0.044541102442262212 0 0.051825864643490094 0.043267094163288104 0 0.051975948799025312 0.045007709670050064 0 0.051975948799025312 0.045007709670050064 0 0.052567421772450974 0.046431787918250617 0 0.051111623490123138 0.046376040712936481 0 0.050654551670384726 0.044541102442262212 0 0.051975948799025312 0.045007709670050064 0 0.051111623490123138 0.046376040712936481 0 0.052685864616810539 0.04373608203614452 0 0.051975948799025312 0.045007709670050064 0 0.053813907461523272 0.044713625459336145 0 0.051975948799025312 0.045007709670050064 0 0.052567421772450974 0.046431787918250617 0 0.053813907461523272 0.044713625459336145 0 0.048898640619843788 0.04917020393090181 0 0.046745055744613913 0.049473681975960526 0 0.04466822316132639 0.052299197045301039 0 0.044213219334098247 0.051137739047904043 0 0.043057992194248836 0.051716466301033 0 0.04466822316132639 0.052299197045301039 0 0.046183972206960223 0.051271685778522036 0 0.044213219334098247 0.051137739047904043 0 0.052567421772450974 0.046431787918250617 0 0.051111623490123138 0.046376040712936481 0 0.051013272344391854 0.048214509704244131 0 0.048898640619843788 0.04917020393090181 0 0.048514221000930544 0.049707852624625903 0 0.047788337315355187 0.050000006237033164 0 0.046183972206960223 0.051271685778522036 0 0.045079086494000387 0.049999793634099572 0 0.045079086494000387 0.049999793634099572 0 0.044213219334098247 0.051137739047904043 0 0.042370844575945171 0.049995377992287128 0 0.046183972206960223 0.051271685778522036 0 0.045079086494000387 0.049999793634099572 0 0.044213219334098247 0.051137739047904043 0 0.042370240410839005 0.049995535764402584 0 0.041988472961223516 0.050863818380681824 0 0.042682350370882284 0.051793283900336586 0 0.044213219334098247 0.051137739047904043 0 0.042370844575945171 0.049995377992287128 0 0.043057992194248836 0.051716466301033 0 0.042370284499217599 0.049995090469367016 0 0.042691722191359263 0.052337149166266708 0 0.041988472961223516 0.050863818380681824 0 0.04166219211775897 0.051745998805721574 0 0.040963756335320706 0.051234571452840882 0 0.041832847360459988 0.05091143572888375 0 0.040656068571585158 0.051259415750044182 0 0.041988472961223516 0.050863818380681824 0 0.040374029639636898 0.049999884229047255 0 0.040328371972359243 0.051329843321181602 0 0.042370240410839005 0.049995535764402584 0 0.041988472961223516 0.050863818380681824 0 0.040374029639636898 0.049999884229047255 0 0.04166219211775897 0.051745998805721574 0 0.040963756335320706 0.051234571452840882 0 0.040955234301133472 0.052320756136217152 0 0.041988472961223516 0.050863818380681824 0 0.04166219211775897 0.051745998805721574 0 0.042682350370882284 0.051793283900336586 0 0.042682350370882284 0.051793283900336586 0 0.042271904988853297 0.052928146704913859 0 0.04180105636669583 0.052496294662865914 0 0.04166219211775897 0.051745998805721574 0 0.040955234301133472 0.052320756136217152 0 0.04180105636669583 0.052496294662865914 0 0.04166219211775897 0.051745998805721574 0 0.042682350370882284 0.051793283900336586 0 0.04180105636669583 0.052496294662865914 0 0.04466822316132639 0.052299197045301039 0 0.043057992194248836 0.051716466301033 0 0.043476017120180455 0.053122492395255287 0 0.038378346898102239 0.049999530026907567 0 0.039463777021048828 0.050732970308603451 0 0.038839392576474625 0.051541773969089912 0 0.03837782902000509 0.049999700980228677 0 0.039707916507776275 0.051963495790318739 0 0.038377030325295818 0.04999990239344354 0 0.038413860864751202 0.051628263909837047 0 0.036828698697944362 0.050754023707492268 0 0.038378346898102239 0.049999530026907567 0 0.039463777021048828 0.050732970308603451 0 0.040374029639636898 0.049999884229047255 0 0.039463777021048828 0.050732970308603451 0 0.040328371972359243 0.051329843321181602 0 0.038839392576474625 0.051541773969089912 0 0.039463777021048828 0.050732970308603451 0 0.040374029639636898 0.049999884229047255 0 0.040328371972359243 0.051329843321181602 0 0.040656068571585158 0.051259415750044182 0 0.039707916507776275 0.051963495790318739 0 0.040963756335320706 0.051234571452840882 0 0.040955234301133472 0.052320756136217152 0 0.039899839290083873 0.051513573894557151 0 0.041447731417645128 0.051167459989331567 0 0.040746898543929475 0.052061742500765111 0 0.039610290706678521 0.051624900081109662 0 0.041447731417645128 0.051167459989331567 0 0.040746898543929475 0.052061742500765111 0 0.041857094561727828 0.05305659711026646 0 0.040746898543929475 0.052061742500765111 0 0.041857094561727828 0.05305659711026646 0 0.039888420790781108 0.052828402319543534 0 0.043317617413803411 0.049951029116240643 0 0.041239928295455489 0.048985784585818072 0 0.039707916507776275 0.051963495790318739 0 0.043317617413803411 0.049951029116240643 0 0.040955234301133472 0.052320756136217152 0 0.039899839290083873 0.051513573894557151 0 0.040294731369763928 0.053344651616872144 0 0.040955234301133472 0.052320756136217152 0 0.040294731369763928 0.053344651616872144 0 0.041386333218397998 0.053498152761650201 0 0.046739250123052196 0.041911694520598321 0 0.048094276471903584 0.043490662442550031 0 0.043317617413803411 0.049951029116240643 0 0.042963896505492295 0.049547630985724699 0 0.044674788091344474 0.045711706502605788 0 0.044742788217083954 0.045995030746193641 0 0.045216930503030987 0.045760466971552768 0 0.043317617413803411 0.049951029116240643 0 0.046739250123052196 0.041911694520598321 0 0.049009029116373677 0.037130271635843808 0 0.045008049568703454 0.036471722769305465 0 0.045618514921829285 0.039221893376583106 0 0.045166290563576558 0.04537778749434869 0 0.042791643195320063 0.045180012059935049 0 0.042925117085433818 0.045728706146004036 0 0.045166290563576558 0.04537778749434869 0 0.043930448633730038 0.0458886773704116 0 0.042925117085433818 0.045728706146004036 0 0.045166290563576558 0.04537778749434869 0 0.045324531575321791 0.046108902656629626 0 0.043930448633730038 0.0458886773704116 0 0.046739250123052196 0.041911694520598321 0 0.045257808521649547 0.040002778238155783 0 0.045257808521649547 0.040002778238155783 0 0.047742411735698397 0.037554490883281368 0 0.045698384010174724 0.037755516969792298 0 0.045728558861583411 0.037682644711218134 0 0.045760735992956977 0.037822212318174876 0 0.046603319432883553 0.037223399094236269 0 0.047742411735698397 0.037554490883281368 0 0.042682350370882284 0.051793283900336586 0 0.042999166931484069 0.053220112614110991 0 0.042271904988853297 0.052928146704913859 0 0.042691722191359263 0.052337149166266708 0 0.046745055744613913 0.049473681975960526 0 0.042999166931484069 0.053220112614110991 0 0.042271904988853297 0.052928146704913859 0 0.042495417807265602 0.053627883479434112 0 0.046745055744613913 0.049473681975960526 0 0.045694921490132413 0.047560167519558078 0 0.046745055744613913 0.049473681975960526 0 0.049964105189453968 0.045441007590547866 0 0.042271904988853297 0.052928146704913859 0 0.041386333218397998 0.053498152761650201 0 0.042495417807265602 0.053627883479434112 0 0.040955234301133472 0.052320756136217152 0 0.04180105636669583 0.052496294662865914 0 0.041386333218397998 0.053498152761650201 0 0.042271904988853297 0.052928146704913859 0 0.04180105636669583 0.052496294662865914 0 0.041386333218397998 0.053498152761650201 0 0.045216930503030987 0.045760466971552768 0 0.045419704746942215 0.046109880533808191 0 0.045752490967148923 0.045813065015475982 0 0.044742788217083954 0.045995030746193641 0 0.045216930503030987 0.045760466971552768 0 0.045419704746942215 0.046109880533808191 0 0.048094276471903584 0.043490662442550031 0 0.045694921490132413 0.047560167519558078 0 0.042963896505492295 0.049547630985724699 0 0.045694921490132413 0.047560167519558078 0 0.049840178442441083 0.039567561788174395 0 0.050603706074205765 0.039788975840612494 0 0.050477332801605226 0.040138224718692994 0 0.050603706074205765 0.039788975840612494 0 0.051488738541460306 0.041158587698951754 0 0.050827184431826981 0.040155963537998073 0 0.048094276471903584 0.043490662442550031 0 0.051187172403714058 0.042389922938821017 0 0.048166811590295379 0.04452667546900739 0 0.048597435374775275 0.044134475218461616 0 0.049090210270706647 0.044663516884384184 0 0.045694921490132413 0.047560167519558078 0 0.049964105189453968 0.045441007590547866 0 0.048597435374775275 0.044134475218461616 0 0.048977331076413035 0.044160707323935643 0 0.049090210270706647 0.044663516884384184 0 0.052685864616810539 0.04373608203614452 0 0.053813907461523272 0.044713625459336145 0 0.053565830400474551 0.043889409125762148 0 0.047647533299261795 0.046992570662508913 0 0.047350593635152406 0.047258896359617525 0 0.047712091099463977 0.047283737738081644 0 0.049964105189453968 0.045441007590547866 0 0.051187172403714058 0.042389922938821017 0 0.051488738541460306 0.041158587698951754 0 0.051131565082082164 0.040452194380199959 0 0.051730852289011024 0.040700931820747029 0 0.051488738541460306 0.041158587698951754 0 0.051131565082082164 0.040452194380199959 0 0.050827184431826981 0.040155963537998073 0 0.051131565082082164 0.040452194380199959 0 0.051089651732283449 0.04034137929905679 0 0.051730852289011024 0.040700931820747029 0 0.051131565082082164 0.040452194380199959 0 0.050477332801605226 0.040138224718692994 0 0.051089651732283449 0.04034137929905679 0 0.050603706074205765 0.039788975840612494 0 0.050827184431826981 0.040155963537998073 0 0.050477332801605226 0.040138224718692994 0 0.051131565082082164 0.040452194380199959 0 0.050827184431826981 0.040155963537998073 0 0.050477332801605226 0.040138224718692994 0 0.052345773553788041 0.037629251042077323 0 0.052047992158058297 0.037045181859989812 0 0.05180092821217562 0.037311610714026472 0 0.050477332801605226 0.040138224718692994 0 0.050530489828355493 0.040041111929396737 0 0.051089651732283449 0.04034137929905679 0 0.051392948554036852 0.038685415552126935 0 0.050870505975164883 0.039163901422713976 0 0.052345773553788041 0.037629251042077323 0 0.052128583887365194 0.036967565762169863 0 0.052047992158058297 0.037045181859989812 0 0.050477332801605226 0.040138224718692994 0 0.050530489828355493 0.040041111929396737 0 0.049861017979706414 0.040048446514165538 0 0.051089651732283449 0.04034137929905679 0 0.051730852289011024 0.040700931820747029 0 0.051519884882248297 0.040208040952940789 0 0.050530489828355493 0.040041111929396737 0 0.051089651732283449 0.04034137929905679 0 0.051519884882248297 0.040208040952940789 0 0.045785635912867696 0.037788680912959373 0 0.045854971845644632 0.038247355020313435 0 0.045683276534944965 0.038003104664444301 0 0.047742411735698397 0.037554490883281368 0 0.050870505975164883 0.039163901422713976 0 0.051434957240509074 0.036510169224396677 0 0.051751690534886936 0.03693872816774961 0 0.051609771603119005 0.03694410127924648 0 0.047742411735698397 0.037554490883281368 0 0.048780269553040254 0.03753368211513438 0 0.045785635912867696 0.037788680912959373 0 0.045683276534944965 0.038003104664444301 0 0.045647432902856319 0.037849381502846488 0 0.045698384010174724 0.037755516969792298 0 0.045785635912867696 0.037788680912959373 0 0.045647432902856319 0.037849381502846488 0 0.051434957240509074 0.036510169224396677 0 0.05199890190458567 0.036993931547092102 0 0.051751690534886936 0.03693872816774961 0 0.049009029116373677 0.037130271635843808 0 0.045618514921829285 0.039221893376583106 0 0.050137088798306292 0.042598984237687237 0 0.049840178442441083 0.039567561788174395 0 0.050477332801605226 0.040138224718692994 0 0.049861017979706414 0.040048446514165538 0 0.046739250123052196 0.041911694520598321 0 0.050870505975164883 0.039163901422713976 0 0.052047992158058297 0.037045181859989812 0 0.051726297054158613 0.037106082747881658 0 0.05180092821217562 0.037311610714026472 0 0.050870505975164883 0.039163901422713976 0 0.050892681268835525 0.038686996189477324 0 0.051726297054158613 0.037106082747881658 0 0.051751690534886936 0.03693872816774961 0 0.051609771603119005 0.03694410127924648 0 0.05199890190458567 0.036993931547092102 0 0.052047992158058297 0.037045181859989812 0 0.051751690534886936 0.03693872816774961 0 0.052047992158058297 0.037045181859989812 0 0.051726297054158613 0.037106082747881658 0 0.051751690534886936 0.03693872816774961 0 0.045854971845644632 0.038247355020313435 0 0.045683276534944965 0.038003104664444301 0 0.045677780506927473 0.03805977950249418 0 0.045863289336004892 0.038271308574223201 0 0.045746228433743714 0.038010506616005593 0 0.045677780506927473 0.03805977950249418 0 0.048780269553040254 0.03753368211513438 0 0.048536543833204077 0.037694499056918955 0 0.045854971845644632 0.038247355020313435 0 0.045863289336004892 0.038271308574223201 0 0.045677780506927473 0.03805977950249418 0 0.051726297054158613 0.037106082747881658 0 0.051609771603119005 0.03694410127924648 0 0.051235266796629424 0.037055629166581852 0 0.051726297054158613 0.037106082747881658 0 0.05180092821217562 0.037311610714026472 0 0.051235266796629424 0.037055629166581852 0 0.05180092821217562 0.037311610714026472 0 0.051235266796629424 0.037055629166581852 0 0.051573601396834777 0.037378261419091417 0 0.048536543833204077 0.037694499056918955 0 0.048184012493493328 0.03774250539842898 0 0.051235266796629424 0.037055629166581852 0 0.051573601396834777 0.037378261419091417 0 0.050210376052624607 0.037081242444909797 0 0.045863289336004892 0.038271308574223201 0 0.045746228433743714 0.038010506616005593 0 0.046125641443580764 0.038006425090415519 0 0.050530489828355493 0.040041111929396737 0 0.051097108454905123 0.039479513323639512 0 0.051519884882248297 0.040208040952940789 0 0.052345773553788041 0.037629251042077323 0 0.051573601396834777 0.037378261419091417 0 0.052315863477697212 0.037809882249402578 0 0.051392948554036852 0.038685415552126935 0 0.05166780065572539 0.038617581550586248 0 0.052345773553788041 0.037629251042077323 0 0.05180092821217562 0.037311610714026472 0 0.051573601396834777 0.037378261419091417 0 0.051573601396834777 0.037378261419091417 0 0.051604589988399584 0.03746954416145825 0 0.050791308146089439 0.037381453329325506 0 0.051604589988399584 0.03746954416145825 0 0.052315863477697212 0.037809882249402578 0 0.051622275703150852 0.037472748812323264 0 0.051573601396834777 0.037378261419091417 0 0.051604589988399584 0.03746954416145825 0 0.052315863477697212 0.037809882249402578 0 0.052315863477697212 0.037809882249402578 0 0.051901170301102237 0.037516627330105141 0 0.051622275703150852 0.037472748812323264 0 0.052315863477697212 0.037809882249402578 0 0.051950714926175645 0.037772122227926322 0 0.051901170301102237 0.037516627330105141 0 0.051097108454905123 0.039479513323639512 0 0.051385935108987021 0.039480746074689807 0 0.051436446656132846 0.038433020656839498 0 0.05166780065572539 0.038617581550586248 0 0.05164587938120601 0.038036199972627756 0 0.051097108454905123 0.039479513323639512 0 0.051385935108987021 0.039480746074689807 0 0.051519884882248297 0.040208040952940789 0 0.051385935108987021 0.039480746074689807 0 0.051007604243602872 0.039042408998456568 0 0.051265281338417991 0.040443028741661752 0 0.051385935108987021 0.039480746074689807 0 0.051519884882248297 0.040208040952940789 0 0.051265281338417991 0.040443028741661752 0 0.051385935108987021 0.039480746074689807 0 0.051436446656132846 0.038433020656839498 0 0.051007604243602872 0.039042408998456568 0 0.051007604243602872 0.039042408998456568 0 0.049999039328227197 0.038246513495153248 0 0.049998652253192416 0.043144068481715571 0 0.051436446656132846 0.038433020656839498 0 0.051007604243602872 0.039042408998456568 0 0.05122093061445078 0.036845118416229443 0 0.051007604243602872 0.039042408998456568 0 0.049999039328227197 0.038246513495153248 0 0.05122093061445078 0.036845118416229443 0 0.049998652253192416 0.043144068481715571 0 0.051397798172704449 0.041900432087896011 0 0.051265281338417991 0.040443028741661752 0 0.051007604243602872 0.039042408998456568 0 0.049998652253192416 0.043144068481715571 0 0.051265281338417991 0.040443028741661752 0 0.050654551670384726 0.044541102442262212 0 0.049998652253192416 0.043144068481715571 0 0.051397798172704449 0.041900432087896011 0 0.051825864643490094 0.043267094163288104 0 0.051397798172704449 0.041900432087896011 0 0.052117364167559084 0.04192845103882941 0 0.051397798172704449 0.041900432087896011 0 0.052117364167559084 0.04192845103882941 0 0.051730852289011024 0.040700931820747029 0 0.052912091531345101 0.040867652927949957 0 0.052117364167559084 0.04192845103882941 0 0.051730852289011024 0.040700931820747029 0 0.051187172403714058 0.042389922938821017 0 0.052214464103215383 0.042085186994153291 0 0.051187172403714058 0.042389922938821017 0 0.051730055730245542 0.040594509546787644 0 0.051397798172704449 0.041900432087896011 0 0.051730852289011024 0.040700931820747029 0 0.051519884882248297 0.040208040952940789 0 0.051397798172704449 0.041900432087896011 0 0.051519884882248297 0.040208040952940789 0 0.051265281338417991 0.040443028741661752 0 0.028688422084877818 0.040085086486376841 0 0.02712186876355261 0.040804931145738604 0 0.027221277424382639 0.039131796685292562 0 0.028688422084877818 0.040085086486376841 0 0.028587363586382739 0.039624329700492081 0 0.027221277424382639 0.039131796685292562 0 0.028688422084877818 0.040085086486376841 0 0.028778775303779005 0.040355271799966799 0 0.028587363586382739 0.039624329700492081 0 0.027463591103629698 0.040892106422369699 0 0.035552319851495082 0.040140210541428516 0 0.028688422084877818 0.040085086486376841 0 0.029976151132331454 0.039668287733567592 0 0.029926291057235498 0.04113778629419864 0 0.02860920804104054 0.040854350518059274 0 0.028778775303779005 0.040355271799966799 0 0.028907779315467872 0.040697325026727384 0 0.028688422084877818 0.040085086486376841 0 0.02860920804104054 0.040854350518059274 0 0.028778775303779005 0.040355271799966799 0 0.035552319851495082 0.040140210541428516 0 0.031857728955043227 0.041951316293318622 0 0.04221361153294232 0.037687696969949593 0 0.04183150213