<?xml version="1.0"?>
<VTKFile type="UnstructuredGrid" version="0.1" byte_order="LittleEndian">
<UnstructuredGrid>
<Piece NumberOfPoints="31947" NumberOfCells="11176">
<Points>
<DataArray type="Float64" NumberOfComponents="3" format="ascii">
-0.5 -0.5 0 -0.47291164641495098 -0.47998228002335619 0 -0.43145591371879038 -0.5 0 -0.5 -0.5 0 -0.50000000000000433 -0.47788428187462728 0 -0.47291164641495098 -0.47998228002335619 0 -0.50000000000000433 -0.47788428187462728 0 -0.47291164641495098 -0.47998228002335619 0 -0.48585201880880391 -0.46271394907832608 0 -0.50000000000000433 -0.47788428187462728 0 -0.48585201880880391 -0.46271394907832608 0 -0.47291164641495098 -0.47998228002335619 0 -0.4691647414294921 -0.46441675892759238 0 -0.48585201880880391 -0.46271394907832608 0 -0.47291164641495098 -0.47998228002335619 0 -0.45099720453261299 -0.47487869025959373 0 -0.43145591371879038 -0.5 0 -0.47291164641495098 -0.47998228002335619 0 -0.45099720453261299 -0.47487869025959373 0 -0.4691647414294921 -0.46441675892759238 0 -0.44944164227175931 -0.44308997408865619 0 -0.44458614074969038 -0.45362674204253639 0 -0.45904879883441019 -0.45293501062497732 0 -0.44944164227175931 -0.44308997408865619 0 -0.44224392598280859 -0.44224994629392461 0 -0.44458614074969038 -0.45362674204253639 0 -0.44944164227175931 -0.44308997408865619 0 -0.45012294552657017 -0.43389347947670209 0 -0.44944164227175931 -0.44308997408865619 0 -0.44224392598280859 -0.44224994629392461 0 -0.45012294552657017 -0.43389347947670209 0 -0.44224392598280859 -0.44224994629392461 0 -0.43800636655066633 -0.43637152333098561 0 -0.43643311689447861 -0.44657975739963329 0 -0.44224392598280859 -0.44224994629392461 0 -0.45012294552657017 -0.43389347947670209 0 -0.43800636655066633 -0.43637152333098561 0 -0.44224392598280859 -0.44224994629392461 0 -0.44458614074969038 -0.45362674204253639 0 -0.43643311689447861 -0.44657975739963329 0 -0.45099720453261299 -0.47487869025959373 0 -0.44458614074969038 -0.45362674204253639 0 -0.42935215598207299 -0.46202707358843342 0 -0.45099720453261299 -0.47487869025959373 0 -0.44458614074969038 -0.45362674204253639 0 -0.45904879883441019 -0.45293501062497732 0 -0.45904879883441019 -0.45293501062497732 0 -0.47170403761760121 -0.4475436162820271 0 -0.4691647414294921 -0.46441675892759238 0 -0.45099720453261299 -0.47487869025959373 0 -0.45904879883441019 -0.45293501062497732 0 -0.4691647414294921 -0.46441675892759238 0 -0.44944164227175931 -0.44308997408865619 0 -0.45904879883441019 -0.45293501062497732 0 -0.4575560564263994 -0.43237328348572729 0 -0.45904879883441019 -0.45293501062497732 0 -0.47170403761760121 -0.4475436162820271 0 -0.4575560564263994 -0.43237328348572729 0 -0.47170403761760121 -0.4475436162820271 0 -0.4575560564263994 -0.43237328348572729 0 -0.47170403761760121 -0.4475436162820271 0 -0.48668318433556729 -0.44193098916938089 0 -0.47875519273360789 -0.42803770414879561 0 -0.47170403761760121 -0.4475436162820271 0 -0.48585201880880391 -0.46271394907832608 0 -0.48668318433556729 -0.44193098916938089 0 -0.47170403761760121 -0.4475436162820271 0 -0.4691647414294921 -0.46441675892759238 0 -0.48585201880880391 -0.46271394907832608 0 -0.47170403761760121 -0.4475436162820271 0 -0.48585201880880391 -0.46271394907832608 0 -0.50000000000000433 -0.47788428187462728 0 -0.48585201880880391 -0.46271394907832608 0 -0.5 -0.45079320334324668 0 -0.5 -0.45079320334324668 0 -0.48668318433556729 -0.44193098916938089 0 -0.49995432904081683 -0.42370212481186631 0 -0.48585201880880391 -0.46271394907832608 0 -0.5 -0.45079320334324668 0 -0.48668318433556729 -0.44193098916938089 0 -0.49995432904081683 -0.42370212481186631 0 -0.49031232461334501 -0.41958847723210829 0 -0.47875519273360789 -0.42803770414879561 0 -0.48668318433556729 -0.44193098916938089 0 -0.49995432904081683 -0.42370212481186631 0 -0.47875519273360789 -0.42803770414879561 0 -0.49995432904081683 -0.42370212481186631 0 -0.47875519273360789 -0.42803770414879561 0 -0.49031232461334501 -0.41958847723210829 0 -0.47814957490924243 -0.41402158561491431 0 -0.48533645757380739 -0.40368392297237921 0 -0.49031232461334501 -0.41958847723210829 0 -0.48533645757380739 -0.40368392297237921 0 -0.49031232461334501 -0.41958847723210829 0 -0.5 -0.40374154659835249 0 -0.48533645757380739 -0.40368392297237921 0 -0.49995432904081683 -0.42370212481186631 0 -0.49031232461334501 -0.41958847723210829 0 -0.5 -0.40374154659835249 0 -0.47814957490924243 -0.41402158561491431 0 -0.48533645757380739 -0.40368392297237921 0 -0.46906812126939468 -0.40328547935508458 0 -0.49031232461334501 -0.41958847723210829 0 -0.47814957490924243 -0.41402158561491431 0 -0.47875519273360789 -0.42803770414879561 0 -0.47875519273360789 -0.42803770414879561 0 -0.46126253921706689 -0.42204745915435937 0 -0.46727577835605699 -0.41551234436620321 0 -0.47814957490924243 -0.41402158561491431 0 -0.46906812126939468 -0.40328547935508458 0 -0.46727577835605699 -0.41551234436620321 0 -0.47814957490924243 -0.41402158561491431 0 -0.47875519273360789 -0.42803770414879561 0 -0.46727577835605699 -0.41551234436620321 0 -0.47170403761760121 -0.4475436162820271 0 -0.47875519273360789 -0.42803770414879561 0 -0.4575560564263994 -0.43237328348572729 0 -0.49999999999999789 -0.38378096838483872 0 -0.49142426202701889 -0.39474645166705657 0 -0.48036059053426933 -0.38777936871265029 0 -0.49999999999999789 -0.38378096838483872 0 -0.48036059053426933 -0.38777936871265029 0 -0.49999999999999789 -0.38378096838483872 0 -0.48036059053426933 -0.38777936871265029 0 -0.48736435168140257 -0.37133275655010689 0 -0.49999999999999789 -0.38378096838483872 0 -0.49142426202701889 -0.39474645166705657 0 -0.5 -0.40374154659835249 0 -0.49142426202701889 -0.39474645166705657 0 -0.48533645757380739 -0.40368392297237921 0 -0.48036059053426933 -0.38777936871265029 0 -0.49142426202701889 -0.39474645166705657 0 -0.5 -0.40374154659835249 0 -0.48533645757380739 -0.40368392297237921 0 -0.48533645757380739 -0.40368392297237921 0 -0.48036059053426933 -0.38777936871265029 0 -0.48533645757380739 -0.40368392297237921 0 -0.46906812126939468 -0.40328547935508458 0 -0.48036059053426933 -0.38777936871265029 0 -0.48036059053426933 -0.38777936871265029 0 -0.46681845321594467 -0.37776328035327839 0 -0.47223744594528688 -0.36181505076594062 0 -0.48036059053426933 -0.38777936871265029 0 -0.46681845321594467 -0.37776328035327839 0 -0.45312848313319598 -0.39332357142148261 0 -0.46681845321594467 -0.37776328035327839 0 -0.45312848313319598 -0.39332357142148261 0 -0.45518352746400748 -0.36558378890584831 0 -0.45312848313319598 -0.39332357142148261 0 -0.45518352746400748 -0.36558378890584831 0 -0.48036059053426933 -0.38777936871265029 0 -0.45312848313319598 -0.39332357142148261 0 -0.46906812126939468 -0.40328547935508458 0 -0.48036059053426933 -0.38777936871265029 0 -0.45312848313319598 -0.39332357142148261 0 -0.46906812126939468 -0.40328547935508458 0 -0.45312848313319598 -0.39332357142148261 0 -0.45195138390082318 -0.40921251173085083 0 -0.44436579112745322 -0.39510757366704208 0 -0.44130764633640812 -0.41495074205422311 0 -0.45312848313319598 -0.39332357142148261 0 -0.45195138390082318 -0.40921251173085083 0 -0.45312848313319598 -0.39332357142148261 0 -0.44436579112745322 -0.39510757366704208 0 -0.45195138390082318 -0.40921251173085083 0 -0.45312848313319598 -0.39332357142148261 0 -0.44436579112745322 -0.39510757366704208 0 -0.44436579112745322 -0.39510757366704208 0 -0.44687421819164608 -0.3788313199175451 0 -0.43569662450111191 -0.38128365304766082 0 -0.45312848313319598 -0.39332357142148261 0 -0.45518352746400748 -0.36558378890584831 0 -0.44868375247440512 -0.3670899224597412 0 -0.45312848313319598 -0.39332357142148261 0 -0.44687421819164608 -0.3788313199175451 0 -0.44868375247440512 -0.3670899224597412 0 -0.45312848313319598 -0.39332357142148261 0 -0.44436579112745322 -0.39510757366704208 0 -0.44687421819164608 -0.3788313199175451 0 -0.44436579112745322 -0.39510757366704208 0 -0.44687421819164608 -0.3788313199175451 0 -0.44687421819164608 -0.3788313199175451 0 -0.43569662450111191 -0.38128365304766082 0 -0.43935121753743761 -0.37636839254663379 0 -0.44687421819164608 -0.3788313199175451 0 -0.43569662450111191 -0.38128365304766082 0 -0.43935121753743761 -0.37636839254663379 0 -0.43569662450111191 -0.38128365304766082 0 -0.47875519273360789 -0.42803770414879561 0 -0.4575560564263994 -0.43237328348572729 0 -0.46126253921706689 -0.42204745915435937 0 -0.47875519273360789 -0.42803770414879561 0 -0.4575560564263994 -0.43237328348572729 0 -0.4575560564263994 -0.43237328348572729 0 -0.46126253921706689 -0.42204745915435937 0 -0.45077428466844838 -0.42510145204021887 0 -0.4575560564263994 -0.43237328348572729 0 -0.45077428466844838 -0.42510145204021887 0 -0.4575560564263994 -0.43237328348572729 0 -0.45012294552657017 -0.43389347947670209 0 -0.46126253921706689 -0.42204745915435937 0 -0.45195138390082318 -0.40921251173085083 0 -0.45077428466844838 -0.42510145204021887 0 -0.46906812126939468 -0.40328547935508458 0 -0.46727577835605699 -0.41551234436620321 0 -0.45195138390082318 -0.40921251173085083 0 -0.46126253921706689 -0.42204745915435937 0 -0.46727577835605699 -0.41551234436620321 0 -0.45195138390082318 -0.40921251173085083 0 -0.45195138390082318 -0.40921251173085083 0 -0.44130764633640812 -0.41495074205422311 0 -0.45077428466844838 -0.42510145204021887 0 -0.44436579112745322 -0.39510757366704208 0 -0.45195138390082318 -0.40921251173085083 0 -0.44130764633640812 -0.41495074205422311 0 -0.44130764633640812 -0.41495074205422311 0 -0.45077428466844838 -0.42510145204021887 0 -0.45195138390082318 -0.40921251173085083 0 -0.45077428466844838 -0.42510145204021887 0 -0.44436579112745322 -0.39510757366704208 0 -0.44130764633640812 -0.41495074205422311 0 -0.42827303486001211 -0.41305505942262499 0 -0.44130764633640812 -0.41495074205422311 0 -0.43800636655066633 -0.43637152333098561 0 -0.4361379896120311 -0.4195955178792854 0 -0.44130764633640812 -0.41495074205422311 0 -0.43800636655066633 -0.43637152333098561 0 -0.4413076
[...]
<PointData Scalars="" Vectors="displacement," Tensors="">
<DataArray type="Float64" Name="displacement" NumberOfComponents="3" format="ascii">
0.049999171431839434 5.018700323260388e-07 0 0.04704250513438453 -0.00066325574583049856 0 0.043145365676418149 -2.7287946373421631e-06 0 0.049999171431839434 5.018700323260388e-07 0 0.049995078285494272 -3.8613710670489849e-06 0 0.04704250513438453 -0.00066325574583049856 0 0.049995078285494272 -3.8613710670489849e-06 0 0.04704250513438453 -0.00066325574583049856 0 0.047641405845132795 -0.001338014626179336 0 0.049999080285049187 2.5320154559021612e-08 0 0.048446836471552443 -0.00024862488294395566 0 0.04704250513438453 -0.00066325574583049856 0 0.04632155736235042 -0.00129505239137988 0 0.047641405845132795 -0.001338014626179336 0 0.04704250513438453 -0.00066325574583049856 0 0.044920778582633922 -0.00084670229237449783 0 0.043145365676418149 -2.7287946373421631e-06 0 0.04704250513438453 -0.00066325574583049856 0 0.044920778582633922 -0.00084670229237449783 0 0.04632155736235042 -0.00129505239137988 0 0.044557618089312898 -0.0020937120288501794 0 0.044219417400796067 -0.0016425890455554143 0 0.045302800944039621 -0.0017418301419679862 0 0.044557618089312898 -0.0020937120288501794 0 0.044066136588164433 -0.0020748519348086402 0 0.044219417400796067 -0.0016425890455554143 0 0.044577349544640023 -0.0022800265817811316 0 0.044654431936729931 -0.002340123391901908 0 0.044557618089312898 -0.0020937120288501794 0 0.044066136588164433 -0.0020748519348086402 0 0.044559019591829022 -0.0024293489155066206 0 0.044066136588164433 -0.0020748519348086402 0 0.043935489044749337 -0.0023790630828134634 0 0.043588401185980653 -0.0018550211808574472 0 0.044066136588164433 -0.0020748519348086402 0 0.044559019591829022 -0.0024293489155066206 0 0.043935489044749337 -0.0023790630828134634 0 0.044066136588164433 -0.0020748519348086402 0 0.044219417400796067 -0.0016425890455554143 0 0.043588401185980653 -0.0018550211808574472 0 0.044920778582633922 -0.00084670229237449783 0 0.044219417400796067 -0.0016425890455554143 0 0.042983632754539071 -0.0013918006720107698 0 0.044920778582633922 -0.00084670229237449783 0 0.044219417400796067 -0.0016425890455554143 0 0.045302800944039621 -0.0017418301419679862 0 0.045302800944039621 -0.0017418301419679862 0 0.045994652211228296 -0.0021586326742793756 0 0.04632155736235042 -0.00129505239137988 0 0.044920778582633922 -0.00084670229237449783 0 0.045302800944039621 -0.0017418301419679862 0 0.04632155736235042 -0.00129505239137988 0 0.044557618089312898 -0.0020937120288501794 0 0.045302800944039621 -0.0017418301419679862 0 0.044965900336198635 -0.002728882256244789 0 0.045302800944039621 -0.0017418301419679862 0 0.045994652211228296 -0.0021586326742793756 0 0.044965900336198635 -0.002728882256244789 0 0.047302407603457004 -0.00078133873811882465 0 0.046344640962464954 -0.0010230764435666332 0 0.048582170615223887 0.00061635934743040197 0 0.049243508088357042 0.00012614449413739432 0 0.048844969909870334 -0.00024946798191264501 0 0.048582170615223887 0.00061635934743040197 0 0.049462417901070782 0.00061411982751914933 0 0.049243508088357042 0.00012614449413739432 0 0.045994652211228296 -0.0021586326742793756 0 0.04632155736235042 -0.00129505239137988 0 0.047641405845132795 -0.001338014626179336 0 0.047302407603457004 -0.00078133873811882465 0 0.048446836471552443 -0.00024862488294395566 0 0.049999517801540994 1.3320296395380308e-06 0 0.049462417901070782 0.00061411982751914933 0 0.049998269345492903 2.0327946672524994e-07 0 0.049998269345492903 2.0327946672524994e-07 0 0.049243508088357042 0.00012614449413739432 0 0.049994281786917644 -5.8472552466206164e-07 0 0.049462417901070782 0.00061411982751914933 0 0.049998269345492903 2.0327946672524994e-07 0 0.049243508088357042 0.00012614449413739432 0 0.049993321864543194 8.9163136902644399e-08 0 0.04937319908167865 -0.00017092786794246521 0 0.048472708307877567 -0.00017424045690606036 0 0.049243508088357042 0.00012614449413739432 0 0.049994281786917644 -5.8472552466206164e-07 0 0.048844969909870334 -0.00024946798191264501 0 0.049994724972620509 -4.2629304545340956e-07 0 0.048798846098446591 5.8221510204296756e-05 0 0.04937319908167865 -0.00017092786794246521 0 0.048529172832678401 -0.00075147896339987743 0 0.048782274676025535 -0.0013282362925999018 0 0.04916786166911849 -0.00027527687187877472 0 0.048957715296337426 -0.00051590489208885903 0 0.04937319908167865 -0.00017092786794246521 0 0.049999414127802344 1.3719211218698891e-07 0 0.049272673788017758 0.00024033496961023822 0 0.049993321864543194 8.9163136902644399e-08 0 0.04937319908167865 -0.00017092786794246521 0 0.049999414127802344 1.3719211218698891e-07 0 0.048529172832678401 -0.00075147896339987743 0 0.048782274676025535 -0.0013282362925999018 0 0.047835938310997722 -0.0012666676332837182 0 0.04937319908167865 -0.00017092786794246521 0 0.048529172832678401 -0.00075147896339987743 0 0.048472708307877567 -0.00017424045690606036 0 0.048472708307877567 -0.00017424045690606036 0 0.047588071907731663 -0.00034727669877520446 0 0.047866441901545306 -0.00069176233372647729 0 0.048529172832678401 -0.00075147896339987743 0 0.047835938310997722 -0.0012666676332837182 0 0.047866441901545306 -0.00069176233372647729 0 0.048529172832678401 -0.00075147896339987743 0 0.048472708307877567 -0.00017424045690606036 0 0.047866441901545306 -0.00069176233372647729 0 0.048582170615223887 0.00061635934743040197 0 0.048844969909870334 -0.00024946798191264501 0 0.047653594712242474 0.00015281650994031139 0 0.049998878105479802 1.4102989369050176e-07 0 0.049593477034582847 0.00015851713163798743 0 0.049082553820876049 0.00038307767747394175 0 0.049999842314163073 1.6553602429079152e-06 0 0.048504776912598441 -0.00086476283550599483 0 0.049998964858893644 4.1201966500919407e-07 0 0.048971804338779054 0.00060633574630503128 0 0.049330796350443781 0.00032119448019246637 0 0.049998878105479802 1.4102989369050176e-07 0 0.049593477034582847 0.00015851713163798743 0 0.049999414127802344 1.3719211218698891e-07 0 0.049593477034582847 0.00015851713163798743 0 0.049272673788017758 0.00024033496961023822 0 0.049082553820876049 0.00038307767747394175 0 0.049593477034582847 0.00015851713163798743 0 0.049999414127802344 1.3719211218698891e-07 0 0.049272673788017758 0.00024033496961023822 0 0.048957715296337426 -0.00051590489208885903 0 0.048504776912598441 -0.00086476283550599483 0 0.048782274676025535 -0.0013282362925999018 0 0.047835938310997722 -0.0012666676332837182 0 0.04830038012608133 -0.0021188899796528793 0 0.048103271705765852 -0.0021275448732303356 0 0.047212174846863526 -0.0024515101853949763 0 0.047329251097146412 -0.0032993089427074355 0 0.048103271705765852 -0.0021275448732303356 0 0.047212174846863526 -0.0024515101853949763 0 0.046555488817671777 -0.0015465753759046964 0 0.047212174846863526 -0.0024515101853949763 0 0.046555488817671777 -0.0015465753759046964 0 0.046451978698066068 -0.0029178269542012251 0 0.046955817061529882 -0.0020295150652393608 0 0.046058213840297291 -0.0033489151357825688 0 0.048504776912598441 -0.00086476283550599483 0 0.046955817061529882 -0.0020295150652393608 0 0.047835938310997722 -0.0012666676332837182 0 0.04830038012608133 -0.0021188899796528793 0 0.046778968363704841 -0.00164062086433982 0 0.047835938310997722 -0.0012666676332837182 0 0.046778968363704841 -0.00164062086433982 0 0.046871654088272173 -0.00086070402262826027 0 0.046736883661907758 -0.0013931196378495379 0 0.045431341502269282 -0.0020696685788443477 0 0.046955817061529882 -0.0020295150652393608 0 0.047070045505655952 -0.0011376009433650574 0 0.046836320413232865 -0.001981151739209026 0 0.046231704235983342 -0.0018916609724910468 0 0.046866073715675124 -0.0013723529761456108 0 0.046955817061529882 -0.0020295150652393608 0 0.046736883661907758 -0.0013931196378495379 0 0.043389008841013821 0.0022612376637232943 0 0.049468528418060244 0.0029753791110589578 0 0.048358918556180186 -0.0011467435320570878 0 0.048306556014036307 -0.0030277598598487799 0 0.044868560198100052 -0.0036163819391010522 0 0.044467980831736871 -0.0035148551852879277 0 0.048306556014036307 -0.0030277598598487799 0 0.045911563023888588 -0.0027937332101520052 0 0.044467980831736871 -0.0035148551852879277 0 0.048306556014036307 -0.0030277598598487799 0 0.048440575079724518 -0.0015812345523004848 0 0.045911563023888588 -0.0027937332101520052 0 0.046736883661907758 -0.0013931196378495379 0 0.046015890570860446 0.00025926545487483122 0 0.046015890570860446 0.00025926545487483122 0 0.043184790719790568 0.0015923879915564216 0 0.043476027088567126 0.0020147673605385367 0 0.044225016750135501 0.0023777597329625176 0 0.042891385318745145 0.0018083680512141326 0 0.043280480734773911 0.001763388259538475 0 0.043184790719790568 0.0015923879915564216 0 0.048472708307877567 -0.00017424045690606036 0 0.047516161581312492 0.00018029079152595144 0 0.047588071907731663 -0.00034727669877520446 0 0.048798846098446591 5.8221510204296756e-05 0 0.046344640962464954 -0.0010230764435666332 0 0.047516161581312492 0.00018029079152595144 0 0.047588071907731663 -0.00034727669877520446 0 0.047083688899612883 -9.5010977910387664e-05 0 0.046344640962464954 -0.0010230764435666332 0 0.045949953110930183 -0.0015889654735030084 0 0.046344640962464954 -0.0010230764435666332 0 0.044654431936729931 -0.002340123391901908 0 0.047588071907731663 -0.00034727669877520446 0 0.046871654088272173 -0.00086070402262826027 0 0.047083688899612883 -9.5010977910387664e-05 0 0.047835938310997722 -0.0012666676332837182 0 0.047866441901545306 -0.00069176233372647729 0 0.046871654088272173 -0.00086070402262826027 0 0.047588071907731663 -0.00034727669877520446 0 0.047866441901545306 -0.00069176233372647729 0 0.046871654088272173 -0.00086070402262826027 0 0.046866073715675124 -0.0013723529761456108 0 0.046319535210029072 -0.00099157878930629276 0 0.047164636791558141 -0.00069705471659076406 0 0.046231704235983342 -0.0018916609724910468 0 0.046866073715675124 -0.0013723529761456108 0 0.046319535210029072 -0.00099157878930629276 0 0.045431341502269282 -0.0020696685788443477 0 0.045949953110930183 -0.0015889654735030084 0 0.047070045505655952 -0.0011376009433650574 0 0.045949953110930183 -0.0015889654735030084 0 0.047604615294632606 -0.0012356566472784788 0 0.044913204621911319 -0.0013773439062273473 0 0.044292992147286395 -0.0029242021636147926 0 0.044913204621911319 -0.0013773439062273473 0 0.043108979004019658 -0.0017174365857723021 0 0.044251723105737141 -0.0019111029294012381 0 0.045431341502269282 -0.0020696685788443477 0 0.043589018065778688 -0.002181512388244454 0 0.045024911796474901 -0.0033613156582657597 0 0.044755128234199686 -0.0022952677406932417 0 0.043445922107693602 -0.0026627017210084018 0 0.045949953110930183 -0.0015889654735030084 0 0.044654431936729931 -0.002340123391901908 0 0.044755128234199686 -0.0022952677406932417 0 0.044137207719673756 -0.0019614337424695115 0 0.043445922107693602 -0.0026627017210084018 0 0.044557618089312898 -0.0020937120288501794 0 0.044965900336198635 -0.002728882256244789 0 0.044568074988464677 -0.0025511638120084943 0 0.044886964717321322 -0.0027958671315261958 0 0.044349080795086343 -0.002861683409184084 0 0.044623627906714494 -0.0024767528922147873 0 0.044654431936729931 -0.002340123391901908 0 0.043589018065778688 -0.002181512388244454 0 0.043108979004019658 -0.0017174365857723021 0 0.043362778182463493 -0.0024071857165991568 0 0.042678011663155359 -0.0023004164965953955 0 0.043108979004019658 -0.0017174365857723021 0 0.043362778182463493 -0.0024071857165991568 0 0.044251723105737141 -0.0019111029294012381 0 0.043362778182463493 -0.0024071857165991568 0 0.042833564408596224 -0.0029267648597739154 0 0.042678011663155359 -0.0023004164965953955 0 0.043362778182463493 -0.0024071857165991568 0 0.044292992147286395 -0.0029242021636147926 0 0.042833564408596224 -0.0029267648597739154 0 0.044913204621911319 -0.0013773439062273473 0 0.044251723105737141 -0.0019111029294012381 0 0.044292992147286395 -0.0029242021636147926 0 0.043362778182463493 -0.0024071857165991568 0 0.044251723105737141 -0.0019111029294012381 0 0.044292992147286395 -0.0029242021636147926 0 0.037885777777489568 0.0024267453735359245 0 0.0398196618865619 0.0025083941317223207 0 0.038562893559296318 0.0015926401156873256 0 0.044292992147286395 -0.0029242021636147926 0 0.04265344605881527 -0.003983800162212052 0 0.042833564408596224 -0.0029267648597739154 0 0.040456882141776541 -0.00061667110637616965 0 0.042094330070253441 -0.0015676248538938455 0 0.037885777777489568 0.0024267453735359245 0 0.040085963396331699 0.0026446384153684661 0 0.0398196618865619 0.0025083941317223207 0 0.044292992147286395 -0.0029242021636147926 0 0.04265344605881527 -0.003983800162212052 0 0.045080513651290774 -0.0040759143407614207 0 0.042833564408596224 -0.0029267648597739154 0 0.042678011663155359 -0.0023004164965953955 0 0.041699430175553207 -0.0024575737294628914 0 0.04265344605881527 -0.003983800162212052 0 0.042833564408596224 -0.0029267648597739154 0 0.041699430175553207 -0.0024575737294628914 0 0.042745434606635109 0.0020046104802715235 0 0.040651818898078756 0.0014280234445325842 0 0.041926676812094492 0.0012889332340834667 0 0.043184790719790568 0.0015923879915564216 0 0.042094330070253441 -0.0015676248538938455 0 0.040709770004039414 0.0024647100373771692 0 0.039999948969798908 0.002172579348035652 0 0.040077341442984665 0.0015568335916021441 0 0.043184790719790568 0.0015923879915564216 0 0.040194559225956515 0.0014939370010867768 0 0.042745434606635109 0.0020046104802715235 0 0.041926676812094492 0.0012889332340834667 0 0.042811456188862021 0.0015740818477846025 0 0.043476027088567126 0.0020147673605385367 0 0.042745434606635109 0.0020046104802715235 0 0.042811456188862021 0.0015740818477846025 0 0.040709770004039414 0.0024647100373771692 0 0.039854957415820715 0.0026918957058177533 0 0.039999948969798908 0.002172579348035652 0 0.043389008841013821 0.0022612376637232943 0 0.048358918556180186 -0.0011467435320570878 0 0.041310495444506136 -0.0059515129555118172 0 0.047604615294632606 -0.0012356566472784788 0 0.044292992147286395 -0.0029242021636147926 0 0.045080513651290774 -0.0040759143407614207 0 0.046736883661907758 -0.0013931196378495379 0 0.042094330070253441 -0.0015676248538938455 0 0.0398196618865619 0.0025083941317223207 0 0.039424584682322621 0.0017494196958129124 0 0.038562893559296318 0.0015926401156873256 0 0.042094330070253441 -0.0015676248538938455 0 0.04206750985537052 -0.00058990496653560582 0 0.039424584682322621 0.0017494196958129124 0 0.039999948969798908 0.002172579348035652 0 0.040077341442984665 0.0015568335916021441 0 0.039854957415820715 0.0026918957058177533 0 0.0398196618865619 0.0025083941317223207 0 0.039999948969798908 0.002172579348035652 0 0.0398196618865619 0.0025083941317223207 0 0.039424584682322621 0.0017494196958129124 0 0.039999948969798908 0.002172579348035652 0 0.040651818898078756 0.0014280234445325842 0 0.041926676812094492 0.0012889332340834667 0 0.040866245823457346 0.00026236950119523102 0 0.03852351160374351 0.00027055863544020236 0 0.03874990882571424 -0.0010405631891328728 0 0.040866245823457346 0.00026236950119523102 0 0.040194559225956515 0.0014939370010867768 0 0.038607963800261116 0.00021825892734515773 0 0.040651818898078756 0.0014280234445325842 0 0.03852351160374351 0.00027055863544020236 0 0.040866245823457346 0.00026236950119523102 0 0.039424584682322621 0.0017494196958129124 0 0.040077341442984665 0.0015568335916021441 0 0.038701795237330673 0.00023028017160935745 0 0.039424584682322621 0.0017494196958129124 0 0.038562893559296318 0.0015926401156873256 0 0.038701795237330673 0.00023028017160935745 0 0.038562893559296318 0.0015926401156873256 0 0.038701795237330673 0.00023028017160935745 0 0.037040957493087869 0.0010338156018909646 0 0.038607963800261116 0.00021825892734515773 0 0.036685646081231787 -0.00098680343729812508 0 0.038701795237330673 0.00023028017160935745 0 0.037040957493087869 0.0010338156018909646 0 0.036953980748258466 -0.0010403875541426159 0 0.03852351160374351 0.00027055863544020236 0 0.03874990882571424 -0.0010405631891328728 0 0.036486120559115688 -0.00093424560412398564 0 0.04265344605881527 -0.003983800162212052 0 0.040743924226370819 -0.0034972761288992265 0 0.041699430175553207 -0.0024575737294628914 0 0.037885777777489568 0.0024267453735359245 0 0.037040957493087869 0.0010338156018909646 0 0.036495316900293104 0.0022175232795520424 0 0.040456882141776541 -0.00061667110637616965 0 0.038628813967208915 -0.0006291942865399566 0 0.037885777777489568 0.0024267453735359245 0 0.038562893559296318 0.0015926401156873256 0 0.037040957493087869 0.0010338156018909646 0 0.037040957493087869 0.0010338156018909646 0 0.036073297382467791 0.00091586774781156463 0 0.035701558473367333 -0.00012636024637380596 0 0.036073297382467791 0.00091586774781156463 0 0.036495316900293104 0.0022175232795520424 0 0.035073466810327518 0.00056383038203307312 0 0.037040957493087869 0.0010338156018909646 0 0.036073297382467791 0.00091586774781156463 0 0.036495316900293104 0.0022175232795520424 0 0.036495316900293104 0.0022175232795520424 0 0.035100027623069407 0.0012504674549923039 0 0.035073466810327518 0.00056383038203307312 0 0.036495316900293104 0.0022175232795520424 0 0.035397400510082729 0.0020477279990943481 0 0.035100027623069407 0.0012504674549923039 0 0.040743924226370819 -0.0034972761288992265 0 0.04029767088525725 -0.0022952114642413638 0 0.038910768773455159 -0.0026787453795122582 0 0.038628813967208915 -0.0006291942865399566 0 0.037225173787653193 -0.00027715872179175056 0 0.040743924226370819 -0.0034972761288992265 0 0.04029767088525725 -0.0022952114642413638 0 0.041699430175553207 -0.0024575737294628914 0 0.04029767088525725 -0.0022952114642413638 0 0.039366077484694353 -0.0011330235994214245 0 0.041141774877990721 -0.0014721644006681052 0 0.04029767088525725 -0.0022952114642413638 0 0.041699430175553207 -0.0024575737294628914 0 0.041141774877990721 -0.0014721644006681052 0 0.04029767088525725 -0.0022952114642413638 0 0.038910768773455159 -0.0026787453795122582 0 0.039366077484694353 -0.0011330235994214245 0 0.039366077484694353 -0.0011330235994214245 0 0.038246421329633969 -1.6583308751991044e-06 0 0.043145365676418149 -2.7287946373421631e-06 0 0.038910768773455159 -0.0026787453795122582 0 0.039366077484694353 -0.0011330235994214245 0 0.036990957568426956 -0.0015445912429637215 0 0.039366077484694353 -0.0011330235994214245 0 0.038246421329633969 -1.6583308751991044e-06 0 0.036990957568426956 -0.0015445912429637215 0 0.043145365676418149 -2.7287946373421631e-06 0 0.042983632754539071 -0.0013918006720107698 0 0.041141774877990721 -0.0014721644006681052 0 0.039366077484694353 -0.0011330235994214245 0 0.043145365676418149 -2.7287946373421631e-06 0 0.041141774877990721 -0.0014721644006681052 0 0.044920778582633922 -0.00084670229237449783 0 0.043145365676418149 -2.7287946373421631e-06 0 0.042983632754539071 -0.0013918006720107698 0 0.044219417400796067 -0.0016425890455554143 0 0.042983632754539071 -0.0013918006720107698 0 0.043588401185980653 -0.0018550211808574472 0 0.042983632754539071 -0.0013918006720107698 0 0.043588401185980653 -0.0018550211808574472 0 0.042678011663155359 -0.0023004164965953955 0 0.04385700801863017 -0.0018699701706453675 0 0.043588401185980653 -0.0018550211808574472 0 0.042678011663155359 -0.0023004164965953955 0 0.043589018065778688 -0.002181512388244454 0 0.043786783652055905 -0.0020132924751524233 0 0.043589018065778688 -0.002181512388244454 0 0.043028352843702246 -0.0020866269151212833 0 0.042983632754539071 -0.0013918006720107698 0 0.042678011663155359 -0.0023004164965953955 0 0.041699430175553207 -0.0024575737294628914 0 0.042983632754539071 -0.0013918006720107698 0 0.041699430175553207 -0.0024575737294628914 0 0.041141774877990721 -0.0014721644006681052 0 0.04276771975861924 8.0785144578467789e-05 0 0.041511407682593218 2.1835421850156146e-05 0 0.042189879369585417 -0.00079919570734757325 0 0.0427677197586192