<?xml version="1.0"?>
<VTKFile type="UnstructuredGrid" version="0.1" byte_order="LittleEndian">
<UnstructuredGrid>
<Piece NumberOfPoints="31947" NumberOfCells="11176">
<Points>
<DataArray type="Float64" NumberOfComponents="3" format="ascii">
-0.5 -0.5 0 -0.47291164641495098 -0.47998228002335619 0 -0.43145591371879038 -0.5 0 -0.5 -0.5 0 -0.50000000000000433 -0.47788428187462728 0 -0.47291164641495098 -0.47998228002335619 0 -0.50000000000000433 -0.47788428187462728 0 -0.47291164641495098 -0.47998228002335619 0 -0.48585201880880391 -0.46271394907832608 0 -0.50000000000000433 -0.47788428187462728 0 -0.48585201880880391 -0.46271394907832608 0 -0.47291164641495098 -0.47998228002335619 0 -0.4691647414294921 -0.46441675892759238 0 -0.48585201880880391 -0.46271394907832608 0 -0.47291164641495098 -0.47998228002335619 0 -0.45099720453261299 -0.47487869025959373 0 -0.43145591371879038 -0.5 0 -0.47291164641495098 -0.47998228002335619 0 -0.45099720453261299 -0.47487869025959373 0 -0.4691647414294921 -0.46441675892759238 0 -0.44944164227175931 -0.44308997408865619 0 -0.44458614074969038 -0.45362674204253639 0 -0.45904879883441019 -0.45293501062497732 0 -0.44944164227175931 -0.44308997408865619 0 -0.44224392598280859 -0.44224994629392461 0 -0.44458614074969038 -0.45362674204253639 0 -0.44944164227175931 -0.44308997408865619 0 -0.45012294552657017 -0.43389347947670209 0 -0.44944164227175931 -0.44308997408865619 0 -0.44224392598280859 -0.44224994629392461 0 -0.45012294552657017 -0.43389347947670209 0 -0.44224392598280859 -0.44224994629392461 0 -0.43800636655066633 -0.43637152333098561 0 -0.43643311689447861 -0.44657975739963329 0 -0.44224392598280859 -0.44224994629392461 0 -0.45012294552657017 -0.43389347947670209 0 -0.43800636655066633 -0.43637152333098561 0 -0.44224392598280859 -0.44224994629392461 0 -0.44458614074969038 -0.45362674204253639 0 -0.43643311689447861 -0.44657975739963329 0 -0.45099720453261299 -0.47487869025959373 0 -0.44458614074969038 -0.45362674204253639 0 -0.42935215598207299 -0.46202707358843342 0 -0.45099720453261299 -0.47487869025959373 0 -0.44458614074969038 -0.45362674204253639 0 -0.45904879883441019 -0.45293501062497732 0 -0.45904879883441019 -0.45293501062497732 0 -0.47170403761760121 -0.4475436162820271 0 -0.4691647414294921 -0.46441675892759238 0 -0.45099720453261299 -0.47487869025959373 0 -0.45904879883441019 -0.45293501062497732 0 -0.4691647414294921 -0.46441675892759238 0 -0.44944164227175931 -0.44308997408865619 0 -0.45904879883441019 -0.45293501062497732 0 -0.4575560564263994 -0.43237328348572729 0 -0.45904879883441019 -0.45293501062497732 0 -0.47170403761760121 -0.4475436162820271 0 -0.4575560564263994 -0.43237328348572729 0 -0.47170403761760121 -0.4475436162820271 0 -0.4575560564263994 -0.43237328348572729 0 -0.47170403761760121 -0.4475436162820271 0 -0.48668318433556729 -0.44193098916938089 0 -0.47875519273360789 -0.42803770414879561 0 -0.47170403761760121 -0.4475436162820271 0 -0.48585201880880391 -0.46271394907832608 0 -0.48668318433556729 -0.44193098916938089 0 -0.47170403761760121 -0.4475436162820271 0 -0.4691647414294921 -0.46441675892759238 0 -0.48585201880880391 -0.46271394907832608 0 -0.47170403761760121 -0.4475436162820271 0 -0.48585201880880391 -0.46271394907832608 0 -0.50000000000000433 -0.47788428187462728 0 -0.48585201880880391 -0.46271394907832608 0 -0.5 -0.45079320334324668 0 -0.5 -0.45079320334324668 0 -0.48668318433556729 -0.44193098916938089 0 -0.49995432904081683 -0.42370212481186631 0 -0.48585201880880391 -0.46271394907832608 0 -0.5 -0.45079320334324668 0 -0.48668318433556729 -0.44193098916938089 0 -0.49995432904081683 -0.42370212481186631 0 -0.49031232461334501 -0.41958847723210829 0 -0.47875519273360789 -0.42803770414879561 0 -0.48668318433556729 -0.44193098916938089 0 -0.49995432904081683 -0.42370212481186631 0 -0.47875519273360789 -0.42803770414879561 0 -0.49995432904081683 -0.42370212481186631 0 -0.47875519273360789 -0.42803770414879561 0 -0.49031232461334501 -0.41958847723210829 0 -0.47814957490924243 -0.41402158561491431 0 -0.48533645757380739 -0.40368392297237921 0 -0.49031232461334501 -0.41958847723210829 0 -0.48533645757380739 -0.40368392297237921 0 -0.49031232461334501 -0.41958847723210829 0 -0.5 -0.40374154659835249 0 -0.48533645757380739 -0.40368392297237921 0 -0.49995432904081683 -0.42370212481186631 0 -0.49031232461334501 -0.41958847723210829 0 -0.5 -0.40374154659835249 0 -0.47814957490924243 -0.41402158561491431 0 -0.48533645757380739 -0.40368392297237921 0 -0.46906812126939468 -0.40328547935508458 0 -0.49031232461334501 -0.41958847723210829 0 -0.47814957490924243 -0.41402158561491431 0 -0.47875519273360789 -0.42803770414879561 0 -0.47875519273360789 -0.42803770414879561 0 -0.46126253921706689 -0.42204745915435937 0 -0.46727577835605699 -0.41551234436620321 0 -0.47814957490924243 -0.41402158561491431 0 -0.46906812126939468 -0.40328547935508458 0 -0.46727577835605699 -0.41551234436620321 0 -0.47814957490924243 -0.41402158561491431 0 -0.47875519273360789 -0.42803770414879561 0 -0.46727577835605699 -0.41551234436620321 0 -0.47170403761760121 -0.4475436162820271 0 -0.47875519273360789 -0.42803770414879561 0 -0.4575560564263994 -0.43237328348572729 0 -0.49999999999999789 -0.38378096838483872 0 -0.49142426202701889 -0.39474645166705657 0 -0.48036059053426933 -0.38777936871265029 0 -0.49999999999999789 -0.38378096838483872 0 -0.48036059053426933 -0.38777936871265029 0 -0.49999999999999789 -0.38378096838483872 0 -0.48036059053426933 -0.38777936871265029 0 -0.48736435168140257 -0.37133275655010689 0 -0.49999999999999789 -0.38378096838483872 0 -0.49142426202701889 -0.39474645166705657 0 -0.5 -0.40374154659835249 0 -0.49142426202701889 -0.39474645166705657 0 -0.48533645757380739 -0.40368392297237921 0 -0.48036059053426933 -0.38777936871265029 0 -0.49142426202701889 -0.39474645166705657 0 -0.5 -0.40374154659835249 0 -0.48533645757380739 -0.40368392297237921 0 -0.48533645757380739 -0.40368392297237921 0 -0.48036059053426933 -0.38777936871265029 0 -0.48533645757380739 -0.40368392297237921 0 -0.46906812126939468 -0.40328547935508458 0 -0.48036059053426933 -0.38777936871265029 0 -0.48036059053426933 -0.38777936871265029 0 -0.46681845321594467 -0.37776328035327839 0 -0.47223744594528688 -0.36181505076594062 0 -0.48036059053426933 -0.38777936871265029 0 -0.46681845321594467 -0.37776328035327839 0 -0.45312848313319598 -0.39332357142148261 0 -0.46681845321594467 -0.37776328035327839 0 -0.45312848313319598 -0.39332357142148261 0 -0.45518352746400748 -0.36558378890584831 0 -0.45312848313319598 -0.39332357142148261 0 -0.45518352746400748 -0.36558378890584831 0 -0.48036059053426933 -0.38777936871265029 0 -0.45312848313319598 -0.39332357142148261 0 -0.46906812126939468 -0.40328547935508458 0 -0.48036059053426933 -0.38777936871265029 0 -0.45312848313319598 -0.39332357142148261 0 -0.46906812126939468 -0.40328547935508458 0 -0.45312848313319598 -0.39332357142148261 0 -0.45195138390082318 -0.40921251173085083 0 -0.44436579112745322 -0.39510757366704208 0 -0.44130764633640812 -0.41495074205422311 0 -0.45312848313319598 -0.39332357142148261 0 -0.45195138390082318 -0.40921251173085083 0 -0.45312848313319598 -0.39332357142148261 0 -0.44436579112745322 -0.39510757366704208 0 -0.45195138390082318 -0.40921251173085083 0 -0.45312848313319598 -0.39332357142148261 0 -0.44436579112745322 -0.39510757366704208 0 -0.44436579112745322 -0.39510757366704208 0 -0.44687421819164608 -0.3788313199175451 0 -0.43569662450111191 -0.38128365304766082 0 -0.45312848313319598 -0.39332357142148261 0 -0.45518352746400748 -0.36558378890584831 0 -0.44868375247440512 -0.3670899224597412 0 -0.45312848313319598 -0.39332357142148261 0 -0.44687421819164608 -0.3788313199175451 0 -0.44868375247440512 -0.3670899224597412 0 -0.45312848313319598 -0.39332357142148261 0 -0.44436579112745322 -0.39510757366704208 0 -0.44687421819164608 -0.3788313199175451 0 -0.44436579112745322 -0.39510757366704208 0 -0.44687421819164608 -0.3788313199175451 0 -0.44687421819164608 -0.3788313199175451 0 -0.43569662450111191 -0.38128365304766082 0 -0.43935121753743761 -0.37636839254663379 0 -0.44687421819164608 -0.3788313199175451 0 -0.43569662450111191 -0.38128365304766082 0 -0.43935121753743761 -0.37636839254663379 0 -0.43569662450111191 -0.38128365304766082 0 -0.47875519273360789 -0.42803770414879561 0 -0.4575560564263994 -0.43237328348572729 0 -0.46126253921706689 -0.42204745915435937 0 -0.47875519273360789 -0.42803770414879561 0 -0.4575560564263994 -0.43237328348572729 0 -0.4575560564263994 -0.43237328348572729 0 -0.46126253921706689 -0.42204745915435937 0 -0.45077428466844838 -0.42510145204021887 0 -0.4575560564263994 -0.43237328348572729 0 -0.45077428466844838 -0.42510145204021887 0 -0.4575560564263994 -0.43237328348572729 0 -0.45012294552657017 -0.43389347947670209 0 -0.46126253921706689 -0.42204745915435937 0 -0.45195138390082318 -0.40921251173085083 0 -0.45077428466844838 -0.42510145204021887 0 -0.46906812126939468 -0.40328547935508458 0 -0.46727577835605699 -0.41551234436620321 0 -0.45195138390082318 -0.40921251173085083 0 -0.46126253921706689 -0.42204745915435937 0 -0.46727577835605699 -0.41551234436620321 0 -0.45195138390082318 -0.40921251173085083 0 -0.45195138390082318 -0.40921251173085083 0 -0.44130764633640812 -0.41495074205422311 0 -0.45077428466844838 -0.42510145204021887 0 -0.44436579112745322 -0.39510757366704208 0 -0.45195138390082318 -0.40921251173085083 0 -0.44130764633640812 -0.41495074205422311 0 -0.44130764633640812 -0.41495074205422311 0 -0.45077428466844838 -0.42510145204021887 0 -0.45195138390082318 -0.40921251173085083 0 -0.45077428466844838 -0.42510145204021887 0 -0.44436579112745322 -0.39510757366704208 0 -0.44130764633640812 -0.41495074205422311 0 -0.42827303486001211 -0.41305505942262499 0 -0.44130764633640812 -0.41495074205422311 0 -0.43800636655066633 -0.43637152333098561 0 -0.4361379896120311 -0.4195955178792854 0 -0.44130764633640812 -0.41495074205422311 0 -0.43800636655066633 -0.43637152333098561 0 -0.4413076
[...]
<PointData Scalars="" Vectors="displacement," Tensors="">
<DataArray type="Float64" Name="displacement" NumberOfComponents="3" format="ascii">
-1.8435577846615982e-07 0.04999562255301658 0 0.00023186152503639707 0.048643946169500019 0 3.8655150939347867e-07 0.04999570124212558 0 -1.8435577846615982e-07 0.04999562255301658 0 2.0905950449078264e-06 0.047794172004481737 0 0.00023186152503639707 0.048643946169500019 0 2.0905950449078264e-06 0.047794172004481737 0 0.00023186152503639707 0.048643946169500019 0 0.00092585608967282339 0.047591590840224865 0 2.2589292123746188e-07 0.047787672680933202 0 0.00012466867000011198 0.04651145327492958 0 0.00023186152503639707 0.048643946169500019 0 0.000567809971646884 0.047711512987389688 0 0.00092585608967282339 0.047591590840224865 0 0.00023186152503639707 0.048643946169500019 0 0.00015019351440665366 0.048310664050665482 0 3.8655150939347867e-07 0.04999570124212558 0 0.00023186152503639707 0.048643946169500019 0 0.00015019351440665366 0.048310664050665482 0 0.000567809971646884 0.047711512987389688 0 0.00033554884711674819 0.046362962086705907 0 0.00018736183904787996 0.046968054209373077 0 0.00056095133217455746 0.047002254135608407 0 0.00033554884711674819 0.046362962086705907 0 9.9107349488036653e-05 0.046257699071717312 0 0.00018736183904787996 0.046968054209373077 0 0.00036259838042550349 0.045933358909010881 0 0.0002964181225821648 0.045625557838585552 0 0.00033554884711674819 0.046362962086705907 0 9.9107349488036653e-05 0.046257699071717312 0 0.00040274653077620114 0.045778635884756058 0 9.9107349488036653e-05 0.046257699071717312 0 -0.00020310115864709396 0.045973862628198865 0 -8.766794158152719e-06 0.046466930551382034 0 9.9107349488036653e-05 0.046257699071717312 0 0.00040274653077620114 0.045778635884756058 0 -0.00020310115864709396 0.045973862628198865 0 9.9107349488036653e-05 0.046257699071717312 0 0.00018736183904787996 0.046968054209373077 0 -8.766794158152719e-06 0.046466930551382034 0 0.00015019351440665366 0.048310664050665482 0 0.00018736183904787996 0.046968054209373077 0 -0.00010687225800836023 0.04755769552758992 0 0.00015019351440665366 0.048310664050665482 0 0.00018736183904787996 0.046968054209373077 0 0.00056095133217455746 0.047002254135608407 0 0.00056095133217455746 0.047002254135608407 0 0.0011409258855672592 0.046880958441753232 0 0.000567809971646884 0.047711512987389688 0 0.00015019351440665366 0.048310664050665482 0 0.00056095133217455746 0.047002254135608407 0 0.000567809971646884 0.047711512987389688 0 0.00033554884711674819 0.046362962086705907 0 0.00056095133217455746 0.047002254135608407 0 0.00074500060534081957 0.04592382946407312 0 0.00056095133217455746 0.047002254135608407 0 0.0011409258855672592 0.046880958441753232 0 0.00074500060534081957 0.04592382946407312 0 -0.00015257572858630249 0.045514648719620111 0 -0.00063877654265840993 0.044236126656223465 0 -0.0014231366113991576 0.044130179304994431 0 -0.00058249485517077374 0.044061339366574047 0 -0.00097773563695753769 0.04303971405022685 0 -0.0014231366113991576 0.044130179304994431 0 -0.00088272658214733741 0.04565466108565136 0 -0.00058249485517077374 0.044061339366574047 0 0.0011409258855672592 0.046880958441753232 0 0.000567809971646884 0.047711512987389688 0 0.00092585608967282339 0.047591590840224865 0 -0.00015257572858630249 0.045514648719620111 0 0.00012466867000011198 0.04651145327492958 0 -2.2326424209149812e-06 0.047787101407754363 0 -0.00088272658214733741 0.04565466108565136 0 -9.8994724242414846e-07 0.045079114337676598 0 -9.8994724242414846e-07 0.045079114337676598 0 -0.00058249485517077374 0.044061339366574047 0 -1.5565135146976425e-06 0.042370787532282572 0 -0.00088272658214733741 0.04565466108565136 0 -9.8994724242414846e-07 0.045079114337676598 0 -0.00058249485517077374 0.044061339366574047 0 6.9966468646918405e-08 0.04237010744330761 0 -0.00036396392363033186 0.042124009210708607 0 -0.00064229741755631917 0.042970694084166733 0 -0.00058249485517077374 0.044061339366574047 0 -1.5565135146976425e-06 0.042370787532282572 0 -0.00097773563695753769 0.04303971405022685 0 -2.876186059473875e-07 0.042370825889471476 0 -0.00094852432771437263 0.042736537980517568 0 -0.00036396392363033186 0.042124009210708607 0 -0.00075542218261115759 0.042141787098134764 0 -0.00027769863286202266 0.041683759182468222 0 -0.0003433320289389752 0.041667966263822825 0 -0.00043099416507176753 0.040846455543651482 0 -0.00036396392363033186 0.042124009210708607 0 -1.4827880967929929e-06 0.040374023166389106 0 -0.0007735418751693093 0.040104131934386646 0 6.9966468646918405e-08 0.04237010744330761 0 -0.00036396392363033186 0.042124009210708607 0 -1.4827880967929929e-06 0.040374023166389106 0 -0.00075542218261115759 0.042141787098134764 0 -0.00027769863286202266 0.041683759182468222 0 -0.00098369598425810203 0.0415764099477881 0 -0.00036396392363033186 0.042124009210708607 0 -0.00075542218261115759 0.042141787098134764 0 -0.00064229741755631917 0.042970694084166733 0 -0.00064229741755631917 0.042970694084166733 0 -0.0015253494711968531 0.042540100491797461 0 -0.0011968821189443568 0.042228149375947037 0 -0.00075542218261115759 0.042141787098134764 0 -0.00098369598425810203 0.0415764099477881 0 -0.0011968821189443568 0.042228149375947037 0 -0.00075542218261115759 0.042141787098134764 0 -0.00064229741755631917 0.042970694084166733 0 -0.0011968821189443568 0.042228149375947037 0 -0.0014231366113991576 0.044130179304994431 0 -0.00097773563695753769 0.04303971405022685 0 -0.001917768226673064 0.043071267477988825 0 -8.6050520462250441e-07 0.03837778151318029 0 -0.00047629595334876571 0.03928612664906176 0 -0.0010877094577998537 0.03828962545727204 0 -9.0040107354446618e-07 0.038376566006279762 0 -0.00060378089598425136 0.039686860888659699 0 -1.3863547461145135e-06 0.038377972428961404 0 -0.0011476806075049536 0.038302691540610237 0 -0.00066778065265284473 0.036868676165379456 0 -8.6050520462250441e-07 0.03837778151318029 0 -0.00047629595334876571 0.03928612664906176 0 -1.4827880967929929e-06 0.040374023166389106 0 -0.00047629595334876571 0.03928612664906176 0 -0.0007735418751693093 0.040104131934386646 0 -0.0010877094577998537 0.03828962545727204 0 -0.00047629595334876571 0.03928612664906176 0 -1.4827880967929929e-06 0.040374023166389106 0 -0.0007735418751693093 0.040104131934386646 0 -0.00043099416507176753 0.040846455543651482 0 -0.00060378089598425136 0.039686860888659699 0 -0.00027769863286202266 0.041683759182468222 0 -0.00098369598425810203 0.0415764099477881 0 -0.00027261079984480736 0.040877594816637525 0 -0.00026224926288363412 0.041137554735104442 0 -0.00072846104718479764 0.040333629665557022 0 -9.3518185491649284e-05 0.039668761467541849 0 -0.00026224926288363412 0.041137554735104442 0 -0.00072846104718479764 0.040333629665557022 0 -0.0018678495391893221 0.040754294688721604 0 -0.00072846104718479764 0.040333629665557022 0 -0.0018678495391893221 0.040754294688721604 0 -0.00098026753347353374 0.03944804832974419 0 -0.0018836499754822241 0.041346749609052678 0 -0.00081619794866843217 0.039965653042526444 0 -0.00060378089598425136 0.039686860888659699 0 -0.0018836499754822241 0.041346749609052678 0 -0.00098369598425810203 0.0415764099477881 0 -0.00027261079984480736 0.040877594816637525 0 -0.0015542307961053685 0.040951541541634301 0 -0.00098369598425810203 0.0415764099477881 0 -0.0015542307961053685 0.040951541541634301 0 -0.0017671573478197425 0.041766674651437997 0 -0.0024352898750566276 0.040848251561876617 0 -0.0013503273622219277 0.043671508887013079 0 -0.0018836499754822241 0.041346749609052678 0 -0.0019421810838233099 0.042060478168734393 0 -0.0016162702727601692 0.041343180704729691 0 -0.0019206145014906458 0.041421560356379644 0 -0.0017735992034525617 0.042308092653471074 0 -0.0018836499754822241 0.041346749609052678 0 -0.0024352898750566276 0.040848251561876617 0 0.0010775438270554415 0.036874734822217474 0 -0.0051351164120105406 0.034520036969116721 0 -0.0050516938750632349 0.039139718880516608 0 -0.0030550759490757828 0.042255854568427835 0 3.4099874693706266e-05 0.040319230592603381 0 -0.00027554423647164003 0.04024535000670653 0 -0.0030550759490757828 0.042255854568427835 0 -0.0016855608967612462 0.040710054974744489 0 -0.00027554423647164003 0.04024535000670653 0 -0.0030550759490757828 0.042255854568427835 0 -0.0039881930136441519 0.041226946736048348 0 -0.0016855608967612462 0.040710054974744489 0 -0.0024352898750566276 0.040848251561876617 0 -0.0014828604249900921 0.037469090678908246 0 -0.0014828604249900921 0.037469090678908246 0 0.000569431352963049 0.036297897195179681 0 0.0012632422391536274 0.035162252280556971 0 0.0015478327196118405 0.034874710135244728 0 0.0014533461162046031 0.035874151875817925 0 0.00084668431426838399 0.036055636285068582 0 0.000569431352963049 0.036297897195179681 0 -0.00064229741755631917 0.042970694084166733 0 -0.0018231754714719559 0.043050444321861898 0 -0.0015253494711968531 0.042540100491797461 0 -0.00094852432771437263 0.042736537980517568 0 -0.00063877654265840993 0.044236126656223465 0 -0.0018231754714719559 0.043050444321861898 0 -0.0015253494711968531 0.042540100491797461 0 -0.0020786633766488945 0.042599437921518372 0 -0.00063877654265840993 0.044236126656223465 0 -0.00096059219849367692 0.044074434861024539 0 -0.00063877654265840993 0.044236126656223465 0 0.0002964181225821648 0.045625557838585552 0 -0.0015253494711968531 0.042540100491797461 0 -0.0017671573478197425 0.041766674651437997 0 -0.0020786633766488945 0.042599437921518372 0 -0.00098369598425810203 0.0415764099477881 0 -0.0011968821189443568 0.042228149375947037 0 -0.0017671573478197425 0.041766674651437997 0 -0.0015253494711968531 0.042540100491797461 0 -0.0011968821189443568 0.042228149375947037 0 -0.0017671573478197425 0.041766674651437997 0 -0.0017735992034525617 0.042308092653471074 0 -0.0023088778003161154 0.042504572571565424 0 -0.002162559486222829 0.043215962651579606 0 -0.0019206145014906458 0.041421560356379644 0 -0.0017735992034525617 0.042308092653471074 0 -0.0023088778003161154 0.042504572571565424 0 -0.0013503273622219277 0.043671508887013079 0 -0.00096059219849367692 0.044074434861024539 0 -0.0019421810838233099 0.042060478168734393 0 -0.00096059219849367692 0.044074434861024539 0 -0.0032601850756060809 0.040727823645499865 0 -0.00090811662034861573 0.042811580532337613 0 -0.0016259150364736907 0.044143285966536557 0 -0.00090811662034861573 0.042811580532337613 0 0.00058989558802565551 0.045299190867183613 0 -0.00076361336870270574 0.043803707100432555 0 -0.0013503273622219277 0.043671508887013079 0 0.00014249203361951036 0.04571616028093721 0 -0.0011032600706044867 0.04483439371708977 0 0.00019503593416309985 0.044705554893226467 0 0.00031802967629571626 0.046299755421709027 0 -0.00096059219849367692 0.044074434861024539 0 0.0002964181225821648 0.045625557838585552 0 0.00019503593416309985 0.044705554893226467 0 0.00081876340506759375 0.045254349523566627 0 0.00031802967629571626 0.046299755421709027 0 0.00033554884711674819 0.046362962086705907 0 0.00074500060534081957 0.04592382946407312 0 0.00039421522659647905 0.045898281073353468 0 0.00077863643691751191 0.045995657445475006 0 0.0006241905557911317 0.045345528343453199 0 0.00030038762005875103 0.045841975194620438 0 0.0002964181225821648 0.045625557838585552 0 0.00014249203361951036 0.04571616028093721 0 0.00058989558802565551 0.045299190867183613 0 -0.00059061848520397065 0.045026320875929532 0 -0.00041414582553084994 0.0461914305550917 0 0.00058989558802565551 0.045299190867183613 0 -0.00059061848520397065 0.045026320875929532 0 -0.00076361336870270574 0.043803707100432555 0 -0.00059061848520397065 0.045026320875929532 0 -0.0010415389579035237 0.045691094372556591 0 -0.00041414582553084994 0.0461914305550917 0 -0.00059061848520397065 0.045026320875929532 0 -0.0016259150364736907 0.044143285966536557 0 -0.0010415389579035237 0.045691094372556591 0 -0.00090811662034861573 0.042811580532337613 0 -0.00076361336870270574 0.043803707100432555 0 -0.0016259150364736907 0.044143285966536557 0 -0.00059061848520397065 0.045026320875929532 0 -0.00076361336870270574 0.043803707100432555 0 -0.0016259150364736907 0.044143285966536557 0 0.0028077804669127257 0.039271336514540699 0 0.0021654305154962827 0.037219262130983796 0 0.0017296655524623368 0.03861429869003933 0 -0.0016259150364736907 0.044143285966536557 0 -0.0020263432012886996 0.045958501804625858 0 -0.0010415389579035237 0.045691094372556591 0 0.00015996930968067928 0.042419366629355616 0 0.00022435799309434529 0.04137779990430316 0 0.0028077804669127257 0.039271336514540699 0 0.0022083374671264169 0.036951243363213378 0 0.0021654305154962827 0.037219262130983796 0 -0.0016259150364736907 0.044143285966536557 0 -0.0020263432012886996 0.045958501804625858 0 -0.0031343570185740637 0.043939054130624926 0 -0.0010415389579035237 0.045691094372556591 0 -0.00041414582553084994 0.0461914305550917 0 -0.00077386666336491758 0.046874015929029608 0 -0.0020263432012886996 0.045958501804625858 0 -0.0010415389579035237 0.045691094372556591 0 -0.00077386666336491758 0.046874015929029608 0 0.0015477535159067655 0.035747229742198711 0 0.0010395815888400559 0.036923526287237149 0 0.00067662868428316168 0.03597163609215067 0 0.000569431352963049 0.036297897195179681 0 0.00022435799309434529 0.04137779990430316 0 0.0029155143690866546 0.035442838823904657 0 0.002027132610679916 0.036858147497072252 0 0.0013166595095263362 0.036853351074762335 0 0.000569431352963049 0.036297897195179681 0 0.0013658615789573971 0.036858505703187126 0 0.0015477535159067655 0.035747229742198711 0 0.00067662868428316168 0.03597163609215067 0 0.00083698105015863407 0.035401247785578911 0 0.0012632422391536274 0.035162252280556971 0 0.0015477535159067655 0.035747229742198711 0 0.00083698105015863407 0.035401247785578911 0 0.0029155143690866546 0.035442838823904657 0 0.0024267206484006672 0.03723038091344591 0 0.002027132610679916 0.036858147497072252 0 0.0010775438270554415 0.036874734822217474 0 -0.0050516938750632349 0.039139718880516608 0 0.0010967132398033857 0.0460444181277158 0 -0.0032601850756060809 0.040727823645499865 0 -0.0016259150364736907 0.044143285966536557 0 -0.0031343570185740637 0.043939054130624926 0 -0.0024352898750566276 0.040848251561876617 0 0.00022435799309434529 0.04137779990430316 0 0.0021654305154962827 0.037219262130983796 0 0.0016103334872448363 0.037607261924595188 0 0.0017296655524623368 0.03861429869003933 0 0.00022435799309434529 0.04137779990430316 0 0.00023154157064610053 0.040382523226782624 0 0.0016103334872448363 0.037607261924595188 0 0.002027132610679916 0.036858147497072252 0 0.0013166595095263362 0.036853351074762335 0 0.0024267206484006672 0.03723038091344591 0 0.0021654305154962827 0.037219262130983796 0 0.002027132610679916 0.036858147497072252 0 0.0021654305154962827 0.037219262130983796 0 0.0016103334872448363 0.037607261924595188 0 0.002027132610679916 0.036858147497072252 0 0.0010395815888400559 0.036923526287237149 0 0.00067662868428316168 0.03597163609215067 0 -0.00015371597652740886 0.036661338126610495 0 0.00073763949866069119 0.038537210471466153 0 -0.00061821053988604484 0.038393403539806428 0 -0.00015371597652740886 0.036661338126610495 0 0.0013658615789573971 0.036858505703187126 0 0.00055147349837375668 0.038614837830125322 0 0.0010395815888400559 0.036923526287237149 0 0.00073763949866069119 0.038537210471466153 0 -0.00015371597652740886 0.036661338126610495 0 0.0016103334872448363 0.037607261924595188 0 0.0013166595095263362 0.036853351074762335 0 0.00034489908521867345 0.038625435394074113 0 0.0016103334872448363 0.037607261924595188 0 0.0017296655524623368 0.03861429869003933 0 0.00034489908521867345 0.038625435394074113 0 0.0017296655524623368 0.03861429869003933 0 0.00034489908521867345 0.038625435394074113 0 0.0016816560394803638 0.040342674809228568 0 0.00055147349837375668 0.038614837830125322 0 7.0040526349161047e-05 0.040328725541978937 0 0.00034489908521867345 0.038625435394074113 0 0.0016816560394803638 0.040342674809228568 0 -0.00021365811567566095 0.040396599899430466 0 0.00073763949866069119 0.038537210471466153 0 -0.00061821053988604484 0.038393403539806428 0 0.00038449095887064556 0.040259554610990574 0 -0.0020263432012886996 0.045958501804625858 0 -0.0016886637368110039 0.047389056071616809 0 -0.00077386666336491758 0.046874015929029608 0 0.0028077804669127257 0.039271336514540699 0 0.0016816560394803638 0.040342674809228568 0 0.0027797131555509051 0.0415608917901324 0 0.00015996930968067928 0.042419366629355616 0 0.00054289903047074909 0.044473581489369939 0 0.0028077804669127257 0.039271336514540699 0 0.0017296655524623368 0.03861429869003933 0 0.0016816560394803638 0.040342674809228568 0 0.0016816560394803638 0.040342674809228568 0 0.0016973726408217027 0.041609566393876356 0 0.00090809489437864484 0.041669287403304202 0 0.0016973726408217027 0.041609566393876356 0 0.0027797131555509051 0.0415608917901324 0 0.0014043681198904728 0.042828802022959335 0 0.0016816560394803638 0.040342674809228568 0 0.0016973726408217027 0.041609566393876356 0 0.0027797131555509051 0.0415608917901324 0 0.0027797131555509051 0.0415608917901324 0 0.0018257616191516759 0.043458328978140108 0 0.0014043681198904728 0.042828802022959335 0 0.0027797131555509051 0.0415608917901324 0 0.0023413171085626266 0.043752964015298289 0 0.0018257616191516759 0.043458328978140108 0 -0.0016886637368110039 0.047389056071616809 0 -0.00092083634909770719 0.047980853918022509 0 -0.0013000609713722706 0.048636095906080597 0 0.00054289903047074909 0.044473581489369939 0 0.00044815027073785588 0.046152943885427886 0 -0.0016886637368110039 0.047389056071616809 0 -0.00092083634909770719 0.047980853918022509 0 -0.00077386666336491758 0.046874015929029608 0 -0.00092083634909770719 0.047980853918022509 0 -0.00041445511710814511 0.048943409104568514 0 -0.00038332583812040495 0.0481683859606334 0 -0.00092083634909770719 0.047980853918022509 0 -0.00077386666336491758 0.046874015929029608 0 -0.00038332583812040495 0.0481683859606334 0 -0.00092083634909770719 0.047980853918022509 0 -0.0013000609713722706 0.048636095906080597 0 -0.00041445511710814511 0.048943409104568514 0 -0.00041445511710814511 0.048943409104568514 0 -6.2433217315475083e-07 0.049998053392555156 0 3.8655150939347867e-07 0.04999570124212558 0 -0.0013000609713722706 0.048636095906080597 0 -0.00041445511710814511 0.048943409104568514 0 -0.00081503745722264257 0.049531951192200954 0 -0.00041445511710814511 0.048943409104568514 0 -6.2433217315475083e-07 0.049998053392555156 0 -0.00081503745722264257 0.049531951192200954 0 3.8655150939347867e-07 0.04999570124212558 0 -0.00010687225800836023 0.04755769552758992 0 -0.00038332583812040495 0.0481683859606334 0 -0.00041445511710814511 0.048943409104568514 0 3.8655150939347867e-07 0.04999570124212558 0 -0.00038332583812040495 0.0481683859606334 0 0.00015019351440665366 0.048310664050665482 0 3.8655150939347867e-07 0.04999570124212558 0 -0.00010687225800836023 0.04755769552758992 0 0.00018736183904787996 0.046968054209373077 0 -0.00010687225800836023 0.04755769552758992 0 -8.766794158152719e-06 0.046466930551382034 0 -0.00010687225800836023 0.04755769552758992 0 -8.766794158152719e-06 0.046466930551382034 0 -0.00041414582553084994 0.0461914305550917 0 -0.00012065559781393788 0.045442304776884095 0 -8.766794158152719e-06 0.046466930551382034 0 -0.00041414582553084994 0.0461914305550917 0 0.00014249203361951036 0.04571616028093721 0 -0.00011470120447887257 0.046006317733581201 0 0.00014249203361951036 0.04571616028093721 0 -0.00016551036807263057 0.045868031392019629 0 -0.00010687225800836023 0.04755769552758992 0 -0.00041414582553084994 0.0461914305550917 0 -0.00077386666336491758 0.046874015929029608 0 -0.00010687225800836023 0.04755769552758992 0 -0.00077386666336491758 0.046874015929029608 0 -0.00038332583812040495 0.0481683859606334 0 0.0019331791960556976 0.0261699917680955 0 0.0019808609300323923 0.024882177740889039 0 0.0028983596075362389 0.025017852946336096 0