<?xml version="1.0"?>
<VTKFile type="UnstructuredGrid" version="0.1" byte_order="LittleEndian">
<UnstructuredGrid>
<Piece NumberOfPoints="31289" NumberOfCells="10959">
<Points>
<DataArray type="Float64" NumberOfComponents="3" format="ascii">
-0.5 -0.5 0 -0.47708618652662871 -0.46239393797071388 0 -0.43528190217005341 -0.5 0 -0.44701404067921269 -0.46247847983248952 0 -0.47708618652662871 -0.46239393797071388 0 -0.43528190217005341 -0.5 0 -0.45844489789806481 -0.44333674887457031 0 -0.44025389856215069 -0.43061278999638541 0 -0.43714447226761061 -0.44850065882031448 0 -0.44701404067921269 -0.46247847983248952 0 -0.45844489789806481 -0.44333674887457031 0 -0.43714447226761061 -0.44850065882031448 0 -0.44701404067921269 -0.46247847983248952 0 -0.45844489789806481 -0.44333674887457031 0 -0.47708618652662871 -0.46239393797071388 0 -0.5 -0.5 0 -0.47708618652662871 -0.46239393797071388 0 -0.50000000000000144 -0.43757139339756551 0 -0.47708618652662871 -0.46239393797071388 0 -0.50000000000000144 -0.43757139339756551 0 -0.47965750386917733 -0.4300725943028153 0 -0.45844489789806481 -0.44333674887457031 0 -0.47708618652662871 -0.46239393797071388 0 -0.47965750386917733 -0.4300725943028153 0 -0.50000000000000144 -0.43757139339756551 0 -0.5 -0.41656268729837942 0 -0.47965750386917733 -0.4300725943028153 0 -0.50000000000000144 -0.43757139339756551 0 -0.47965750386917733 -0.4300725943028153 0 -0.5 -0.41656268729837942 0 -0.4821882631358877 -0.40754401514498839 0 -0.47965750386917733 -0.4300725943028153 0 -0.5 -0.41656268729837942 0 -0.4821882631358877 -0.40754401514498839 0 -0.5 -0.39555398119919338 0 -0.4821882631358877 -0.40754401514498839 0 -0.4706516500111087 -0.4160100422244653 0 -0.461880283290029 -0.39986143219671649 0 -0.4821882631358877 -0.40754401514498839 0 -0.4706516500111087 -0.4160100422244653 0 -0.47965750386917733 -0.4300725943028153 0 -0.4706516500111087 -0.4160100422244653 0 -0.47965750386917733 -0.4300725943028153 0 -0.45931500773835299 -0.42257379520806548 0 -0.47965750386917733 -0.4300725943028153 0 -0.45931500773835299 -0.42257379520806548 0 -0.48094014164501148 -0.38720335364836089 0 -0.49999999999999539 -0.37454527510000729 0 -0.48094014164501148 -0.38720335364836089 0 -0.49999999999999539 -0.37454527510000729 0 -0.48220091977756763 -0.36593963372664517 0 -0.5 -0.39555398119919338 0 -0.48094014164501148 -0.38720335364836089 0 -0.49999999999999539 -0.37454527510000729 0 -0.4821882631358877 -0.40754401514498839 0 -0.5 -0.39555398119919338 0 -0.48094014164501148 -0.38720335364836089 0 -0.48094014164501148 -0.38720335364836089 0 -0.461880283290029 -0.39986143219671649 0 -0.4821882631358877 -0.40754401514498839 0 -0.48094014164501148 -0.38720335364836089 0 -0.461880283290029 -0.39986143219671649 0 -0.48094014164501148 -0.38720335364836089 0 -0.46748973539803662 -0.38069978415109978 0 -0.461880283290029 -0.39986143219671649 0 -0.48094014164501148 -0.38720335364836089 0 -0.46748973539803662 -0.38069978415109978 0 -0.48220091977756763 -0.36593963372664517 0 -0.46748973539803662 -0.38069978415109978 0 -0.461880283290029 -0.39986143219671649 0 -0.45119533048312782 -0.38698892209819802 0 -0.45119533048312782 -0.38698892209819802 0 -0.46397892833050852 -0.36417820465512479 0 -0.46748973539803662 -0.38069978415109978 0 -0.45119533048312782 -0.38698892209819802 0 -0.46397892833050852 -0.36417820465512479 0 -0.461880283290029 -0.39986143219671649 0 -0.45119533048312782 -0.38698892209819802 0 -0.44282042493504581 -0.41251951074507132 0 -0.45119533048312782 -0.38698892209819802 0 -0.44282042493504581 -0.41251951074507132 0 -0.43841173263574701 -0.40979963954127119 0 -0.45119533048312782 -0.38698892209819802 0 -0.43841173263574701 -0.40979963954127119 0 -0.461880283290029 -0.39986143219671649 0 -0.44282042493504581 -0.41251951074507132 0 -0.43936272043470059 -0.3953451377335605 0 -0.45119533048312782 -0.38698892209819802 0 -0.43841173263574701 -0.40979963954127119 0 -0.45119533048312782 -0.38698892209819802 0 -0.43965051101676822 -0.37583845931705329 0 -0.46397892833050852 -0.36417820465512479 0 -0.43936272043470059 -0.3953451377335605 0 -0.45119533048312782 -0.38698892209819802 0 -0.43965051101676822 -0.37583845931705329 0 -0.45844489789806481 -0.44333674887457031 0 -0.47965750386917733 -0.4300725943028153 0 -0.45931500773835299 -0.42257379520806548 0 -0.461880283290029 -0.39986143219671649 0 -0.45710026342879218 -0.41265837327333488 0 -0.44282042493504581 -0.41251951074507132 0 -0.4706516500111087 -0.4160100422244653 0 -0.45931500773835299 -0.42257379520806548 0 -0.45710026342879218 -0.41265837327333488 0 -0.4706516500111087 -0.4160100422244653 0 -0.461880283290029 -0.39986143219671649 0 -0.45710026342879218 -0.41265837327333488 0 -0.45931500773835299 -0.42257379520806548 0 -0.45710026342879218 -0.41265837327333488 0 -0.44792775152636721 -0.41567039304328729 0 -0.45931500773835299 -0.42257379520806548 0 -0.43897251160752859 -0.41507499611331627 0 -0.45931500773835299 -0.42257379520806548 0 -0.44792775152636721 -0.41567039304328729 0 -0.43897251160752859 -0.41507499611331627 0 -0.44792775152636721 -0.41567039304328729 0 -0.44282042493504581 -0.41251951074507132 0 -0.45710026342879218 -0.41265837327333488 0 -0.44792775152636721 -0.41567039304328729 0 -0.44282042493504581 -0.41251951074507132 0 -0.44282042493504581 -0.41251951074507132 0 -0.43841173263574701 -0.40979963954127119 0 -0.43841173263574701 -0.40979963954127119 0 -0.43897251160752859 -0.41507499611331627 0 -0.43605751269967868 -0.41400044798359042 0 -0.44282042493504581 -0.41251951074507132 0 -0.43841173263574701 -0.40979963954127119 0 -0.43897251160752859 -0.41507499611331627 0 -0.44282042493504581 -0.41251951074507132 0 -0.43897251160752859 -0.41507499611331627 0 -0.44792775152636721 -0.41567039304328729 0 -0.44282042493504581 -0.41251951074507132 0 -0.43897251160752859 -0.41507499611331627 0 -0.43897251160752859 -0.41507499611331627 0 -0.44025389856215069 -0.43061278999638541 0 -0.43337020159624251 -0.41879561558773087 0 -0.43897251160752859 -0.41507499611331627 0 -0.43605751269967868 -0.41400044798359042 0 -0.45844489789806481 -0.44333674887457031 0 -0.45931500773835299 -0.42257379520806548 0 -0.44025389856215069 -0.43061278999638541 0 -0.45931500773835299 -0.42257379520806548 0 -0.43897251160752859 -0.41507499611331627 0 -0.44025389856215069 -0.43061278999638541 0 -0.43337020159624251 -0.41879561558773087 0 -0.41394138836998651 -0.43169872532437809 0 -0.42824949786670002 -0.42793286531029029 0 -0.43337020159624251 -0.41879561558773087 0 -0.41394138836998651 -0.43169872532437809 0 -0.44025389856215069 -0.43061278999638541 0 -0.42824949786670002 -0.42793286531029029 0 -0.42591282465618951 -0.4379918130008994 0 -0.42824949786670002 -0.42793286531029029 0 -0.41394138836998651 -0.43169872532437809 0 -0.42591282465618951 -0.4379918130008994 0 -0.44025389856215069 -0.43061278999638541 0 -0.42824949786670002 -0.42793286531029029 0 -0.43337020159624251 -0.41879561558773087 0 -0.42824949786670002 -0.42793286531029029 0 -0.43337020159624251 -0.41879561558773087 0 -0.43605751269967868 -0.41400044798359042 0 -0.42446110959708527 -0.4077419548087709 0 -0.40923191197255471 -0.40411179965080668 0 -0.43605751269967868 -0.41400044798359042 0 -0.40923191197255471 -0.40411179965080668 0 -0.43337020159624251 -0.41879561558773087 0 -0.43605751269967868 -0.41400044798359042 0 -0.40923191197255471 -0.40411179965080668 0 -0.43337020159624251 -0.41879561558773087 0 -0.43605751269967868 -0.41400044798359042 0 -0.43897251160752859 -0.41507499611331627 0 -0.43337020159624251 -0.41879561558773087 0 -0.43897251160752859 -0.41507499611331627 0 -0.43337020159624251 -0.41879561558773087 0 -0.43605751269967868 -0.41400044798359042 0 -0.43841173263574701 -0.40979963954127119 0 -0.43605751269967868 -0.41400044798359042 0 -0.42446110959708527 -0.4077419548087709 0 -0.43841173263574701 -0.40979963954127119 0 -0.42446110959708527 -0.4077419548087709 0 -0.42687118421011611 -0.40267988538107469 0 -0.43841173263574701 -0.40979963954127119 0 -0.43605751269967868 -0.41400044798359042 0 -0.41394138836998651 -0.43169872532437809 0 -0.40923191197255471 -0.40411179965080668 0 -0.41394138836998651 -0.43169872532437809 0 -0.40923191197255471 -0.40411179965080668 0 -0.40416212188568251 -0.41837863162551769 0 -0.43337020159624251 -0.41879561558773087 0 -0.41394138836998651 -0.43169872532437809 0 -0.40923191197255471 -0.40411179965080668 0 -0.41394138836998651 -0.43169872532437809 0 -0.40024399779695491 -0.4265596591745543 0 -0.40854045096584901 -0.4376219659572258 0 -0.41394138836998651 -0.43169872532437809 0 -0.41524316932694277 -0.4393242300455385 0 -0.40854045096584901 -0.4376219659572258 0 -0.41394138836998651 -0.43169872532437809 0 -0.42591282465618951 -0.4379918130008994 0 -0.41524316932694277 -0.4393242300455385 0 -0.41394138836998651 -0.43169872532437809 0 -0.41524316932694277 -0.4393242300455385 0 -0.43965051101676822 -0.37583845931705329 0 -0.42687118421011611 -0.40267988538107469 0 -0.43965051101676822 -0.37583845931705329 0 -0.42687118421011611 -0.40267988538107469 0 -0.42019869924829673 -0.37802384934638261 0 -0.43936272043470059 -0.3953451377335605 0 -0.43965051101676822 -0.37583845931705329 0 -0.42687118421011611 -0.40267988538107469 0 -0.43936272043470059 -0.3953451377335605 0 -0.43841173263574701 -0.40979963954127119 0 -0.42687118421011611 -0.40267988538107469 0 -0.43841173263574701 -0.40979963954127119 0 -0.42687118421011611 -0.40267988538107469 0 -0.42446110959708527 -0.4077419548087709 0 -0.42687118421011611 -0.40267988538107469 0 -0.42687118421011611 -0.40267988538107469 0 -0.40923191197255471 -0.40411179965080668 0 -0.40688224324131839 -0.39034803247671812 0 -0.42446110959708527 -0.4077419548087709 0 -0.42687118421011611 -0.40267988538107469 0 -0.40923191197255471 -0.40411179965080668 0 -0.42687118421011611 -0.40267988538107469 0 -0.40688224324131839 -0.39034803247671812 0 -0.40923191197255471 -0.40411179965080668 0 -0.40688224324131839 -0.39034803247671812 0 -0.42019869924829673 -0
[...]
<PointData Scalars="" Vectors="displacement," Tensors="">
<DataArray type="Float64" Name="displacement" NumberOfComponents="3" format="ascii">
1.6863590533532541e-06 0.04499540622165657 0 0.00025918168835794534 0.04319998192655336 0 8.0319310550946855e-08 0.044999574336567212 0 -8.8517035074694471e-05 0.04420991066267263 0 0.00025918168835794534 0.04319998192655336 0 8.0319310550946855e-08 0.044999574336567212 0 -0.00054174761816106365 0.043669749028266105 0 -0.00096452096133920471 0.044242150453222509 0 -0.00040130021445131814 0.04439458005991994 0 -8.8517035074694471e-05 0.04420991066267263 0 -0.00054174761816106365 0.043669749028266105 0 -0.00040130021445131814 0.04439458005991994 0 -8.8517035074694471e-05 0.04420991066267263 0 -0.00054174761816106365 0.043669749028266105 0 0.00025918168835794534 0.04319998192655336 0 1.6863590533532541e-06 0.04499540622165657 0 0.00025918168835794534 0.04319998192655336 0 -3.1796622372696885e-06 0.03939101875720754 0 0.00025918168835794534 0.04319998192655336 0 -3.1796622372696885e-06 0.03939101875720754 0 -0.0011985465075280157 0.042204697295307424 0 -0.00054174761816106365 0.043669749028266105 0 0.00025918168835794534 0.04319998192655336 0 -0.0011985465075280157 0.042204697295307424 0 -1.7134545004362731e-06 0.039377512758416722 0 9.493691430506756e-07 0.037491523782651831 0 -0.00011863357286700263 0.03721115704501389 0 -2.6042006705106426e-07 0.039381398367855716 0 -0.00055757404979999846 0.039647894277541354 0 9.493691430506756e-07 0.037491523782651831 0 0.00019107996110056508 0.036687420105052652 0 -0.00011863357286700263 0.03721115704501389 0 9.493691430506756e-07 0.037491523782651831 0 0.00019107996110056508 0.036687420105052652 0 5.8892256498148841e-07 0.035599300103093715 0 0.00019107996110056508 0.036687420105052652 0 0.00010601014181886588 0.036841783037446285 0 8.0717684890368682e-05 0.036784423818272877 0 0.00019107996110056508 0.036687420105052652 0 0.00010601014181886588 0.036841783037446285 0 -0.00011863357286700263 0.03721115704501389 0 0.00010601014181886588 0.036841783037446285 0 -0.00011863357286700263 0.03721115704501389 0 1.5450223409985108e-05 0.036741172385047136 0 -0.00055757404979999846 0.039647894277541354 0 -0.00081599154276471052 0.040344517466500009 0 -0.00037192353716038754 0.034207177632599707 0 -9.7756438113271326e-08 0.033709489927101183 0 -0.00083022802663257214 0.032077527378942101 0 -1.4861850950796089e-06 0.033704932929768755 0 2.7708143375724257e-05 0.03194608053986786 0 5.8892256498148841e-07 0.035599300103093715 0 -0.0001661353273456726 0.036214406820935206 0 -1.4284508262590442e-06 0.033712361495407413 0 0.00019107996110056508 0.036687420105052652 0 5.8892256498148841e-07 0.035599300103093715 0 -0.0001661353273456726 0.036214406820935206 0 -0.00037192353716038754 0.034207177632599707 0 -0.00052967038477932926 0.033945851838116346 0 0.00019107996110056508 0.036687420105052652 0 -0.0001661353273456726 0.036214406820935206 0 8.0717684890368682e-05 0.036784423818272877 0 -0.00083022802663257214 0.032077527378942101 0 -0.00053043713522260257 0.031669005276531936 0 -0.00098076573855138127 0.031552878928933367 0 -0.00083022802663257214 0.032077527378942101 0 -0.00053043713522260257 0.031669005276531936 0 2.7708143375724257e-05 0.03194608053986786 0 -0.00053043713522260257 0.031669005276531936 0 -0.00098076573855138127 0.031552878928933367 0 -0.00070792155624403578 0.031315415770972577 0 -0.00033348451747214884 0.031103761881647141 0 0.00014622786990189056 0.031713834329445238 0 -0.00053043713522260257 0.031669005276531936 0 -0.00070792155624403578 0.031315415770972577 0 -2.6805699397597828e-05 0.03158399534557315 0 -0.00098076573855138127 0.031552878928933367 0 -0.00070792155624403578 0.031315415770972577 0 -0.0011725871549574248 0.031248952659687256 0 -0.00070792155624403578 0.031315415770972577 0 -0.0011725871549574248 0.031248952659687256 0 -0.001123264724254386 0.031176243599143696 0 -0.00033348451747214884 0.031103761881647141 0 -0.00024715534597252275 0.034516771159822233 0 -0.00052967038477932926 0.033945851838116346 0 -0.00062750857483404021 0.035273485524721433 0 0.0003780483759112679 0.031817323648108534 0 0.00032288180095608283 0.031742406229638254 0 0.00046546956651589798 0.031835117994884803 0 0.00032288180095608283 0.031742406229638254 0 0.00027030546506234571 0.031791073331903508 0 0.0002259082724042859 0.03170077293077022 0 0.0003780483759112679 0.031817323648108534 0 0.00032288180095608283 0.031742406229638254 0 0.00027030546506234571 0.031791073331903508 0 -0.00054174761816106365 0.043669749028266105 0 -0.0011985465075280157 0.042204697295307424 0 -0.0014325772239544988 0.043499091604875362 0 8.0717684890368682e-05 0.036784423818272877 0 6.806948378637087e-05 0.036760413132630072 0 6.2113400051923913e-05 0.036717130527325108 0 0.00010601014181886588 0.036841783037446285 0 1.5450223409985108e-05 0.036741172385047136 0 6.806948378637087e-05 0.036760413132630072 0 0.00010601014181886588 0.036841783037446285 0 8.0717684890368682e-05 0.036784423818272877 0 6.806948378637087e-05 0.036760413132630072 0 1.5450223409985108e-05 0.036741172385047136 0 6.806948378637087e-05 0.036760413132630072 0 5.141063545012632e-05 0.036735869874443501 0 -0.00081599154276471052 0.040344517466500009 0 -1.6798252727771786e-05 0.039398051814646666 0 1.5450223409985108e-05 0.036741172385047136 0 5.141063545012632e-05 0.036735869874443501 0 6.6887954776792972e-05 0.036736646547478408 0 -0.00063479308262310197 0.036030237240819718 0 -0.00062750857483404021 0.035273485524721433 0 6.806948378637087e-05 0.036760413132630072 0 5.141063545012632e-05 0.036735869874443501 0 6.2113400051923913e-05 0.036717130527325108 0 -0.00062750857483404021 0.035273485524721433 0 -0.00024715534597252275 0.034516771159822233 0 -0.00040077087231940459 0.036707703011032315 0 -0.00022970258036166235 0.036694998539882763 0 -0.00026271044539222244 0.036788858637200612 0 -0.00031533319437993061 0.036566449617539611 0 -0.00040077087231940459 0.036707703011032315 0 -0.00022970258036166235 0.036694998539882763 0 -0.00062750857483404021 0.035273485524721433 0 -1.6798252727771786e-05 0.039398051814646666 0 5.141063545012632e-05 0.036735869874443501 0 6.15107692035672e-05 0.036734826516743715 0 6.6887954776792972e-05 0.036736646547478408 0 -0.0015230944579660442 0.044245436839690039 0 -0.00096452096133920471 0.044242150453222509 0 -0.0013604513490947771 0.044437920804134994 0 -1.6798252727771786e-05 0.039398051814646666 0 0.00047502301624073378 0.038189759762976914 0 -0.00054174761816106365 0.043669749028266105 0 -0.0014325772239544988 0.043499091604875362 0 -0.00096452096133920471 0.044242150453222509 0 -0.0014325772239544988 0.043499091604875362 0 -0.0015230944579660442 0.044245436839690039 0 -0.00096452096133920471 0.044242150453222509 0 0.00026993680661791501 0.041792443928157987 0 0.00021708276247626938 0.043750486187597998 0 -0.00098293959964661031 0.044582786475124356 0 -0.0012769817493346954 0.044433269601766023 0 -0.0007945116723045828 0.04497648495419361 0 -0.00096452096133920471 0.044242150453222509 0 -0.00098293959964661031 0.044582786475124356 0 -0.00063430948830273592 0.044642912713161495 0 -0.00098293959964661031 0.044582786475124356 0 -0.0007945116723045828 0.04497648495419361 0 -0.00063430948830273592 0.044642912713161495 0 -0.00096452096133920471 0.044242150453222509 0 -0.00098293959964661031 0.044582786475124356 0 -0.0013604513490947771 0.044437920804134994 0 -0.00053690760994978988 0.043561946288708159 0 0.00026993680661791501 0.041792443928157987 0 0.0017273817507859213 0.036477574345716191 0 0.0016036487555196252 0.036744985851758706 0 0.0015419366592239804 0.03710068189887427 0 0.00047502301624073378 0.038189759762976914 0 0.0022038096245279078 0.0419652835305881 0 0.0011653782582104503 0.041343911389060489 0 0.0010653568833447384 0.041283023738049193 0 0.00087026785543455217 0.041850222692693131 0 0.00026993680661791501 0.041792443928157987 0 0.00047502301624073378 0.038189759762976914 0 -1.6798252727771786e-05 0.039398051814646666 0 0.00026993680661791501 0.041792443928157987 0 -0.0004848302851549441 0.03910648844995613 0 0.00051300601121348065 0.040609990590758829 0 -0.00077162760788856684 0.039886553579002809 0 0.0016313612319254535 0.036418355516314053 0 0.0017273817507859213 0.036477574345716191 0 0.0016036487555196252 0.036744985851758706 0 0.0016313612319254535 0.036418355516314053 0 0.0016036487555196252 0.036744985851758706 0 0.0014820891646299265 0.036679840269206621 0 -0.00024715534597252275 0.034516771159822233 0 0.00047502301624073378 0.038189759762976914 0 0.00021708276247626938 0.043750486187597998 0 0.0022038096245279078 0.0419652835305881 0 -0.00028172874500651289 0.045170714027211983 0 0.0025320903239792127 0.045232491501905898 0 0.00095342362775453434 0.044606092672509 0 0.0011653782582104503 0.041343911389060489 0 0.0014303842100777289 0.041765088599427576 0 0.00087026785543455217 0.041850222692693131 0 -0.00028172874500651289 0.045170714027211983 0 -2.4414970157161367e-05 0.044361980680761928 0 -0.00037988374832357912 0.044837352465238997 0 -0.00028172874500651289 0.045170714027211983 0 -0.00048585157617213418 0.044913221106447077 0 -0.00037988374832357912 0.044837352465238997 0 -0.0007945116723045828 0.04497648495419361 0 -0.00063430948830273592 0.044642912713161495 0 -0.00048585157617213418 0.044913221106447077 0 0.00021708276247626938 0.043750486187597998 0 -0.00049604741880849169 0.044339873494884087 0 0.00087021904829026218 0.029452520133791606 0 0.0015444228674448058 0.032472530663865525 0 0.0014398925843023553 0.027757597969477073 0 0.0035233495765404129 0.028826339003607759 0 0.0016114986209332994 0.02930354157983675 0 0.0003780483759112679 0.031817323648108534 0 0.00027030546506234571 0.031791073331903508 0 0.00042471343960495618 0.031900940008396758 0 0.0003780483759112679 0.031817323648108534 0 0.00046546956651589798 0.031835117994884803 0 0.00042471343960495618 0.031900940008396758 0 -0.00024715534597252275 0.034516771159822233 0 0.0015444228674448058 0.032472530663865525 0 0.0022570873051823673 0.033914133148926523 0 0.0015444228674448058 0.032472530663865525 0 0.0014974357131582051 0.036686274972948185 0 0.0015419366592239804 0.03710068189887427 0 0.0012500326569311207 0.037146028441581866 0 0.0016036487555196252 0.036744985851758706 0 0.0014974357131582051 0.036686274972948185 0 0.0015419366592239804 0.03710068189887427 0 0.0015444228674448058 0.032472530663865525 0 0.0028737731433413215 0.036553248598033591 0 0.0022038096245279078 0.0419652835305881 0 0.0028737731433413215 0.036553248598033591 0 0.0016114986209332994 0.02930354157983675 0 0.0025705472335235424 0.030382782821328478 0 0.00087399855723640086 0.030652737078692347 0 0.0035233495765404129 0.028826339003607759 0 0.0016114986209332994 0.02930354157983675 0 0.0025705472335235424 0.030382782821328478 0 0.0028737731433413215 0.036553248598033591 0 0.0032889218972822856 0.037533400465103894 0 0.0030870492586958578 0.034664099761942999 0 0.0021962730805226167 0.03611467458417409 0 0.0015407353342562547 0.034907732444165888 0 0.0045357603374994058 0.044341539403819456 0 0.0039846128817793173 0.042036480615232491 0 0.006034155976772676 0.04213938724095416 0 0.0028737731433413215 0.036553248598033591 0 0.00076310979036934483 0.03134113023212752 0 0.0022038096245279078 0.0419652835305881 0 0.0038680691825951291 0.043291739085246056 0 0.0025320903239792127 0.045232491501905898 0 0.0039846128817793173 0.042036480615232491 0 0.0018449699187641684 0.043216268343896844 0 0.0030630157984163891 0.044576394426026095 0 0.0045357603374994058 0.044341539403819456 0 0.0039846128817793173 0.042036480615232491 0 0.0039846128817793173 0.042036480615232491 0 0.0018449699187641684 0.043216268343896844 0 0.0022225276883040572 0.040949045438385678 0 0.0040326532015556834 0.040763439834073226 0 0.0039846128817793173 0.042036480615232491 0 0.0022225276883040572 0.040949045438385678 0 0.0038245001435260975 0.03693160430949248 0 0.0040212257952270299 0.036588869741737577 0 0.0037819688106642754 0.036483434732130074 0 0.0040326532015556834 0.040763439834073226 0 0.0039846128817793173 0.042036480615232491 0 0.006034155976772676 0.04213938724095416 0 -2.4414970157161367e-05 0.044361980680761928 0 -0.00025638008403730154 0.044739151953138712 0 -0.00030279189123639979 0.044657358940675532 0 -2.4414970157161367e-05 0.044361980680761928 0 -0.00030279189123639979 0.044657358940675532 0 -0.00037988374832357912 0.044837352465238997 0 -0.00028172874500651289 0.045170714027211983 0 -2.4414970157161367e-05 0.044361980680761928 0 0.00095342362775453434 0.044606092672509 0 -2.4414970157161367e-05 0.044361980680761928 0 0.0018449699187641684 0.043216268343896844 0 0.00060851391826850993 0.041935271845287017 0 0.0025320903239792127 0.045232491501905898 0 0.00095342362775453434 0.044606092672509 0 0.0018449699187641684 0.043216268343896844 0 -2.4414970157161367e-05 0.044361980680761928 0 0.00095342362775453434 0.044606092672509 0 0.0018449699187641684 0.043216268343896844 0 0.0018449699187641684 0.043216268343896844 0 0.00060851391826850993 0.041935271845287017 0 0.0022225276883040572 0.040949045438385678 0 0.00060851391826850993 0.041935271845287017 0 0.0022225276883040572 0.040949045438385678 0 7.73042383027339e-05 0.039655655865397613 0 -0.00011098082506319787 0.044282462752385988 0 -0.00077484077164416691 0.042913816099027252 0 -2.4414970157161367e-05 0.044361980680761928 0 0.00060851391826850993 0.041935271845287017 0 -0.0014318053924914039 0.040987668737729036 0 0.00060851391826850993 0.041935271845287017 0 -0.0014318053924914039 0.040987668737729036 0 7.73042383027339e-05 0.039655655865397613 0 -0.00025638008403730154 0.044739151953138712 0 -0.00026498965852968367 0.044762025817185136 0 -0.00017036361435563948 0.044840079339465343 0 -0.00025638008403730154 0.044739151953138712 0 -0.00026498965852968367 0.044762025817185136 0 -0.00030279189123639979 0.044657358940675532 0 -0.00026498965852968367 0.044762025817185136 0 -0.0003644601448292946 0.044825486737716601 0 -0.00022957895718214537 0.044811551719995103 0 -0.00026498965852968367 0.044762025817185136 0 -0.00030279189123639979 0.044657358940675532 0 -0.0003644601448292946 0.044825486737716601 0 -0.00017036361435563948 0.044840079339465343 0 -8.3976669973017816e-05 0.04486219055099077 0 -0.00022957895718214537 0.044811551719995103 0 -0.00026498965852968367 0.044762025817185136 0 -0.00017036361435563948 0.044840079339465343 0 -0.00022957895718214537 0.044811551719995103 0 -0.00017036361435563948 0.044840079339465343 0 -9.1521170163365932e-08 0.044999854914669409 0 -8.3976669973017816e-05 0.04486219055099077 0 -0.00017036361435563948 0.044840079339465343 0 -9.1521170163365932e-08 0.044999854914669409 0 -7.2041037669054084e-05 0.044940186547309094 0 -8.8517035074694471e-05 0.04420991066267263 0 8.0319310550946855e-08 0.044999574336567212 0 -0.00011754320476197197 0.044687829864187664 0 -8.3976669973017816e-05 0.04486219055099077 0 8.0319310550946855e-08 0.044999574336567212 0 -0.00011754320476197197 0.044687829864187664 0 -9.1521170163365932e-08 0.044999854914669409 0 -8.3976669973017816e-05 0.04486219055099077 0 8.0319310550946855e-08 0.044999574336567212 0 -8.8517035074694471e-05 0.04420991066267263 0 -0.00011754320476197197 0.044687829864187664 0 -0.00040130021445131814 0.04439458005991994 0 -0.00011754320476197197 0.044687829864187664 0 -0.00040130021445131814 0.04439458005991994 0 -0.00034026322412132365 0.044746718389276394 0 -0.00040130021445131814 0.04439458005991994 0 -0.00063430948830273592 0.044642912713161495 0 -0.00034026322412132365 0.044746718389276394 0 -0.00096452096133920471 0.044242150453222509 0 -0.00040130021445131814 0.04439458005991994 0 -0.00063430948830273592 0.044642912713161495 0 -0.00063430948830273592 0.044642912713161495 0 -0.00034026322412132365 0.044746718389276394 0 -0.00048585157617213418 0.044913221106447077 0 -0.00034026322412132365 0.044746718389276394 0 -0.00048585157617213418 0.044913221106447077 0 -0.0003644601448292946 0.044825486737716601 0 -0.00030279189123639979 0.044657358940675532 0 -0.00037988374832357912 0.044837352465238997 0 -0.0003644601448292946 0.044825486737716601 0 -0.00048585157617213418 0.044913221106447077 0 -0.00037988374832357912 0.044837352465238997 0 -0.0003644601448292946 0.044825486737716601 0 -0.00034026322412132365 0.044746718389276394 0 -0.0003644601448292946 0.044825486737716601 0 -0.00022957895718214537 0.044811551719995103 0 -0.00011754320476197197 0.044687829864187664 0 -0.00034026322412132365 0.044746718389276394 0 -0.00022957895718214537 0.044811551719995103 0 -8.3976669973017816e-05 0.04486219055099077 0 -0.00011754320476197197 0.044687829864187664 0 -0.00022957895718214537 0.044811551719995103 0 -0.003975225331928514 0.023867673881722094 0 -0.002838132744400998 0.023964786343975315 0 -0.003691741872824025 0.024324532325826886 0 -0.0040748745044934731 0.023917867025671429 0 -0.0033795498824530546 0.023807386506640955 0 -0.003691741872824025 0.024324532325826886 0 -0.0033795498824530546 0.023807386506640955 0 -0.0031963801628414725 0.02435418152249837 0 -0.0040748745044934731 0.023917867025671429 0 -0.0045361681723647676 0.024570615370607771 0 -0.0041575761714545282 0.024562135962475456 0 -0.003691741872824025 0.024324532325826886 0 -0.0040748745044934731 0.023917867025671429 0 -0.0041575761714545282 0.024562135962475456 0 -0.0045361681723647676 0.024570615370607771 0 -0.0041575761714545282 0.024562135962475456 0 -0.0043300705887057318 0.024849057997143008 0 -0.003691741872824025 0.024324532325826886 0 -0.0041575761714545282 0.024562135962475456 0 -0.0039674213020243366 0.0246950629148859 0 -0.0039674213020243366 0.0246950629148859 0 -0.004130597654892377 0.025091248978442959 0 -0.0043300705887057318 0.024849057997143008 0 -0.0041575761714545282 0.024562135962475456 0 -0.0039674213020243366 0.0246950629148859 0 -0.0043300705887057318 0.024849057997143008 0 -0.0039674213020243366 0.0246950629148859 0 -0.0034863616316472149 0.024670520031804657 0 -0.004130597654892377 0.025091248978442959 0 -0.003691741872824025 0.024324532325826886 0 -0.0039674213020243366 0.0246950629148859 0 -0.0034863616316472149 0.024670520031804657 0 -0.003691741872824025 0.024324532325826886 0 -0.0034863616316472149 0.024670520031804657 0 -0.0031963801628414725 0.02435418152249837 0 -0.0014910856147705637 0.024787146098077289 0 -0.0015076863537635096 0.024793776257185155 0 -0.0014918460087934718 0.024774264552924322 0 -0.0034863616316472149 0.024670520031804657 0 -0.004130597654892377 0.025091248978442959 0 -0.0033361006649947904 0.025121244593158589 0 -0.0032418531950365679 0.024854340256219305 0 -0.0014909155938602188 0.023552305691281587 0 -0.00050069878015917234 0.023350555289032435 0 -0.0014909155938602188 0.023552305691281587 0 -1.3756505383539454e-06 0.023351026892448896 0 -0.0001757588252668776 0.023694463886624547 0 -7.4781889624269773e-05 0.025743205179370888 0 -9.6552019987419434e-07 0.023348177084874116 0 -0.00050069878015917234 0.023350555289032435 0 -2.3637806994529703e-09 0.023347280697551896 0 -6.5675194667182087e-07 0.023190217579587322 0 -2.2302553960926321e-10 0.022418452873723124 0 -0.00050069878015917234 0.023350555289032435 0 -2.4357037003873039e-07 0.022418186677003422 0 -0.0014910856147705637 0.024787146098077289 0 -0.0015040644455440945 0.024798539061718229 0 -0.0015076863537635096 0.024793776257185155 0 -0.00050069878015917234 0.023350555289032435 0 -0.00058706692882503546 0.025304902221680713 0 -1.3756505383539454e-06 0.023351026892448896 0 -7.4781889624269773e-05 0.025743205179370888 0 5.4585741478001161e-07 0.025938860782813142 0 -0.00058706692882503546 0.025304902221680713 0 -0.0016246946088761744 0.027242955170658719 0 -0.0015040644455440945 0.024798539061718229 0 -0.0015076863537635096 0.024793776257185155 0 -0.0015059266374189929 0.02482758587250062 0 -0.004130597654892377 0.025091248978442959 0 -0.0044126442856902565 0.024805557010421496 0 -0.0043300705887057318 0.024849057997143008 0 -0.0