<?xml version="1.0"?>
<VTKFile type="UnstructuredGrid" version="0.1" byte_order="LittleEndian">
<UnstructuredGrid>
<Piece NumberOfPoints="31289" NumberOfCells="10959">
<Points>
<DataArray type="Float64" NumberOfComponents="3" format="ascii">
-0.5 -0.5 0 -0.47708618652662871 -0.46239393797071388 0 -0.43528190217005341 -0.5 0 -0.44701404067921269 -0.46247847983248952 0 -0.47708618652662871 -0.46239393797071388 0 -0.43528190217005341 -0.5 0 -0.45844489789806481 -0.44333674887457031 0 -0.44025389856215069 -0.43061278999638541 0 -0.43714447226761061 -0.44850065882031448 0 -0.44701404067921269 -0.46247847983248952 0 -0.45844489789806481 -0.44333674887457031 0 -0.43714447226761061 -0.44850065882031448 0 -0.44701404067921269 -0.46247847983248952 0 -0.45844489789806481 -0.44333674887457031 0 -0.47708618652662871 -0.46239393797071388 0 -0.5 -0.5 0 -0.47708618652662871 -0.46239393797071388 0 -0.50000000000000144 -0.43757139339756551 0 -0.47708618652662871 -0.46239393797071388 0 -0.50000000000000144 -0.43757139339756551 0 -0.47965750386917733 -0.4300725943028153 0 -0.45844489789806481 -0.44333674887457031 0 -0.47708618652662871 -0.46239393797071388 0 -0.47965750386917733 -0.4300725943028153 0 -0.50000000000000144 -0.43757139339756551 0 -0.5 -0.41656268729837942 0 -0.47965750386917733 -0.4300725943028153 0 -0.50000000000000144 -0.43757139339756551 0 -0.47965750386917733 -0.4300725943028153 0 -0.5 -0.41656268729837942 0 -0.4821882631358877 -0.40754401514498839 0 -0.47965750386917733 -0.4300725943028153 0 -0.5 -0.41656268729837942 0 -0.4821882631358877 -0.40754401514498839 0 -0.5 -0.39555398119919338 0 -0.4821882631358877 -0.40754401514498839 0 -0.4706516500111087 -0.4160100422244653 0 -0.461880283290029 -0.39986143219671649 0 -0.4821882631358877 -0.40754401514498839 0 -0.4706516500111087 -0.4160100422244653 0 -0.47965750386917733 -0.4300725943028153 0 -0.4706516500111087 -0.4160100422244653 0 -0.47965750386917733 -0.4300725943028153 0 -0.45931500773835299 -0.42257379520806548 0 -0.47965750386917733 -0.4300725943028153 0 -0.45931500773835299 -0.42257379520806548 0 -0.48094014164501148 -0.38720335364836089 0 -0.49999999999999539 -0.37454527510000729 0 -0.48094014164501148 -0.38720335364836089 0 -0.49999999999999539 -0.37454527510000729 0 -0.48220091977756763 -0.36593963372664517 0 -0.5 -0.39555398119919338 0 -0.48094014164501148 -0.38720335364836089 0 -0.49999999999999539 -0.37454527510000729 0 -0.4821882631358877 -0.40754401514498839 0 -0.5 -0.39555398119919338 0 -0.48094014164501148 -0.38720335364836089 0 -0.48094014164501148 -0.38720335364836089 0 -0.461880283290029 -0.39986143219671649 0 -0.4821882631358877 -0.40754401514498839 0 -0.48094014164501148 -0.38720335364836089 0 -0.461880283290029 -0.39986143219671649 0 -0.48094014164501148 -0.38720335364836089 0 -0.46748973539803662 -0.38069978415109978 0 -0.461880283290029 -0.39986143219671649 0 -0.48094014164501148 -0.38720335364836089 0 -0.46748973539803662 -0.38069978415109978 0 -0.48220091977756763 -0.36593963372664517 0 -0.46748973539803662 -0.38069978415109978 0 -0.461880283290029 -0.39986143219671649 0 -0.45119533048312782 -0.38698892209819802 0 -0.45119533048312782 -0.38698892209819802 0 -0.46397892833050852 -0.36417820465512479 0 -0.46748973539803662 -0.38069978415109978 0 -0.45119533048312782 -0.38698892209819802 0 -0.46397892833050852 -0.36417820465512479 0 -0.461880283290029 -0.39986143219671649 0 -0.45119533048312782 -0.38698892209819802 0 -0.44282042493504581 -0.41251951074507132 0 -0.45119533048312782 -0.38698892209819802 0 -0.44282042493504581 -0.41251951074507132 0 -0.43841173263574701 -0.40979963954127119 0 -0.45119533048312782 -0.38698892209819802 0 -0.43841173263574701 -0.40979963954127119 0 -0.461880283290029 -0.39986143219671649 0 -0.44282042493504581 -0.41251951074507132 0 -0.43936272043470059 -0.3953451377335605 0 -0.45119533048312782 -0.38698892209819802 0 -0.43841173263574701 -0.40979963954127119 0 -0.45119533048312782 -0.38698892209819802 0 -0.43965051101676822 -0.37583845931705329 0 -0.46397892833050852 -0.36417820465512479 0 -0.43936272043470059 -0.3953451377335605 0 -0.45119533048312782 -0.38698892209819802 0 -0.43965051101676822 -0.37583845931705329 0 -0.45844489789806481 -0.44333674887457031 0 -0.47965750386917733 -0.4300725943028153 0 -0.45931500773835299 -0.42257379520806548 0 -0.461880283290029 -0.39986143219671649 0 -0.45710026342879218 -0.41265837327333488 0 -0.44282042493504581 -0.41251951074507132 0 -0.4706516500111087 -0.4160100422244653 0 -0.45931500773835299 -0.42257379520806548 0 -0.45710026342879218 -0.41265837327333488 0 -0.4706516500111087 -0.4160100422244653 0 -0.461880283290029 -0.39986143219671649 0 -0.45710026342879218 -0.41265837327333488 0 -0.45931500773835299 -0.42257379520806548 0 -0.45710026342879218 -0.41265837327333488 0 -0.44792775152636721 -0.41567039304328729 0 -0.45931500773835299 -0.42257379520806548 0 -0.43897251160752859 -0.41507499611331627 0 -0.45931500773835299 -0.42257379520806548 0 -0.44792775152636721 -0.41567039304328729 0 -0.43897251160752859 -0.41507499611331627 0 -0.44792775152636721 -0.41567039304328729 0 -0.44282042493504581 -0.41251951074507132 0 -0.45710026342879218 -0.41265837327333488 0 -0.44792775152636721 -0.41567039304328729 0 -0.44282042493504581 -0.41251951074507132 0 -0.44282042493504581 -0.41251951074507132 0 -0.43841173263574701 -0.40979963954127119 0 -0.43841173263574701 -0.40979963954127119 0 -0.43897251160752859 -0.41507499611331627 0 -0.43605751269967868 -0.41400044798359042 0 -0.44282042493504581 -0.41251951074507132 0 -0.43841173263574701 -0.40979963954127119 0 -0.43897251160752859 -0.41507499611331627 0 -0.44282042493504581 -0.41251951074507132 0 -0.43897251160752859 -0.41507499611331627 0 -0.44792775152636721 -0.41567039304328729 0 -0.44282042493504581 -0.41251951074507132 0 -0.43897251160752859 -0.41507499611331627 0 -0.43897251160752859 -0.41507499611331627 0 -0.44025389856215069 -0.43061278999638541 0 -0.43337020159624251 -0.41879561558773087 0 -0.43897251160752859 -0.41507499611331627 0 -0.43605751269967868 -0.41400044798359042 0 -0.45844489789806481 -0.44333674887457031 0 -0.45931500773835299 -0.42257379520806548 0 -0.44025389856215069 -0.43061278999638541 0 -0.45931500773835299 -0.42257379520806548 0 -0.43897251160752859 -0.41507499611331627 0 -0.44025389856215069 -0.43061278999638541 0 -0.43337020159624251 -0.41879561558773087 0 -0.41394138836998651 -0.43169872532437809 0 -0.42824949786670002 -0.42793286531029029 0 -0.43337020159624251 -0.41879561558773087 0 -0.41394138836998651 -0.43169872532437809 0 -0.44025389856215069 -0.43061278999638541 0 -0.42824949786670002 -0.42793286531029029 0 -0.42591282465618951 -0.4379918130008994 0 -0.42824949786670002 -0.42793286531029029 0 -0.41394138836998651 -0.43169872532437809 0 -0.42591282465618951 -0.4379918130008994 0 -0.44025389856215069 -0.43061278999638541 0 -0.42824949786670002 -0.42793286531029029 0 -0.43337020159624251 -0.41879561558773087 0 -0.42824949786670002 -0.42793286531029029 0 -0.43337020159624251 -0.41879561558773087 0 -0.43605751269967868 -0.41400044798359042 0 -0.42446110959708527 -0.4077419548087709 0 -0.40923191197255471 -0.40411179965080668 0 -0.43605751269967868 -0.41400044798359042 0 -0.40923191197255471 -0.40411179965080668 0 -0.43337020159624251 -0.41879561558773087 0 -0.43605751269967868 -0.41400044798359042 0 -0.40923191197255471 -0.40411179965080668 0 -0.43337020159624251 -0.41879561558773087 0 -0.43605751269967868 -0.41400044798359042 0 -0.43897251160752859 -0.41507499611331627 0 -0.43337020159624251 -0.41879561558773087 0 -0.43897251160752859 -0.41507499611331627 0 -0.43337020159624251 -0.41879561558773087 0 -0.43605751269967868 -0.41400044798359042 0 -0.43841173263574701 -0.40979963954127119 0 -0.43605751269967868 -0.41400044798359042 0 -0.42446110959708527 -0.4077419548087709 0 -0.43841173263574701 -0.40979963954127119 0 -0.42446110959708527 -0.4077419548087709 0 -0.42687118421011611 -0.40267988538107469 0 -0.43841173263574701 -0.40979963954127119 0 -0.43605751269967868 -0.41400044798359042 0 -0.41394138836998651 -0.43169872532437809 0 -0.40923191197255471 -0.40411179965080668 0 -0.41394138836998651 -0.43169872532437809 0 -0.40923191197255471 -0.40411179965080668 0 -0.40416212188568251 -0.41837863162551769 0 -0.43337020159624251 -0.41879561558773087 0 -0.41394138836998651 -0.43169872532437809 0 -0.40923191197255471 -0.40411179965080668 0 -0.41394138836998651 -0.43169872532437809 0 -0.40024399779695491 -0.4265596591745543 0 -0.40854045096584901 -0.4376219659572258 0 -0.41394138836998651 -0.43169872532437809 0 -0.41524316932694277 -0.4393242300455385 0 -0.40854045096584901 -0.4376219659572258 0 -0.41394138836998651 -0.43169872532437809 0 -0.42591282465618951 -0.4379918130008994 0 -0.41524316932694277 -0.4393242300455385 0 -0.41394138836998651 -0.43169872532437809 0 -0.41524316932694277 -0.4393242300455385 0 -0.43965051101676822 -0.37583845931705329 0 -0.42687118421011611 -0.40267988538107469 0 -0.43965051101676822 -0.37583845931705329 0 -0.42687118421011611 -0.40267988538107469 0 -0.42019869924829673 -0.37802384934638261 0 -0.43936272043470059 -0.3953451377335605 0 -0.43965051101676822 -0.37583845931705329 0 -0.42687118421011611 -0.40267988538107469 0 -0.43936272043470059 -0.3953451377335605 0 -0.43841173263574701 -0.40979963954127119 0 -0.42687118421011611 -0.40267988538107469 0 -0.43841173263574701 -0.40979963954127119 0 -0.42687118421011611 -0.40267988538107469 0 -0.42446110959708527 -0.4077419548087709 0 -0.42687118421011611 -0.40267988538107469 0 -0.42687118421011611 -0.40267988538107469 0 -0.40923191197255471 -0.40411179965080668 0 -0.40688224324131839 -0.39034803247671812 0 -0.42446110959708527 -0.4077419548087709 0 -0.42687118421011611 -0.40267988538107469 0 -0.40923191197255471 -0.40411179965080668 0 -0.42687118421011611 -0.40267988538107469 0 -0.40688224324131839 -0.39034803247671812 0 -0.40923191197255471 -0.40411179965080668 0 -0.40688224324131839 -0.39034803247671812 0 -0.42019869924829673 -0
[...]
<PointData Scalars="" Vectors="displacement," Tensors="">
<DataArray type="Float64" Name="displacement" NumberOfComponents="3" format="ascii">
0.044997871006395733 1.8179396494897113e-07 0 0.043312310317528559 0.00024861132487847794 0 0.039176864392577816 9.3343691172780574e-07 0 0.04103764985566024 0.00028158984254738218 0 0.043312310317528559 0.00024861132487847794 0 0.039176864392577816 9.3343691172780574e-07 0 0.041990213744556484 0.00043202776406208788 0 0.041236067050080628 0.00044452836084646894 0 0.040657384453043233 0.00032104886973377761 0 0.04103764985566024 0.00028158984254738218 0 0.041990213744556484 0.00043202776406208788 0 0.040657384453043233 0.00032104886973377761 0 0.04103764985566024 0.00028158984254738218 0 0.041990213744556484 0.00043202776406208788 0 0.043312310317528559 0.00024861132487847794 0 0.044997871006395733 1.8179396494897113e-07 0 0.043312310317528559 0.00024861132487847794 0 0.044992404621770218 1.3116450642226946e-07 0 0.043312310317528559 0.00024861132487847794 0 0.044992404621770218 1.3116450642226946e-07 0 0.043064790628192545 0.00023451192713438803 0 0.041990213744556484 0.00043202776406208788 0 0.043312310317528559 0.00024861132487847794 0 0.043064790628192545 0.00023451192713438803 0 0.045000013414079471 6.9424528293338683e-09 0 0.044999989390058372 5.4027152557064269e-09 0 0.044998868919105879 1.6770881453242692e-05 0 0.044999471537493146 2.4241325424753104e-07 0 0.044025130962173975 0.00024030056800479041 0 0.044999989390058372 5.4027152557064269e-09 0 0.044990999284600625 1.4485842772820609e-05 0 0.044998868919105879 1.6770881453242692e-05 0 0.044999989390058372 5.4027152557064269e-09 0 0.044990999284600625 1.4485842772820609e-05 0 0.044999986899411933 9.9183738072719879e-09 0 0.044990999284600625 1.4485842772820609e-05 0 0.044988145029950993 2.7905035223745929e-05 0 0.044976510995570998 3.7780662522291498e-05 0 0.044990999284600625 1.4485842772820609e-05 0 0.044988145029950993 2.7905035223745929e-05 0 0.044998868919105879 1.6770881453242692e-05 0 0.044988145029950993 2.7905035223745929e-05 0 0.044998868919105879 1.6770881453242692e-05 0 0.04498860210741476 4.3282208940999969e-05 0 0.044025130962173975 0.00024030056800479041 0 0.043486888358040987 0.00026515608813233168 0 0.045115883872990065 0.00012474272290519353 0 0.045000080141216418 7.3983549200932045e-08 0 0.045301676834320057 0.00025830210485274619 0 0.044999755795220114 -2.6242178611612315e-07 0 0.044783924689240973 6.8312975398091024e-05 0 0.044999986899411933 9.9183738072719879e-09 0 0.044988626565123299 1.3425563276463215e-05 0 0.044999989725196921 -1.0803560745602334e-10 0 0.044990999284600625 1.4485842772820609e-05 0 0.044999986899411933 9.9183738072719879e-09 0 0.044988626565123299 1.3425563276463215e-05 0 0.045115883872990065 0.00012474272290519353 0 0.045490072410540823 0.00054886028971000661 0 0.044990999284600625 1.4485842772820609e-05 0 0.044988626565123299 1.3425563276463215e-05 0 0.044976510995570998 3.7780662522291498e-05 0 0.045301676834320057 0.00025830210485274619 0 0.045149769691915601 0.00071832101213411864 0 0.045644475753075398 0.00088522293646030455 0 0.045301676834320057 0.00025830210485274619 0 0.045149769691915601 0.00071832101213411864 0 0.044783924689240973 6.8312975398091024e-05 0 0.045149769691915601 0.00071832101213411864 0 0.045644475753075398 0.00088522293646030455 0 0.045328062684371187 0.0011601159656035988 0 0.044173814792980985 0.0010584639538710409 0 0.043565339924572039 0.00079998818223285409 0 0.045149769691915601 0.00071832101213411864 0 0.045328062684371187 0.0011601159656035988 0 0.044578516650669225 0.00099327926525078218 0 0.045644475753075398 0.00088522293646030455 0 0.045328062684371187 0.0011601159656035988 0 0.045882286676656676 0.0013145525762261279 0 0.045328062684371187 0.0011601159656035988 0 0.045882286676656676 0.0013145525762261279 0 0.04581878890905694 0.0014086319465344041 0 0.044173814792980985 0.0010584639538710409 0 0.042984803564589336 0.00066564795870083053 0 0.045490072410540823 0.00054886028971000661 0 0.043953400662324615 0.00063155069285360233 0 0.042474786044951952 0.00066295922180183012 0 0.042569179742802235 0.00074546142379903492 0 0.042338791424558736 0.0006633206711460488 0 0.042569179742802235 0.00074546142379903492 0 0.042638263502503687 0.00067620202881607018 0 0.042757586858001788 0.00073068153200958207 0 0.042474786044951952 0.00066295922180183012 0 0.042569179742802235 0.00074546142379903492 0 0.042638263502503687 0.00067620202881607018 0 0.041990213744556484 0.00043202776406208788 0 0.043064790628192545 0.00023451192713438803 0 0.04183465201757347 0.00044990709309492558 0 0.044976510995570998 3.7780662522291498e-05 0 0.044976636356245867 4.7048112927689275e-05 0 0.044963579772787712 6.9214423625031977e-05 0 0.044988145029950993 2.7905035223745929e-05 0 0.04498860210741476 4.3282208940999969e-05 0 0.044976636356245867 4.7048112927689275e-05 0 0.044988145029950993 2.7905035223745929e-05 0 0.044976510995570998 3.7780662522291498e-05 0 0.044976636356245867 4.7048112927689275e-05 0 0.04498860210741476 4.3282208940999969e-05 0 0.044976636356245867 4.7048112927689275e-05 0 0.04496840436030089 6.292145789146841e-05 0 0.043486888358040987 0.00026515608813233168 0 0.042601804653742428 0.00021812914032722023 0 0.04498860210741476 4.3282208940999969e-05 0 0.04496840436030089 6.292145789146841e-05 0 0.044957698664007964 8.0041941567239448e-05 0 0.04448315719764407 8.4850348131122361e-05 0 0.043953400662324615 0.00063155069285360233 0 0.044976636356245867 4.7048112927689275e-05 0 0.04496840436030089 6.292145789146841e-05 0 0.044963579772787712 6.9214423625031977e-05 0 0.043953400662324615 0.00063155069285360233 0 0.042984803564589336 0.00066564795870083053 0 0.04282309274261166 0.00058415165875005481 0 0.042848185951198922 0.00058052478688105274 0 0.042841400739185187 0.00059494057885126539 0 0.042838451837060108 0.00056217885967271299 0 0.04282309274261166 0.00058415165875005481 0 0.042848185951198922 0.00058052478688105274 0 0.043953400662324615 0.00063155069285360233 0 0.042601804653742428 0.00021812914032722023 0 0.04496840436030089 6.292145789146841e-05 0 0.044954500321402156 7.3313240851550016e-05 0 0.044957698664007964 8.0041941567239448e-05 0 0.041434138527784409 0.00040040445626253327 0 0.041236067050080628 0.00044452836084646894 0 0.041343777897476494 0.00032550484271668366 0 0.042601804653742428 0.00021812914032722023 0 0.041526867092773478 0.0003175999228313478 0 0.041990213744556484 0.00043202776406208788 0 0.04183465201757347 0.00044990709309492558 0 0.041236067050080628 0.00044452836084646894 0 0.04183465201757347 0.00044990709309492558 0 0.041434138527784409 0.00040040445626253327 0 0.041236067050080628 0.00044452836084646894 0 0.041262073658752257 8.889658049720293e-05 0 0.039541592412072897 4.3063656389747132e-05 0 0.040967390333185374 0.00021527762872385414 0 0.041603375407890893 0.00044843003989295638 0 0.040456419067965557 -0.00046790255369702477 0 0.041236067050080628 0.00044452836084646894 0 0.040967390333185374 0.00021527762872385414 0 0.040327718152697499 0.00017552729146126065 0 0.040967390333185374 0.00021527762872385414 0 0.040456419067965557 -0.00046790255369702477 0 0.040327718152697499 0.00017552729146126065 0 0.041236067050080628 0.00044452836084646894 0 0.040967390333185374 0.00021527762872385414 0 0.041343777897476494 0.00032550484271668366 0 0.041171476084218832 0.00019919727940151584 0 0.041262073658752257 8.889658049720293e-05 0 0.040226682167775217 -0.00025999889496689871 0 0.039401239807154938 0.001222038038229394 0 0.03890902057549385 0.0031694198674221984 0 0.041526867092773478 0.0003175999228313478 0 0.037388061819542212 0.00089797544112997843 0 0.039522428093634383 4.5436913754962208e-05 0 0.039381761748141189 -3.3927614909975534e-05 0 0.039066230555246023 0.0007649376722423354 0 0.041262073658752257 8.889658049720293e-05 0 0.041526867092773478 0.0003175999228313478 0 0.042601804653742428 0.00021812914032722023 0 0.041262073658752257 8.889658049720293e-05 0 0.042077946301796815 0.00041965121727457008 0 0.041722767714633575 -0.00011158560914338361 0 0.042178891528963966 0.00014339884810317329 0 0.039690678480479476 -0.00055871970190296777 0 0.040226682167775217 -0.00025999889496689871 0 0.039401239807154938 0.001222038038229394 0 0.039690678480479476 -0.00055871970190296777 0 0.039401239807154938 0.001222038038229394 0 0.038762154089110351 0.00091728942473183516 0 0.042984803564589336 0.00066564795870083053 0 0.041526867092773478 0.0003175999228313478 0 0.039541592412072897 4.3063656389747132e-05 0 0.037388061819542212 0.00089797544112997843 0 0.038549424879869953 -0.00053655769793645636 0 0.036197589882462515 -0.00047441034622498925 0 0.037398247858400992 -2.1422838855535554e-05 0 0.039522428093634383 4.5436913754962208e-05 0 0.039895950254163745 0.00062018930130579189 0 0.039066230555246023 0.0007649376722423354 0 0.038549424879869953 -0.00053655769793645636 0 0.038111314358488697 0.00025871779946263313 0 0.038946131974955056 -6.3472697413327167e-05 0 0.038549424879869953 -0.00053655769793645636 0 0.039561709378127134 -0.00032136571654785778 0 0.038946131974955056 -6.3472697413327167e-05 0 0.040456419067965557 -0.00046790255369702477 0 0.040327718152697499 0.00017552729146126065 0 0.039561709378127134 -0.00032136571654785778 0 0.039541592412072897 4.3063656389747132e-05 0 0.039519819945862934 -0.00013486265066067527 0 0.037965606458701617 0.0019941181951351927 0 0.039189065020634649 0.0020662464892789575 0 0.033461644978355257 0.0032555674097599708 0 0.035340027388842954 0.0040464228857040518 0 0.03363236309766203 0.0045182772973081176 0 0.042474786044951952 0.00066295922180183012 0 0.042638263502503687 0.00067620202881607018 0 0.042393168763480871 0.0005575869792618591 0 0.042474786044951952 0.00066295922180183012 0 0.042338791424558736 0.0006633206711460488 0 0.042393168763480871 0.0005575869792618591 0 0.042984803564589336 0.00066564795870083053 0 0.039189065020634649 0.0020662464892789575 0 0.039031229336873613 0.0017455469783803571 0 0.039189065020634649 0.0020662464892789575 0 0.038743955467630424 0.00091154846961895969 0 0.03890902057549385 0.0031694198674221984 0 0.037123323974592629 0.0034723038040873054 0 0.039401239807154938 0.001222038038229394 0 0.038743955467630424 0.00091154846961895969 0 0.03890902057549385 0.0031694198674221984 0 0.039189065020634649 0.0020662464892789575 0 0.03511526928310206 0.0032319811281309959 0 0.037388061819542212 0.00089797544112997843 0 0.03511526928310206 0.0032319811281309959 0 0.03363236309766203 0.0045182772973081176 0 0.034479416139352487 0.0054043807426372653 0 0.033008774633315495 0.0056478741435789237 0 0.035340027388842954 0.0040464228857040518 0 0.03363236309766203 0.0045182772973081176 0 0.034479416139352487 0.0054043807426372653 0 0.03511526928310206 0.0032319811281309959 0 0.033441735239310613 0.0022991887382018471 0 0.034032507699898948 0.003148455449942327 0 0.033793998675136543 0.0035159049814637842 0 0.033626915644960238 0.0032191710673660969 0 0.035132682652648142 0.00022285364227823994 0 0.035406854233185597 0.0013878820492466027 0 0.034399538865409938 0.001332983798400801 0 0.03511526928310206 0.0032319811281309959 0 0.032754768396334601 0.0044986656337163604 0 0.037388061819542212 0.00089797544112997843 0 0.035185403770082467 0.00096907115188029746 0 0.036197589882462515 -0.00047441034622498925 0 0.035406854233185597 0.0013878820492466027 0 0.036666077646727781 0.00078949050383705097 0 0.035884094003236139 0.00010061875392192152 0 0.035132682652648142 0.00022285364227823994 0 0.035406854233185597 0.0013878820492466027 0 0.035406854233185597 0.0013878820492466027 0 0.036666077646727781 0.00078949050383705097 0 0.036307952632271538 0.0019168914079613416 0 0.035371956239514495 0.0019896062883721804 0 0.035406854233185597 0.0013878820492466027 0 0.036307952632271538 0.0019168914079613416 0 0.033330721003759722 0.00050989264163592328 0 0.032635912328902866 0.0016186548460009433 0 0.033483360360581603 0.0019819049753955695 0 0.035371956239514495 0.0019896062883721804 0 0.035406854233185597 0.0013878820492466027 0 0.034399538865409938 0.001332983798400801 0 0.038111314358488697 0.00025871779946263313 0 0.038487364915621707 -6.0753605302896726e-05 0 0.038724566710863995 0.00015883070656238599 0 0.038111314358488697 0.00025871779946263313 0 0.038724566710863995 0.00015883070656238599 0 0.038946131974955056 -6.3472697413327167e-05 0 0.038549424879869953 -0.00053655769793645636 0 0.038111314358488697 0.00025871779946263313 0 0.037398247858400992 -2.1422838855535554e-05 0 0.038111314358488697 0.00025871779946263313 0 0.036666077646727781 0.00078949050383705097 0 0.03727199054067535 0.0014569721821516401 0 0.036197589882462515 -0.00047441034622498925 0 0.037398247858400992 -2.1422838855535554e-05 0 0.036666077646727781 0.00078949050383705097 0 0.038111314358488697 0.00025871779946263313 0 0.037398247858400992 -2.1422838855535554e-05 0 0.036666077646727781 0.00078949050383705097 0 0.036666077646727781 0.00078949050383705097 0 0.03727199054067535 0.0014569721821516401 0 0.036307952632271538 0.0019168914079613416 0 0.03727199054067535 0.0014569721821516401 0 0.036307952632271538 0.0019168914079613416 0 0.03725155748943676 0.0024579081721330968 0 0.038117453892162284 0.00028983765000024117 0 0.038124359616566683 0.00076663079411285362 0 0.038111314358488697 0.00025871779946263313 0 0.03727199054067535 0.0014569721821516401 0 0.038017168392018297 0.0018798472373896286 0 0.03727199054067535 0.0014569721821516401 0 0.038017168392018297 0.0018798472373896286 0 0.03725155748943676 0.0024579081721330968 0 0.038487364915621707 -6.0753605302896726e-05 0 0.038533702395761107 0.00018247645074246285 0 0.037571412504209624 0.00014168834125212828 0 0.038487364915621707 -6.0753605302896726e-05 0 0.038533702395761107 0.00018247645074246285 0 0.038724566710863995 0.00015883070656238599 0 0.038533702395761107 0.00018247645074246285 0 0.03910964034376458 -1.6722259835434276e-05 0 0.038754158285362356 0.00014537757523347305 0 0.038533702395761107 0.00018247645074246285 0 0.038724566710863995 0.00015883070656238599 0 0.03910964034376458 -1.6722259835434276e-05 0 0.037571412504209624 0.00014168834125212828 0 0.037992913770587527 0.00022800960257285239 0 0.038754158285362356 0.00014537757523347305 0 0.038533702395761107 0.00018247645074246285 0 0.037571412504209624 0.00014168834125212828 0 0.038754158285362356 0.00014537757523347305 0 0.037571412504209624 0.00014168834125212828 0 0.034970106561693526 3.2359036641834079e-07 0 0.037992913770587527 0.00022800960257285239 0 0.037571412504209624 0.00014168834125212828 0 0.034970106561693526 3.2359036641834079e-07 0 0.035137451067255965 -0.00016545384986919214 0 0.04103764985566024 0.00028158984254738218 0 0.039176864392577816 9.3343691172780574e-07 0 0.039510384333115739 0.00019436120320337298 0 0.037992913770587527 0.00022800960257285239 0 0.039176864392577816 9.3343691172780574e-07 0 0.039510384333115739 0.00019436120320337298 0 0.034970106561693526 3.2359036641834079e-07 0 0.037992913770587527 0.00022800960257285239 0 0.039176864392577816 9.3343691172780574e-07 0 0.04103764985566024 0.00028158984254738218 0 0.039510384333115739 0.00019436120320337298 0 0.040657384453043233 0.00032104886973377761 0 0.039510384333115739 0.00019436120320337298 0 0.040657384453043233 0.00032104886973377761 0 0.039613355319927414 5.6387135344363261e-05 0 0.040657384453043233 0.00032104886973377761 0 0.040327718152697499 0.00017552729146126065 0 0.039613355319927414 5.6387135344363261e-05 0 0.041236067050080628 0.00044452836084646894 0 0.040657384453043233 0.00032104886973377761 0 0.040327718152697499 0.00017552729146126065 0 0.040327718152697499 0.00017552729146126065 0 0.039613355319927414 5.6387135344363261e-05 0 0.039561709378127134 -0.00032136571654785778 0 0.039613355319927414 5.6387135344363261e-05 0 0.039561709378127134 -0.00032136571654785778 0 0.03910964034376458 -1.6722259835434276e-05 0 0.038724566710863995 0.00015883070656238599 0 0.038946131974955056 -6.3472697413327167e-05 0 0.03910964034376458 -1.6722259835434276e-05 0 0.039561709378127134 -0.00032136571654785778 0 0.038946131974955056 -6.3472697413327167e-05 0 0.03910964034376458 -1.6722259835434276e-05 0 0.039613355319927414 5.6387135344363261e-05 0 0.03910964034376458 -1.6722259835434276e-05 0 0.038754158285362356 0.00014537757523347305 0 0.039510384333115739 0.00019436120320337298 0 0.039613355319927414 5.6387135344363261e-05 0 0.038754158285362356 0.00014537757523347305 0 0.037992913770587527 0.00022800960257285239 0 0.039510384333115739 0.00019436120320337298 0 0.038754158285362356 0.00014537757523347305 0 0.02996780985566207 0.00083872962464606716 0 0.02923970053874703 0.00084404310593617774 0 0.030100156240909271 0.0013660591976223763 0 0.029466258730440509 0.00094358794490496793 0 0.03059879274885146 0.00060381674330680876 0 0.030100156240909271 0.0013660591976223763 0 0.03059879274885146 0.00060381674330680876 0 0.030919367306611177 0.0014619766006565874 0 0.029466258730440509 0.00094358794490496793 0 0.028956530351358575 0.0013908660554722858 0 0.029448286199486477 0.0015510497667399438 0 0.030100156240909271 0.0013660591976223763 0 0.029466258730440509 0.00094358794490496793 0 0.029448286199486477 0.0015510497667399438 0 0.028956530351358575 0.0013908660554722858 0 0.029448286199486477 0.0015510497667399438 0 0.029078064487092506 0.0020761789269607557 0 0.030100156240909271 0.0013660591976223763 0 0.029448286199486477 0.0015510497667399438 0 0.02973584938534965 0.0018472197823592971 0 0.02973584938534965 0.0018472197823592971 0 0.029483131688658959 0.0025278444897580167 0 0.029078064487092506 0.0020761789269607557 0 0.029448286199486477 0.0015510497667399438 0 0.02973584938534965 0.0018472197823592971 0 0.029078064487092506 0.0020761789269607557 0 0.02973584938534965 0.0018472197823592971 0 0.030481290340984884 0.0018769146664083828 0 0.029483131688658959 0.0025278444897580167 0 0.030100156240909271 0.0013660591976223763 0 0.02973584938534965 0.0018472197823592971 0 0.030481290340984884 0.0018769146664083828 0 0.030100156240909271 0.0013660591976223763 0 0.030481290340984884 0.0018769146664083828 0 0.030919367306611177 0.0014619766006565874 0 0.039140050229538127 0.0018770947601185646 0 0.038432584744376018 0.00098052633207685951 0 0.03952700552232595 0.00091908349028946594 0 0.030481290340984884 0.0018769146664083828 0 0.029483131688658959 0.0025278444897580167 0 0.030744320182909721 0.0025876465378915146 0 0.032231563897752245 0.0019036361423680345 0 0.039096191126600024 0.0013681565267416045 0 0.043220093900259923 0.00048961408655892851 0 0.039096191126600024 0.0013681565267416045 0 0.044999981612107665 -1.223856806290273e-09 0 0.044996273231603962 -3.5047316989076118e-07 0 0.044980901954925656 -4.6496342738594786e-07 0 0.044996847525233398 -3.1555690480537586e-07 0 0.043220093900259923 0.00048961408655892851 0 0.044999990769169093 1.1851154029414666e-09 0 0.044997289028810936 1.2517341369439881e-06 0 0.044999998148904534 1.5972306785369458e-09 0 0.043220093900259923 0.00048961408655892851 0 0.044999753020867957 8.6442880725083328e-07 0 0.039140050229538127 0.0018770947601185646 0 0.038241707995054379 0.0014599319072278278 0 0.038432584744376018 0.00098052633207685951 0 0.043220093900259923 0.00048961408655892851 0 0.041986396738003945 0.00086106381626271889 0 0.044999981612107665 -1.223856806290273e-09 0 0.044980901954925656 -4.6496342738594786e-07 0 0.044999931756024923 1.0794746538874242e-08 0 0.041986396738003945 0.00086106381626271889 0 0.03782177977179902 0.00073089457567662177 0 0.038241707995054379 0.0014599319072278278 0 0.038432584744376018 0.00098052633207685951 0 0.037359723279225016 0.0010301161166326952 0 0.029483131688658959 0.0025278444897580167 0 0.028822672708893455 0.0021377116796703396 0 0.029078064487092506 0.0020761789269607557 0 0.032231563897752245 0.0019036361423680345 0 0.03782177977179902 0.00073089457567662177 0 0.028836314116702531 0.002203202206