<?xml version="1.0"?>
<VTKFile type="UnstructuredGrid" version="0.1" byte_order="LittleEndian">
<UnstructuredGrid>
<Piece NumberOfPoints="30881" NumberOfCells="10862">
<Points>
<DataArray type="Float64" NumberOfComponents="3" format="ascii">
-0.49999999999999828 -0.48677703703187492 0 -0.5 -0.5 0 -0.48129281494584059 -0.49338851851593718 0 -0.5 -0.5 0 -0.48129281494584059 -0.49338851851593718 0 -0.46258562989168328 -0.5 0 -0.49999999999999828 -0.48677703703187492 0 -0.48129281494584059 -0.49338851851593718 0 -0.49999999999999828 -0.48677703703187492 0 -0.4824545428279598 -0.47451624516148783 0 -0.48129281494584059 -0.49338851851593718 0 -0.49999999999999828 -0.48677703703187492 0 -0.4824545428279598 -0.47451624516148783 0 -0.5 -0.46599539173150673 0 -0.4824545428279598 -0.47451624516148783 0 -0.46853075243710779 -0.48354990242643758 0 -0.46411508256092049 -0.46598235294430129 0 -0.4824545428279598 -0.47451624516148783 0 -0.48129281494584059 -0.49338851851593718 0 -0.46853075243710779 -0.48354990242643758 0 -0.48129281494584059 -0.49338851851593718 0 -0.46258562989168328 -0.5 0 -0.48129281494584059 -0.49338851851593718 0 -0.46258562989168328 -0.5 0 -0.46853075243710779 -0.48354990242643758 0 -0.46258562989168328 -0.5 0 -0.46853075243710779 -0.48354990242643758 0 -0.45147378687733691 -0.48362213557840178 0 -0.46853075243710779 -0.48354990242643758 0 -0.45147378687733691 -0.48362213557840178 0 -0.46411508256092049 -0.46598235294430129 0 -0.4457251648104853 -0.47020164095208389 0 -0.45147378687733691 -0.48362213557840178 0 -0.46411508256092049 -0.46598235294430129 0 -0.4457251648104853 -0.47020164095208389 0 -0.45147378687733691 -0.48362213557840178 0 -0.43513446131126993 -0.48199891714758791 0 -0.45147378687733691 -0.48362213557840178 0 -0.43275163025255442 -0.5 0 -0.43513446131126993 -0.48199891714758791 0 -0.46258562989168328 -0.5 0 -0.45147378687733691 -0.48362213557840178 0 -0.43275163025255442 -0.5 0 -0.4467190029717853 -0.45478934699519452 0 -0.4422915115958943 -0.43555510214664611 0 -0.43246707723660932 -0.44794326854796312 0 -0.4457251648104853 -0.47020164095208389 0 -0.4467190029717853 -0.45478934699519452 0 -0.46411508256092049 -0.46598235294430129 0 -0.4457251648104853 -0.47020164095208389 0 -0.4467190029717853 -0.45478934699519452 0 -0.43016578207734568 -0.46313500011938619 0 -0.4467190029717853 -0.45478934699519452 0 -0.46411508256092049 -0.46598235294430129 0 -0.47114575579794699 -0.4403844242888923 0 -0.4467190029717853 -0.45478934699519452 0 -0.47114575579794699 -0.4403844242888923 0 -0.4422915115958943 -0.43555510214664611 0 -0.47114575579794699 -0.4403844242888923 0 -0.4422915115958943 -0.43555510214664611 0 -0.46411508256092049 -0.46598235294430129 0 -0.47114575579794699 -0.4403844242888923 0 -0.48354307623736548 -0.45841843211146538 0 -0.4824545428279598 -0.47451624516148783 0 -0.46411508256092049 -0.46598235294430129 0 -0.48354307623736548 -0.45841843211146538 0 -0.4824545428279598 -0.47451624516148783 0 -0.48354307623736548 -0.45841843211146538 0 -0.5 -0.46599539173150673 0 -0.48354307623736548 -0.45841843211146538 0 -0.5 -0.46599539173150673 0 -0.49999999999999972 -0.44521374643113848 0 -0.47114575579794699 -0.4403844242888923 0 -0.49999999999999972 -0.44521374643113848 0 -0.47114575579794699 -0.4403844242888923 0 -0.49999999999999972 -0.44521374643113848 0 -0.48704432221743971 -0.42935617662229603 0 -0.47114575579794699 -0.4403844242888923 0 -0.48354307623736548 -0.45841843211146538 0 -0.49999999999999972 -0.44521374643113848 0 -0.49999999999999972 -0.44521374643113848 0 -0.48704432221743971 -0.42935617662229603 0 -0.5 -0.41591957503128979 0 -0.48704432221743971 -0.42935617662229603 0 -0.5 -0.41591957503128979 0 -0.47703153307181151 -0.41590696073786332 0 -0.5 -0.41591957503128979 0 -0.47703153307181151 -0.41590696073786332 0 -0.48817838912021821 -0.4022119694541284 0 -0.47114575579794699 -0.4403844242888923 0 -0.48704432221743971 -0.42935617662229603 0 -0.47703153307181151 -0.41590696073786332 0 -0.5 -0.38662540363144121 0 -0.47568202340906118 -0.39039593841591919 0 -0.4947615751445838 -0.37332156409002909 0 -0.47568202340906118 -0.39039593841591919 0 -0.4947615751445838 -0.37332156409002909 0 -0.5 -0.38662540363144121 0 -0.48817838912021821 -0.4022119694541284 0 -0.47568202340906118 -0.39039593841591919 0 -0.5 -0.41591957503128979 0 -0.5 -0.38662540363144121 0 -0.48817838912021821 -0.4022119694541284 0 -0.47703153307181151 -0.41590696073786332 0 -0.48817838912021821 -0.4022119694541284 0 -0.47568202340906118 -0.39039593841591919 0 -0.47703153307181151 -0.41590696073786332 0 -0.47568202340906118 -0.39039593841591919 0 -0.45660247167353862 -0.40747031274180939 0 -0.47568202340906118 -0.39039593841591919 0 -0.48030931097003587 -0.37191064435083931 0 -0.46669490250066459 -0.37481721741951951 0 -0.47568202340906118 -0.39039593841591919 0 -0.4947615751445838 -0.37332156409002909 0 -0.48030931097003587 -0.37191064435083931 0 -0.45332061783919553 -0.38729481725706361 0 -0.46669490250066459 -0.37481721741951951 0 -0.45095991715087752 -0.36968037302039969 0 -0.47568202340906118 -0.39039593841591919 0 -0.45332061783919553 -0.38729481725706361 0 -0.46669490250066459 -0.37481721741951951 0 -0.47568202340906118 -0.39039593841591919 0 -0.45660247167353862 -0.40747031274180939 0 -0.47568202340906118 -0.39039593841591919 0 -0.45332061783919553 -0.38729481725706361 0 -0.45660247167353862 -0.40747031274180939 0 -0.44332653075004852 -0.401690115615219 0 -0.44646247228389868 -0.41654464256061052 0 -0.42870657106664078 -0.39987574649354879 0 -0.45332061783919553 -0.38729481725706361 0 -0.44332653075004852 -0.401690115615219 0 -0.43479631603355468 -0.39077639303142497 0 -0.45332061783919553 -0.38729481725706361 0 -0.44332653075004852 -0.401690115615219 0 -0.45660247167353862 -0.40747031274180939 0 -0.45332061783919553 -0.38729481725706361 0 -0.43421362475025049 -0.37527491429266319 0 -0.43479631603355468 -0.39077639303142497 0 -0.45332061783919553 -0.38729481725706361 0 -0.43421362475025049 -0.37527491429266319 0 -0.45095991715087752 -0.36968037302039969 0 -0.47114575579794699 -0.4403844242888923 0 -0.45663439814062529 -0.42533932462455271 0 -0.4422915115958943 -0.43555510214664611 0 -0.47114575579794699 -0.4403844242888923 0 -0.47703153307181151 -0.41590696073786332 0 -0.45663439814062529 -0.42533932462455271 0 -0.45663439814062529 -0.42533932462455271 0 -0.45660247167353862 -0.40747031274180939 0 -0.44646247228389868 -0.41654464256061052 0 -0.47703153307181151 -0.41590696073786332 0 -0.45663439814062529 -0.42533932462455271 0 -0.45660247167353862 -0.40747031274180939 0 -0.44332653075004852 -0.401690115615219 0 -0.45660247167353862 -0.40747031274180939 0 -0.44646247228389868 -0.41654464256061052 0 -0.45660247167353862 -0.40747031274180939 0 -0.44646247228389868 -0.41654464256061052 0 -0.44646247228389868 -0.41654464256061052 0 -0.4375229199380159 -0.42454468706769971 0 -0.45663439814062529 -0.42533932462455271 0 -0.4375229199380159 -0.42454468706769971 0 -0.4422915115958943 -0.43555510214664611 0 -0.45663439814062529 -0.42533932462455271 0 -0.44646247228389868 -0.41654464256061052 0 -0.4375229199380159 -0.42454468706769971 0 -0.4375229199380159 -0.42454468706769971 0 -0.4422915115958943 -0.43555510214664611 0 -0.43077617074680319 -0.43406335077952207 0 -0.43077617074680319 -0.43406335077952207 0 -0.42550232634077589 -0.42345940056268039 0 -0.41950844772475421 -0.43888456563633732 0 -0.4375229199380159 -0.42454468706769971 0 -0.43077617074680319 -0.43406335077952207 0 -0.42550232634077589 -0.42345940056268039 0 -0.44646247228389868 -0.41654464256061052 0 -0.41657232816672918 -0.41306671883907142 0 -0.42870657106664078 -0.39987574649354879 0 -0.44646247228389868 -0.41654464256061052 0 -0.4375229199380159 -0.42454468706769971 0 -0.42550232634077589 -0.42345940056268039 0 -0.44646247228389868 -0.41654464256061052 0 -0.42550232634077589 -0.42345940056268039 0 -0.41657232816672918 -0.41306671883907142 0 -0.44646247228389868 -0.41654464256061052 0 -0.41657232816672918 -0.41306671883907142 0 -0.42550232634077589 -0.42345940056268039 0 -0.41657232816672918 -0.41306671883907142 0 -0.41333489101611293 -0.42699700567040988 0 -0.41657232816672918 -0.41306671883907142 0 -0.41333489101611293 -0.42699700567040988 0 -0.39893236021425188 -0.42931692235905211 0 -0.41333489101611293 -0.42699700567040988 0 -0.39893236021425188 -0.42931692235905211 0 -0.41950844772475421 -0.43888456563633732 0 -0.42550232634077589 -0.42345940056268039 0 -0.41333489101611293 -0.42699700567040988 0 -0.41950844772475421 -0.43888456563633732 0 -0.43421362475025049 -0.37527491429266319 0 -0.42478231784314502 -0.38643128255249681 0 -0.41656514696884139 -0.37636588688318029 0 -0.43421362475025049 -0.37527491429266319 0 -0.42478231784314502 -0.38643128255249681 0 -0.43479631603355468 -0.39077639303142497 0 -0.42478231784314502 -0.38643128255249681 0 -0.43479631603355468 -0.39077639303142497 0 -0.42870657106664078 -0.39987574649354879 0 -0.44332653075004852 -0.401690115615219 0 -0.43479631603355468 -0.39077639303142497 0 -0.42870657106664078 -0.39987574649354879 0 -0.41657232816672918 -0.41306671883907142 0 -0.40962993039643741 -0.3898634720616666 0 -0.3946356370269814 -0.39577424904278191 0 -0.42478231784314502 -0.38643128255249681 0 -0.42870657106664078 -0.39987574649354879 0 -0.40962993039643741 -0.3898634720616666 0 -0.41657232816672918 -0.41306671883907142 0 -0.42870657106664078 -0.39987574649354879 0 -0.40962993039643741 -0.3898634720616666 0 -0.42478231784314502 -0.38643128255249681 0 -0.40962993039643741 -0.3898634720616666 0 -0.41656514696884139 -0.37636588688318029 0 -0.40962993039643741 -0.3898634720616666 0 -0.41656514696884139 -0.37636588688318029 0 -0.40465459864295228 -0.37650109000307358 0 -0.39431275766669582 -0.38061373190328529 0 -0.40465459864295228 -0.37650109000307358 0 -0.3968495855878465 -0.36923685638487008 0 -0.40962993039643741 -0.3898634720616666 0 -0.39431275766669582 -0.38061373190328529 0 -0.40465459864295228 -0.376501090003
[...]
<PointData Scalars="" Vectors="displacement," Tensors="">
<DataArray type="Float64" Name="displacement" NumberOfComponents="3" format="ascii">
-0.092496197777822961 -0.094998425562411754 0 -0.094994999894805032 -0.094999619241597333 0 -0.095750262108778419 -0.091863281329815305 0 -0.094994999894805032 -0.094999619241597333 0 -0.095750262108778419 -0.091863281329815305 0 -0.095001424542127788 -0.08789360704597203 0 -0.092491532851298672 -0.094993462897674019 0 -0.093690728113630065 -0.091376571580937163 0 -0.092479994983536193 -0.094995970721616821 0 -0.090550945577909325 -0.091944893981238812 0 -0.091018203117643387 -0.090689917984936794 0 -0.092479994983536193 -0.094995970721616821 0 -0.090550945577909325 -0.091944893981238812 0 -0.088539979047866688 -0.094996762946933766 0 -0.090550945577909325 -0.091944893981238812 0 -0.091668817656687648 -0.088965286718294748 0 -0.090220335466419208 -0.08887369357107025 0 -0.090550945577909325 -0.091944893981238812 0 -0.091018203117643387 -0.090689917984936794 0 -0.091668817656687648 -0.088965286718294748 0 -0.093690728113630065 -0.091376571580937163 0 -0.094995806476978278 -0.087897577937294025 0 -0.091018203117643387 -0.090689917984936794 0 -0.094987071592146061 -0.087888944911399342 0 -0.091668817656687648 -0.088965286718294748 0 -0.094987071592146061 -0.087888944911399342 0 -0.091668817656687648 -0.088965286718294748 0 -0.092654077902567231 -0.086652629651472565 0 -0.091668817656687648 -0.088965286718294748 0 -0.092654077902567231 -0.086652629651472565 0 -0.090220335466419208 -0.08887369357107025 0 -0.091097651541441407 -0.086523231458508085 0 -0.092654077902567231 -0.086652629651472565 0 -0.090220335466419208 -0.08887369357107025 0 -0.091097651541441407 -0.086523231458508085 0 -0.092654077902567231 -0.086652629651472565 0 -0.09272469396662629 -0.084264400986454879 0 -0.092654077902567231 -0.086652629651472565 0 -0.094998171199143111 -0.082227844046860343 0 -0.09272469396662629 -0.084264400986454879 0 -0.094987071592146061 -0.087888944911399342 0 -0.092654077902567231 -0.086652629651472565 0 -0.094998171199143111 -0.082227844046860343 0 -0.089431734022158108 -0.087495238676601014 0 -0.086173166663720283 -0.088847924765311129 0 -0.08807490590171467 -0.086964545034417348 0 -0.091097651541441407 -0.086523231458508085 0 -0.089431734022158108 -0.087495238676601014 0 -0.090220335466419208 -0.08887369357107025 0 -0.091097651541441407 -0.086523231458508085 0 -0.089431734022158108 -0.087495238676601014 0 -0.090019905234438341 -0.08554035565814766 0 -0.089431734022158108 -0.087495238676601014 0 -0.090220335466419208 -0.08887369357107025 0 -0.089692680176490888 -0.089819544087391623 0 -0.089431734022158108 -0.087495238676601014 0 -0.089692680176490888 -0.089819544087391623 0 -0.086173166663720283 -0.088847924765311129 0 -0.085314413186366775 -0.092669738780590094 0 -0.08554213608668812 -0.091832422817178919 0 -0.090220335466419208 -0.08887369357107025 0 -0.089692680176490888 -0.089819544087391623 0 -0.088635235873775656 -0.092475755580748387 0 -0.090550945577909325 -0.091944893981238812 0 -0.090220335466419208 -0.08887369357107025 0 -0.088635235873775656 -0.092475755580748387 0 -0.090550945577909325 -0.091944893981238812 0 -0.088635235873775656 -0.092475755580748387 0 -0.088539979047866688 -0.094996762946933766 0 -0.088635235873775656 -0.092475755580748387 0 -0.088539979047866688 -0.094996762946933766 0 -0.08460284072824914 -0.094996854654530213 0 -0.085314413186366775 -0.092669738780590094 0 -0.084591885614364773 -0.094996384243020773 0 -0.08194734711120584 -0.095505934126128122 0 -0.084585065490287936 -0.094999355782090483 0 -0.081700069044501361 -0.09565773313090728 0 -0.089692680176490888 -0.089819544087391623 0 -0.088635235873775656 -0.092475755580748387 0 -0.08460284072824914 -0.094996854654530213 0 -0.084585065490287936 -0.094999355782090483 0 -0.081700069044501361 -0.09565773313090728 0 -0.079028502229179717 -0.09499813261732043 0 -0.081700069044501361 -0.09565773313090728 0 -0.079028502229179717 -0.09499813261732043 0 -0.081329525187428378 -0.095658630839414366 0 -0.079028502229179717 -0.09499813261732043 0 -0.081329525187428378 -0.095658630839414366 0 -0.07780075435823694 -0.095649898881502132 0 -0.08194734711120584 -0.095505934126128122 0 -0.081700069044501361 -0.09565773313090728 0 -0.081329525187428378 -0.095658630839414366 0 -0.073462247971670419 -0.09499855566810704 0 -0.076998975737341893 -0.096792064387736326 0 -0.071395457519476763 -0.095781238185753959 0 -0.07679085365487523 -0.095119453629993661 0 -0.075221295800417878 -0.094632525345190122 0 -0.073462247971670419 -0.09499855566810704 0 -0.07780075435823694 -0.095649898881502132 0 -0.076998975737341893 -0.096792064387736326 0 -0.079028502229179717 -0.09499813261732043 0 -0.073462247971670419 -0.09499855566810704 0 -0.07780075435823694 -0.095649898881502132 0 -0.081329525187428378 -0.095658630839414366 0 -0.07780075435823694 -0.095649898881502132 0 -0.076998975737341893 -0.096792064387736326 0 -0.081329525187428378 -0.095658630839414366 0 -0.076998975737341893 -0.096792064387736326 0 -0.082589940217756244 -0.094601996201844465 0 -0.0749783068153584 -0.098947896339124874 0 -0.071917570087540655 -0.098053993124367606 0 -0.073200009690861129 -0.099797023714414304 0 -0.0749783068153584 -0.098947896339124874 0 -0.071395457519476763 -0.095781238185753959 0 -0.071917570087540655 -0.098053993124367606 0 -0.075012676139234402 -0.10091550869679217 0 -0.073200009690861129 -0.099797023714414304 0 -0.073783097058915642 -0.10089172517137947 0 -0.0749783068153584 -0.098947896339124874 0 -0.075012676139234402 -0.10091550869679217 0 -0.073200009690861129 -0.099797023714414304 0 -0.07679085365487523 -0.095119453629993661 0 -0.07949415999761085 -0.094836119598781812 0 -0.0749783068153584 -0.098947896339124874 0 -0.075012676139234402 -0.10091550869679217 0 -0.075712905445095471 -0.10089329346167698 0 -0.075517711057626877 -0.10117814956635293 0 -0.075111850705270225 -0.10132444500977443 0 -0.075466514578362509 -0.10072627731729002 0 -0.075012676139234402 -0.10091550869679217 0 -0.075517711057626877 -0.10117814956635293 0 -0.075906207042675769 -0.10112298971273301 0 -0.075012676139234402 -0.10091550869679217 0 -0.075517711057626877 -0.10117814956635293 0 -0.075712905445095471 -0.10089329346167698 0 -0.075012676139234402 -0.10091550869679217 0 -0.076009763721568868 -0.10138780082126486 0 -0.075906207042675769 -0.10112298971273301 0 -0.075012676139234402 -0.10091550869679217 0 -0.076009763721568868 -0.10138780082126486 0 -0.073783097058915642 -0.10089172517137947 0 -0.08194734711120584 -0.095505934126128122 0 -0.084134760103128536 -0.092944912993119175 0 -0.086173166663720283 -0.088847924765311129 0 -0.08194734711120584 -0.095505934126128122 0 -0.081329525187428378 -0.095658630839414366 0 -0.084134760103128536 -0.092944912993119175 0 -0.084134760103128536 -0.092944912993119175 0 -0.082589940217756244 -0.094601996201844465 0 -0.084888536323521155 -0.091815509514875715 0 -0.081329525187428378 -0.095658630839414366 0 -0.084134760103128536 -0.092944912993119175 0 -0.082589940217756244 -0.094601996201844465 0 -0.075517711057626877 -0.10117814956635293 0 -0.075712905445095471 -0.10089329346167698 0 -0.075111850705270225 -0.10132444500977443 0 -0.07949415999761085 -0.094836119598781812 0 -0.081285506538625346 -0.094353483267008362 0 -0.081285506538625346 -0.094353483267008362 0 -0.081314704440548183 -0.093807659134917204 0 -0.084134760103128536 -0.092944912993119175 0 -0.086352728265961964 -0.08886137522309373 0 -0.086173166663720283 -0.088847924765311129 0 -0.084134760103128536 -0.092944912993119175 0 -0.084888536323521155 -0.091815509514875715 0 -0.086352728265961964 -0.08886137522309373 0 -0.086352728265961964 -0.08886137522309373 0 -0.086173166663720283 -0.088847924765311129 0 -0.086677539966318357 -0.087507354902342752 0 -0.086677539966318357 -0.087507354902342752 0 -0.086691221454001682 -0.08710337481403245 0 -0.087132834279091589 -0.086225055976897211 0 -0.086352728265961964 -0.08886137522309373 0 -0.086677539966318357 -0.087507354902342752 0 -0.086691221454001682 -0.08710337481403245 0 -0.075111850705270225 -0.10132444500977443 0 -0.073890053099103958 -0.099521010908172294 0 -0.075466514578362509 -0.10072627731729002 0 -0.087514903922601001 -0.089892082377587959 0 -0.086352728265961964 -0.08886137522309373 0 -0.086691221454001682 -0.08710337481403245 0 -0.087514903922601001 -0.089892082377587959 0 -0.086691221454001682 -0.08710337481403245 0 -0.087255100129918287 -0.086038632925987416 0 -0.081285506538625346 -0.094353483267008362 0 -0.080631683597805773 -0.092546349196133082 0 -0.086691221454001682 -0.08710337481403245 0 -0.087255100129918287 -0.086038632925987416 0 -0.086644374493805479 -0.086022778005666517 0 -0.087255100129918287 -0.086038632925987416 0 -0.086644374493805479 -0.086022778005666517 0 -0.086144611323741738 -0.085307786208539779 0 -0.086644374493805479 -0.086022778005666517 0 -0.086144611323741738 -0.085307786208539779 0 -0.087132834279091589 -0.086225055976897211 0 -0.086691221454001682 -0.08710337481403245 0 -0.086644374493805479 -0.086022778005666517 0 -0.087132834279091589 -0.086225055976897211 0 -0.076009763721568868 -0.10138780082126486 0 -0.07672133692577221 -0.10063229737160763 0 -0.078129208137983075 -0.10037963403945938 0 -0.076009763721568868 -0.10138780082126486 0 -0.07672133692577221 -0.10063229737160763 0 -0.075906207042675769 -0.10112298971273301 0 -0.07672133692577221 -0.10063229737160763 0 -0.075906207042675769 -0.10112298971273301 0 -0.075466514578362509 -0.10072627731729002 0 -0.075517711057626877 -0.10117814956635293 0 -0.075906207042675769 -0.10112298971273301 0 -0.075466514578362509 -0.10072627731729002 0 -0.073890053099103958 -0.099521010908172294 0 -0.077278183807021686 -0.098453336875184802 0 -0.077022649629347475 -0.094565545662357461 0 -0.07672133692577221 -0.10063229737160763 0 -0.075466514578362509 -0.10072627731729002 0 -0.077278183807021686 -0.098453336875184802 0 -0.073890053099103958 -0.099521010908172294 0 -0.075466514578362509 -0.10072627731729002 0 -0.077278183807021686 -0.098453336875184802 0 -0.07672133692577221 -0.10063229737160763 0 -0.077278183807021686 -0.098453336875184802 0 -0.078129208137983075 -0.10037963403945938 0 -0.077278183807021686 -0.098453336875184802 0 -0.078129208137983075 -0.10037963403945938 0 -0.079713800128060688 -0.097849650606805116 0 -0.079993177704331328 -0.094726014391752392 0 -0.079713800128060688 -0.097849650606805116 0 -0.08250540066125224 -0.095729219708893601 0 -0.077278183807021686 -0.098453336875184802 0 -0.079993177704331328 -0.094726014391752392 0 -0.079713800128060688 -0.097849650606805116 0 -0.077278183807021686 -0.098453336875184802 0 -0.079993177704331328 -0.094726014391752392 0 -0.077022649629347475 -0.094565545662357461 0 -0.077022649629347475 -0.094565545662357461 0 -0.074240251686227415 -0.092219307279518076 0 -0.078390331688317424 -0.088618244148351996 0 -0.077022649629347475 -0.094565545662357461 0 -0.081379709746550746 -0.088630944761444175 0 -0.078390331688317424 -0.088618244148351996 0 -0.079993177704331328 -0.094726014391752392 0 -0.077022649629347475 -0.094565545662357461 0 -0.081379709746550746 -0.088630944761444175 0 -0.079993177704331328 -0.094726014391752392 0 -0.081379709746550746 -0.088630944761444175 0 -0.083455917173346578 -0.091943296482500964 0 -0.087255100129918287 -0.086038632925987416 0 -0.086144611323741738 -0.085307786208539779 0 -0.0849090181049586 -0.084867411996927281 0 -0.073890053099103958 -0.099521010908172294 0 -0.077022649629347475 -0.094565545662357461 0 -0.074240251686227415 -0.092219307279518076 0 -0.080631683597805773 -0.092546349196133082 0 -0.080168971519891233 -0.090167518755059892 0 -0.0849090181049586 -0.084867411996927281 0 -0.085145685449890443 -0.085201642716790718 0 -0.082947308086356808 -0.085325198240950986 0 -0.085145685449890443 -0.085201642716790718 0 -0.086753176477568431 -0.085541926539074539 0 -0.084935032690635515 -0.085678423559407219 0 -0.086144611323741738 -0.085307786208539779 0 -0.085145685449890443 -0.085201642716790718 0 -0.086753176477568431 -0.085541926539074539 0 -0.086144611323741738 -0.085307786208539779 0 -0.0849090181049586 -0.084867411996927281 0 -0.085145685449890443 -0.085201642716790718 0 -0.086753176477568431 -0.085541926539074539 0 -0.087890807879888039 -0.085301938063033836 0 -0.08901407293131533 -0.085568599979789911 0 -0.086144611323741738 -0.085307786208539779 0 -0.086753176477568431 -0.085541926539074539 0 -0.087890807879888039 -0.085301938063033836 0 -0.087890807879888039 -0.085301938063033836 0 -0.08901407293131533 -0.085568599979789911 0 -0.090216702520311498 -0.084631526613089939 0 -0.086753176477568431 -0.085541926539074539 0 -0.08901407293131533 -0.085568599979789911 0 -0.088398964666934809 -0.086479387247440392 0 -0.08901407293131533 -0.085568599979789911 0 -0.090665717764204609 -0.08639109753227793 0 -0.088398964666934809 -0.086479387247440392 0 -0.090665717764204609 -0.08639109753227793 0 -0.09314495782713185 -0.0855443178645615 0 -0.09089994757933452 -0.085198122678072627 0 -0.08901407293131533 -0.085568599979789911 0 -0.090665717764204609 -0.08639109753227793 0 -0.09089994757933452 -0.085198122678072627 0 -0.09413791008583311 -0.07733766016972568 0 -0.093637613732716646 -0.072667529694853308 0 -0.096455709678331697 -0.074364422743811262 0 -0.094997062933391191 -0.076559833475860581 0 -0.095001708594691203 -0.070882740584357604 0 -0.096455709678331697 -0.074364422743811262 0 -0.096068879936809626 -0.070412343317446821 0 -0.095001708594691203 -0.070882740584357604 0 -0.090665717764204609 -0.08639109753227793 0 -0.09314495782713185 -0.0855443178645615 0 -0.092579162984302882 -0.087433798422618544 0 -0.09413791008583311 -0.07733766016972568 0 -0.094265955737403997 -0.078261308330024579 0 -0.09314495782713185 -0.0855443178645615 0 -0.09089994757933452 -0.085198122678072627 0 -0.091938879194864084 -0.083690428579098378 0 -0.096455709678331697 -0.074364422743811262 0 -0.094997062933391191 -0.076559833475860581 0 -0.09476761841713166 -0.080508161505925935 0 -0.09314495782713185 -0.0855443178645615 0 -0.091938879194864084 -0.083690428579098378 0 -0.09476761841713166 -0.080508161505925935 0 -0.08901407293131533 -0.085568599979789911 0 -0.09089994757933452 -0.085198122678072627 0 -0.090216702520311498 -0.084631526613089939 0 -0.09089994757933452 -0.085198122678072627 0 -0.091938879194864084 -0.083690428579098378 0 -0.090216702520311498 -0.084631526613089939 0 -0.090216702520311498 -0.084631526613089939 0 -0.091574398108123498 -0.083441609593885663 0 -0.08946562081503813 -0.084833522822489377 0 -0.091938879194864084 -0.083690428579098378 0 -0.091574398108123498 -0.083441609593885663 0 -0.09476761841713166 -0.080508161505925935 0 -0.091938879194864084 -0.083690428579098378 0 -0.090216702520311498 -0.084631526613089939 0 -0.091574398108123498 -0.083441609593885663 0 -0.091574398108123498 -0.083441609593885663 0 -0.09476761841713166 -0.080508161505925935 0 -0.093677926145920035 -0.082541489610402599 0 -0.094997062933391191 -0.076559833475860581 0 -0.09476761841713166 -0.080508161505925935 0 -0.094998171199143111 -0.082227844046860343 0 -0.09476761841713166 -0.080508161505925935 0 -0.093677926145920035 -0.082541489610402599 0 -0.094998171199143111 -0.082227844046860343 0 -0.093677926145920035 -0.082541489610402599 0 -0.094998171199143111 -0.082227844046860343 0 -0.09272469396662629 -0.084264400986454879 0 -0.091097651541441407 -0.086523231458508085 0 -0.09272469396662629 -0.084264400986454879 0 -0.090019905234438341 -0.08554035565814766 0 -0.091574398108123498 -0.083441609593885663 0 -0.09272469396662629 -0.084264400986454879 0 -0.090019905234438341 -0.08554035565814766 0 -0.091574398108123498 -0.083441609593885663 0 -0.093677926145920035 -0.082541489610402599 0 -0.09272469396662629 -0.084264400986454879 0 -0.089431734022158108 -0.087495238676601014 0 -0.090019905234438341 -0.08554035565814766 0 -0.08807490590171467 -0.086964545034417348 0 -0.090019905234438341 -0.08554035565814766 0 -0.088384678371811978 -0.085734871997093301 0 -0.08946562081503813 -0.084833522822489377 0 -0.090019905234438341 -0.08554035565814766 0 -0.08807490590171467 -0.086964545034417348 0 -0.088384678371811978 -0.085734871997093301 0 -0.086173166663720283 -0.088847924765311129 0 -0.086677539966318357 -0.087507354902342752 0 -0.08807490590171467 -0.086964545034417348 0 -0.086677539966318357 -0.087507354902342752 0 -0.08807490590171467 -0.086964545034417348 0 -0.087132834279091589 -0.086225055976897211 0 -0.08807490590171467 -0.086964545034417348 0 -0.088384678371811978 -0.085734871997093301 0 -0.087132834279091589 -0.086225055976897211 0 -0.086144611323741738 -0.085307786208539779 0 -0.087890807879888039 -0.085301938063033836 0 -0.087132834279091589 -0.086225055976897211 0 -0.087890807879888039 -0.085301938063033836 0 -0.088384678371811978 -0.085734871997093301 0 -0.087132834279091589 -0.086225055976897211 0 -0.087890807879888039 -0.085301938063033836 0 -0.088384678371811978 -0.085734871997093301 0 -0.08946562081503813 -0.084833522822489377 0 -0.087890807879888039 -0.085301938063033836 0 -0.090216702520311498 -0.084631526613089939 0 -0.08946562081503813 -0.084833522822489377 0 -0.091574398108123498 -0.083441609593885663 0 -0.090019905234438341 -0.08554035565814766 0 -0.08946562081503813 -0.084833522822489377 0 -0.048482756851254256 -0.10469855842287296 0 -0.049506805634806743 -0.10888600797567805 0 -0.046499848728019835 -0.1076311891860901 0 -0.048482756851254256 -0.10469855842287296 0 -0.052185994844657357 -0.10726564073774479 0 -0.049506805634806743 -0.10888600797567805 0 -0.048482756851254256 -0.10469855842287296 0 -0.046499848728019835 -0.1076311891860901 0 -0.04644572138409625 -0.10449215989657325 0 -0.048482756851254256 -0.10469855842287296 0 -0.052185994844657357 -0.10726564073774479 0 -0.051624308643122799 -0.10219150751334781 0 -0.052185994844657357 -0.10726564073774479 0 -0.051624308643122799 -0.10219150751334781 0 -0.056044681294179631 -0.10512343026361309 0 -0.051624308643122799 -0.10219150751334781 0 -0.048260155820927512 -0.09841170961098468 0 -0.046706012844141775 -0.10209860457143305 0 -0.048482756851254256 -0.10469855842287296 0 -0.051624308643122799 -0.10219150751334781 0 -0.046706012844141775 -0.10209860457143305 0 -0.048482756851254256 -0.10469855842287296 0 -0.046706012844141775 -0.10209860457143305 0 -0.04644572138409625 -0.10449215989657325 0 -0.048260155820927512 -0.09841170961098468 0 -0.051195557443668313 -0.095000020055514736 0 -0.045627331745610185 -0.094998804550817023 0 -0.048260155820927512 -0.09841170961098468 0 -0.051195557443668313 -0.095000020055514736 0 -0.053419545419685535 -0.098126358470388003 0 -0.051624308643122799 -0.10219150751334781 0 -0.048260155820927512 -0.09841170961098468 0 -0.053419545419685535 -0.098126358470388003 0 -0.051624308643122799 -0.10219150751334781 0 -0.053419545419685535 -0.098126358470388003 0 -0.057094078945384923 -0.10049871574486627 0 -0.053419545419685535 -0.098126358470388003 0 -0.056761493255990246 -0.094999465503218347 0 -0.057094078945384923 -0.10049871574486627 0 -0.051195557443668313 -0.095000020055514736 0 -0.053419545419685535 -0.098126358470388003 0 -0.056761493255990246 -0.094999465503218347 0 -0.056761493255990246 -0.094999465503218347 0 -0.057094078945384923 -0.10049871574486627 0 -0.062245036340626024 -0.098788848428560824 0 -0.057094078945384923 -0.10049871574486627 0 -0.056044681294179631 -0.10512343026361309 0 -0.062638319513867544 -0.10440874099549731 0 -0.051624308643122799 -0.10219150751334781 0 -0.057094078945384923 -0.10049871574486627 0 -0.056044681294179631 -0.10512343026361309 0 -0.052185994844657357 -0.10726564073774479 0 -0.056044681294179631 -0.10512343026361309 0 -0.055488924371537768 -0.10838543289682452 0 -0.056044681294179631 -0.10512343026361309 0 -0.062638319513867544 -0.10440874099549731 0 -0.058722182245623943 -0.10862289138681405 0 -0.058263103144539086 -0.10285534742203099 0 -0.0574507956399644