<?xml version="1.0"?>
<VTKFile type="UnstructuredGrid" version="0.1" byte_order="LittleEndian">
<UnstructuredGrid>
<Piece NumberOfPoints="30881" NumberOfCells="10862">
<Points>
<DataArray type="Float64" NumberOfComponents="3" format="ascii">
-0.49999999999999828 -0.48677703703187492 0 -0.5 -0.5 0 -0.48129281494584059 -0.49338851851593718 0 -0.5 -0.5 0 -0.48129281494584059 -0.49338851851593718 0 -0.46258562989168328 -0.5 0 -0.49999999999999828 -0.48677703703187492 0 -0.48129281494584059 -0.49338851851593718 0 -0.49999999999999828 -0.48677703703187492 0 -0.4824545428279598 -0.47451624516148783 0 -0.48129281494584059 -0.49338851851593718 0 -0.49999999999999828 -0.48677703703187492 0 -0.4824545428279598 -0.47451624516148783 0 -0.5 -0.46599539173150673 0 -0.4824545428279598 -0.47451624516148783 0 -0.46853075243710779 -0.48354990242643758 0 -0.46411508256092049 -0.46598235294430129 0 -0.4824545428279598 -0.47451624516148783 0 -0.48129281494584059 -0.49338851851593718 0 -0.46853075243710779 -0.48354990242643758 0 -0.48129281494584059 -0.49338851851593718 0 -0.46258562989168328 -0.5 0 -0.48129281494584059 -0.49338851851593718 0 -0.46258562989168328 -0.5 0 -0.46853075243710779 -0.48354990242643758 0 -0.46258562989168328 -0.5 0 -0.46853075243710779 -0.48354990242643758 0 -0.45147378687733691 -0.48362213557840178 0 -0.46853075243710779 -0.48354990242643758 0 -0.45147378687733691 -0.48362213557840178 0 -0.46411508256092049 -0.46598235294430129 0 -0.4457251648104853 -0.47020164095208389 0 -0.45147378687733691 -0.48362213557840178 0 -0.46411508256092049 -0.46598235294430129 0 -0.4457251648104853 -0.47020164095208389 0 -0.45147378687733691 -0.48362213557840178 0 -0.43513446131126993 -0.48199891714758791 0 -0.45147378687733691 -0.48362213557840178 0 -0.43275163025255442 -0.5 0 -0.43513446131126993 -0.48199891714758791 0 -0.46258562989168328 -0.5 0 -0.45147378687733691 -0.48362213557840178 0 -0.43275163025255442 -0.5 0 -0.4467190029717853 -0.45478934699519452 0 -0.4422915115958943 -0.43555510214664611 0 -0.43246707723660932 -0.44794326854796312 0 -0.4457251648104853 -0.47020164095208389 0 -0.4467190029717853 -0.45478934699519452 0 -0.46411508256092049 -0.46598235294430129 0 -0.4457251648104853 -0.47020164095208389 0 -0.4467190029717853 -0.45478934699519452 0 -0.43016578207734568 -0.46313500011938619 0 -0.4467190029717853 -0.45478934699519452 0 -0.46411508256092049 -0.46598235294430129 0 -0.47114575579794699 -0.4403844242888923 0 -0.4467190029717853 -0.45478934699519452 0 -0.47114575579794699 -0.4403844242888923 0 -0.4422915115958943 -0.43555510214664611 0 -0.47114575579794699 -0.4403844242888923 0 -0.4422915115958943 -0.43555510214664611 0 -0.46411508256092049 -0.46598235294430129 0 -0.47114575579794699 -0.4403844242888923 0 -0.48354307623736548 -0.45841843211146538 0 -0.4824545428279598 -0.47451624516148783 0 -0.46411508256092049 -0.46598235294430129 0 -0.48354307623736548 -0.45841843211146538 0 -0.4824545428279598 -0.47451624516148783 0 -0.48354307623736548 -0.45841843211146538 0 -0.5 -0.46599539173150673 0 -0.48354307623736548 -0.45841843211146538 0 -0.5 -0.46599539173150673 0 -0.49999999999999972 -0.44521374643113848 0 -0.47114575579794699 -0.4403844242888923 0 -0.49999999999999972 -0.44521374643113848 0 -0.47114575579794699 -0.4403844242888923 0 -0.49999999999999972 -0.44521374643113848 0 -0.48704432221743971 -0.42935617662229603 0 -0.47114575579794699 -0.4403844242888923 0 -0.48354307623736548 -0.45841843211146538 0 -0.49999999999999972 -0.44521374643113848 0 -0.49999999999999972 -0.44521374643113848 0 -0.48704432221743971 -0.42935617662229603 0 -0.5 -0.41591957503128979 0 -0.48704432221743971 -0.42935617662229603 0 -0.5 -0.41591957503128979 0 -0.47703153307181151 -0.41590696073786332 0 -0.5 -0.41591957503128979 0 -0.47703153307181151 -0.41590696073786332 0 -0.48817838912021821 -0.4022119694541284 0 -0.47114575579794699 -0.4403844242888923 0 -0.48704432221743971 -0.42935617662229603 0 -0.47703153307181151 -0.41590696073786332 0 -0.5 -0.38662540363144121 0 -0.47568202340906118 -0.39039593841591919 0 -0.4947615751445838 -0.37332156409002909 0 -0.47568202340906118 -0.39039593841591919 0 -0.4947615751445838 -0.37332156409002909 0 -0.5 -0.38662540363144121 0 -0.48817838912021821 -0.4022119694541284 0 -0.47568202340906118 -0.39039593841591919 0 -0.5 -0.41591957503128979 0 -0.5 -0.38662540363144121 0 -0.48817838912021821 -0.4022119694541284 0 -0.47703153307181151 -0.41590696073786332 0 -0.48817838912021821 -0.4022119694541284 0 -0.47568202340906118 -0.39039593841591919 0 -0.47703153307181151 -0.41590696073786332 0 -0.47568202340906118 -0.39039593841591919 0 -0.45660247167353862 -0.40747031274180939 0 -0.47568202340906118 -0.39039593841591919 0 -0.48030931097003587 -0.37191064435083931 0 -0.46669490250066459 -0.37481721741951951 0 -0.47568202340906118 -0.39039593841591919 0 -0.4947615751445838 -0.37332156409002909 0 -0.48030931097003587 -0.37191064435083931 0 -0.45332061783919553 -0.38729481725706361 0 -0.46669490250066459 -0.37481721741951951 0 -0.45095991715087752 -0.36968037302039969 0 -0.47568202340906118 -0.39039593841591919 0 -0.45332061783919553 -0.38729481725706361 0 -0.46669490250066459 -0.37481721741951951 0 -0.47568202340906118 -0.39039593841591919 0 -0.45660247167353862 -0.40747031274180939 0 -0.47568202340906118 -0.39039593841591919 0 -0.45332061783919553 -0.38729481725706361 0 -0.45660247167353862 -0.40747031274180939 0 -0.44332653075004852 -0.401690115615219 0 -0.44646247228389868 -0.41654464256061052 0 -0.42870657106664078 -0.39987574649354879 0 -0.45332061783919553 -0.38729481725706361 0 -0.44332653075004852 -0.401690115615219 0 -0.43479631603355468 -0.39077639303142497 0 -0.45332061783919553 -0.38729481725706361 0 -0.44332653075004852 -0.401690115615219 0 -0.45660247167353862 -0.40747031274180939 0 -0.45332061783919553 -0.38729481725706361 0 -0.43421362475025049 -0.37527491429266319 0 -0.43479631603355468 -0.39077639303142497 0 -0.45332061783919553 -0.38729481725706361 0 -0.43421362475025049 -0.37527491429266319 0 -0.45095991715087752 -0.36968037302039969 0 -0.47114575579794699 -0.4403844242888923 0 -0.45663439814062529 -0.42533932462455271 0 -0.4422915115958943 -0.43555510214664611 0 -0.47114575579794699 -0.4403844242888923 0 -0.47703153307181151 -0.41590696073786332 0 -0.45663439814062529 -0.42533932462455271 0 -0.45663439814062529 -0.42533932462455271 0 -0.45660247167353862 -0.40747031274180939 0 -0.44646247228389868 -0.41654464256061052 0 -0.47703153307181151 -0.41590696073786332 0 -0.45663439814062529 -0.42533932462455271 0 -0.45660247167353862 -0.40747031274180939 0 -0.44332653075004852 -0.401690115615219 0 -0.45660247167353862 -0.40747031274180939 0 -0.44646247228389868 -0.41654464256061052 0 -0.45660247167353862 -0.40747031274180939 0 -0.44646247228389868 -0.41654464256061052 0 -0.44646247228389868 -0.41654464256061052 0 -0.4375229199380159 -0.42454468706769971 0 -0.45663439814062529 -0.42533932462455271 0 -0.4375229199380159 -0.42454468706769971 0 -0.4422915115958943 -0.43555510214664611 0 -0.45663439814062529 -0.42533932462455271 0 -0.44646247228389868 -0.41654464256061052 0 -0.4375229199380159 -0.42454468706769971 0 -0.4375229199380159 -0.42454468706769971 0 -0.4422915115958943 -0.43555510214664611 0 -0.43077617074680319 -0.43406335077952207 0 -0.43077617074680319 -0.43406335077952207 0 -0.42550232634077589 -0.42345940056268039 0 -0.41950844772475421 -0.43888456563633732 0 -0.4375229199380159 -0.42454468706769971 0 -0.43077617074680319 -0.43406335077952207 0 -0.42550232634077589 -0.42345940056268039 0 -0.44646247228389868 -0.41654464256061052 0 -0.41657232816672918 -0.41306671883907142 0 -0.42870657106664078 -0.39987574649354879 0 -0.44646247228389868 -0.41654464256061052 0 -0.4375229199380159 -0.42454468706769971 0 -0.42550232634077589 -0.42345940056268039 0 -0.44646247228389868 -0.41654464256061052 0 -0.42550232634077589 -0.42345940056268039 0 -0.41657232816672918 -0.41306671883907142 0 -0.44646247228389868 -0.41654464256061052 0 -0.41657232816672918 -0.41306671883907142 0 -0.42550232634077589 -0.42345940056268039 0 -0.41657232816672918 -0.41306671883907142 0 -0.41333489101611293 -0.42699700567040988 0 -0.41657232816672918 -0.41306671883907142 0 -0.41333489101611293 -0.42699700567040988 0 -0.39893236021425188 -0.42931692235905211 0 -0.41333489101611293 -0.42699700567040988 0 -0.39893236021425188 -0.42931692235905211 0 -0.41950844772475421 -0.43888456563633732 0 -0.42550232634077589 -0.42345940056268039 0 -0.41333489101611293 -0.42699700567040988 0 -0.41950844772475421 -0.43888456563633732 0 -0.43421362475025049 -0.37527491429266319 0 -0.42478231784314502 -0.38643128255249681 0 -0.41656514696884139 -0.37636588688318029 0 -0.43421362475025049 -0.37527491429266319 0 -0.42478231784314502 -0.38643128255249681 0 -0.43479631603355468 -0.39077639303142497 0 -0.42478231784314502 -0.38643128255249681 0 -0.43479631603355468 -0.39077639303142497 0 -0.42870657106664078 -0.39987574649354879 0 -0.44332653075004852 -0.401690115615219 0 -0.43479631603355468 -0.39077639303142497 0 -0.42870657106664078 -0.39987574649354879 0 -0.41657232816672918 -0.41306671883907142 0 -0.40962993039643741 -0.3898634720616666 0 -0.3946356370269814 -0.39577424904278191 0 -0.42478231784314502 -0.38643128255249681 0 -0.42870657106664078 -0.39987574649354879 0 -0.40962993039643741 -0.3898634720616666 0 -0.41657232816672918 -0.41306671883907142 0 -0.42870657106664078 -0.39987574649354879 0 -0.40962993039643741 -0.3898634720616666 0 -0.42478231784314502 -0.38643128255249681 0 -0.40962993039643741 -0.3898634720616666 0 -0.41656514696884139 -0.37636588688318029 0 -0.40962993039643741 -0.3898634720616666 0 -0.41656514696884139 -0.37636588688318029 0 -0.40465459864295228 -0.37650109000307358 0 -0.39431275766669582 -0.38061373190328529 0 -0.40465459864295228 -0.37650109000307358 0 -0.3968495855878465 -0.36923685638487008 0 -0.40962993039643741 -0.3898634720616666 0 -0.39431275766669582 -0.38061373190328529 0 -0.40465459864295228 -0.376501090003
[...]
<PointData Scalars="" Vectors="displacement," Tensors="">
<DataArray type="Float64" Name="displacement" NumberOfComponents="3" format="ascii">
-0.094999430490137191 2.623115997869502e-07 0 -0.094998119155352487 -5.2992349621579445e-07 0 -0.092156161004226453 8.9056255483889659e-08 0 -0.094998119155352487 -5.2992349621579445e-07 0 -0.092156161004226453 8.9056255483889659e-08 0 -0.087895595325707801 7.9590233043868118e-07 0 -0.094991595292286804 -1.3721355633500672e-06 0 -0.091502083770546416 -0.00012716021592315278 0 -0.094994589818989159 -1.6607981499330955e-06 0 -0.092658978714865337 -0.00068235943249625214 0 -0.091262958488466744 -0.00080739558796256799 0 -0.094994589818989159 -1.6607981499330955e-06 0 -0.092658978714865337 -0.00068235943249625214 0 -0.094998595218104401 -1.2121999535820661e-07 0 -0.092658978714865337 -0.00068235943249625214 0 -0.090244583211137694 -0.00057513563709028336 0 -0.091020918696897296 -0.00078577210897641514 0 -0.092658978714865337 -0.00068235943249625214 0 -0.091262958488466744 -0.00080739558796256799 0 -0.090244583211137694 -0.00057513563709028336 0 -0.091502083770546416 -0.00012716021592315278 0 -0.087899925691167863 9.0509263114809109e-07 0 -0.091262958488466744 -0.00080739558796256799 0 -0.087890012793823954 -3.0352228852446888e-06 0 -0.090244583211137694 -0.00057513563709028336 0 -0.087890012793823954 -3.0352228852446888e-06 0 -0.090244583211137694 -0.00057513563709028336 0 -0.087913822716664966 -0.00051117369695982608 0 -0.090244583211137694 -0.00057513563709028336 0 -0.087913822716664966 -0.00051117369695982608 0 -0.091020918696897296 -0.00078577210897641514 0 -0.088824594892861319 -0.00043317690794184217 0 -0.087913822716664966 -0.00051117369695982608 0 -0.091020918696897296 -0.00078577210897641514 0 -0.088824594892861319 -0.00043317690794184217 0 -0.087913822716664966 -0.00051117369695982608 0 -0.086128322663500109 -0.00017618211279628749 0 -0.087913822716664966 -0.00051117369695982608 0 -0.082227363618867011 -6.3772320668393723e-07 0 -0.086128322663500109 -0.00017618211279628749 0 -0.087890012793823954 -3.0352228852446888e-06 0 -0.087913822716664966 -0.00051117369695982608 0 -0.082227363618867011 -6.3772320668393723e-07 0 -0.090372966738937091 -0.00038059903882660309 0 -0.091682114224890005 6.2366955234097692e-05 0 -0.090278485840692355 0.00036117451327034644 0 -0.088824594892861319 -0.00043317690794184217 0 -0.090372966738937091 -0.00038059903882660309 0 -0.091020918696897296 -0.00078577210897641514 0 -0.088824594892861319 -0.00043317690794184217 0 -0.090372966738937091 -0.00038059903882660309 0 -0.088657025882917961 0.00027861124207107988 0 -0.090372966738937091 -0.00038059903882660309 0 -0.091020918696897296 -0.00078577210897641514 0 -0.092227436166882865 -0.00092410919399138025 0 -0.090372966738937091 -0.00038059903882660309 0 -0.092227436166882865 -0.00092410919399138025 0 -0.091682114224890005 6.2366955234097692e-05 0 -0.093887242922395406 -0.00035238862706386467 0 -0.093434877947411607 -9.9355256575319693e-05 0 -0.091020918696897296 -0.00078577210897641514 0 -0.092227436166882865 -0.00092410919399138025 0 -0.093224070390824185 -0.00057415007573485811 0 -0.092658978714865337 -0.00068235943249625214 0 -0.091020918696897296 -0.00078577210897641514 0 -0.093224070390824185 -0.00057415007573485811 0 -0.092658978714865337 -0.00068235943249625214 0 -0.093224070390824185 -0.00057415007573485811 0 -0.094998595218104401 -1.2121999535820661e-07 0 -0.093224070390824185 -0.00057415007573485811 0 -0.094998595218104401 -1.2121999535820661e-07 0 -0.094995985866648244 -7.9270288501624687e-07 0 -0.093887242922395406 -0.00035238862706386467 0 -0.094997942165166341 -6.5015468701735495e-07 0 -0.093921479894156348 -0.00022701745638675829 0 -0.094999320496180317 -9.6864118154047941e-08 0 -0.094549858868523282 -0.00012314547147942691 0 -0.092227436166882865 -0.00092410919399138025 0 -0.093224070390824185 -0.00057415007573485811 0 -0.094995985866648244 -7.9270288501624687e-07 0 -0.094999320496180317 -9.6864118154047941e-08 0 -0.094549858868523282 -0.00012314547147942691 0 -0.094999135226007739 -2.3889878799620741e-07 0 -0.094549858868523282 -0.00012314547147942691 0 -0.094999135226007739 -2.3889878799620741e-07 0 -0.094275423630735489 -0.0002094795562911784 0 -0.094999135226007739 -2.3889878799620741e-07 0 -0.094275423630735489 -0.0002094795562911784 0 -0.094768976974238639 -0.00014096016531627874 0 -0.093921479894156348 -0.00022701745638675829 0 -0.094549858868523282 -0.00012314547147942691 0 -0.094275423630735489 -0.0002094795562911784 0 -0.094999182048702044 -1.8872961538356495e-07 0 -0.094777982720179829 -0.00016093234902336094 0 -0.094631259421664463 -0.00012442254326702082 0 -0.092895671150653114 0.00050164879365216281 0 -0.093285151862264618 0.00025321377797123877 0 -0.094999182048702044 -1.8872961538356495e-07 0 -0.094768976974238639 -0.00014096016531627874 0 -0.094777982720179829 -0.00016093234902336094 0 -0.094999135226007739 -2.3889878799620741e-07 0 -0.094999182048702044 -1.8872961538356495e-07 0 -0.094768976974238639 -0.00014096016531627874 0 -0.094275423630735489 -0.0002094795562911784 0 -0.094768976974238639 -0.00014096016531627874 0 -0.094777982720179829 -0.00016093234902336094 0 -0.094275423630735489 -0.0002094795562911784 0 -0.094777982720179829 -0.00016093234902336094 0 -0.094048963263153679 3.9373957734689365e-06 0 -0.091477918911556419 0.0004127455805457411 0 -0.093604022712345095 0.00029928853252635525 0 -0.092664767880613397 0.0010714841131955026 0 -0.091477918911556419 0.0004127455805457411 0 -0.094631259421664463 -0.00012442254326702082 0 -0.093604022712345095 0.00029928853252635525 0 -0.091150261005638736 0.0021371112249281561 0 -0.092664767880613397 0.0010714841131955026 0 -0.092270954160110163 0.0020377905660557386 0 -0.091477918911556419 0.0004127455805457411 0 -0.091150261005638736 0.0021371112249281561 0 -0.092664767880613397 0.0010714841131955026 0 -0.092895671150653114 0.00050164879365216281 0 -0.09218729781525746 0.0010902628344886668 0 -0.091477918911556419 0.0004127455805457411 0 -0.091150261005638736 0.0021371112249281561 0 -0.089653201681143713 0.0019741919756437265 0 -0.08995960711748871 0.0029071811971554491 0 -0.089170240471824452 0.0027743766913667814 0 -0.089976280547908141 0.0037149882008192803 0 -0.091150261005638736 0.0021371112249281561 0 -0.08995960711748871 0.0029071811971554491 0 -0.090371859886330716 0.0033868525014323766 0 -0.091150261005638736 0.0021371112249281561 0 -0.08995960711748871 0.0029071811971554491 0 -0.089653201681143713 0.0019741919756437265 0 -0.091150261005638736 0.0021371112249281561 0 -0.091072716915650234 0.0033423553856758432 0 -0.090371859886330716 0.0033868525014323766 0 -0.091150261005638736 0.0021371112249281561 0 -0.091072716915650234 0.0033423553856758432 0 -0.092270954160110163 0.0020377905660557386 0 -0.093921479894156348 -0.00022701745638675829 0 -0.093196376824358676 -0.00014654252150645311 0 -0.091682114224890005 6.2366955234097692e-05 0 -0.093921479894156348 -0.00022701745638675829 0 -0.094275423630735489 -0.0002094795562911784 0 -0.093196376824358676 -0.00014654252150645311 0 -0.093196376824358676 -0.00014654252150645311 0 -0.094048963263153679 3.9373957734689365e-06 0 -0.093286037766546315 0.00022999639382542569 0 -0.094275423630735489 -0.0002094795562911784 0 -0.093196376824358676 -0.00014654252150645311 0 -0.094048963263153679 3.9373957734689365e-06 0 -0.08995960711748871 0.0029071811971554491 0 -0.089653201681143713 0.0019741919756437265 0 -0.089170240471824452 0.0027743766913667814 0 -0.09218729781525746 0.0010902628344886668 0 -0.091820634697333037 0.0014812071795792991 0 -0.091820634697333037 0.0014812071795792991 0 -0.092010981016716231 0.0012342324784478764 0 -0.093196376824358676 -0.00014654252150645311 0 -0.092016973638138364 0.00044449636068394821 0 -0.091682114224890005 6.2366955234097692e-05 0 -0.093196376824358676 -0.00014654252150645311 0 -0.093286037766546315 0.00022999639382542569 0 -0.092016973638138364 0.00044449636068394821 0 -0.092016973638138364 0.00044449636068394821 0 -0.091682114224890005 6.2366955234097692e-05 0 -0.091234881105293986 0.00059298220186536842 0 -0.091234881105293986 0.00059298220186536842 0 -0.091565286523580453 0.00085704562781318259 0 -0.0904884408229608 0.0010928501254867042 0 -0.092016973638138364 0.00044449636068394821 0 -0.091234881105293986 0.00059298220186536842 0 -0.091565286523580453 0.00085704562781318259 0 -0.089170240471824452 0.0027743766913667814 0 -0.089737762412537905 0.0041383292481000393 0 -0.089976280547908141 0.0037149882008192803 0 -0.092273801913646911 0.00014835479462935872 0 -0.092016973638138364 0.00044449636068394821 0 -0.091565286523580453 0.00085704562781318259 0 -0.092273801913646911 0.00014835479462935872 0 -0.091565286523580453 0.00085704562781318259 0 -0.091619949201604517 0.0012499996919758749 0 -0.091820634697333037 0.0014812071795792991 0 -0.091084855156818786 0.0021341394325897056 0 -0.091565286523580453 0.00085704562781318259 0 -0.091619949201604517 0.0012499996919758749 0 -0.090977835608575988 0.0014165692690871433 0 -0.091619949201604517 0.0012499996919758749 0 -0.090977835608575988 0.0014165692690871433 0 -0.090495543553359425 0.0021130451430727932 0 -0.090977835608575988 0.0014165692690871433 0 -0.090495543553359425 0.0021130451430727932 0 -0.0904884408229608 0.0010928501254867042 0 -0.091565286523580453 0.00085704562781318259 0 -0.090977835608575988 0.0014165692690871433 0 -0.0904884408229608 0.0010928501254867042 0 -0.091072716915650234 0.0033423553856758432 0 -0.09020188530563121 0.0038993986599698723 0 -0.090062514739111976 0.0043609541693932115 0 -0.091072716915650234 0.0033423553856758432 0 -0.09020188530563121 0.0038993986599698723 0 -0.090371859886330716 0.0033868525014323766 0 -0.09020188530563121 0.0038993986599698723 0 -0.090371859886330716 0.0033868525014323766 0 -0.089976280547908141 0.0037149882008192803 0 -0.08995960711748871 0.0029071811971554491 0 -0.090371859886330716 0.0033868525014323766 0 -0.089976280547908141 0.0037149882008192803 0 -0.089737762412537905 0.0041383292481000393 0 -0.089801238378291667 0.0042319311918882843 0 -0.089745556772766591 0.0038068821887610156 0 -0.09020188530563121 0.0038993986599698723 0 -0.089976280547908141 0.0037149882008192803 0 -0.089801238378291667 0.0042319311918882843 0 -0.089737762412537905 0.0041383292481000393 0 -0.089976280547908141 0.0037149882008192803 0 -0.089801238378291667 0.0042319311918882843 0 -0.09020188530563121 0.0038993986599698723 0 -0.089801238378291667 0.0042319311918882843 0 -0.090062514739111976 0.0043609541693932115 0 -0.089801238378291667 0.0042319311918882843 0 -0.090062514739111976 0.0043609541693932115 0 -0.089389105699183083 0.0043733052121447073 0 -0.089077458302902618 0.0038445046853066872 0 -0.089389105699183083 0.0043733052121447073 0 -0.088511309194429122 0.0040834628284257398 0 -0.089801238378291667 0.0042319311918882843 0 -0.089077458302902618 0.0038445046853066872 0 -0.089389105699183083 0.0043733052121447073 0 -0.089801238378291667 0.0042319311918882843 0 -0.089077458302902618 0.0038445046853066872 0 -0.089745556772766591 0.0038068821887610156 0 -0.089745556772766591 0.0038068821887610156 0 -0.090187591277547177 0.0034155709442635885 0 -0.089563396684932794 0.0026197652064340431 0 -0.089745556772766591 0.0038068821887610156 0 -0.088469901608589988 0.0024967398619236353 0 -0.089563396684932794 0.0026197652064340431 0 -0.089077458302902618 0.0038445046853066872 0 -0.089745556772766591 0.0038068821887610156 0 -0.088469901608589988 0.0024967398619236353 0 -0.089077458302902618 0.0038445046853066872 0 -0.088469901608589988 0.0024967398619236353 0 -0.08792559640636026 0.0031922086790940429 0 -0.091619949201604517 0.0012499996919758749 0 -0.090495543553359425 0.0021130451430727932 0 -0.090727216795893378 0.0025778006685539924 0 -0.089737762412537905 0.0041383292481000393 0 -0.089745556772766591 0.0038068821887610156 0 -0.090187591277547177 0.0034155709442635885 0 -0.091084855156818786 0.0021341394325897056 0 -0.090713936846930646 0.0024128412266892184 0 -0.090727216795893378 0.0025778006685539924 0 -0.090289305692872135 0.0026564665465895689 0 -0.090229476271223907 0.0024416631161499032 0 -0.090289305692872135 0.0026564665465895689 0 -0.089449688832072202 0.0028540946164469158 0 -0.089965973849380113 0.0028583579225873795 0 -0.090495543553359425 0.0021130451430727932 0 -0.090289305692872135 0.0026564665465895689 0 -0.089449688832072202 0.0028540946164469158 0 -0.090495543553359425 0.0021130451430727932 0 -0.090727216795893378 0.0025778006685539924 0 -0.090289305692872135 0.0026564665465895689 0 -0.089449688832072202 0.0028540946164469158 0 -0.089171314588299105 0.0019259776001148724 0 -0.087733531290075426 0.0029214892690198574 0 -0.090495543553359425 0.0021130451430727932 0 -0.089449688832072202 0.0028540946164469158 0 -0.089171314588299105 0.0019259776001148724 0 -0.089171314588299105 0.0019259776001148724 0 -0.087733531290075426 0.0029214892690198574 0 -0.086879497988751664 0.0021555691221072366 0 -0.089449688832072202 0.0028540946164469158 0 -0.087733531290075426 0.0029214892690198574 0 -0.088166097788808975 0.0035293354967824934 0 -0.087733531290075426 0.0029214892690198574 0 -0.086294801318958086 0.0036499808761477639 0 -0.088166097788808975 0.0035293354967824934 0 -0.086294801318958086 0.0036499808761477639 0 -0.084284331738956941 0.0032500452702691343 0 -0.085965665312619205 0.0029141828457108021 0 -0.087733531290075426 0.0029214892690198574 0 -0.086294801318958086 0.0036499808761477639 0 -0.085965665312619205 0.0029141828457108021 0 -0.074357455763249494 -0.0002813385123831207 0 -0.071152926182874374 0.0014931650528922842 0 -0.074600930585144457 3.1855514993040921e-05 0 -0.076556859929736487 2.6574302264965137e-06 0 -0.070888273428714621 -6.0651828253629232e-07 0 -0.074600930585144457 3.1855514993040921e-05 0 -0.071173383545908353 0.00013056649121463755 0 -0.070888273428714621 -6.0651828253629232e-07 0 -0.086294801318958086 0.0036499808761477639 0 -0.084284331738956941 0.0032500452702691343 0 -0.084902676901420338 0.0044139765751234428 0 -0.074357455763249494 -0.0002813385123831207 0 -0.075455548664908265 -0.0012428225563829915 0 -0.084284331738956941 0.0032500452702691343 0 -0.085965665312619205 0.0029141828457108021 0 -0.084780012353570633 0.002157450920295356 0 -0.074600930585144457 3.1855514993040921e-05 0 -0.076556859929736487 2.6574302264965137e-06 0 -0.081300040886250258 0.00046899233689644775 0 -0.084284331738956941 0.0032500452702691343 0 -0.084780012353570633 0.002157450920295356 0 -0.081300040886250258 0.00046899233689644775 0 -0.087733531290075426 0.0029214892690198574 0 -0.085965665312619205 0.0029141828457108021 0 -0.086879497988751664 0.0021555691221072366 0 -0.085965665312619205 0.0029141828457108021 0 -0.084780012353570633 0.002157450920295356 0 -0.086879497988751664 0.0021555691221072366 0 -0.086879497988751664 0.0021555691221072366 0 -0.08615742426957719 0.00072480248761497583 0 -0.088183642307861132 0.0011921257415426713 0 -0.084780012353570633 0.002157450920295356 0 -0.08615742426957719 0.00072480248761497583 0 -0.081300040886250258 0.00046899233689644775 0 -0.084780012353570633 0.002157450920295356 0 -0.086879497988751664 0.0021555691221072366 0 -0.08615742426957719 0.00072480248761497583 0 -0.08615742426957719 0.00072480248761497583 0 -0.081300040886250258 0.00046899233689644775 0 -0.083818611930741277 0.00018039091907942866 0 -0.076556859929736487 2.6574302264965137e-06 0 -0.081300040886250258 0.00046899233689644775 0 -0.082227363618867011 -6.3772320668393723e-07 0 -0.081300040886250258 0.00046899233689644775 0 -0.083818611930741277 0.00018039091907942866 0 -0.082227363618867011 -6.3772320668393723e-07 0 -0.083818611930741277 0.00018039091907942866 0 -0.082227363618867011 -6.3772320668393723e-07 0 -0.086128322663500109 -0.00017618211279628749 0 -0.088824594892861319 -0.00043317690794184217 0 -0.086128322663500109 -0.00017618211279628749 0 -0.088657025882917961 0.00027861124207107988 0 -0.08615742426957719 0.00072480248761497583 0 -0.086128322663500109 -0.00017618211279628749 0 -0.088657025882917961 0.00027861124207107988 0 -0.08615742426957719 0.00072480248761497583 0 -0.083818611930741277 0.00018039091907942866 0 -0.086128322663500109 -0.00017618211279628749 0 -0.090372966738937091 -0.00038059903882660309 0 -0.088657025882917961 0.00027861124207107988 0 -0.090278485840692355 0.00036117451327034644 0 -0.088657025882917961 0.00027861124207107988 0 -0.089448674536077633 0.00095593012350115962 0 -0.088183642307861132 0.0011921257415426713 0 -0.088657025882917961 0.00027861124207107988 0 -0.090278485840692355 0.00036117451327034644 0 -0.089448674536077633 0.00095593012350115962 0 -0.091682114224890005 6.2366955234097692e-05 0 -0.091234881105293986 0.00059298220186536842 0 -0.090278485840692355 0.00036117451327034644 0 -0.091234881105293986 0.00059298220186536842 0 -0.090278485840692355 0.00036117451327034644 0 -0.0904884408229608 0.0010928501254867042 0 -0.090278485840692355 0.00036117451327034644 0 -0.089448674536077633 0.00095593012350115962 0 -0.0904884408229608 0.0010928501254867042 0 -0.090495543553359425 0.0021130451430727932 0 -0.089171314588299105 0.0019259776001148724 0 -0.0904884408229608 0.0010928501254867042 0 -0.089171314588299105 0.0019259776001148724 0 -0.089448674536077633 0.00095593012350115962 0 -0.0904884408229608 0.0010928501254867042 0 -0.089171314588299105 0.0019259776001148724 0 -0.089448674536077633 0.00095593012350115962 0 -0.088183642307861132 0.0011921257415426713 0 -0.089171314588299105 0.0019259776001148724 0 -0.086879497988751664 0.0021555691221072366 0 -0.088183642307861132 0.0011921257415426713 0 -0.08615742426957719 0.00072480248761497583 0 -0.088657025882917961 0.00027861124207107988 0 -0.088183642307861132 0.0011921257415426713 0 -0.094699733680280826 -8.6842239980537185e-05 0 -0.09471760418239418 -1.8665336430753378e-05 0 -0.09469347945082307 -6.4875085208040254e-05 0 -0.094699733680280826 -8.6842239980537185e-05 0 -0.094768145274636117 2.6190036334776535e-05 0 -0.09471760418239418 -1.8665336430753378e-05 0 -0.094699733680280826 -8.6842239980537185e-05 0 -0.09469347945082307 -6.4875085208040254e-05 0 -0.094629163988634926 -0.00015425587513221646 0 -0.094699733680280826 -8.6842239980537185e-05 0 -0.094768145274636117 2.6190036334776535e-05 0 -0.094843765631705906 2.9728094021012225e-05 0 -0.094768145274636117 2.6190036334776535e-05 0 -0.094843765631705906 2.9728094021012225e-05 0 -0.094855165234299627 0.00015933266741598642 0 -0.094843765631705906 2.9728094021012225e-05 0 -0.094806860486457367 5.8662322073170165e-05 0 -0.094638563391729574 -0.00012265711890097734 0 -0.094699733680280826 -8.6842239980537185e-05 0 -0.094843765631705906 2.9728094021012225e-05 0 -0.094638563391729574 -0.00012265711890097734 0 -0.094699733680280826 -8.6842239980537185e-05 0 -0.094638563391729574 -0.00012265711890097734 0 -0.094629163988634926 -0.00015425587513221646 0 -0.094806860486457367 5.8662322073170165e-05 0 -0.094999997294152941 -3.81189003775178e-08 0 -0.094999059335426905 5.6111140772913157e-07 0 -0.094806860486457367 5.8662322073170165e-05 0 -0.094999997294152941 -3.81189003775178e-08 0 -0.094948946839647025 7.0665178626293229e-05 0 -0.094843765631705906 2.9728094021012225e-05 0 -0.094806860486457367 5.8662322073170165e-05 0 -0.094948946839647025 7.0665178626293229e-05 0 -0.094843765631705906 2.9728094021012225e-05 0 -0.094948946839647025 7.0665178626293229e-05 0 -0.094932958874440532 0.00016417344782810315 0 -0.094948946839647025 7.0665178626293229e-05 0 -0.094999918912352266 1.0545834143968425e-07 0 -0.094932958874440532 0.00016417344782810315 0 -0.094999997294152941 -3.81189003775178e-08 0 -0.094948946839647025 7.0665178626293229e-05 0 -0.094999918912352266 1.0545834143968425e-07 0 -0.094999918912352266 1.0545834143968425e-07 0 -0.094932958874440532 0.00016417344782810315 0 -0.094922871004469223 0.00022831969256939617 0 -0.094932958874440532 0.00016417344782810315 0 -0.094855165234299627 0.