<?xml version="1.0"?>
<VTKFile type="UnstructuredGrid" version="0.1" byte_order="LittleEndian">
<UnstructuredGrid>
<Piece NumberOfPoints="30881" NumberOfCells="10862">
<Points>
<DataArray type="Float64" NumberOfComponents="3" format="ascii">
-0.49999999999999828 -0.48677703703187492 0 -0.5 -0.5 0 -0.48129281494584059 -0.49338851851593718 0 -0.5 -0.5 0 -0.48129281494584059 -0.49338851851593718 0 -0.46258562989168328 -0.5 0 -0.49999999999999828 -0.48677703703187492 0 -0.48129281494584059 -0.49338851851593718 0 -0.49999999999999828 -0.48677703703187492 0 -0.4824545428279598 -0.47451624516148783 0 -0.48129281494584059 -0.49338851851593718 0 -0.49999999999999828 -0.48677703703187492 0 -0.4824545428279598 -0.47451624516148783 0 -0.5 -0.46599539173150673 0 -0.4824545428279598 -0.47451624516148783 0 -0.46853075243710779 -0.48354990242643758 0 -0.46411508256092049 -0.46598235294430129 0 -0.4824545428279598 -0.47451624516148783 0 -0.48129281494584059 -0.49338851851593718 0 -0.46853075243710779 -0.48354990242643758 0 -0.48129281494584059 -0.49338851851593718 0 -0.46258562989168328 -0.5 0 -0.48129281494584059 -0.49338851851593718 0 -0.46258562989168328 -0.5 0 -0.46853075243710779 -0.48354990242643758 0 -0.46258562989168328 -0.5 0 -0.46853075243710779 -0.48354990242643758 0 -0.45147378687733691 -0.48362213557840178 0 -0.46853075243710779 -0.48354990242643758 0 -0.45147378687733691 -0.48362213557840178 0 -0.46411508256092049 -0.46598235294430129 0 -0.4457251648104853 -0.47020164095208389 0 -0.45147378687733691 -0.48362213557840178 0 -0.46411508256092049 -0.46598235294430129 0 -0.4457251648104853 -0.47020164095208389 0 -0.45147378687733691 -0.48362213557840178 0 -0.43513446131126993 -0.48199891714758791 0 -0.45147378687733691 -0.48362213557840178 0 -0.43275163025255442 -0.5 0 -0.43513446131126993 -0.48199891714758791 0 -0.46258562989168328 -0.5 0 -0.45147378687733691 -0.48362213557840178 0 -0.43275163025255442 -0.5 0 -0.4467190029717853 -0.45478934699519452 0 -0.4422915115958943 -0.43555510214664611 0 -0.43246707723660932 -0.44794326854796312 0 -0.4457251648104853 -0.47020164095208389 0 -0.4467190029717853 -0.45478934699519452 0 -0.46411508256092049 -0.46598235294430129 0 -0.4457251648104853 -0.47020164095208389 0 -0.4467190029717853 -0.45478934699519452 0 -0.43016578207734568 -0.46313500011938619 0 -0.4467190029717853 -0.45478934699519452 0 -0.46411508256092049 -0.46598235294430129 0 -0.47114575579794699 -0.4403844242888923 0 -0.4467190029717853 -0.45478934699519452 0 -0.47114575579794699 -0.4403844242888923 0 -0.4422915115958943 -0.43555510214664611 0 -0.47114575579794699 -0.4403844242888923 0 -0.4422915115958943 -0.43555510214664611 0 -0.46411508256092049 -0.46598235294430129 0 -0.47114575579794699 -0.4403844242888923 0 -0.48354307623736548 -0.45841843211146538 0 -0.4824545428279598 -0.47451624516148783 0 -0.46411508256092049 -0.46598235294430129 0 -0.48354307623736548 -0.45841843211146538 0 -0.4824545428279598 -0.47451624516148783 0 -0.48354307623736548 -0.45841843211146538 0 -0.5 -0.46599539173150673 0 -0.48354307623736548 -0.45841843211146538 0 -0.5 -0.46599539173150673 0 -0.49999999999999972 -0.44521374643113848 0 -0.47114575579794699 -0.4403844242888923 0 -0.49999999999999972 -0.44521374643113848 0 -0.47114575579794699 -0.4403844242888923 0 -0.49999999999999972 -0.44521374643113848 0 -0.48704432221743971 -0.42935617662229603 0 -0.47114575579794699 -0.4403844242888923 0 -0.48354307623736548 -0.45841843211146538 0 -0.49999999999999972 -0.44521374643113848 0 -0.49999999999999972 -0.44521374643113848 0 -0.48704432221743971 -0.42935617662229603 0 -0.5 -0.41591957503128979 0 -0.48704432221743971 -0.42935617662229603 0 -0.5 -0.41591957503128979 0 -0.47703153307181151 -0.41590696073786332 0 -0.5 -0.41591957503128979 0 -0.47703153307181151 -0.41590696073786332 0 -0.48817838912021821 -0.4022119694541284 0 -0.47114575579794699 -0.4403844242888923 0 -0.48704432221743971 -0.42935617662229603 0 -0.47703153307181151 -0.41590696073786332 0 -0.5 -0.38662540363144121 0 -0.47568202340906118 -0.39039593841591919 0 -0.4947615751445838 -0.37332156409002909 0 -0.47568202340906118 -0.39039593841591919 0 -0.4947615751445838 -0.37332156409002909 0 -0.5 -0.38662540363144121 0 -0.48817838912021821 -0.4022119694541284 0 -0.47568202340906118 -0.39039593841591919 0 -0.5 -0.41591957503128979 0 -0.5 -0.38662540363144121 0 -0.48817838912021821 -0.4022119694541284 0 -0.47703153307181151 -0.41590696073786332 0 -0.48817838912021821 -0.4022119694541284 0 -0.47568202340906118 -0.39039593841591919 0 -0.47703153307181151 -0.41590696073786332 0 -0.47568202340906118 -0.39039593841591919 0 -0.45660247167353862 -0.40747031274180939 0 -0.47568202340906118 -0.39039593841591919 0 -0.48030931097003587 -0.37191064435083931 0 -0.46669490250066459 -0.37481721741951951 0 -0.47568202340906118 -0.39039593841591919 0 -0.4947615751445838 -0.37332156409002909 0 -0.48030931097003587 -0.37191064435083931 0 -0.45332061783919553 -0.38729481725706361 0 -0.46669490250066459 -0.37481721741951951 0 -0.45095991715087752 -0.36968037302039969 0 -0.47568202340906118 -0.39039593841591919 0 -0.45332061783919553 -0.38729481725706361 0 -0.46669490250066459 -0.37481721741951951 0 -0.47568202340906118 -0.39039593841591919 0 -0.45660247167353862 -0.40747031274180939 0 -0.47568202340906118 -0.39039593841591919 0 -0.45332061783919553 -0.38729481725706361 0 -0.45660247167353862 -0.40747031274180939 0 -0.44332653075004852 -0.401690115615219 0 -0.44646247228389868 -0.41654464256061052 0 -0.42870657106664078 -0.39987574649354879 0 -0.45332061783919553 -0.38729481725706361 0 -0.44332653075004852 -0.401690115615219 0 -0.43479631603355468 -0.39077639303142497 0 -0.45332061783919553 -0.38729481725706361 0 -0.44332653075004852 -0.401690115615219 0 -0.45660247167353862 -0.40747031274180939 0 -0.45332061783919553 -0.38729481725706361 0 -0.43421362475025049 -0.37527491429266319 0 -0.43479631603355468 -0.39077639303142497 0 -0.45332061783919553 -0.38729481725706361 0 -0.43421362475025049 -0.37527491429266319 0 -0.45095991715087752 -0.36968037302039969 0 -0.47114575579794699 -0.4403844242888923 0 -0.45663439814062529 -0.42533932462455271 0 -0.4422915115958943 -0.43555510214664611 0 -0.47114575579794699 -0.4403844242888923 0 -0.47703153307181151 -0.41590696073786332 0 -0.45663439814062529 -0.42533932462455271 0 -0.45663439814062529 -0.42533932462455271 0 -0.45660247167353862 -0.40747031274180939 0 -0.44646247228389868 -0.41654464256061052 0 -0.47703153307181151 -0.41590696073786332 0 -0.45663439814062529 -0.42533932462455271 0 -0.45660247167353862 -0.40747031274180939 0 -0.44332653075004852 -0.401690115615219 0 -0.45660247167353862 -0.40747031274180939 0 -0.44646247228389868 -0.41654464256061052 0 -0.45660247167353862 -0.40747031274180939 0 -0.44646247228389868 -0.41654464256061052 0 -0.44646247228389868 -0.41654464256061052 0 -0.4375229199380159 -0.42454468706769971 0 -0.45663439814062529 -0.42533932462455271 0 -0.4375229199380159 -0.42454468706769971 0 -0.4422915115958943 -0.43555510214664611 0 -0.45663439814062529 -0.42533932462455271 0 -0.44646247228389868 -0.41654464256061052 0 -0.4375229199380159 -0.42454468706769971 0 -0.4375229199380159 -0.42454468706769971 0 -0.4422915115958943 -0.43555510214664611 0 -0.43077617074680319 -0.43406335077952207 0 -0.43077617074680319 -0.43406335077952207 0 -0.42550232634077589 -0.42345940056268039 0 -0.41950844772475421 -0.43888456563633732 0 -0.4375229199380159 -0.42454468706769971 0 -0.43077617074680319 -0.43406335077952207 0 -0.42550232634077589 -0.42345940056268039 0 -0.44646247228389868 -0.41654464256061052 0 -0.41657232816672918 -0.41306671883907142 0 -0.42870657106664078 -0.39987574649354879 0 -0.44646247228389868 -0.41654464256061052 0 -0.4375229199380159 -0.42454468706769971 0 -0.42550232634077589 -0.42345940056268039 0 -0.44646247228389868 -0.41654464256061052 0 -0.42550232634077589 -0.42345940056268039 0 -0.41657232816672918 -0.41306671883907142 0 -0.44646247228389868 -0.41654464256061052 0 -0.41657232816672918 -0.41306671883907142 0 -0.42550232634077589 -0.42345940056268039 0 -0.41657232816672918 -0.41306671883907142 0 -0.41333489101611293 -0.42699700567040988 0 -0.41657232816672918 -0.41306671883907142 0 -0.41333489101611293 -0.42699700567040988 0 -0.39893236021425188 -0.42931692235905211 0 -0.41333489101611293 -0.42699700567040988 0 -0.39893236021425188 -0.42931692235905211 0 -0.41950844772475421 -0.43888456563633732 0 -0.42550232634077589 -0.42345940056268039 0 -0.41333489101611293 -0.42699700567040988 0 -0.41950844772475421 -0.43888456563633732 0 -0.43421362475025049 -0.37527491429266319 0 -0.42478231784314502 -0.38643128255249681 0 -0.41656514696884139 -0.37636588688318029 0 -0.43421362475025049 -0.37527491429266319 0 -0.42478231784314502 -0.38643128255249681 0 -0.43479631603355468 -0.39077639303142497 0 -0.42478231784314502 -0.38643128255249681 0 -0.43479631603355468 -0.39077639303142497 0 -0.42870657106664078 -0.39987574649354879 0 -0.44332653075004852 -0.401690115615219 0 -0.43479631603355468 -0.39077639303142497 0 -0.42870657106664078 -0.39987574649354879 0 -0.41657232816672918 -0.41306671883907142 0 -0.40962993039643741 -0.3898634720616666 0 -0.3946356370269814 -0.39577424904278191 0 -0.42478231784314502 -0.38643128255249681 0 -0.42870657106664078 -0.39987574649354879 0 -0.40962993039643741 -0.3898634720616666 0 -0.41657232816672918 -0.41306671883907142 0 -0.42870657106664078 -0.39987574649354879 0 -0.40962993039643741 -0.3898634720616666 0 -0.42478231784314502 -0.38643128255249681 0 -0.40962993039643741 -0.3898634720616666 0 -0.41656514696884139 -0.37636588688318029 0 -0.40962993039643741 -0.3898634720616666 0 -0.41656514696884139 -0.37636588688318029 0 -0.40465459864295228 -0.37650109000307358 0 -0.39431275766669582 -0.38061373190328529 0 -0.40465459864295228 -0.37650109000307358 0 -0.3968495855878465 -0.36923685638487008 0 -0.40962993039643741 -0.3898634720616666 0 -0.39431275766669582 -0.38061373190328529 0 -0.40465459864295228 -0.376501090003
[...]
<PointData Scalars="" Vectors="displacement," Tensors="">
<DataArray type="Float64" Name="displacement" NumberOfComponents="3" format="ascii">
1.321299892980822e-06 -0.092495901043445017 0 -8.8114777061900181e-07 -0.094994697965722519 0 4.2929282875625546e-07 -0.094924487978549937 0 -8.8114777061900181e-07 -0.094994697965722519 0 4.2929282875625546e-07 -0.094924487978549937 0 4.3713971958135942e-07 -0.095002334739635319 0 3.0167035025189217e-07 -0.092489590656856205 0 -9.9493612554608272e-06 -0.093678902875376863 0 -3.7714575834078298e-07 -0.092481827386916238 0 -0.00051067974771196569 -0.091056417653797128 0 -0.00048317188332637077 -0.091977928191266337 0 -3.7714575834078298e-07 -0.092481827386916238 0 -0.00051067974771196569 -0.091056417653797128 0 -2.7874231686979305e-06 -0.0885400501016015 0 -0.00051067974771196569 -0.091056417653797128 0 -0.00030972398687963745 -0.092942386772384811 0 -0.00043031165142374303 -0.09228111572550321 0 -0.00051067974771196569 -0.091056417653797128 0 -0.00048317188332637077 -0.091977928191266337 0 -0.00030972398687963745 -0.092942386772384811 0 -9.9493612554608272e-06 -0.093678902875376863 0 -4.4923775476761484e-07 -0.094997762430468161 0 -0.00048317188332637077 -0.091977928191266337 0 -3.253503473685334e-06 -0.094993579928675576 0 -0.00030972398687963745 -0.092942386772384811 0 -3.253503473685334e-06 -0.094993579928675576 0 -0.00030972398687963745 -0.092942386772384811 0 -0.00030858384333053472 -0.093789515960094105 0 -0.00030972398687963745 -0.092942386772384811 0 -0.00030858384333053472 -0.093789515960094105 0 -0.00043031165142374303 -0.09228111572550321 0 -0.00048075373889710815 -0.093060735594528071 0 -0.00030858384333053472 -0.093789515960094105 0 -0.00043031165142374303 -0.09228111572550321 0 -0.00048075373889710815 -0.093060735594528071 0 -0.00030858384333053472 -0.093789515960094105 0 -0.00024020395565333254 -0.093840148540968032 0 -0.00030858384333053472 -0.093789515960094105 0 8.2907925541905754e-07 -0.094998653401405883 0 -0.00024020395565333254 -0.093840148540968032 0 -3.253503473685334e-06 -0.094993579928675576 0 -0.00030858384333053472 -0.093789515960094105 0 8.2907925541905754e-07 -0.094998653401405883 0 -0.00060168659865454557 -0.092174309281047487 0 -0.0019261089097639898 -0.090610340476977302 0 -0.0013018106962934812 -0.091834056859731117 0 -0.00048075373889710815 -0.093060735594528071 0 -0.00060168659865454557 -0.092174309281047487 0 -0.00043031165142374303 -0.09228111572550321 0 -0.00048075373889710815 -0.093060735594528071 0 -0.00060168659865454557 -0.092174309281047487 0 -0.00075790878648469417 -0.092725604971038822 0 -0.00060168659865454557 -0.092174309281047487 0 -0.00043031165142374303 -0.09228111572550321 0 0.00070746034723702758 -0.091643055372791146 0 -0.00060168659865454557 -0.092174309281047487 0 0.00070746034723702758 -0.091643055372791146 0 -0.0019261089097639898 -0.090610340476977302 0 -0.00040945120319277095 -0.086852280303234816 0 -0.00059394568845139281 -0.088326863627941538 0 -0.00043031165142374303 -0.09228111572550321 0 0.00070746034723702758 -0.091643055372791146 0 -0.00047285785879371982 -0.089679446412670435 0 -0.00051067974771196569 -0.091056417653797128 0 -0.00043031165142374303 -0.09228111572550321 0 -0.00047285785879371982 -0.089679446412670435 0 -0.00051067974771196569 -0.091056417653797128 0 -0.00047285785879371982 -0.089679446412670435 0 -2.7874231686979305e-06 -0.0885400501016015 0 -0.00047285785879371982 -0.089679446412670435 0 -2.7874231686979305e-06 -0.0885400501016015 0 5.2604205392268199e-06 -0.0845996576677574 0 -0.00040945120319277095 -0.086852280303234816 0 -1.0205610301105917e-06 -0.084592946098579216 0 -0.0022427444964719721 -0.08197151011740289 0 -6.3189531943763016e-07 -0.084581407961498309 0 -0.00091696095425545046 -0.081548257622551995 0 0.00070746034723702758 -0.091643055372791146 0 -0.00047285785879371982 -0.089679446412670435 0 5.2604205392268199e-06 -0.0845996576677574 0 -6.3189531943763016e-07 -0.084581407961498309 0 -0.00091696095425545046 -0.081548257622551995 0 -2.3710471888063808e-06 -0.079028014497587118 0 -0.00091696095425545046 -0.081548257622551995 0 -2.3710471888063808e-06 -0.079028014497587118 0 -8.9277343796713055e-05 -0.080927059220716802 0 -2.3710471888063808e-06 -0.079028014497587118 0 -8.9277343796713055e-05 -0.080927059220716802 0 0.00022189947097094875 -0.077985005703695071 0 -0.0022427444964719721 -0.08197151011740289 0 -0.00091696095425545046 -0.081548257622551995 0 -8.9277343796713055e-05 -0.080927059220716802 0 4.1599247241387932e-06 -0.073458486694890648 0 0.0017794876068878078 -0.079146602148052442 0 0.00064193603086205549 -0.070520875515940065 0 -0.00010179016579247353 -0.074731957268414473 0 -5.0896443336835588e-05 -0.07407147584553142 0 4.1599247241387932e-06 -0.073458486694890648 0 0.00022189947097094875 -0.077985005703695071 0 0.0017794876068878078 -0.079146602148052442 0 -2.3710471888063808e-06 -0.079028014497587118 0 4.1599247241387932e-06 -0.073458486694890648 0 0.00022189947097094875 -0.077985005703695071 0 -8.9277343796713055e-05 -0.080927059220716802 0 0.00022189947097094875 -0.077985005703695071 0 0.0017794876068878078 -0.079146602148052442 0 -8.9277343796713055e-05 -0.080927059220716802 0 0.0017794876068878078 -0.079146602148052442 0 0.0017281175856811691 -0.084617405089561101 0 0.0006407324175269558 -0.06467972481969271 0 0.00033399296676673277 -0.066112156632303298 0 0.00045652561837453495 -0.064910932261527096 0 0.0006407324175269558 -0.06467972481969271 0 0.00064193603086205549 -0.070520875515940065 0 0.00033399296676673277 -0.066112156632303298 0 -0.00055891291721224003 -0.06570396340204164 0 0.00045652561837453495 -0.064910932261527096 0 0.0006418130499687007 -0.065640656252309248 0 0.0006407324175269558 -0.06467972481969271 0 -0.00055891291721224003 -0.06570396340204164 0 0.00045652561837453495 -0.064910932261527096 0 -0.00010179016579247353 -0.074731957268414473 0 -0.00077166620469185337 -0.076961700590909621 0 0.0006407324175269558 -0.06467972481969271 0 -0.00055891291721224003 -0.06570396340204164 0 -0.0030709624990435062 -0.065377234915565838 0 -0.0027957107541598573 -0.067003740067844431 0 -0.0049708189451052997 -0.066545741315621396 0 -0.0030631055142419619 -0.069189535067274988 0 -0.00055891291721224003 -0.06570396340204164 0 -0.0027957107541598573 -0.067003740067844431 0 -0.0014540213255785548 -0.068106509912448765 0 -0.00055891291721224003 -0.06570396340204164 0 -0.0027957107541598573 -0.067003740067844431 0 -0.0030709624990435062 -0.065377234915565838 0 -0.00055891291721224003 -0.06570396340204164 0 0.00047278473467560862 -0.067843167076776442 0 -0.0014540213255785548 -0.068106509912448765 0 -0.00055891291721224003 -0.06570396340204164 0 0.00047278473467560862 -0.067843167076776442 0 0.0006418130499687007 -0.065640656252309248 0 -0.0022427444964719721 -0.08197151011740289 0 -0.00038870261204030705 -0.085598454288790427 0 -0.0019261089097639898 -0.090610340476977302 0 -0.0022427444964719721 -0.08197151011740289 0 -8.9277343796713055e-05 -0.080927059220716802 0 -0.00038870261204030705 -0.085598454288790427 0 -0.00038870261204030705 -0.085598454288790427 0 0.0017281175856811691 -0.084617405089561101 0 0.0010685156462932268 -0.087878433964088856 0 -8.9277343796713055e-05 -0.080927059220716802 0 -0.00038870261204030705 -0.085598454288790427 0 0.0017281175856811691 -0.084617405089561101 0 -0.0027957107541598573 -0.067003740067844431 0 -0.0030709624990435062 -0.065377234915565838 0 -0.0049708189451052997 -0.066545741315621396 0 -0.00077166620469185337 -0.076961700590909621 0 -0.001173807083328563 -0.078579885886345596 0 -0.001173807083328563 -0.078579885886345596 0 -0.0019954844469016932 -0.080196760253673741 0 -0.00038870261204030705 -0.085598454288790427 0 -0.00088939845904945102 -0.091000363648354149 0 -0.0019261089097639898 -0.090610340476977302 0 -0.00038870261204030705 -0.085598454288790427 0 0.0010685156462932268 -0.087878433964088856 0 -0.00088939845904945102 -0.091000363648354149 0 -0.00088939845904945102 -0.091000363648354149 0 -0.0019261089097639898 -0.090610340476977302 0 -0.0015611911872851205 -0.091487515395739127 0 -0.0015611911872851205 -0.091487515395739127 0 -0.0014883351053615469 -0.091444329583872455 0 -0.001579767139993729 -0.091790001942224322 0 -0.00088939845904945102 -0.091000363648354149 0 -0.0015611911872851205 -0.091487515395739127 0 -0.0014883351053615469 -0.091444329583872455 0 -0.0049708189451052997 -0.066545741315621396 0 -0.0058375822802572922 -0.071394285067597263 0 -0.0030631055142419619 -0.069189535067274988 0 -0.00064012642129071095 -0.09084466250732022 0 -0.00088939845904945102 -0.091000363648354149 0 -0.0014883351053615469 -0.091444329583872455 0 -0.00064012642129071095 -0.09084466250732022 0 -0.0014883351053615469 -0.091444329583872455 0 -0.0019771122590406458 -0.091619201392511632 0 -0.001173807083328563 -0.078579885886345596 0 -0.0028648721155282849 -0.081399572611233179 0 -0.0014883351053615469 -0.091444329583872455 0 -0.0019771122590406458 -0.091619201392511632 0 -0.0018318669383213758 -0.09152519210254037 0 -0.0019771122590406458 -0.091619201392511632 0 -0.0018318669383213758 -0.09152519210254037 0 -0.0021388819543592561 -0.091129919905434051 0 -0.0018318669383213758 -0.09152519210254037 0 -0.0021388819543592561 -0.091129919905434051 0 -0.001579767139993729 -0.091790001942224322 0 -0.0014883351053615469 -0.091444329583872455 0 -0.0018318669383213758 -0.09152519210254037 0 -0.001579767139993729 -0.091790001942224322 0 0.00047278473467560862 -0.067843167076776442 0 -0.00092746071759140401 -0.069725153957562389 0 0.00069048184573728679 -0.071057626619325492 0 0.00047278473467560862 -0.067843167076776442 0 -0.00092746071759140401 -0.069725153957562389 0 -0.0014540213255785548 -0.068106509912448765 0 -0.00092746071759140401 -0.069725153957562389 0 -0.0014540213255785548 -0.068106509912448765 0 -0.0030631055142419619 -0.069189535067274988 0 -0.0027957107541598573 -0.067003740067844431 0 -0.0014540213255785548 -0.068106509912448765 0 -0.0030631055142419619 -0.069189535067274988 0 -0.0058375822802572922 -0.071394285067597263 0 -0.0015818425280987867 -0.072849828072804143 0 -0.0028382681643487583 -0.076519508639467049 0 -0.00092746071759140401 -0.069725153957562389 0 -0.0030631055142419619 -0.069189535067274988 0 -0.0015818425280987867 -0.072849828072804143 0 -0.0058375822802572922 -0.071394285067597263 0 -0.0030631055142419619 -0.069189535067274988 0 -0.0015818425280987867 -0.072849828072804143 0 -0.00092746071759140401 -0.069725153957562389 0 -0.0015818425280987867 -0.072849828072804143 0 0.00069048184573728679 -0.071057626619325492 0 -0.0015818425280987867 -0.072849828072804143 0 0.00069048184573728679 -0.071057626619325492 0 0.00099715713249089481 -0.073937138079300607 0 0.0003571803261990926 -0.076598815363129666 0 0.00099715713249089481 -0.073937138079300607 0 0.0027781157988017819 -0.075961687173647874 0 -0.0015818425280987867 -0.072849828072804143 0 0.0003571803261990926 -0.076598815363129666 0 0.00099715713249089481 -0.073937138079300607 0 -0.0015818425280987867 -0.072849828072804143 0 0.0003571803261990926 -0.076598815363129666 0 -0.0028382681643487583 -0.076519508639467049 0 -0.0028382681643487583 -0.076519508639467049 0 -0.0062445537197906593 -0.078481131400061285 0 -0.0027391032154111109 -0.081970964709474972 0 -0.0028382681643487583 -0.076519508639467049 0 0.00061158530685462374 -0.0816585255353066 0 -0.0027391032154111109 -0.081970964709474972 0 0.0003571803261990926 -0.076598815363129666 0 -0.0028382681643487583 -0.076519508639467049 0 0.00061158530685462374 -0.0816585255353066 0 0.0003571803261990926 -0.076598815363129666 0 0.00061158530685462374 -0.0816585255353066 0 0.0027283883186247243 -0.078912775889291978 0 -0.0019771122590406458 -0.091619201392511632 0 -0.0021388819543592561 -0.091129919905434051 0 -0.0035901653771322627 -0.090454667417910958 0 -0.0058375822802572922 -0.071394285067597263 0 -0.0028382681643487583 -0.076519508639467049 0 -0.0062445537197906593 -0.078481131400061285 0 -0.0028648721155282849 -0.081399572611233179 0 -0.0037306187079915554 -0.083912922124766975 0 -0.0035901653771322627 -0.090454667417910958 0 -0.0025991975561055185 -0.089962458046413493 0 -0.0033507306214263341 -0.088229354704434604 0 -0.0025991975561055185 -0.089962458046413493 0 -0.0017193253029520968 -0.090292114626057129 0 -0.002528911221955438 -0.08892135568402737 0 -0.0021388819543592561 -0.091129919905434051 0 -0.0025991975561055185 -0.089962458046413493 0 -0.0017193253029520968 -0.090292114626057129 0 -0.0021388819543592561 -0.091129919905434051 0 -0.0035901653771322627 -0.090454667417910958 0 -0.0025991975561055185 -0.089962458046413493 0 -0.0017193253029520968 -0.090292114626057129 0 -0.0013461714660719757 -0.091652379085617144 0 -0.00081846150268400015 -0.090960200698166044 0 -0.0021388819543592561 -0.091129919905434051 0 -0.0017193253029520968 -0.090292114626057129 0 -0.0013461714660719757 -0.091652379085617144 0 -0.0013461714660719757 -0.091652379085617144 0 -0.00081846150268400015 -0.090960200698166044 0 -0.00054025703652733046 -0.092089738079079816 0 -0.0017193253029520968 -0.090292114626057129 0 -0.00081846150268400015 -0.090960200698166044 0 -0.00094446080274500788 -0.089754093436113611 0 -0.00081846150268400015 -0.090960200698166044 0 4.6573505215313293e-05 -0.090334644017147636 0 -0.00094446080274500788 -0.089754093436113611 0 4.6573505215313293e-05 -0.090334644017147636 0 0.0012346843713901181 -0.091333489000860857 0 -0.00011726698726682112 -0.091483939083078766 0 -0.00081846150268400015 -0.090960200698166044 0 4.6573505215313293e-05 -0.090334644017147636 0 -0.00011726698726682112 -0.091483939083078766 0 2.7893530084071779e-05 -0.093481675351902244 0 -0.00029610203720593226 -0.094245130269685701 0 5.4875586714257763e-05 -0.095090935408710039 0 -4.0957930612189499e-09 -0.094998337880383782 0 1.0060958070986587e-07 -0.09500110101763172 0 5.4875586714257763e-05 -0.095090935408710039 0 -2.1119235656324684e-05 -0.094991641446883157 0 1.0060958070986587e-07 -0.09500110101763172 0 4.6573505215313293e-05 -0.090334644017147636 0 0.0012346843713901181 -0.091333489000860857 0 0.0013544570682453611 -0.089608304858945956 0 2.7893530084071779e-05 -0.093481675351902244 0 9.1795861705352009e-05 -0.093550433012524747 0 0.0012346843713901181 -0.091333489000860857 0 -0.00011726698726682112 -0.091483939083078766 0 -9.8087316291168195e-07 -0.092636880071273353 0 5.4875586714257763e-05 -0.095090935408710039 0 -4.0957930612189499e-09 -0.094998337880383782 0 0.00030223192899351257 -0.094274307022046394 0 0.0012346843713901181 -0.091333489000860857 0 -9.8087316291168195e-07 -0.092636880071273353 0 0.00030223192899351257 -0.094274307022046394 0 -0.00081846150268400015 -0.090960200698166044 0 -0.00011726698726682112 -0.091483939083078766 0 -0.00054025703652733046 -0.092089738079079816 0 -0.00011726698726682112 -0.091483939083078766 0 -9.8087316291168195e-07 -0.092636880071273353 0 -0.00054025703652733046 -0.092089738079079816 0 -0.00054025703652733046 -0.092089738079079816 0 -0.00036483344410962669 -0.093268247909808824 0 -0.00089245091291964335 -0.092431306963161305 0 -9.8087316291168195e-07 -0.092636880071273353 0 -0.00036483344410962669 -0.093268247909808824 0 0.00030223192899351257 -0.094274307022046394 0 -9.8087316291168195e-07 -0.092636880071273353 0 -0.00054025703652733046 -0.092089738079079816 0 -0.00036483344410962669 -0.093268247909808824 0 -0.00036483344410962669 -0.093268247909808824 0 0.00030223192899351257 -0.094274307022046394 0 -3.8865670159251614e-05 -0.094123939195003073 0 -4.0957930612189499e-09 -0.094998337880383782 0 0.00030223192899351257 -0.094274307022046394 0 8.2907925541905754e-07 -0.094998653401405883 0 0.00030223192899351257 -0.094274307022046394 0 -3.8865670159251614e-05 -0.094123939195003073 0 8.2907925541905754e-07 -0.094998653401405883 0 -3.8865670159251614e-05 -0.094123939195003073 0 8.2907925541905754e-07 -0.094998653401405883 0 -0.00024020395565333254 -0.093840148540968032 0 -0.00048075373889710815 -0.093060735594528071 0 -0.00024020395565333254 -0.093840148540968032 0 -0.00075790878648469417 -0.092725604971038822 0 -0.00036483344410962669 -0.093268247909808824 0 -0.00024020395565333254 -0.093840148540968032 0 -0.00075790878648469417 -0.092725604971038822 0 -0.00036483344410962669 -0.093268247909808824 0 -3.8865670159251614e-05 -0.094123939195003073 0 -0.00024020395565333254 -0.093840148540968032 0 -0.00060168659865454557 -0.092174309281047487 0 -0.00075790878648469417 -0.092725604971038822 0 -0.0013018106962934812 -0.091834056859731117 0 -0.00075790878648469417 -0.092725604971038822 0 -0.0012330736673528311 -0.092131989863440955 0 -0.00089245091291964335 -0.092431306963161305 0 -0.00075790878648469417 -0.092725604971038822 0 -0.0013018106962934812 -0.091834056859731117 0 -0.0012330736673528311 -0.092131989863440955 0 -0.0019261089097639898 -0.090610340476977302 0 -0.0015611911872851205 -0.091487515395739127 0 -0.0013018106962934812 -0.091834056859731117 0 -0.0015611911872851205 -0.091487515395739127 0 -0.0013018106962934812 -0.091834056859731117 0 -0.001579767139993729 -0.091790001942224322 0 -0.0013018106962934812 -0.091834056859731117 0 -0.0012330736673528311 -0.092131989863440955 0 -0.001579767139993729 -0.091790001942224322 0 -0.0021388819543592561 -0.091129919905434051 0 -0.0013461714660719757 -0.091652379085617144 0 -0.001579767139993729 -0.091790001942224322 0 -0.0013461714660719757 -0.091652379085617144 0 -0.0012330736673528311 -0.092131989863440955 0 -0.001579767139993729 -0.091790001942224322 0 -0.0013461714660719757 -0.091652379085617144 0 -0.0012330736673528311 -0.092131989863440955 0 -0.00089245091291964335 -0.092431306963161305 0 -0.0013461714660719757 -0.091652379085617144 0 -0.00054025703652733046 -0.092089738079079816 0 -0.00089245091291964335 -0.092431306963161305 0 -0.00036483344410962669 -0.093268247909808824 0 -0.00075790878648469417 -0.092725604971038822 0 -0.00089245091291964335 -0.092431306963161305 0 -0.00031099273327934231 -0.054398728621951289 0 -0.00044138360473764212 -0.055949177410264318 0 0.0004448943689324222 -0.055573683852829743 0 -0.00031099273327934231 -0.054398728621951289 0 -0.00093533315482909117 -0.055780442664262887 0 -0.00044138360473764212 -0.055949177410264318 0 -0.00031099273327934231 -0.054398728621951289 0 0.0004448943689324222 -0.055573683852829743 0 0.00050437098866531842 -0.053937992466562987 0 -0.00031099273327934231 -0.054398728621951289 0 -0.00093533315482909117 -0.055780442664262887 0 -0.00094645934943768926 -0.05440986822713819 0 -0.00093533315482909117 -0.055780442664262887 0 -0.00094645934943768926 -0.05440986822713819 0 -0.00116413991907447 -0.05639446211451505 0 -0.00094645934943768926 -0.05440986822713819 0 -0.00029615003608300558 -0.050556470392889005 0 0.00013747647050597767 -0.052323166630520897 0 -0.00031099273327934231 -0.054398728621951289 0 -0.00094645934943768926 -0.05440986822713819 0 0.00013747647050597767 -0.052323166630520897 0 -0.00031099273327934231 -0.054398728621951289 0 0.00013747647050597767 -0.052323166630520897 0 0.00050437098866531842 -0.053937992466562987 0 -0.00029615003608300558 -0.050556470392889005 0 -1.0029571859061169e-06 -0.051196729223044454 0 -7.4117748450080691e-07 -0.045628704551372135 0 -0.00029615003608300558 -0.050556470392889005 0 -1.0029571859061169e-06 -0.051196729223044454 0 -0.00063717274000046171 -0.054195240801071444 0 -0.00094645934943768926 -0.05440986822713819 0 -0.00029615003608300558 -0.050556470392889005 0 -0.00063717274000046171 -0.054195240801071444 0 -0.00094645934943768926 -0.05440986822713819 0 -0.00063717274000046171 -0.054195240801071444 0 -0.00088957538064236613 -0.057041941843988107 0 -0.00063717274000046171 -0.054195240801071444 0 -1.5185197226318954e-06 -0.056761718208965709 0 -0.00088957538064236613 -0.057041941843988107 0 -1.0029571859061169e-06 -0.051196729223044454 0 -0.00063717274000046171 -0.054195240801071444 0 -1.5185197226318954e-06 -0.056761718208965709 0 -1.5185197226318954