<?xml version="1.0"?>
<VTKFile type="UnstructuredGrid" version="0.1" byte_order="LittleEndian">
<UnstructuredGrid>
<Piece NumberOfPoints="31242" NumberOfCells="10938">
<Points>
<DataArray type="Float64" NumberOfComponents="3" format="ascii">
-0.5 -0.5 0 -0.47795184863706058 -0.47605366015346512 0 -0.5 -0.46379374102676468 0 -0.5 -0.5 0 -0.47795184863706058 -0.47605366015346512 0 -0.43724652468332559 -0.49298809316411052 0 -0.5 -0.5 0 -0.41204521165039931 -0.5 0 -0.43724652468332559 -0.49298809316411052 0 -0.47795184863706058 -0.47605366015346512 0 -0.45293489351249522 -0.47280119158147388 0 -0.43724652468332559 -0.49298809316411052 0 -0.45293489351249522 -0.47280119158147388 0 -0.43724652468332559 -0.49298809316411052 0 -0.42946446641715152 -0.47107077226674782 0 -0.45293489351249522 -0.47280119158147388 0 -0.43724652468332559 -0.49298809316411052 0 -0.44827812679394158 -0.45119319405189923 0 -0.44058545431936641 -0.43111359809387129 0 -0.42713402267955802 -0.44724606346940271 0 -0.44827812679394158 -0.45119319405189923 0 -0.46514408866662371 -0.43972657361452189 0 -0.44058545431936641 -0.43111359809387129 0 -0.45293489351249522 -0.47280119158147388 0 -0.44827812679394158 -0.45119319405189923 0 -0.42946446641715152 -0.47107077226674782 0 -0.47795184863706058 -0.47605366015346512 0 -0.45293489351249522 -0.47280119158147388 0 -0.46862326234166479 -0.45261428999883718 0 -0.45293489351249522 -0.47280119158147388 0 -0.46862326234166479 -0.45261428999883718 0 -0.45293489351249522 -0.47280119158147388 0 -0.44827812679394158 -0.45119319405189923 0 -0.46862326234166479 -0.45261428999883718 0 -0.44827812679394158 -0.45119319405189923 0 -0.46514408866662371 -0.43972657361452189 0 -0.46862326234166479 -0.45261428999883718 0 -0.5 -0.46379374102676468 0 -0.4869867311117832 -0.45069596267126438 0 -0.50000000000000244 -0.41224048683356268 0 -0.46862326234166479 -0.45261428999883718 0 -0.48431163117083442 -0.43242738841620071 0 -0.46514408866662371 -0.43972657361452189 0 -0.46862326234166479 -0.45261428999883718 0 -0.48431163117083442 -0.43242738841620071 0 -0.46862326234166479 -0.45261428999883718 0 -0.4869867311117832 -0.45069596267126438 0 -0.48431163117083442 -0.43242738841620071 0 -0.47795184863706058 -0.47605366015346512 0 -0.46862326234166479 -0.45261428999883718 0 -0.4869867311117832 -0.45069596267126438 0 -0.47795184863706058 -0.47605366015346512 0 -0.5 -0.46379374102676468 0 -0.4869867311117832 -0.45069596267126438 0 -0.4869867311117832 -0.45069596267126438 0 -0.50000000000000244 -0.41224048683356268 0 -0.48431163117083442 -0.43242738841620071 0 -0.50000000000000244 -0.41224048683356268 0 -0.48431163117083442 -0.43242738841620071 0 -0.50000000000000244 -0.41224048683356268 0 -0.47597495532123679 -0.4073674950046664 0 -0.48431163117083442 -0.43242738841620071 0 -0.47597495532123679 -0.4073674950046664 0 -0.46972137114988688 -0.42293002232527299 0 -0.48431163117083442 -0.43242738841620071 0 -0.46514408866662371 -0.43972657361452189 0 -0.46972137114988688 -0.42293002232527299 0 -0.48431163117083442 -0.43242738841620071 0 -0.5 -0.38657535762400519 0 -0.48447750990217747 -0.3773321700883781 0 -0.48444911161849968 -0.39321082048308048 0 -0.5 -0.38657535762400519 0 -0.48447750990217747 -0.3773321700883781 0 -0.49388405634976068 -0.36586542934850391 0 -0.50000000000000244 -0.41224048683356268 0 -0.5 -0.38657535762400519 0 -0.48444911161849968 -0.39321082048308048 0 -0.50000000000000244 -0.41224048683356268 0 -0.47597495532123679 -0.4073674950046664 0 -0.48444911161849968 -0.39321082048308048 0 -0.47597495532123679 -0.4073674950046664 0 -0.48444911161849968 -0.39321082048308048 0 -0.47133630665741683 -0.383782136233079 0 -0.47597495532123679 -0.4073674950046664 0 -0.47133630665741683 -0.383782136233079 0 -0.46002581970382872 -0.39557709725316959 0 -0.48447750990217747 -0.3773321700883781 0 -0.47133630665741683 -0.383782136233079 0 -0.47311469309649418 -0.36646648267369708 0 -0.48447750990217747 -0.3773321700883781 0 -0.48444911161849968 -0.39321082048308048 0 -0.47133630665741683 -0.383782136233079 0 -0.47133630665741683 -0.383782136233079 0 -0.45878145684672639 -0.37764382617579112 0 -0.46002581970382872 -0.39557709725316959 0 -0.45878145684672639 -0.37764382617579112 0 -0.46002581970382872 -0.39557709725316959 0 -0.4430368945972154 -0.38912560690515291 0 -0.47133630665741683 -0.383782136233079 0 -0.45878145684672639 -0.37764382617579112 0 -0.47311469309649418 -0.36646648267369708 0 -0.47597495532123679 -0.4073674950046664 0 -0.46002581970382872 -0.39557709725316959 0 -0.45409049163191961 -0.4144260902598374 0 -0.46002581970382872 -0.39557709725316959 0 -0.4430368945972154 -0.38912560690515291 0 -0.45409049163191961 -0.4144260902598374 0 -0.4430368945972154 -0.38912560690515291 0 -0.45409049163191961 -0.4144260902598374 0 -0.4271091944166393 -0.40750367723937159 0 -0.4430368945972154 -0.38912560690515291 0 -0.45409049163191961 -0.4144260902598374 0 -0.45878145684672639 -0.37764382617579112 0 -0.4430368945972154 -0.38912560690515291 0 -0.44736058885755631 -0.36924426179403502 0 -0.46514408866662371 -0.43972657361452189 0 -0.46972137114988688 -0.42293002232527299 0 -0.45409049163191961 -0.4144260902598374 0 -0.46514408866662371 -0.43972657361452189 0 -0.45409049163191961 -0.4144260902598374 0 -0.44058545431936641 -0.43111359809387129 0 -0.46514408866662371 -0.43972657361452189 0 -0.45409049163191961 -0.4144260902598374 0 -0.47597495532123679 -0.4073674950046664 0 -0.46972137114988688 -0.42293002232527299 0 -0.45409049163191961 -0.4144260902598374 0 -0.45409049163191961 -0.4144260902598374 0 -0.44058545431936641 -0.43111359809387129 0 -0.4271091944166393 -0.40750367723937159 0 -0.44058545431936641 -0.43111359809387129 0 -0.4271091944166393 -0.40750367723937159 0 -0.4205505665849163 -0.42886980334533198 0 -0.44058545431936641 -0.43111359809387129 0 -0.4205505665849163 -0.42886980334533198 0 -0.42713402267955802 -0.44724606346940271 0 -0.4271091944166393 -0.40750367723937159 0 -0.40750533036323627 -0.4019229721085929 0 -0.40378873097598922 -0.41822350234849121 0 -0.4271091944166393 -0.40750367723937159 0 -0.4205505665849163 -0.42886980334533198 0 -0.40378873097598922 -0.41822350234849121 0 -0.4271091944166393 -0.40750367723937159 0 -0.40378873097598922 -0.41822350234849121 0 -0.4205505665849163 -0.42886980334533198 0 -0.40378873097598922 -0.41822350234849121 0 -0.40413543053302903 -0.44026217557552327 0 -0.4430368945972154 -0.38912560690515291 0 -0.4221617728068181 -0.38982060454678141 0 -0.42981532751476642 -0.37395602828015539 0 -0.4430368945972154 -0.38912560690515291 0 -0.42981532751476642 -0.37395602828015539 0 -0.43198329756251208 -0.36382512355046798 0 -0.4430368945972154 -0.38912560690515291 0 -0.43198329756251208 -0.36382512355046798 0 -0.4430368945972154 -0.38912560690515291 0 -0.4271091944166393 -0.40750367723937159 0 -0.4221617728068181 -0.38982060454678141 0 -0.4271091944166393 -0.40750367723937159 0 -0.4221617728068181 -0.38982060454678141 0 -0.40750533036323627 -0.4019229721085929 0 -0.4221617728068181 -0.38982060454678141 0 -0.40750533036323627 -0.4019229721085929 0 -0.39991802869453619 -0.38616299448437091 0 -0.4221617728068181 -0.38982060454678141 0 -0.4131317236626012 -0.37581026136176771 0 -0.39991802869453619 -0.38616299448437091 0 -0.4221617728068181 -0.38982060454678141 0 -0.4131317236626012 -0.37581026136176771 0 -0.42981532751476642 -0.37395602828015539 0 -0.4131317236626012 -0.37581026136176771 0 -0.39991802869453619 -0.38616299448437091 0 -0.38767733865056309 -0.37417010576777587 0 -0.40750533036323627 -0.4019229721085929 0 -0.39991802869453619 -0.38616299448437091 0 -0.38454892492219911 -0.40790408192394961 0 -0.39991802869453619 -0.38616299448437091 0 -0.38454892492219911 -0.40790408192394961 0 -0.37340776885248012 -0.38891187046116732 0 -0.38767733865056309 -0.37417010576777587 0 -0.37078259897342908 -0.36820202568301208 0 -0.37340776885248012 -0.38891187046116732 0 -0.39991802869453619 -0.38616299448437091 0 -0.38767733865056309 -0.37417010576777587 0 -0.37340776885248012 -0.38891187046116732 0 -0.40378873097598922 -0.41822350234849121 0 -0.38046826753533908 -0.42894332745761082 0 -0.40413543053302903 -0.44026217557552327 0 -0.40378873097598922 -0.41822350234849121 0 -0.38046826753533908 -0.42894332745761082 0 -0.40750533036323627 -0.4019229721085929 0 -0.40378873097598922 -0.41822350234849121 0 -0.38454892492219911 -0.40790408192394961 0 -0.40378873097598922 -0.41822350234849121 0 -0.38454892492219911 -0.40790408192394961 0 -0.38046826753533908 -0.42894332745761082 0 -0.38454892492219911 -0.40790408192394961 0 -0.38046826753533908 -0.42894332745761082 0 -0.36791701096730872 -0.42072079055445077 0 -0.37805396868239333 -0.48003158168880278 0 -0.41204521165039931 -0.5 0 -0.34566120454821442 -0.5 0 -0.38046826753533908 -0.42894332745761082 0 -0.38668011374112848 -0.45013858183215699 0 -0.37359482230272001 -0.44305135044452382 0 -0.38668011374112848 -0.45013858183215699 0 -0.3700831038397237 -0.45346033992159729 0 -0.37359482230272001 -0.44305135044452382 0 -0.38046826753533908 -0.42894332745761082 0 -0.38668011374112848 -0.45013858183215699 0 -0.40413543053302903 -0.44026217557552327 0 -0.38668011374112848 -0.45013858183215699 0 -0.38301840358475803 -0.4672575272764653 0 -0.40564696752996521 -0.4690908853242402 0 -0.38668011374112848 -0.45013858183215699 0 -0.40413543053302903 -0.44026217557552327 0 -0.40564696752996521 -0.4690908853242402 0 -0.38668011374112848 -0.45013858183215699 0 -0.38301840358475803 -0.4672575272764653 0 -0.3700831038397237 -0.45346033992159729 0 -0.38301840358475803 -0.4672575272764653 0 -0.3700831038397237 -0.45346033992159729 0 -0.37805396868239333 -0.48003158168880278 0 -0.40564696752996521 -0.4690908853242402 0 -0.41204521165039931 -0.5 0 -0.38301840358475803 -0.4672575272764653 0 -0.37805396868239333 -0.48003158168880278 0 -0.40564696752996521 -0.4690908853242402 0 -0.38301840358475803 -0.4672575272764653 0 -0.37805396868239333 -0.48003158168880278 0 -0.36544231781700848 -
[...]
<PointData Scalars="" Vectors="displacement," Tensors="">
<DataArray type="Float64" Name="displacement" NumberOfComponents="3" format="ascii">
0.044995983935907251 0.0450000961100116 0 0.043846624473452646 0.04415745191851557 0 0.041745874816398423 0.044996780619480037 0 0.044995983935907251 0.0450000961100116 0 0.043846624473452646 0.04415745191851557 0 0.044842307335406638 0.039481630309105918 0 0.044995983935907251 0.0450000961100116 0 0.044996169494501151 0.03708729739284327 0 0.044842307335406638 0.039481630309105918 0 0.043846624473452646 0.04415745191851557 0 0.044365159373253561 0.042340610233392154 0 0.044842307335406638 0.039481630309105918 0 0.042946683739368774 0.038333820914805743 0 0.044842307335406638 0.039481630309105918 0 0.043868157393732329 0.038473341580257614 0 0.043533144170988192 0.040379344852516458 0 0.044576476113912994 0.039576565244479923 0 0.041586005056261817 0.038587006450138107 0 0.041137879852153184 0.037558372340139777 0 0.042464169908003502 0.037993115763664091 0 0.041586005056261817 0.038587006450138107 0 0.040511941513069617 0.040508785463471877 0 0.041137879852153184 0.037558372340139777 0 0.042946683739368774 0.038333820914805743 0 0.041586005056261817 0.038587006450138107 0 0.043868157393732329 0.038473341580257614 0 0.043846624473452646 0.04415745191851557 0 0.044365159373253561 0.042340610233392154 0 0.042391016466755214 0.044911458097988431 0 0.043533144170988192 0.040379344852516458 0 0.041635079346841804 0.042360820350159076 0 0.042946683739368774 0.038333820914805743 0 0.041586005056261817 0.038587006450138107 0 0.040892121380729181 0.039831967790820363 0 0.041586005056261817 0.038587006450138107 0 0.040511941513069617 0.040508785463471877 0 0.040892121380729181 0.039831967790820363 0 0.041745874816398423 0.044996780619480037 0 0.041257245996783522 0.045106348426450713 0 0.037102136644481455 0.045000236651928947 0 0.041635079346841804 0.042360820350159076 0 0.039339884627418803 0.044075850662626405 0 0.040511941513069617 0.040508785463471877 0 0.040892121380729181 0.039831967790820363 0 0.038883038416147118 0.042533588821995233 0 0.042391016466755214 0.044911458097988431 0 0.041257245996783522 0.045106348426450713 0 0.039542211290175398 0.045609885680630464 0 0.043846624473452646 0.04415745191851557 0 0.042391016466755214 0.044911458097988431 0 0.041257245996783522 0.045106348426450713 0 0.043846624473452646 0.04415745191851557 0 0.041745874816398423 0.044996780619480037 0 0.041257245996783522 0.045106348426450713 0 0.041257245996783522 0.045106348426450713 0 0.037102136644481455 0.045000236651928947 0 0.039542211290175398 0.045609885680630464 0 0.037102551273715201 0.044999742417409679 0 0.039339884627418803 0.044075850662626405 0 0.037100686679845445 0.044994977232203484 0 0.036918585097323875 0.044038505533627544 0 0.038883038416147118 0.042533588821995233 0 0.036918585097323875 0.044038505533627544 0 0.038538098726030139 0.042928117784448161 0 0.038883038416147118 0.042533588821995233 0 0.040511941513069617 0.040508785463471877 0 0.038538098726030139 0.042928117784448161 0 0.038883038416147118 0.042533588821995233 0 0.034792831478903261 0.04499990232770635 0 0.034275019475110115 0.045179459252145539 0 0.035682671431662184 0.044797595212816475 0 0.034792831478903261 0.04499990232770635 0 0.034275019475110115 0.045179459252145539 0 0.033159044630294641 0.045295696177651897 0 0.037100686679845445 0.044994977232203484 0 0.034792831478903261 0.04499990232770635 0 0.035682671431662184 0.044797595212816475 0 0.037100686679845445 0.044994977232203484 0 0.036918585097323875 0.044038505533627544 0 0.035682671431662184 0.044797595212816475 0 0.036918585097323875 0.044038505533627544 0 0.035682671431662184 0.044797595212816475 0 0.034879625168647378 0.04530884952330276 0 0.036918585097323875 0.044038505533627544 0 0.034879625168647378 0.04530884952330276 0 0.035846172896252609 0.04551644077750773 0 0.034275019475110115 0.045179459252145539 0 0.034879625168647378 0.04530884952330276 0 0.033707500714094583 0.045485800418098216 0 0.034275019475110115 0.045179459252145539 0 0.035682671431662184 0.044797595212816475 0 0.034879625168647378 0.04530884952330276 0 0.034879625168647378 0.04530884952330276 0 0.034494048487216399 0.045921499545506658 0 0.035846172896252609 0.04551644077750773 0 0.034494048487216399 0.045921499545506658 0 0.035846172896252609 0.04551644077750773 0 0.035284054036524924 0.04683562908789738 0 0.034879625168647378 0.04530884952330276 0 0.034494048487216399 0.045921499545506658 0 0.033707500714094583 0.045485800418098216 0 0.036918585097323875 0.044038505533627544 0 0.035846172896252609 0.04551644077750773 0 0.037514907571467485 0.045427867279486119 0 0.035846172896252609 0.04551644077750773 0 0.035284054036524924 0.04683562908789738 0 0.037514907571467485 0.045427867279486119 0 0.036314321306504811 0.035868715724538328 0 0.039976229042015005 0.036802868499660572 0 0.038220969874993946 0.037422183345957122 0 0.03617941486454096 0.041634291352461376 0 0.038425781082250331 0.041124770860600422 0 0.034494048487216399 0.045921499545506658 0 0.035284054036524924 0.04683562908789738 0 0.03404316129494455 0.046551622638425424 0 0.040511941513069617 0.040508785463471877 0 0.038538098726030139 0.042928117784448161 0 0.037514907571467485 0.045427867279486119 0 0.040511941513069617 0.040508785463471877 0 0.039976229042015005 0.036802868499660572 0 0.041137879852153184 0.037558372340139777 0 0.04014063465517459 0.040676872024886561 0 0.038425781082250331 0.041124770860600422 0 0.036918585097323875 0.044038505533627544 0 0.038538098726030139 0.042928117784448161 0 0.037514907571467485 0.045427867279486119 0 0.039976229042015005 0.036802868499660572 0 0.041137879852153184 0.037558372340139777 0 0.038220969874993946 0.037422183345957122 0 0.041137879852153184 0.037558372340139777 0 0.038220969874993946 0.037422183345957122 0 0.041341533150644878 0.037951518303380213 0 0.041137879852153184 0.037558372340139777 0 0.041341533150644878 0.037951518303380213 0 0.042464169908003502 0.037993115763664091 0 0.038220969874993946 0.037422183345957122 0 0.036078741644051199 0.037636790610000186 0 0.03580048813062385 0.037647586316614419 0 0.038220969874993946 0.037422183345957122 0 0.041341533150644878 0.037951518303380213 0 0.041064080519191998 0.038458307043875276 0 0.038124571061456607 0.037285964706110029 0 0.038396638554830692 0.037787092111462098 0 0.041341533150644878 0.037951518303380213 0 0.041064080519191998 0.038458307043875276 0 0.042632235494310465 0.037919510621244212 0 0.036314321306504811 0.035868715724538328 0 0.035887301515288218 0.037168457196949979 0 0.034508931624336221 0.036294669978991008 0 0.036314321306504811 0.035868715724538328 0 0.034508931624336221 0.036294669978991008 0 0.033498607436578925 0.035934822438393715 0 0.03617941486454096 0.041634291352461376 0 0.031290722211444674 0.039489078802055266 0 0.036314321306504811 0.035868715724538328 0 0.038220969874993946 0.037422183345957122 0 0.035887301515288218 0.037168457196949979 0 0.038220969874993946 0.037422183345957122 0 0.035887301515288218 0.037168457196949979 0 0.036078741644051199 0.037636790610000186 0 0.035887301515288218 0.037168457196949979 0 0.036078741644051199 0.037636790610000186 0 0.034858508923285514 0.037638586195066839 0 0.035887301515288218 0.037168457196949979 0 0.034377852723069174 0.037275740664607981 0 0.034858508923285514 0.037638586195066839 0 0.035887301515288218 0.037168457196949979 0 0.034377852723069174 0.037275740664607981 0 0.034508931624336221 0.036294669978991008 0 0.034377852723069174 0.037275740664607981 0 0.034858508923285514 0.037638586195066839 0 0.033858693205469054 0.037702128527101843 0 0.036078741644051199 0.037636790610000186 0 0.034858508923285514 0.037638586195066839 0 0.035211646611480144 0.037680415839649081 0 0.034858508923285514 0.037638586195066839 0 0.035211646611480144 0.037680415839649081 0 0.034197919312453286 0.037784269479186797 0 0.033858693205469054 0.037702128527101843 0 0.033174214095702127 0.037740963699564423 0 0.034197919312453286 0.037784269479186797 0 0.034858508923285514 0.037638586195066839 0 0.033858693205469054 0.037702128527101843 0 0.034197919312453286 0.037784269479186797 0 0.041064080519191998 0.038458307043875276 0 0.042285482219553305 0.038392972726377268 0 0.042632235494310465 0.037919510621244212 0 0.038396638554830692 0.037787092111462098 0 0.038590712735371034 0.038473558895466754 0 0.036078741644051199 0.037636790610000186 0 0.03580048813062385 0.037647586316614419 0 0.035211646611480144 0.037680415839649081 0 0.03580048813062385 0.037647586316614419 0 0.035211646611480144 0.037680415839649081 0 0.035269636989215536 0.037684266598152411 0 0.035211646611480144 0.037680415839649081 0 0.035269636989215536 0.037684266598152411 0 0.035052278494344537 0.037818128091960425 0 0.045491359049298394 0.035155029580260018 0 0.044996169494501151 0.03708729739284327 0 0.044998997331390199 0.031111209291470196 0 0.042285482219553305 0.038392972726377268 0 0.04373910746010902 0.037601498343249773 0 0.043256021501045093 0.038650865028070962 0 0.04373910746010902 0.037601498343249773 0 0.044036714360811531 0.038829416391318199 0 0.043256021501045093 0.038650865028070962 0 0.042285482219553305 0.038392972726377268 0 0.04373910746010902 0.037601498343249773 0 0.042632235494310465 0.037919510621244212 0 0.04373910746010902 0.037601498343249773 0 0.045601163327556579 0.036487089532878519 0 0.044645499887847627 0.037400116920984924 0 0.04373910746010902 0.037601498343249773 0 0.042632235494310465 0.037919510621244212 0 0.044645499887847627 0.037400116920984924 0 0.04373910746010902 0.037601498343249773 0 0.045601163327556579 0.036487089532878519 0 0.044036714360811531 0.038829416391318199 0 0.04552917586777587 0.036764193398873629 0 0.046738497570874893 0.03614630457159921 0 0.045491359049298394 0.035155029580260018 0 0.044645499887847627 0.037400116920984924 0 0.044996169494501151 0.03708729739284327 0 0.045601163327556579 0.036487089532878519 0 0.045491359049298394 0.035155029580260018 0 0.044645499887847627 0.037400116920984924 0 0.045601163327556579 0.036487089532878519 0 0.045491359049298394 0.035155029580260018 0 0.047036808529460267 0.033791734592478778 0 0.044645499887847627 0.037400116920984924 0 0.044996169494501151 0.03708729739284327 0 0.043868157393732329 0.038473341580257614 0 0.044996169494501151 0.03708729739284327 0 0.044842307335406638 0.039481630309105918 0 0.043868157393732329 0.038473341580257614 0 0.041586005056261817 0.038587006450138107 0 0.043868157393732329 0.038473341580257614 0 0.042464169908003502 0.037993115763664091 0 0.042632235494310465 0.037919510621244212 0 0.044645499887847627 0.037400116920984924 0 0.042464169908003502 0.037993115763664091 0 0.041341533150644878 0.037951518303380213 0 0.042632235494310465 0.037919510621244212 0 0.042464169908003502 0.037993115763664091 0 0.044645499887847627 0.037400116920984924 0 0.043868157393732329 0.038473341580257614 0 0.042464169908003502 0.037993115763664091 0 0.020237735482086131 0.035163659480998512 0 0.020395774565217486 0.035393727910110119 0 0.020767301208406579 0.035151659217947238 0 0.020237735482086131 0.035163659480998512 0 0.020395774565217486 0.035393727910110119 0 0.020007752505496638 0.035373933451522975 0 0.021502009476594676 0.032287021110982042 0 0.02494885936334169 0.034352906082441466 0 0.022575046307036165 0.034070121621971663 0 0.024240087879272506 0.048894018029542886 0 0.022782081355427357 0.048016436663960771 0 0.024836352930544231 0.047057710517959497 0 0.029610578182070808 0.044202673666044592 0 0.027767675453058228 0.045763202342115339 0 0.028096620351199666 0.045083294974415246 0 0.023750776947411241 0.040383487767731638 0 0.026548663685451151 0.047430821105125059 0 0.023750776947411241 0.040383487767731638 0 0.021432121092215067 0.041610034928291552 0 0.020237735482086131 0.035163659480998512 0 0.020767301208406579 0.035151659217947238 0 0.020230531625992532 0.034879385863393786 0 0.022782081355427357 0.048016436663960771 0 0.022672627557935157 0.046601677545506759 0 0.024836352930544231 0.047057710517959497 0 0.022672627557935157 0.046601677545506759 0 0.022962086808944519 0.044999972339591937 0 0.024836352930544231 0.047057710517959497 0 0.022962086808944519 0.044999972339591937 0 0.024836352930544231 0.047057710517959497 0 0.025551941963964066 0.045007684696586711 0 0.026548663685451151 0.047430821105125059 0 0.025552935150874402 0.045006084684664056 0 0.027767675453058228 0.045763202342115339 0 0.027180486113609185 0.045631320158041846 0 0.027619646950930398 0.045657788521200206 0 0.027767675453058228 0.045763202342115339 0 0.025556269746787236 0.045008022755957097 0 0.027180486113609185 0.045631320158041846 0 0.025556269746787236 0.045008022755957097 0 0.027180486113609185 0.045631320158041846 0 0.027861741790047898 0.044999436540577288 0 0.027180486113609185 0.045631320158041846 0 0.027861741790047898 0.044999436540577288 0 0.028444707707398494 0.045770920841817324 0 0.027180486113609185 0.045631320158041846 0 0.027619646950930398 0.045657788521200206 0 0.028444707707398494 0.045770920841817324 0 0.027708242474978006 0.045184584741923939 0 0.027663141345774411 0.04476609850357359 0 0.028403496082007804 0.046185926525746705 0 0.027619646950930398 0.045657788521200206 0 0.027708242474978006 0.045184584741923939 0 0.028403496082007804 0.046185926525746705 0 0.027767675453058228 0.045763202342115339 0 0.027619646950930398 0.045657788521200206 0 0.028096620351199666 0.045083294974415246 0 0.027619646950930398 0.045657788521200206 0 0.027708242474978006 0.045184584741923939 0 0.028096620351199666 0.045083294974415246 0 0.027708242474978006 0.045184584741923939 0 0.028096620351199666 0.045083294974415246 0 0.028279392754094888 0.043748812621700495 0 0.023750776947411241 0.040383487767731638 0 0.026664725535085473 0.037649965960734541 0 0.029610578182070808 0.044202673666044592 0 0.028279392754094888 0.043748812621700495 0 0.028197785890300371 0.041387173100415668 0 0.027987288393942635 0.043727596852112936 0 0.028587464598620438 0.044251634058670851 0 0.029610578182070808 0.044202673666044592 0 0.028096620351199666 0.045083294974415246 0 0.028279392754094888 0.043748812621700495 0 0.028279392754094888 0.043748812621700495 0 0.027768257077263197 0.041763689810388666 0 0.027014552051890926 0.042325945817093646 0 0.028279392754094888 0.043748812621700495 0 0.027768257077263197 0.041763689810388666 0 0.028197785890300371 0.041387173100415668 0 0.027687304626768845 0.04136515269265411 0 0.027672726741662372 0.041000233006225469 0 0.026721466293300793 0.040318460945198122 0 0.027768257077263197 0.041763689810388666 0 0.027672726741662372 0.041000233006225469 0 0.028197785890300371 0.041387173100415668 0 0.028529324552964006 0.042988500823901508 0 0.028587464598620438 0.044251634058670851 0 0.027768257077263197 0.041763689810388666 0 0.027687304626768845 0.04136515269265411 0 0.027672726741662372 0.041000233006225469 0 0.027708242474978006 0.045184584741923939 0 0.028279392754094888 0.043748812621700495 0 0.027663141345774411 0.04476609850357359 0 0.030808036647011136 0.046645460319246317 0 0.03181667654529105 0.046868650126063116 0 0.031880033162519819 0.045906379362204 0 0.028587464598620438 0.044251634058670851 0 0.029470605393335608 0.043636439130052808 0 0.028587464598620438 0.044251634058670851 0 0.030271449099764362 0.046182310328741018 0 0.03181667654529105 0.046868650126063116 0 0.032759243911283854 0.046177123872134643 0 0.031880033162519819 0.045906379362204 0 0.03181667654529105 0.046868650126063116 0 0.032759243911283854 0.046177123872134643 0 0.032762775112816833 0.047065896483872091 0 0.029470605393335608 0.043636439130052808 0 0.028726015178600819 0.043611817809325715 0 0.032759243911283854 0.046177123872134643 0 0.031880033162519819 0.045906379362204 0 0.032986556776588349 0.045292568136506645 0 0.027619646950930398 0.045657788521200206 0 0.028403496082007804 0.046185926525746705 0 0.028444707707398494 0.045770920841817324 0 0.027861741790047898 0.044999436540577288 0 0.028444707707398494 0.045770920841817324 0 0.030171156308642123 0.04499973631212275 0 0.028444707707398494 0.045770920841817324 0 0.030171156308642123 0.04499973631212275 0 0.030543582606375342 0.046327690205833223 0 0.028403496082007804 0.046185926525746705 0 0.028444707707398494 0.045770920841817324 0 0.030543582606375342 0.046327690205833223 0 0.030271449099764362 0.046182310328741018 0 0.031793719775067078 0.045729927895294391 0 0.032986556776588349 0.045292568136506645 0 0.033707500714094583 0.045485800418098216 0 0.033295952886341885 0.045700102831870315 0 0.032986556776588349 0.045292568136506645 0 0.033412039346202585 0.045331029901030315 0 0.033707500714094583 0.045485800418098216 0 0.031793719775067078 0.045729927895294391 0 0.033072838608214875 0.045276501241248018 0 0.030543582606375342 0.046327690205833223 0 0.03248269432245747 0.044998980491127855 0 0.033159044630294641 0.045295696177651897 0 0.030171156308642123 0.04499973631212275 0 0.030543582606375342 0.046327690205833223 0 0.03248269432245747 0.044998980491127855 0 0.032986556776588349 0.045292568136506645 0 0.033159044630294641 0.045295696177651897 0 0.033412039346202585 0.045331029901030315 0 0.034792831478903261 0.04499990232770635 0 0.03248269432245747 0.044998980491127855 0 0.033159044630294641 0.045295696177651897 0 0.034275019475110115 0.045179459252145539 0 0.033159044630294641 0.045295696177651897 0 0.033412039346202585 0.045331029901030315 0 0.034275019475110115 0.045179459252145539 0 0.033412039346202585 0.045331029901030315 0 0.033707500714094583 0.045485800418098216 0 0.034494048487216399 0.045921499545506658 0 0.033707500714094583 0.045485800418098216 0 0.033623051295263828 0.046049396756813049 0 0.034494048487216399 0.045921499545506658 0 0.033623051295263828 0.046049396756813049 0 0.03404316129494455 0.046551622638425424 0 0.033707500714094583 0.045485800418098216 0 0.033623051295263828 0.046049396756813049 0 0.033295952886341885 0.045700102831870315 0 0.032759243911283854 0.046177123872134643 0 0.033623051295263828 0.046049396756813049 0 0.033295952886341885 0.045700102831870315 0 0.032759243911283854 0.046177123872134643 0 0.032986556776588349 0.045292568136506645 0 0.033295952886341885 0.045700102831870315 0 0.032759243911283854 0.046177123872134643 0 0.033623051295263828 0.046049396756813049 0 0.033357030027563017 0.046681398321016053 0 0.033357030027563017 0.046681398321016053 0 0.033731676942347834 0.04733573212979654 0 0.032762775112816833 0.047065896483872091 0 0.032759243911283854 0.046177123872134643 0 0.033357030027563017 0.046681398321016053 0 0.032762775112816833 0.047065896483872091 0 0.033357030027563017 0.046681398321016053 0 0.03404316129494455 0.046551622638425424 0 0.033731676942347834 0.04733573212979654 0 0.035284054036524924 0.04683562908789738 0 0.03404316129494455 0.046551622638425424 0 0.033731676942347834 0.04733573212979654 0 0.033623051295263828 0.046049396756813049 0 0.033357030027563017 0.046681398321016053 0 0.03404316129494455 0.046551622638425424 0 0.034377852723069174 0.037275740664607981 0 0.033728048385300517 0.036505369623514743 0 0.034508931624336221 0.036294669978991008 0 0.033728048385300517 0.036505369623514743 0 0.033349197728082251 0.035597652334718378 0 0.032880645445677883 0.036818261069136292 0 0.033728048385300517 0.036505369623514743 0 0.034508931624336221 0.036294669978991008 0 0.033349197728082251 0.035597652334718378 0 0.03403101960272719 0.037584235548336301 0 0.031290722211444674 0.039489078802055266 0 0.031290722211444674 0.039489078802055266 0 0.028726015178600819 0.043611817809325715 0 0.031290722211444674 0.039489078802055266 0 0.027456093709861275 0.03738324864192822 0 0.024238721377951852 0.039509964808145961 0 0.02571897005729476 0.038686809644709781 0 0.025367907665358066 0.039766030153390627 0 0.033349197728082251 0.035597652334718378 0 0.032880645445677883 0.036818261069136292 0 0.030108273669844827 0.036394933499740142 0 0.0306539