<?xml version="1.0"?>
<VTKFile type="UnstructuredGrid" version="0.1" byte_order="LittleEndian">
<UnstructuredGrid>
<Piece NumberOfPoints="31242" NumberOfCells="10938">
<Points>
<DataArray type="Float64" NumberOfComponents="3" format="ascii">
-0.5 -0.5 0 -0.47795184863706058 -0.47605366015346512 0 -0.5 -0.46379374102676468 0 -0.5 -0.5 0 -0.47795184863706058 -0.47605366015346512 0 -0.43724652468332559 -0.49298809316411052 0 -0.5 -0.5 0 -0.41204521165039931 -0.5 0 -0.43724652468332559 -0.49298809316411052 0 -0.47795184863706058 -0.47605366015346512 0 -0.45293489351249522 -0.47280119158147388 0 -0.43724652468332559 -0.49298809316411052 0 -0.45293489351249522 -0.47280119158147388 0 -0.43724652468332559 -0.49298809316411052 0 -0.42946446641715152 -0.47107077226674782 0 -0.45293489351249522 -0.47280119158147388 0 -0.43724652468332559 -0.49298809316411052 0 -0.44827812679394158 -0.45119319405189923 0 -0.44058545431936641 -0.43111359809387129 0 -0.42713402267955802 -0.44724606346940271 0 -0.44827812679394158 -0.45119319405189923 0 -0.46514408866662371 -0.43972657361452189 0 -0.44058545431936641 -0.43111359809387129 0 -0.45293489351249522 -0.47280119158147388 0 -0.44827812679394158 -0.45119319405189923 0 -0.42946446641715152 -0.47107077226674782 0 -0.47795184863706058 -0.47605366015346512 0 -0.45293489351249522 -0.47280119158147388 0 -0.46862326234166479 -0.45261428999883718 0 -0.45293489351249522 -0.47280119158147388 0 -0.46862326234166479 -0.45261428999883718 0 -0.45293489351249522 -0.47280119158147388 0 -0.44827812679394158 -0.45119319405189923 0 -0.46862326234166479 -0.45261428999883718 0 -0.44827812679394158 -0.45119319405189923 0 -0.46514408866662371 -0.43972657361452189 0 -0.46862326234166479 -0.45261428999883718 0 -0.5 -0.46379374102676468 0 -0.4869867311117832 -0.45069596267126438 0 -0.50000000000000244 -0.41224048683356268 0 -0.46862326234166479 -0.45261428999883718 0 -0.48431163117083442 -0.43242738841620071 0 -0.46514408866662371 -0.43972657361452189 0 -0.46862326234166479 -0.45261428999883718 0 -0.48431163117083442 -0.43242738841620071 0 -0.46862326234166479 -0.45261428999883718 0 -0.4869867311117832 -0.45069596267126438 0 -0.48431163117083442 -0.43242738841620071 0 -0.47795184863706058 -0.47605366015346512 0 -0.46862326234166479 -0.45261428999883718 0 -0.4869867311117832 -0.45069596267126438 0 -0.47795184863706058 -0.47605366015346512 0 -0.5 -0.46379374102676468 0 -0.4869867311117832 -0.45069596267126438 0 -0.4869867311117832 -0.45069596267126438 0 -0.50000000000000244 -0.41224048683356268 0 -0.48431163117083442 -0.43242738841620071 0 -0.50000000000000244 -0.41224048683356268 0 -0.48431163117083442 -0.43242738841620071 0 -0.50000000000000244 -0.41224048683356268 0 -0.47597495532123679 -0.4073674950046664 0 -0.48431163117083442 -0.43242738841620071 0 -0.47597495532123679 -0.4073674950046664 0 -0.46972137114988688 -0.42293002232527299 0 -0.48431163117083442 -0.43242738841620071 0 -0.46514408866662371 -0.43972657361452189 0 -0.46972137114988688 -0.42293002232527299 0 -0.48431163117083442 -0.43242738841620071 0 -0.5 -0.38657535762400519 0 -0.48447750990217747 -0.3773321700883781 0 -0.48444911161849968 -0.39321082048308048 0 -0.5 -0.38657535762400519 0 -0.48447750990217747 -0.3773321700883781 0 -0.49388405634976068 -0.36586542934850391 0 -0.50000000000000244 -0.41224048683356268 0 -0.5 -0.38657535762400519 0 -0.48444911161849968 -0.39321082048308048 0 -0.50000000000000244 -0.41224048683356268 0 -0.47597495532123679 -0.4073674950046664 0 -0.48444911161849968 -0.39321082048308048 0 -0.47597495532123679 -0.4073674950046664 0 -0.48444911161849968 -0.39321082048308048 0 -0.47133630665741683 -0.383782136233079 0 -0.47597495532123679 -0.4073674950046664 0 -0.47133630665741683 -0.383782136233079 0 -0.46002581970382872 -0.39557709725316959 0 -0.48447750990217747 -0.3773321700883781 0 -0.47133630665741683 -0.383782136233079 0 -0.47311469309649418 -0.36646648267369708 0 -0.48447750990217747 -0.3773321700883781 0 -0.48444911161849968 -0.39321082048308048 0 -0.47133630665741683 -0.383782136233079 0 -0.47133630665741683 -0.383782136233079 0 -0.45878145684672639 -0.37764382617579112 0 -0.46002581970382872 -0.39557709725316959 0 -0.45878145684672639 -0.37764382617579112 0 -0.46002581970382872 -0.39557709725316959 0 -0.4430368945972154 -0.38912560690515291 0 -0.47133630665741683 -0.383782136233079 0 -0.45878145684672639 -0.37764382617579112 0 -0.47311469309649418 -0.36646648267369708 0 -0.47597495532123679 -0.4073674950046664 0 -0.46002581970382872 -0.39557709725316959 0 -0.45409049163191961 -0.4144260902598374 0 -0.46002581970382872 -0.39557709725316959 0 -0.4430368945972154 -0.38912560690515291 0 -0.45409049163191961 -0.4144260902598374 0 -0.4430368945972154 -0.38912560690515291 0 -0.45409049163191961 -0.4144260902598374 0 -0.4271091944166393 -0.40750367723937159 0 -0.4430368945972154 -0.38912560690515291 0 -0.45409049163191961 -0.4144260902598374 0 -0.45878145684672639 -0.37764382617579112 0 -0.4430368945972154 -0.38912560690515291 0 -0.44736058885755631 -0.36924426179403502 0 -0.46514408866662371 -0.43972657361452189 0 -0.46972137114988688 -0.42293002232527299 0 -0.45409049163191961 -0.4144260902598374 0 -0.46514408866662371 -0.43972657361452189 0 -0.45409049163191961 -0.4144260902598374 0 -0.44058545431936641 -0.43111359809387129 0 -0.46514408866662371 -0.43972657361452189 0 -0.45409049163191961 -0.4144260902598374 0 -0.47597495532123679 -0.4073674950046664 0 -0.46972137114988688 -0.42293002232527299 0 -0.45409049163191961 -0.4144260902598374 0 -0.45409049163191961 -0.4144260902598374 0 -0.44058545431936641 -0.43111359809387129 0 -0.4271091944166393 -0.40750367723937159 0 -0.44058545431936641 -0.43111359809387129 0 -0.4271091944166393 -0.40750367723937159 0 -0.4205505665849163 -0.42886980334533198 0 -0.44058545431936641 -0.43111359809387129 0 -0.4205505665849163 -0.42886980334533198 0 -0.42713402267955802 -0.44724606346940271 0 -0.4271091944166393 -0.40750367723937159 0 -0.40750533036323627 -0.4019229721085929 0 -0.40378873097598922 -0.41822350234849121 0 -0.4271091944166393 -0.40750367723937159 0 -0.4205505665849163 -0.42886980334533198 0 -0.40378873097598922 -0.41822350234849121 0 -0.4271091944166393 -0.40750367723937159 0 -0.40378873097598922 -0.41822350234849121 0 -0.4205505665849163 -0.42886980334533198 0 -0.40378873097598922 -0.41822350234849121 0 -0.40413543053302903 -0.44026217557552327 0 -0.4430368945972154 -0.38912560690515291 0 -0.4221617728068181 -0.38982060454678141 0 -0.42981532751476642 -0.37395602828015539 0 -0.4430368945972154 -0.38912560690515291 0 -0.42981532751476642 -0.37395602828015539 0 -0.43198329756251208 -0.36382512355046798 0 -0.4430368945972154 -0.38912560690515291 0 -0.43198329756251208 -0.36382512355046798 0 -0.4430368945972154 -0.38912560690515291 0 -0.4271091944166393 -0.40750367723937159 0 -0.4221617728068181 -0.38982060454678141 0 -0.4271091944166393 -0.40750367723937159 0 -0.4221617728068181 -0.38982060454678141 0 -0.40750533036323627 -0.4019229721085929 0 -0.4221617728068181 -0.38982060454678141 0 -0.40750533036323627 -0.4019229721085929 0 -0.39991802869453619 -0.38616299448437091 0 -0.4221617728068181 -0.38982060454678141 0 -0.4131317236626012 -0.37581026136176771 0 -0.39991802869453619 -0.38616299448437091 0 -0.4221617728068181 -0.38982060454678141 0 -0.4131317236626012 -0.37581026136176771 0 -0.42981532751476642 -0.37395602828015539 0 -0.4131317236626012 -0.37581026136176771 0 -0.39991802869453619 -0.38616299448437091 0 -0.38767733865056309 -0.37417010576777587 0 -0.40750533036323627 -0.4019229721085929 0 -0.39991802869453619 -0.38616299448437091 0 -0.38454892492219911 -0.40790408192394961 0 -0.39991802869453619 -0.38616299448437091 0 -0.38454892492219911 -0.40790408192394961 0 -0.37340776885248012 -0.38891187046116732 0 -0.38767733865056309 -0.37417010576777587 0 -0.37078259897342908 -0.36820202568301208 0 -0.37340776885248012 -0.38891187046116732 0 -0.39991802869453619 -0.38616299448437091 0 -0.38767733865056309 -0.37417010576777587 0 -0.37340776885248012 -0.38891187046116732 0 -0.40378873097598922 -0.41822350234849121 0 -0.38046826753533908 -0.42894332745761082 0 -0.40413543053302903 -0.44026217557552327 0 -0.40378873097598922 -0.41822350234849121 0 -0.38046826753533908 -0.42894332745761082 0 -0.40750533036323627 -0.4019229721085929 0 -0.40378873097598922 -0.41822350234849121 0 -0.38454892492219911 -0.40790408192394961 0 -0.40378873097598922 -0.41822350234849121 0 -0.38454892492219911 -0.40790408192394961 0 -0.38046826753533908 -0.42894332745761082 0 -0.38454892492219911 -0.40790408192394961 0 -0.38046826753533908 -0.42894332745761082 0 -0.36791701096730872 -0.42072079055445077 0 -0.37805396868239333 -0.48003158168880278 0 -0.41204521165039931 -0.5 0 -0.34566120454821442 -0.5 0 -0.38046826753533908 -0.42894332745761082 0 -0.38668011374112848 -0.45013858183215699 0 -0.37359482230272001 -0.44305135044452382 0 -0.38668011374112848 -0.45013858183215699 0 -0.3700831038397237 -0.45346033992159729 0 -0.37359482230272001 -0.44305135044452382 0 -0.38046826753533908 -0.42894332745761082 0 -0.38668011374112848 -0.45013858183215699 0 -0.40413543053302903 -0.44026217557552327 0 -0.38668011374112848 -0.45013858183215699 0 -0.38301840358475803 -0.4672575272764653 0 -0.40564696752996521 -0.4690908853242402 0 -0.38668011374112848 -0.45013858183215699 0 -0.40413543053302903 -0.44026217557552327 0 -0.40564696752996521 -0.4690908853242402 0 -0.38668011374112848 -0.45013858183215699 0 -0.38301840358475803 -0.4672575272764653 0 -0.3700831038397237 -0.45346033992159729 0 -0.38301840358475803 -0.4672575272764653 0 -0.3700831038397237 -0.45346033992159729 0 -0.37805396868239333 -0.48003158168880278 0 -0.40564696752996521 -0.4690908853242402 0 -0.41204521165039931 -0.5 0 -0.38301840358475803 -0.4672575272764653 0 -0.37805396868239333 -0.48003158168880278 0 -0.40564696752996521 -0.4690908853242402 0 -0.38301840358475803 -0.4672575272764653 0 -0.37805396868239333 -0.48003158168880278 0 -0.36544231781700848 -
[...]
<PointData Scalars="" Vectors="displacement," Tensors="">
<DataArray type="Float64" Name="displacement" NumberOfComponents="3" format="ascii">
0.044998847712924547 1.4987174767925249e-07 0 0.043825466439447805 8.7591166645331644e-05 0 0.04499816993360542 3.3759028858742982e-07 0 0.044998847712924547 1.4987174767925249e-07 0 0.043825466439447805 8.7591166645331644e-05 0 0.039353999180158014 -0.00022701458573097367 0 0.044998847712924547 1.4987174767925249e-07 0 0.037084043840870697 -1.5034824853577056e-06 0 0.039353999180158014 -0.00022701458573097367 0 0.043825466439447805 8.7591166645331644e-05 0 0.04280271907898902 -0.00052454324775067114 0 0.039353999180158014 -0.00022701458573097367 0 0.037444312959888627 -0.0017483358395009134 0 0.039353999180158014 -0.00022701458573097367 0 0.037072063724329245 -0.00039242910490326855 0 0.040127532389795113 -0.0010019614195949671 0 0.039605285804332771 -0.00034199701304215749 0 0.036962198795122296 -0.0016960103234123396 0 0.036112780614892127 -0.0013860450879198054 0 0.036303734178940658 -0.00060459632318079061 0 0.036962198795122296 -0.0016960103234123396 0 0.038122713949148887 -0.0022752656913237559 0 0.036112780614892127 -0.0013860450879198054 0 0.037444312959888627 -0.0017483358395009134 0 0.036962198795122296 -0.0016960103234123396 0 0.037072063724329245 -0.00039242910490326855 0 0.043825466439447805 8.7591166645331644e-05 0 0.04280271907898902 -0.00052454324775067114 0 0.044535018159929739 -0.00023398545150250349 0 0.040127532389795113 -0.0010019614195949671 0 0.040846665335213923 -0.0010337965342235335 0 0.037444312959888627 -0.0017483358395009134 0 0.036962198795122296 -0.0016960103234123396 0 0.037051446099099203 -0.0019224786305817904 0 0.036962198795122296 -0.0016960103234123396 0 0.038122713949148887 -0.0022752656913237559 0 0.037051446099099203 -0.0019224786305817904 0 0.04499816993360542 3.3759028858742982e-07 0 0.04484522335562352 2.9245824203044083e-05 0 0.04500068351985493 -1.2231612843580997e-07 0 0.040846665335213923 -0.0010337965342235335 0 0.04268535914337887 -0.00015654674136458097 0 0.038122713949148887 -0.0022752656913237559 0 0.037051446099099203 -0.0019224786305817904 0 0.040537600100801471 2.6232002823080249e-05 0 0.044535018159929739 -0.00023398545150250349 0 0.04484522335562352 2.9245824203044083e-05 0 0.044930856910304517 -1.3187499807407978e-05 0 0.043825466439447805 8.7591166645331644e-05 0 0.044535018159929739 -0.00023398545150250349 0 0.04484522335562352 2.9245824203044083e-05 0 0.043825466439447805 8.7591166645331644e-05 0 0.04499816993360542 3.3759028858742982e-07 0 0.04484522335562352 2.9245824203044083e-05 0 0.04484522335562352 2.9245824203044083e-05 0 0.04500068351985493 -1.2231612843580997e-07 0 0.044930856910304517 -1.3187499807407978e-05 0 0.044998984037099385 -3.6196538789264441e-08 0 0.04268535914337887 -0.00015654674136458097 0 0.044994021130096304 3.0191409438571779e-06 0 0.043874565605440494 -0.00092404112899172443 0 0.040537600100801471 2.6232002823080249e-05 0 0.043874565605440494 -0.00092404112899172443 0 0.041594447102548657 -0.0014481916373568517 0 0.040537600100801471 2.6232002823080249e-05 0 0.038122713949148887 -0.0022752656913237559 0 0.041594447102548657 -0.0014481916373568517 0 0.040537600100801471 2.6232002823080249e-05 0 0.045000815694937489 -1.1747164743881785e-06 0 0.044856253367066203 -0.00049427923581627094 0 0.044588319410378295 -0.00048323196661980355 0 0.045000815694937489 -1.1747164743881785e-06 0 0.044856253367066203 -0.00049427923581627094 0 0.045008226141042197 -0.00011646419560376433 0 0.044994021130096304 3.0191409438571779e-06 0 0.045000815694937489 -1.1747164743881785e-06 0 0.044588319410378295 -0.00048323196661980355 0 0.044994021130096304 3.0191409438571779e-06 0 0.043874565605440494 -0.00092404112899172443 0 0.044588319410378295 -0.00048323196661980355 0 0.043874565605440494 -0.00092404112899172443 0 0.044588319410378295 -0.00048323196661980355 0 0.044642835904917008 -0.0010699032869280955 0 0.043874565605440494 -0.00092404112899172443 0 0.044642835904917008 -0.0010699032869280955 0 0.044163479129459171 -0.0017667574674056674 0 0.044856253367066203 -0.00049427923581627094 0 0.044642835904917008 -0.0010699032869280955 0 0.044916137527367353 -0.00094238170234388666 0 0.044856253367066203 -0.00049427923581627094 0 0.044588319410378295 -0.00048323196661980355 0 0.044642835904917008 -0.0010699032869280955 0 0.044642835904917008 -0.0010699032869280955 0 0.044608149106207341 -0.0014910105731842304 0 0.044163479129459171 -0.0017667574674056674 0 0.044608149106207341 -0.0014910105731842304 0 0.044163479129459171 -0.0017667574674056674 0 0.044263089696402247 -0.0019983904424430601 0 0.044642835904917008 -0.0010699032869280955 0 0.044608149106207341 -0.0014910105731842304 0 0.044916137527367353 -0.00094238170234388666 0 0.043874565605440494 -0.00092404112899172443 0 0.044163479129459171 -0.0017667574674056674 0 0.04303297398919409 -0.0028471483193494209 0 0.044163479129459171 -0.0017667574674056674 0 0.044263089696402247 -0.0019983904424430601 0 0.04303297398919409 -0.0028471483193494209 0 0.033636754476360949 -0.0018658639511123043 0 0.034981993933841202 -0.0022856838477955644 0 0.034144208578176703 -0.0011400437923325603 0 0.03939580990266825 -0.0021141054347449274 0 0.03878206323784144 -0.0024280279453100604 0 0.044608149106207341 -0.0014910105731842304 0 0.044263089696402247 -0.0019983904424430601 0 0.044624527997638143 -0.001660538120602196 0 0.038122713949148887 -0.0022752656913237559 0 0.041594447102548657 -0.0014481916373568517 0 0.04303297398919409 -0.0028471483193494209 0 0.038122713949148887 -0.0022752656913237559 0 0.034981993933841202 -0.0022856838477955644 0 0.036112780614892127 -0.0013860450879198054 0 0.038107086437294088 -0.0022628629151250756 0 0.03878206323784144 -0.0024280279453100604 0 0.043874565605440494 -0.00092404112899172443 0 0.041594447102548657 -0.0014481916373568517 0 0.04303297398919409 -0.0028471483193494209 0 0.034981993933841202 -0.0022856838477955644 0 0.036112780614892127 -0.0013860450879198054 0 0.034144208578176703 -0.0011400437923325603 0 0.036112780614892127 -0.0013860450879198054 0 0.034144208578176703 -0.0011400437923325603 0 0.035633542076162261 -0.000538986183535864 0 0.036112780614892127 -0.0013860450879198054 0 0.035633542076162261 -0.000538986183535864 0 0.036303734178940658 -0.00060459632318079061 0 0.034144208578176703 -0.0011400437923325603 0 0.033371465630295048 -0.0014609371300298981 0 0.032955182339872283 -0.0015244411343596383 0 0.034144208578176703 -0.0011400437923325603 0 0.035633542076162261 -0.000538986183535864 0 0.035244933460638464 1.8373649502482645e-05 0 0.034085534602790735 -0.0011750296754786441 0 0.03408037200379932 -0.00080967437242572343 0 0.035633542076162261 -0.000538986183535864 0 0.035244933460638464 1.8373649502482645e-05 0 0.035664216606880093 -4.9839419467064336e-05 0 0.033636754476360949 -0.0018658639511123043 0 0.03352793982933458 -0.0014121081250477333 0 0.033391363041767888 -0.0016844128008779884 0 0.033636754476360949 -0.0018658639511123043 0 0.033391363041767888 -0.0016844128008779884 0 0.033412222035005032 -0.0017351548992672523 0 0.03939580990266825 -0.0021141054347449274 0 0.036794174165809088 -0.0012373990248671838 0 0.033636754476360949 -0.0018658639511123043 0 0.034144208578176703 -0.0011400437923325603 0 0.03352793982933458 -0.0014121081250477333 0 0.034144208578176703 -0.0011400437923325603 0 0.03352793982933458 -0.0014121081250477333 0 0.033371465630295048 -0.0014609371300298981 0 0.03352793982933458 -0.0014121081250477333 0 0.033371465630295048 -0.0014609371300298981 0 0.03314240078947036 -0.0015944439750315979 0 0.03352793982933458 -0.0014121081250477333 0 0.033200519436673168 -0.0014934892261919128 0 0.03314240078947036 -0.0015944439750315979 0 0.03352793982933458 -0.0014121081250477333 0 0.033200519436673168 -0.0014934892261919128 0 0.033391363041767888 -0.0016844128008779884 0 0.033200519436673168 -0.0014934892261919128 0 0.03314240078947036 -0.0015944439750315979 0 0.03291726125744187 -0.0017847310174141718 0 0.033371465630295048 -0.0014609371300298981 0 0.03314240078947036 -0.0015944439750315979 0 0.03288497984219612 -0.0018378968417035266 0 0.03314240078947036 -0.0015944439750315979 0 0.03288497984219612 -0.0018378968417035266 0 0.032753567063747567 -0.0019855547195649918 0 0.03291726125744187 -0.0017847310174141718 0 0.032674786345955366 -0.0020558299851445006 0 0.032753567063747567 -0.0019855547195649918 0 0.03314240078947036 -0.0015944439750315979 0 0.03291726125744187 -0.0017847310174141718 0 0.032753567063747567 -0.0019855547195649918 0 0.035244933460638464 1.8373649502482645e-05 0 0.035542559189345548 -6.9020528169377903e-05 0 0.035664216606880093 -4.9839419467064336e-05 0 0.03408037200379932 -0.00080967437242572343 0 0.03423173320889885 -0.0011094398648823576 0 0.033371465630295048 -0.0014609371300298981 0 0.032955182339872283 -0.0015244411343596383 0 0.03288497984219612 -0.0018378968417035266 0 0.032955182339872283 -0.0015244411343596383 0 0.03288497984219612 -0.0018378968417035266 0 0.03258489277920739 -0.0018901161787194505 0 0.03288497984219612 -0.0018378968417035266 0 0.03258489277920739 -0.0018901161787194505 0 0.032622851309555785 -0.0020231632981612441 0 0.033930518476018107 3.8193962789491238e-05 0 0.037084043840870697 -1.5034824853577056e-06 0 0.031109733526547653 1.1359829999536632e-06 0 0.035542559189345548 -6.9020528169377903e-05 0 0.035309201451376712 -1.0659716999957884e-05 0 0.035344357300894053 -0.00029622632452246773 0 0.035309201451376712 -1.0659716999957884e-05 0 0.035089839289324423 -0.00046333014556124922 0 0.035344357300894053 -0.00029622632452246773 0 0.035542559189345548 -6.9020528169377903e-05 0 0.035309201451376712 -1.0659716999957884e-05 0 0.035664216606880093 -4.9839419467064336e-05 0 0.035309201451376712 -1.0659716999957884e-05 0 0.034326872463478209 -9.2646366897644353e-05 0 0.035784640477305424 4.5457263101964933e-05 0 0.035309201451376712 -1.0659716999957884e-05 0 0.035664216606880093 -4.9839419467064336e-05 0 0.035784640477305424 4.5457263101964933e-05 0 0.035309201451376712 -1.0659716999957884e-05 0 0.034326872463478209 -9.2646366897644353e-05 0 0.035089839289324423 -0.00046333014556124922 0 0.034080560558958861 -4.7604662166379759e-05 0 0.034009355882067702 -0.00025275347271232868 0 0.033930518476018107 3.8193962789491238e-05 0 0.035784640477305424 4.5457263101964933e-05 0 0.037084043840870697 -1.5034824853577056e-06 0 0.034326872463478209 -9.2646366897644353e-05 0 0.033930518476018107 3.8193962789491238e-05 0 0.035784640477305424 4.5457263101964933e-05 0 0.034326872463478209 -9.2646366897644353e-05 0 0.033930518476018107 3.8193962789491238e-05 0 0.032646427032946547 0.00010050262555638413 0 0.035784640477305424 4.5457263101964933e-05 0 0.037084043840870697 -1.5034824853577056e-06 0 0.037072063724329245 -0.00039242910490326855 0 0.037084043840870697 -1.5034824853577056e-06 0 0.039353999180158014 -0.00022701458573097367 0 0.037072063724329245 -0.00039242910490326855 0 0.036962198795122296 -0.0016960103234123396 0 0.037072063724329245 -0.00039242910490326855 0 0.036303734178940658 -0.00060459632318079061 0 0.035664216606880093 -4.9839419467064336e-05 0 0.035784640477305424 4.5457263101964933e-05 0 0.036303734178940658 -0.00060459632318079061 0 0.035633542076162261 -0.000538986183535864 0 0.035664216606880093 -4.9839419467064336e-05 0 0.036303734178940658 -0.00060459632318079061 0 0.035784640477305424 4.5457263101964933e-05 0 0.037072063724329245 -0.00039242910490326855 0 0.036303734178940658 -0.00060459632318079061 0 0.034204681429961345 0.00014488142384548204 0 0.034195346399488194 6.2701273182793249e-05 0 0.034120916993981086 0.00016490034006198229 0 0.034204681429961345 0.00014488142384548204 0 0.034195346399488194 6.2701273182793249e-05 0 0.034161984287938686 0.00015530018936709807 0 0.034489082253548256 -0.00092054192913324114 0 0.034671187596026741 -0.00067129401940304483 0 0.034570166502343937 -0.00067425539255245583 0 0.04487828206179343 -3.2283198012585552e-05 0 0.044919414442737636 -2.4894003779233639e-05 0 0.044943160063188652 -7.496074290051524e-06 0 0.043412042510425214 0.0015356333006885841 0 0.0435213574070209 0.00067649919790132738 0 0.043334312608901901 0.0011660882367255142 0 0.039391009207160904 0.0001716993756199989 0 0.044837170676076184 0.00039812037412253153 0 0.039391009207160904 0.0001716993756199989 0 0.039622745737373143 8.9612181157927345e-05 0 0.034204681429961345 0.00014488142384548204 0 0.034120916993981086 0.00016490034006198229 0 0.034230867441157033 0.0001751567929009411 0 0.044919414442737636 -2.4894003779233639e-05 0 0.044957938934111263 -9.9183289638049834e-06 0 0.044943160063188652 -7.496074290051524e-06 0 0.044957938934111263 -9.9183289638049834e-06 0 0.044999956899474489 -3.9832174771621346e-09 0 0.044943160063188652 -7.496074290051524e-06 0 0.044999956899474489 -3.9832174771621346e-09 0 0.044943160063188652 -7.496074290051524e-06 0 0.04500776439019661 -5.5814916564937765e-09 0 0.044837170676076184 0.00039812037412253153 0 0.045007182644891744 3.8089649357910013e-07 0 0.0435213574070209 0.00067649919790132738 0 0.044597773858172068 0.00020079040067455794 0 0.044257502147331595 0.00062691752751445405 0 0.0435213574070209 0.00067649919790132738 0 0.045005663627678535 -1.0106341183677452e-07 0 0.044597773858172068 0.00020079040067455794 0 0.045005663627678535 -1.0106341183677452e-07 0 0.044597773858172068 0.00020079040067455794 0 0.044999929660178462 1.2234227307215586e-07 0 0.044597773858172068 0.00020079040067455794 0 0.044999929660178462 1.2234227307215586e-07 0 0.044910843844505478 0.00020813634486810121 0 0.044597773858172068 0.00020079040067455794 0 0.044257502147331595 0.00062691752751445405 0 0.044910843844505478 0.00020813634486810121 0 0.043950874358729825 0.0011308153981258295 0 0.044070387644531653 0.001879613119416439 0 0.045018473454018243 0.00077678225114709764 0 0.044257502147331595 0.00062691752751445405 0 0.043950874358729825 0.0011308153981258295 0 0.045018473454018243 0.00077678225114709764 0 0.0435213574070209 0.00067649919790132738 0 0.044257502147331595 0.00062691752751445405 0 0.043334312608901901 0.0011660882367255142 0 0.044257502147331595 0.00062691752751445405 0 0.043950874358729825 0.0011308153981258295 0 0.043334312608901901 0.0011660882367255142 0 0.043950874358729825 0.0011308153981258295 0 0.043334312608901901 0.0011660882367255142 0 0.042557946376146571 0.0015589676758632899 0 0.039391009207160904 0.0001716993756199989 0 0.037901926244404825 -0.00015838122325795249 0 0.043412042510425214 0.0015356333006885841 0 0.042557946376146571 0.0015589676758632899 0 0.041478598441147166 0.00020615443795874992 0 0.042277137856290614 0.0015697905535708029 0 0.042271362515283968 0.0005908518786829093 0 0.043412042510425214 0.0015356333006885841 0 0.043334312608901901 0.0011660882367255142 0 0.042557946376146571 0.0015589676758632899 0 0.042557946376146571 0.0015589676758632899 0 0.040460798019159909 0.0011322585374319131 0 0.039457244499718484 0.0019437520514201299 0 0.042557946376146571 0.0015589676758632899 0 0.040460798019159909 0.0011322585374319131 0 0.041478598441147166 0.00020615443795874992 0 0.038616392558663379 0.0023936254066279652 0 0.038472170975476033 0.0010040517111033391 0 0.034681628577420541 0.00078147796678075207 0 0.040460798019159909 0.0011322585374319131 0 0.038472170975476033 0.0010040517111033391 0 0.041478598441147166 0.00020615443795874992 0 0.040448040608873914 0.0016453408408520626 0 0.042271362515283968 0.0005908518786829093 0 0.040460798019159909 0.0011322585374319131 0 0.038616392558663379 0.0023936254066279652 0 0.038472170975476033 0.0010040517111033391 0 0.043950874358729825 0.0011308153981258295 0 0.042557946376146571 0.0015589676758632899 0 0.044070387644531653 0.001879613119416439 0 0.04542576261980575 -0.0014603025611052498 0 0.045282504146213987 -0.0015350944791858812 0 0.04532065539614686 -0.0012964097963846981 0 0.042271362515283968 0.0005908518786829093 0 0.039960835668774779 -0.00039040800730692006 0 0.042271362515283968 0.0005908518786829093 0 0.045617530466189181 -0.0004208024908796431 0 0.045282504146213987 -0.0015350944791858812 0 0.045119542812417715 -0.0013606719047287185 0 0.04532065539614686 -0.0012964097963846981 0 0.045282504146213987 -0.0015350944791858812 0 0.045119542812417715 -0.0013606719047287185 0 0.044977799392303952 -0.0017045466126624055 0 0.039960835668774779 -0.00039040800730692006 0 0.040118848393358164 -0.00073378979908442568 0 0.045119542812417715 -0.0013606719047287185 0 0.04532065539614686 -0.0012964097963846981 0 0.045249408328620233 -0.00094014911242316294 0 0.044257502147331595 0.00062691752751445405 0 0.045018473454018243 0.00077678225114709764 0 0.044910843844505478 0.00020813634486810121 0 0.044999929660178462 1.2234227307215586e-07 0 0.044910843844505478 0.00020813634486810121 0 0.045000127943610906 9.8665758099936389e-08 0 0.044910843844505478 0.00020813634486810121 0 0.045000127943610906 9.8665758099936389e-08 0 0.045149392933026049 0.00018760136843864171 0 0.045018473454018243 0.00077678225114709764 0 0.044910843844505478 0.00020813634486810121 0 0.045149392933026049 0.00018760136843864171 0 0.045617530466189181 -0.0004208024908796431 0 0.045071430875394558 -0.00027875407740001292 0 0.045249408328620233 -0.00094014911242316294 0 0.044916137527367353 -0.00094238170234388666 0 0.045049903226463427 -0.00113943754714309 0 0.045249408328620233 -0.00094014911242316294 0 0.044994153559624175 -0.00061919959071544538 0 0.044916137527367353 -0.00094238170234388666 0 0.045071430875394558 -0.00027875407740001292 0 0.045021374837962577 -0.00014572836848149727 0 0.045149392933026049 0.00018760136843864171 0 0.045000018342485751 -7.5842028231564138e-08 0 0.045008226141042197 -0.00011646419560376433 0 0.045000127943610906 9.8665758099936389e-08 0 0.045149392933026049 0.00018760136843864171 0 0.045000018342485751 -7.5842028231564138e-08 0 0.045249408328620233 -0.00094014911242316294 0 0.045008226141042197 -0.00011646419560376433 0 0.044994153559624175 -0.00061919959071544538 0 0.045000815694937489 -1.1747164743881785e-06 0 0.045000018342485751 -7.5842028231564138e-08 0 0.045008226141042197 -0.00011646419560376433 0 0.044856253367066203 -0.00049427923581627094 0 0.045008226141042197 -0.00011646419560376433 0 0.044994153559624175 -0.00061919959071544538 0 0.044856253367066203 -0.00049427923581627094 0 0.044994153559624175 -0.00061919959071544538 0 0.044916137527367353 -0.00094238170234388666 0 0.044608149106207341 -0.0014910105731842304 0 0.044916137527367353 -0.00094238170234388666 0 0.044852974808800933 -0.0013871167543466449 0 0.044608149106207341 -0.0014910105731842304 0 0.044852974808800933 -0.0013871167543466449 0 0.044624527997638143 -0.001660538120602196 0 0.044916137527367353 -0.00094238170234388666 0 0.044852974808800933 -0.0013871167543466449 0 0.045049903226463427 -0.00113943754714309 0 0.045119542812417715 -0.0013606719047287185 0 0.044852974808800933 -0.0013871167543466449 0 0.045049903226463427 -0.00113943754714309 0 0.045119542812417715 -0.0013606719047287185 0 0.045249408328620233 -0.00094014911242316294 0 0.045049903226463427 -0.00113943754714309 0 0.045119542812417715 -0.0013606719047287185 0 0.044852974808800933 -0.0013871167543466449 0 0.044808095189294496 -0.0015998363204223996 0 0.044808095189294496 -0.0015998363204223996 0 0.044527109422358942 -0.001795404867860893 0 0.044977799392303952 -0.0017045466126624055 0 0.045119542812417715 -0.0013606719047287185 0 0.044808095189294496 -0.0015998363204223996 0 0.044977799392303952 -0.0017045466126624055 0 0.044808095189294496 -0.0015998363204223996 0 0.044624527997638143 -0.001660538120602196 0 0.044527109422358942 -0.001795404867860893 0 0.044263089696402247 -0.0019983904424430601 0 0.044624527997638143 -0.001660538120602196 0 0.044527109422358942 -0.001795404867860893 0 0.044852974808800933 -0.0013871167543466449 0 0.044808095189294496 -0.0015998363204223996 0 0.044624527997638143 -0.001