<?xml version="1.0"?>
<VTKFile type="UnstructuredGrid" version="0.1" byte_order="LittleEndian">
<UnstructuredGrid>
<Piece NumberOfPoints="32016" NumberOfCells="11230">
<Points>
<DataArray type="Float64" NumberOfComponents="3" format="ascii">
-0.5 -0.5 0 -0.48328874607572281 -0.4850609510635101 0 -0.455226377816977 -0.49999999999999989 0 -0.5 -0.5 0 -0.48328874607572281 -0.4850609510635101 0 -0.50000000000000067 -0.45896790037457941 0 -0.47436452440938143 -0.47020334289998561 0 -0.48328874607572281 -0.4850609510635101 0 -0.50000000000000067 -0.45896790037457941 0 -0.47436452440938143 -0.47020334289998561 0 -0.48328874607572281 -0.4850609510635101 0 -0.46600001859102591 -0.48450904025401559 0 -0.48328874607572281 -0.4850609510635101 0 -0.46600001859102591 -0.48450904025401559 0 -0.455226377816977 -0.49999999999999989 0 -0.46600001859102591 -0.48450904025401559 0 -0.455226377816977 -0.49999999999999989 0 -0.44872904881876202 -0.48143878542539148 0 -0.47436452440938143 -0.47020334289998561 0 -0.46298950248693432 -0.46957427846866362 0 -0.44872904881876202 -0.48143878542539148 0 -0.47436452440938143 -0.47020334289998561 0 -0.44872904881876202 -0.48143878542539148 0 -0.47436452440938143 -0.47020334289998561 0 -0.46600001859102591 -0.48450904025401559 0 -0.44872904881876202 -0.48143878542539148 0 -0.46298950248693432 -0.46957427846866362 0 -0.44310252590979649 -0.481756646885451 0 -0.44558914089297252 -0.46349256987908 0 -0.46298950248693432 -0.46957427846866362 0 -0.44872904881876202 -0.48143878542539148 0 -0.44310252590979649 -0.481756646885451 0 -0.46298950248693432 -0.46957427846866362 0 -0.44310252590979649 -0.481756646885451 0 -0.455226377816977 -0.49999999999999989 0 -0.44872904881876202 -0.48143878542539148 0 -0.44310252590979649 -0.481756646885451 0 -0.455226377816977 -0.49999999999999989 0 -0.44310252590979649 -0.481756646885451 0 -0.43427386886404679 -0.5 0 -0.455226377816977 -0.49999999999999989 0 -0.44310252590979649 -0.481756646885451 0 -0.4430326602296617 -0.44875178609279281 0 -0.45399287852383929 -0.44071002121683439 0 -0.44066417147267639 -0.42970466192102957 0 -0.4430326602296617 -0.44875178609279281 0 -0.44066417147267639 -0.42970466192102957 0 -0.43343167273111388 -0.44034352558896128 0 -0.4430326602296617 -0.44875178609279281 0 -0.45440482721045311 -0.45481073010188611 0 -0.45399287852383929 -0.44071002121683439 0 -0.44310252590979649 -0.481756646885451 0 -0.44558914089297252 -0.46349256987908 0 -0.42778746899760178 -0.45871133147268689 0 -0.4430326602296617 -0.44875178609279281 0 -0.44558914089297252 -0.46349256987908 0 -0.42778746899760178 -0.45871133147268689 0 -0.4430326602296617 -0.44875178609279281 0 -0.44558914089297252 -0.46349256987908 0 -0.45440482721045311 -0.45481073010188611 0 -0.46298950248693432 -0.46957427846866362 0 -0.45440482721045311 -0.45481073010188611 0 -0.46641995391885782 -0.45152499485205921 0 -0.46298950248693432 -0.46957427846866362 0 -0.44558914089297252 -0.46349256987908 0 -0.45440482721045311 -0.45481073010188611 0 -0.46641995391885782 -0.45152499485205921 0 -0.45399287852383929 -0.44071002121683439 0 -0.46674461834970271 -0.42977606619609859 0 -0.45440482721045311 -0.45481073010188611 0 -0.46641995391885782 -0.45152499485205921 0 -0.45399287852383929 -0.44071002121683439 0 -0.46641995391885782 -0.45152499485205921 0 -0.48287647906407211 -0.45739191005187613 0 -0.47981586009813282 -0.43710055176440449 0 -0.46641995391885782 -0.45152499485205921 0 -0.47981586009813282 -0.43710055176440449 0 -0.46674461834970271 -0.42977606619609859 0 -0.48287647906407211 -0.45739191005187613 0 -0.48858681909757851 -0.44615409755157109 0 -0.47981586009813282 -0.43710055176440449 0 -0.46298950248693432 -0.46957427846866362 0 -0.48287647906407211 -0.45739191005187613 0 -0.46298950248693432 -0.46957427846866362 0 -0.46641995391885782 -0.45152499485205921 0 -0.48287647906407211 -0.45739191005187613 0 -0.47436452440938143 -0.47020334289998561 0 -0.46298950248693432 -0.46957427846866362 0 -0.48287647906407211 -0.45739191005187613 0 -0.47436452440938143 -0.47020334289998561 0 -0.50000000000000067 -0.45896790037457941 0 -0.48287647906407211 -0.45739191005187613 0 -0.50000000000000067 -0.45896790037457941 0 -0.48858681909757851 -0.44615409755157109 0 -0.47436452440938143 -0.47020334289998561 0 -0.48287647906407211 -0.45739191005187613 0 -0.50000000000000067 -0.45896790037457941 0 -0.5 -0.44080286266802488 0 -0.48858681909757851 -0.44615409755157109 0 -0.47981586009813282 -0.43710055176440449 0 -0.50000000000000067 -0.45896790037457941 0 -0.5 -0.44080286266802488 0 -0.48858681909757851 -0.44615409755157109 0 -0.50000000000000555 -0.4226378249614704 0 -0.47818379663212812 -0.41504565979021102 0 -0.47981586009813282 -0.43710055176440449 0 -0.5 -0.44080286266802488 0 -0.50000000000000555 -0.4226378249614704 0 -0.47981586009813282 -0.43710055176440449 0 -0.50000000000000178 -0.41565642708317613 0 -0.47818379663212518 -0.41039139453801587 0 -0.50000000000000555 -0.4226378249614704 0 -0.47818379663212812 -0.41504565979021102 0 -0.50000000000000555 -0.4226378249614704 0 -0.50000000000000178 -0.41565642708317613 0 -0.47818379663212812 -0.41504565979021102 0 -0.50000000000000178 -0.41565642708317613 0 -0.47818379663212518 -0.41039139453801587 0 -0.48743273740061099 -0.39833230324800217 0 -0.50000000000000178 -0.41565642708317613 0 -0.47818379663212812 -0.41504565979021102 0 -0.47818379663212518 -0.41039139453801587 0 -0.47818379663212812 -0.41504565979021102 0 -0.47818379663212518 -0.41039139453801587 0 -0.45636759326425003 -0.40745349461895342 0 -0.47818379663212812 -0.41504565979021102 0 -0.47981586009813282 -0.43710055176440449 0 -0.46674461834970271 -0.42977606619609859 0 -0.5 -0.38781992277099819 0 -0.48703743130620791 -0.38162664269125701 0 -0.48831983906046478 -0.36921401449141872 0 -0.5 -0.38781992277099819 0 -0.48703743130620791 -0.38162664269125701 0 -0.48743273740061099 -0.39833230324800217 0 -0.50000000000000178 -0.41565642708317613 0 -0.5 -0.38781992277099819 0 -0.48743273740061099 -0.39833230324800217 0 -0.47818379663212518 -0.41039139453801587 0 -0.47406677622447041 -0.39606351386881239 0 -0.45636759326424847 -0.40512636199285601 0 -0.48703743130620791 -0.38162664269125701 0 -0.48743273740061099 -0.39833230324800217 0 -0.47406677622447041 -0.39606351386881239 0 -0.47818379663212518 -0.41039139453801587 0 -0.48743273740061099 -0.39833230324800217 0 -0.47406677622447041 -0.39606351386881239 0 -0.48703743130620791 -0.38162664269125701 0 -0.47406677622447041 -0.39606351386881239 0 -0.46131232251915938 -0.38484086687393049 0 -0.48703743130620791 -0.38162664269125701 0 -0.46131232251915938 -0.38484086687393049 0 -0.47251660733592482 -0.36996176041134199 0 -0.48703743130620791 -0.38162664269125701 0 -0.46131232251915938 -0.38484086687393049 0 -0.46131232251915938 -0.38484086687393049 0 -0.45636759326424847 -0.40512636199285601 0 -0.44726129729337399 -0.39502787860071081 0 -0.47406677622447041 -0.39606351386881239 0 -0.46131232251915938 -0.38484086687393049 0 -0.45636759326424847 -0.40512636199285601 0 -0.45636759326424847 -0.40512636199285601 0 -0.45636759326425003 -0.40745349461895342 0 -0.43455138989637182 -0.39986132944769598 0 -0.45636759326424847 -0.40512636199285601 0 -0.43455138989637182 -0.39986132944769598 0 -0.45636759326424847 -0.40512636199285601 0 -0.44726129729337399 -0.39502787860071081 0 -0.43455138989637182 -0.39986132944769598 0 -0.45636759326425003 -0.40745349461895342 0 -0.43455138989637182 -0.39986132944769598 0 -0.44726129729337399 -0.39502787860071081 0 -0.43558721373211079 -0.38805509105660407 0 -0.43455138989637182 -0.39986132944769598 0 -0.46131232251915938 -0.38484086687393049 0 -0.43558721373211079 -0.38805509105660407 0 -0.44129913117261838 -0.37422163475403258 0 -0.46131232251915938 -0.38484086687393049 0 -0.44726129729337399 -0.39502787860071081 0 -0.43558721373211079 -0.38805509105660407 0 -0.46131232251915938 -0.38484086687393049 0 -0.43558721373211079 -0.38805509105660407 0 -0.45399287852383929 -0.44071002121683439 0 -0.46674461834970271 -0.42977606619609859 0 -0.45207228468504762 -0.42390819443195832 0 -0.47818379663212518 -0.41039139453801587 0 -0.45636759326424847 -0.40512636199285601 0 -0.46674461834970271 -0.42977606619609859 0 -0.45636759326425003 -0.40745349461895342 0 -0.45207228468504762 -0.42390819443195832 0 -0.47818379663212812 -0.41504565979021102 0 -0.45636759326425003 -0.40745349461895342 0 -0.47818379663212812 -0.41504565979021102 0 -0.46674461834970271 -0.42977606619609859 0 -0.45636759326425003 -0.40745349461895342 0 -0.47818379663212518 -0.41039139453801587 0 -0.45636759326424847 -0.40512636199285601 0 -0.45636759326425003 -0.40745349461895342 0 -0.45636759326425003 -0.40745349461895342 0 -0.44272554151468829 -0.41532763007375489 0 -0.43455138989637182 -0.39986132944769598 0 -0.45636759326425003 -0.40745349461895342 0 -0.44272554151468829 -0.41532763007375489 0 -0.45207228468504762 -0.42390819443195832 0 -0.44272554151468829 -0.41532763007375489 0 -0.44066417147267639 -0.42970466192102957 0 -0.42997226825509621 -0.41571046994913752 0 -0.45399287852383929 -0.44071002121683439 0 -0.45207228468504762 -0.42390819443195832 0 -0.44066417147267639 -0.42970466192102957 0 -0.44272554151468829 -0.41532763007375489 0 -0.45207228468504762 -0.42390819443195832 0 -0.44066417147267639 -0.42970466192102957 0 -0.44066417147267639 -0.42970466192102957 0 -0.43009713345581763 -0.42833727423298168 0 -0.43343167273111388 -0.44034352558896128 0 -0.4234882274942729 -0.43611536329716238 0 -0.43009713345581763 -0.42833727423298168 0 -0.43343167273111388 -0.44034352558896128 0 -0.44066417147267639 -0.42970466192102957 0 -0.43009713345581763 -0.42833727423298168 0 -0.42997226825509621 -0.41571046994913752 0 -0.42997226825509621 -0.41571046994913752 0 -0.42124074353738139 -0.4068691240389955 0 -0.43455138989637182 -0.39986132944769598 0 -0.43009713345581763 -0.42833727423298168 0 -0.42997226825509621 -0.41571046994913752 0 -0.41094869502751041 -0.41440783331489522 0 -0.
[...]
<PointData Scalars="" Vectors="displacement," Tensors="">
<DataArray type="Float64" Name="displacement" NumberOfComponents="3" format="ascii">
0.03499813659088391 0.034997545634437771 0 0.034508430550466269 0.034273402986443796 0 0.034997745497121015 0.031872486423164106 0 0.03499813659088391 0.034997545634437771 0 0.034508430550466269 0.034273402986443796 0 0.032132898571923849 0.034998942755516002 0 0.034372232537064444 0.033970974293457988 0 0.034508430550466269 0.034273402986443796 0 0.032132898571923849 0.034998942755516002 0 0.034372232537064444 0.033970974293457988 0 0.034508430550466269 0.034273402986443796 0 0.034618173700716771 0.033207947610363102 0 0.034508430550466269 0.034273402986443796 0 0.034618173700716771 0.033207947610363102 0 0.034997745497121015 0.031872486423164106 0 0.034618173700716771 0.033207947610363102 0 0.034997745497121015 0.031872486423164106 0 0.034391841340141976 0.032981692177171583 0 0.032235224529762969 0.034591348876209717 0 0.033000382345076795 0.033959881739510651 0 0.034391841340141976 0.032981692177171583 0 0.033323252599905588 0.034211844366080643 0 0.034237613312844542 0.033267078878168918 0 0.034372232537064444 0.033970974293457988 0 0.034618173700716771 0.033207947610363102 0 0.034391841340141976 0.032981692177171583 0 0.030683044035569231 0.034861540342074074 0 0.030225591892134474 0.034277716054196293 0 0.030651640023486099 0.034346342263546603 0 0.033000382345076795 0.033959881739510651 0 0.034391841340141976 0.032981692177171583 0 0.034511802132941638 0.032981636588508674 0 0.031671053364939007 0.034456764681390258 0 0.034110545873600531 0.032146514522376504 0 0.034997745497121015 0.031872486423164106 0 0.034391841340141976 0.032981692177171583 0 0.034511802132941638 0.032981636588508674 0 0.034999989043667697 0.031865832978553971 0 0.036254809382220594 0.031020552714644909 0 0.034999989129791458 0.030399182374895774 0 0.035001238351496849 0.031865396193862243 0 0.034110545873600531 0.032146514522376504 0 0.031065192507432161 0.034280186160252302 0 0.031234409897609519 0.034649596356889072 0 0.03163362655461318 0.034105012995309263 0 0.031065192507432161 0.034280186160252302 0 0.03163362655461318 0.034105012995309263 0 0.031430493516516417 0.033854995032903581 0 0.031065192507432161 0.034280186160252302 0 0.030978233642478866 0.034635074780678135 0 0.031234409897609519 0.034649596356889072 0 0.030225591892134474 0.034277716054196293 0 0.030651640023486099 0.034346342263546603 0 0.030532804439196804 0.033747309189468264 0 0.031065192507432161 0.034280186160252302 0 0.030651640023486099 0.034346342263546603 0 0.030532804439196804 0.033747309189468264 0 0.031065192507432161 0.034280186160252302 0 0.030651640023486099 0.034346342263546603 0 0.030978233642478866 0.034635074780678135 0 0.030683044035569231 0.034861540342074074 0 0.030978233642478866 0.034635074780678135 0 0.031179104561730057 0.034991524374403879 0 0.030683044035569231 0.034861540342074074 0 0.030651640023486099 0.034346342263546603 0 0.030978233642478866 0.034635074780678135 0 0.031179104561730057 0.034991524374403879 0 0.031234409897609519 0.034649596356889072 0 0.031198327478324312 0.034977252424928038 0 0.030978233642478866 0.034635074780678135 0 0.031179104561730057 0.034991524374403879 0 0.031234409897609519 0.034649596356889072 0 0.031179104561730057 0.034991524374403879 0 0.031674965578851737 0.03505789756457868 0 0.030994966652974059 0.035243355012849455 0 0.031179104561730057 0.034991524374403879 0 0.030994966652974059 0.035243355012849455 0 0.031198327478324312 0.034977252424928038 0 0.031674965578851737 0.03505789756457868 0 0.031273926968151851 0.035147990780591727 0 0.030994966652974059 0.035243355012849455 0 0.031671053364939007 0.034456764681390258 0 0.03168761460139035 0.034822747058790883 0 0.030683044035569231 0.034861540342074074 0 0.031179104561730057 0.034991524374403879 0 0.031674965578851737 0.03505789756457868 0 0.032235224529762969 0.034591348876209717 0 0.033000382345076795 0.033959881739510651 0 0.031674965578851737 0.03505789756457868 0 0.033323252599905588 0.034211844366080643 0 0.032127981126249129 0.034999364602479342 0 0.031674965578851737 0.03505789756457868 0 0.03212602431718696 0.034999736568430098 0 0.031273926968151851 0.035147990780591727 0 0.032235224529762969 0.034591348876209717 0 0.031674965578851737 0.03505789756457868 0 0.03212602431718696 0.034999736568430098 0 0.030856085366090032 0.034999301990311843 0 0.031273926968151851 0.035147990780591727 0 0.030994966652974059 0.035243355012849455 0 0.03212602431718696 0.034999736568430098 0 0.030856085366090032 0.034999301990311843 0 0.031273926968151851 0.035147990780591727 0 0.029587915131216138 0.035000300210176624 0 0.031040207542377317 0.035164223463428249 0 0.030994966652974059 0.035243355012849455 0 0.030856085366090032 0.034999301990311843 0 0.029587915131216138 0.035000300210176624 0 0.030994966652974059 0.035243355012849455 0 0.029095868174346617 0.035000326485098418 0 0.028813225751680788 0.036181567922585464 0 0.029585015186020608 0.034999883858793185 0 0.030055904138083428 0.035597537595690086 0 0.029584016282048251 0.035000038854899856 0 0.029096614932287837 0.03499993162690801 0 0.029120614866878537 0.036125210769290643 0 0.029095772397829685 0.034999975901426561 0 0.028622468683275729 0.036408246692456375 0 0.027844885596610795 0.035799134616248084 0 0.029096614932287837 0.03499993162690801 0 0.029120614866878537 0.036125210769290643 0 0.028951949442375297 0.036122132591864212 0 0.029120614866878537 0.036125210769290643 0 0.028951949442375297 0.036122132591864212 0 0.028927808863946112 0.036641226327927191 0 0.031040207542377317 0.035164223463428249 0 0.030994966652974059 0.035243355012849455 0 0.031198327478324312 0.034977252424928038 0 0.027147292053018423 0.034999853791457973 0 0.026607957976672862 0.035775192998650271 0 0.025699125822266706 0.035647461578409222 0 0.027147292053018423 0.034999853791457973 0 0.026607957976672862 0.035775192998650271 0 0.027844885596610795 0.035799134616248084 0 0.029095772397829685 0.034999975901426561 0 0.027147292053018423 0.034999853791457973 0 0.027844885596610795 0.035799134616248084 0 0.028622468683275729 0.036408246692456375 0 0.0276881263371366 0.036664929005200179 0 0.028210050672934424 0.037724473484557923 0 0.026607957976672862 0.035775192998650271 0 0.027844885596610795 0.035799134616248084 0 0.0276881263371366 0.036664929005200179 0 0.028622468683275729 0.036408246692456375 0 0.027844885596610795 0.035799134616248084 0 0.0276881263371366 0.036664929005200179 0 0.026607957976672862 0.035775192998650271 0 0.0276881263371366 0.036664929005200179 0 0.027021839832584459 0.037460236756527834 0 0.026607957976672862 0.035775192998650271 0 0.026570435127442636 0.037366343740841086 0 0.025571852588263409 0.036610799263507694 0 0.026609546474838375 0.035878617119776329 0 0.026818924762271362 0.037301271411820935 0 0.027021839832584459 0.037460236756527834 0 0.028210050672934424 0.037724473484557923 0 0.027641701056463807 0.038190164415985724 0 0.0276881263371366 0.036664929005200179 0 0.027021839832584459 0.037460236756527834 0 0.028210050672934424 0.037724473484557923 0 0.028891114782296404 0.036641127741271005 0 0.028927808863946112 0.036641226327927191 0 0.028868920853846965 0.036852550425904226 0 0.028393841577784278 0.037452403607008078 0 0.029821494853271728 0.036619307023247338 0 0.028210050672934424 0.037724473484557923 0 0.027641701056463807 0.038190164415985724 0 0.02787124103303041 0.038812769994648458 0 0.030549914114652094 0.03533968130846319 0 0.029821494853271728 0.036619307023247338 0 0.027641701056463807 0.038190164415985724 0 0.027328307793225984 0.038772234086863512 0 0.02787124103303041 0.038812769994648458 0 0.026570435127442636 0.037366343740841086 0 0.026801225695338039 0.039383600719197893 0 0.025701179529054631 0.038917947837403821 0 0.027021839832584459 0.037460236756527834 0 0.027641701056463807 0.038190164415985724 0 0.027328307793225984 0.038772234086863512 0 0.026818924762271362 0.037301271411820935 0 0.026856663705025378 0.039425598261222973 0 0.031234409897609519 0.034649596356889072 0 0.031198327478324312 0.034977252424928038 0 0.03157947580023665 0.034504879980751746 0 0.028813225751680788 0.036181567922585464 0 0.028393841577784278 0.037452403607008078 0 0.031198327478324312 0.034977252424928038 0 0.031940952325201874 0.034642551487329712 0 0.03157947580023665 0.034504879980751746 0 0.030055904138083428 0.035597537595690086 0 0.030549914114652094 0.03533968130846319 0 0.031040207542377317 0.035164223463428249 0 0.031198327478324312 0.034977252424928038 0 0.031940952325201874 0.034642551487329712 0 0.028951949442375297 0.036122132591864212 0 0.028891114782296404 0.036641127741271005 0 0.028927808863946112 0.036641226327927191 0 0.031940952325201874 0.034642551487329712 0 0.031901751688963108 0.034170606508862979 0 0.032416147982688735 0.033891586378211908 0 0.031940952325201874 0.034642551487329712 0 0.031901751688963108 0.034170606508862979 0 0.03157947580023665 0.034504879980751746 0 0.031901751688963108 0.034170606508862979 0 0.03163362655461318 0.034105012995309263 0 0.032014853247267099 0.033706506224724604 0 0.031234409897609519 0.034649596356889072 0 0.03157947580023665 0.034504879980751746 0 0.03163362655461318 0.034105012995309263 0 0.031901751688963108 0.034170606508862979 0 0.03157947580023665 0.034504879980751746 0 0.03163362655461318 0.034105012995309263 0 0.03163362655461318 0.034105012995309263 0 0.031819189135839691 0.033633704298895846 0 0.031430493516516417 0.033854995032903581 0 0.031789164921594858 0.033275922855313875 0 0.031819189135839691 0.033633704298895846 0 0.031430493516516417 0.033854995032903581 0 0.03163362655461318 0.034105012995309263 0 0.031819189135839691 0.033633704298895846 0 0.032014853247267099 0.033706506224724604 0 0.032014853247267099 0.033706506224724604 0 0.032244259362654848 0.03351199973647688 0 0.032416147982688735 0.033891586378211908 0 0.031819189135839691 0.033633704298895846 0 0.032014853247267099 0.033706506224724604 0 0.032075414457461315 0.033262102434145333 0 0.031901751688963108 0.034170606508862979 0 0.032014853247267099 0.033706506224724604 0 0.032416147982688735 0.033891586378211908 0 0.035954318284443121 0.030855690297702642 0 0.031894100300943251 0.031616309990233404 0 0.036355644621242481 0.028407471345311127 0 0.032014853247267099 0.033706506224724604 0 0.032244259362654848 0.03351199973647688 0 0.032075414457461315 0.033262102434145333 0 0.032244259362654848 0.03351199973647688 0 0.032075414457461315 0.033262102434145333 0 0.032380931774065737 0.033205971483794547 0 0.031789164921594858 0.033275922855313875 0 0.035954318284443121 0.030855690297702642 0 0.031894100300943251 0.031616309990233404 0 0.031863836608088343 0.033247706692927592 0 0.034123724304389751 0.031988017398427583 0 0.031789164921594858 0.033275922855313875 0 0.031819189135839691 0.033633704298895846 0 0.032075414457461315 0.033262102434145333 0 0.026801225695338039 0.039383600719197893 0 0.02617141293714411 0.040868571202267598 0 0.025658616671224984 0.040191119020989534 0 0.026856663705025378 0.039425598261222973 0 0.029207937917675276 0.038926830043690935 0 0.026801225695338039 0.039383600719197893 0 0.025701179529054631 0.038917947837403821 0 0.025658616671224984 0.040191119020989534 0 0.027328307793225984 0.038772234086863512 0 0.02787124103303041 0.038812769994648458 0 0.027512233688804472 0.039860216765822097 0 0.032244259362654848 0.03351199973647688 0 0.032416147982688735 0.033891586378211908 0 0.032530796359541814 0.033452706052064456 0 0.029821494853271728 0.036619307023247338 0 0.03155734062627237 0.034748589276165538 0 0.029821494853271728 0.036619307023247338 0 0.029207937917675276 0.038926830043690935 0 0.030729703356266323 0.035986625201193126 0 0.030542261224007952 0.036345098914670422 0 0.030690334574552103 0.035687243928153513 0 0.030394281904733988 0.036999796449369009 0 0.030729703356266323 0.035986625201193126 0 0.030542261224007952 0.036345098914670422 0 0.032380931774065737 0.033205971483794547 0 0.032530796359541814 0.033452706052064456 0 0.032638180807793009 0.033037472020381792 0 0.03155734062627237 0.034748589276165538 0 0.032249292330827364 0.033922303640398506 0 0.032244259362654848 0.03351199973647688 0 0.032380931774065737 0.033205971483794547 0 0.032530796359541814 0.033452706052064456 0 0.029207937917675276 0.038926830043690935 0 0.032249292330827364 0.033922303640398506 0 0.026801225695338039 0.039383600719197893 0 0.027035099946174972 0.041420009399731804 0 0.02617141293714411 0.040868571202267598 0 0.027035099946174972 0.041420009399731804 0 0.026485457086293795 0.041447395151875982 0 0.02675697924622028 0.042102660297850862 0 0.027035099946174972 0.041420009399731804 0 0.026485457086293795 0.041447395151875982 0 0.02617141293714411 0.040868571202267598 0 0.026069661531055902 0.041360115464692315 0 0.02617141293714411 0.040868571202267598 0 0.025492658231905559 0.041223570716149738 0 0.026069661531055902 0.041360115464692315 0 0.026126549846051245 0.041903134249938093 0 0.025492658231905559 0.041223570716149738 0 0.026485457086293795 0.041447395151875982 0 0.026069661531055902 0.041360115464692315 0 0.02617141293714411 0.040868571202267598 0 0.025607150373653118 0.040612918348065553 0 0.026013390960878759 0.038980858169782612 0 0.026485457086293795 0.041447395151875982 0 0.026069661531055902 0.041360115464692315 0 0.026126549846051245 0.041903134249938093 0 0.02617141293714411 0.040868571202267598 0 0.025658616671224984 0.040191119020989534 0 0.025492658231905559 0.041223570716149738 0 0.027743992639157156 0.035529781947981315 0 0.028493441609229942 0.035586004647436928 0 0.027259443300170952 0.036284944289430451 0 0.027743992639157156 0.035529781947981315 0 0.027897474439107041 0.034722268359280641 0 0.026964247740672687 0.03584909844625675 0 0.031957370797064164 0.031703878768627507 0 0.02893509380255507 0.034041782668505514 0 0.027743992639157156 0.035529781947981315 0 0.0281390099740268 0.035222737576826368 0 0.028493441609229942 0.035586004647436928 0 0.027743992639157156 0.035529781947981315 0 0.027897474439107041 0.034722268359280641 0 0.0281390099740268 0.035222737576826368 0 0.030951333790017209 0.037826922928906548 0 0.03229509488547367 0.033968517776085089 0 0.030626272644819118 0.03517757220299652 0 0.029207937917675276 0.038926830043690935 0 0.029991397579617808 0.035064620970145094 0 0.027897474439107041 0.034722268359280641 0 0.0281390099740268 0.035222737576826368 0 0.028646958029016019 0.035142547931546718 0 0.026013390960878759 0.038980858169782612 0 0.029991397579617808 0.035064620970145094 0 0.026485457086293795 0.041447395151875982 0 0.026209903238063617 0.041791106112825049 0 0.02675697924622028 0.042102660297850862 0 0.03229509488547367 0.033968517776085089 0 0.031034064983595171 0.033226039283111783 0 0.030626272644819118 0.03517757220299652 0 0.029991397579617808 0.035064620970145094 0 0.033149710986262557 0.031798362545639093 0 0.030949404703677897 0.032482644783500596 0 0.030969731823419423 0.03242041929131638 0 0.030912458439744897 0.032457428733434837 0 0.031957370797064164 0.031703878768627507 0 0.033149710986262557 0.031798362545639093 0 0.029991397579617808 0.035064620970145094 0 0.031957370797064164 0.031703878768627507 0 0.0281390099740268 0.035222737576826368 0 0.028646958029016019 0.035142547931546718 0 0.028493441609229942 0.035586004647436928 0 0.035280445547864935 0.028167687280073413 0 0.033149710986262557 0.031798362545639093 0 0.037527080025126329 0.027925895450294225 0 0.037470863939277968 0.027845455400461901 0 0.037395953138226828 0.028016890699966612 0 0.034123724304389751 0.031988017398427583 0 0.034369910978817225 0.03089661629640857 0 0.03817550956144726 0.028596498290042259 0 0.037124919294915334 0.027978170898797863 0 0.036355644621242481 0.028407471345311127 0 0.032075414457461315 0.033262102434145333 0 0.032380931774065737 0.033205971483794547 0 0.032624805004106909 0.032922231998873355 0 0.034369910978817225 0.03089661629640857 0 0.036922731322283651 0.027430870218558012 0 0.03817550956144726 0.028596498290042259 0 0.037124919294915334 0.027978170898797863 0 0.037460190371257765 0.027730636329443482 0 0.037470863939277968 0.027845455400461901 0 0.037379881172031809 0.027990920048763406 0 0.037460190371257765 0.027730636329443482 0 0.037470863939277968 0.027845455400461901 0 0.037379881172031809 0.027990920048763406 0 0.037414915266091961 0.027972730584078079 0 0.034369910978817225 0.03089661629640857 0 0.033149710986262557 0.031798362545639093 0 0.032617430737885922 0.031296868865271436 0 0.03337850695650478 0.030811901383163864 0 0.032867649500147013 0.033290395997059907 0 0.033149710986262557 0.031798362545639093 0 0.032249292330827364 0.033922303640398506 0 0.032380931774065737 0.033205971483794547 0 0.032624805004106909 0.032922231998873355 0 0.032638180807793009 0.033037472020381792 0 0.034369910978817225 0.03089661629640857 0 0.032249292330827364 0.033922303640398506 0 0.037124919294915334 0.027978170898797863 0 0.037062987760181722 0.02770174844754467 0 0.037460190371257765 0.027730636329443482 0 0.037062987760181722 0.02770174844754467 0 0.037460190371257765 0.027730636329443482 0 0.037176358279436619 0.027453064192317436 0 0.037062987760181722 0.02770174844754467 0 0.036796225098944715 0.027555061968026207 0 0.037176358279436619 0.027453064192317436 0 0.037460190371257765 0.027730636329443482 0 0.037454167104208159 0.027646179956605225 0 0.037176358279436619 0.027453064192317436 0 0.037470863939277968 0.027845455400461901 0 0.037460190371257765 0.027730636329443482 0 0.037454167104208159 0.027646179956605225 0 0.031300678615483683 0.031431311762124277 0 0.030560640987632965 0.031851890779070843 0 0.03088277357880179 0.032597508165894795 0 0.031957370797064164 0.031703878768627507 0 0.034636775737821118 0.0293214756728283 0 0.037527080025126329 0.027925895450294225 0 0.037454167104208159 0.027646179956605225 0 0.03758190152040717 0.027493259226866282 0 0.037527080025126329 0.027925895450294225 0 0.037470863939277968 0.027845455400461901 0 0.037454167104208159 0.027646179956605225 0 0.036524548049247686 0.028114955974704838 0 0.0364593019060791 0.028063328455052612 0 0.036355644621242481 0.028407471345311127 0 0.034357417168327652 0.029861282740616217 0 0.036220094696558028 0.028478843450072747 0 0.036524548049247686 0.028114955974704838 0 0.0364593019060791 0.028063328455052612 0 0.036418013789885358 0.027967777408578746 0 0.0364593019060791 0.028063328455052612 0 0.036430061068740728 0.027738626939882188 0 0.036418013789885358 0.027967777408578746 0 0.0364593019060791 0.028063328455052612 0 0.036355644621242481 0.028407471345311127 0 0.036510546535318524 0.027849176704090435 0 0.035954318284443121 0.030855690297702642 0 0.03817550956144726 0.028596498290042259 0 0.036355644621242481 0.028407471345311127 0 0.037124919294915334 0.027978170898797863 0 0.036355644621242481 0.028407471345311127 0 0.036702248635287274 0.02786849804491873 0 0.036355644621242481 0.028407471345311127 0 0.036702248635287274 0.02786849804491873 0 0.036510546535318524 0.027849176704090435 0 0.036702248635287274 0.02786849804491873 0 0.036796225098944715 0.027555061968026207 0 0.036510546535318524 0.027849176704090435 0 0.037124919294915334 0.027978170898797863 0 0.037062987760181722 0.02770174844754467 0 0.036702248635287274 0.02786849804491873 0 0.037062987760181722 0.02770174844754467 0 0.036702248635287274 0.02786849804491873 0 0.036796225098944715 0.027555061968026207 0 0.036796225098944715 0.027555061968026207 0 0.036510546535318524 0.027849176704090435 0 0.03655229839258111 0.027417487916806354 0 0.036510546535318524 0.027849176704090435 0 0.036430061068740728 0.027738626939882188 0 0.03655229839258111 0.027417487916806354 0 0.036430061068740728 0.027738626939882188 0 0.036364063822625886 0.027333248204143578 0 0.03655229839258111 0.027417487916806354 0 0.0364593019060791 0.028063328455052612 0 0.036510546535318524 0.02784917