<?xml version="1.0"?>
<VTKFile type="UnstructuredGrid" version="0.1" byte_order="LittleEndian">
<UnstructuredGrid>
<Piece NumberOfPoints="30618" NumberOfCells="10744">
<Points>
<DataArray type="Float64" NumberOfComponents="3" format="ascii">
-0.49427958746526202 -0.49999999999999512 0 -0.4943900888896422 -0.47349089190363358 0 -0.49427958746526202 -0.49999999999999512 0 -0.5 -0.5 0 -0.4943900888896422 -0.47349089190363358 0 -0.5 -0.5 0 -0.4943900888896422 -0.47349089190363358 0 -0.5 -0.44150235328842258 0 -0.49427958746526202 -0.49999999999999512 0 -0.4943900888896422 -0.47349089190363358 0 -0.48436842240857858 -0.48714093788813112 0 -0.49427958746526202 -0.49999999999999512 0 -0.47650045540741742 -0.5 0 -0.48436842240857858 -0.48714093788813112 0 -0.4943900888896422 -0.47349089190363358 0 -0.47066899942757451 -0.47576530412887819 0 -0.48436842240857858 -0.48714093788813112 0 -0.47066899942757451 -0.47576530412887819 0 -0.47650045540741742 -0.5 0 -0.48436842240857858 -0.48714093788813112 0 -0.47066899942757451 -0.47576530412887819 0 -0.45872132334957288 -0.49999999999999928 0 -0.45242967983978871 -0.4846708604340636 0 -0.47066899942757451 -0.47576530412887819 0 -0.47650045540741742 -0.5 0 -0.45872132334957288 -0.49999999999999928 0 -0.47066899942757451 -0.47576530412887819 0 -0.45872132334957288 -0.49999999999999928 0 -0.47066899942757451 -0.47576530412887819 0 -0.45242967983978871 -0.4846708604340636 0 -0.45249717469141032 -0.46588444847215849 0 -0.43763952177061649 -0.47770500498713542 0 -0.45242967983978871 -0.4846708604340636 0 -0.45249717469141032 -0.46588444847215849 0 -0.43763952177061649 -0.47770500498713542 0 -0.44291044788006362 -0.49999999999999939 0 -0.45242967983978871 -0.4846708604340636 0 -0.43763952177061649 -0.47770500498713542 0 -0.44291044788006362 -0.49999999999999939 0 -0.45872132334957288 -0.49999999999999928 0 -0.44291044788006362 -0.49999999999999939 0 -0.45242967983978871 -0.4846708604340636 0 -0.44838221886832419 -0.4464230337388379 0 -0.4323685956611692 -0.45541000997427139 0 -0.435988539966085 -0.44148905847597392 0 -0.44838221886832419 -0.4464230337388379 0 -0.44213238819953832 -0.43491600865963681 0 -0.435988539966085 -0.44148905847597392 0 -0.44838221886832419 -0.4464230337388379 0 -0.45249717469141032 -0.46588444847215849 0 -0.45755175660874181 -0.45423607616472811 0 -0.44838221886832419 -0.4464230337388379 0 -0.45249717469141032 -0.46588444847215849 0 -0.4323685956611692 -0.45541000997427139 0 -0.43763952177061649 -0.47770500498713542 0 -0.45249717469141032 -0.46588444847215849 0 -0.4323685956611692 -0.45541000997427139 0 -0.47066899942757451 -0.47576530412887819 0 -0.45249717469141032 -0.46588444847215849 0 -0.4675747862741928 -0.45726336772241771 0 -0.45249717469141032 -0.46588444847215849 0 -0.45755175660874181 -0.45423607616472811 0 -0.4675747862741928 -0.45726336772241771 0 -0.44838221886832419 -0.4464230337388379 0 -0.46897642374787268 -0.44262015471777721 0 -0.45660235518767722 -0.42786105997071933 0 -0.44838221886832419 -0.4464230337388379 0 -0.45755175660874181 -0.45423607616472811 0 -0.46897642374787268 -0.44262015471777721 0 -0.45755175660874181 -0.45423607616472811 0 -0.4675747862741928 -0.45726336772241771 0 -0.46897642374787268 -0.44262015471777721 0 -0.4943900888896422 -0.47349089190363358 0 -0.5 -0.44150235328842258 0 -0.49450059031402238 -0.44698178380727199 0 -0.46897642374787268 -0.44262015471777721 0 -0.48473746643246862 -0.43972512984246093 0 -0.48043585850414389 -0.43127077967876992 0 -0.46897642374787268 -0.44262015471777721 0 -0.4826166755055763 -0.45153060825775743 0 -0.48473746643246862 -0.43972512984246093 0 -0.4675747862741928 -0.45726336772241771 0 -0.46897642374787268 -0.44262015471777721 0 -0.4826166755055763 -0.45153060825775743 0 -0.47066899942757451 -0.47576530412887819 0 -0.4826166755055763 -0.45153060825775743 0 -0.4943900888896422 -0.47349089190363358 0 -0.47066899942757451 -0.47576530412887819 0 -0.4826166755055763 -0.45153060825775743 0 -0.47066899942757451 -0.47576530412887819 0 -0.4675747862741928 -0.45726336772241771 0 -0.4826166755055763 -0.45153060825775743 0 -0.4943900888896422 -0.47349089190363358 0 -0.49450059031402238 -0.44698178380727199 0 -0.4943900888896422 -0.47349089190363358 0 -0.4826166755055763 -0.45153060825775743 0 -0.49450059031402238 -0.44698178380727199 0 -0.4826166755055763 -0.45153060825775743 0 -0.48473746643246862 -0.43972512984246093 0 -0.49450059031402238 -0.44698178380727199 0 -0.5 -0.44150235328842258 0 -0.49461109173840262 -0.42047267571091063 0 -0.5 -0.39656953661894012 0 -0.49450059031402238 -0.44698178380727199 0 -0.49461109173840262 -0.42047267571091063 0 -0.48473746643246862 -0.43972512984246093 0 -0.49461109173840262 -0.42047267571091063 0 -0.48043585850414389 -0.43127077967876992 0 -0.5 -0.44150235328842258 0 -0.49450059031402238 -0.44698178380727199 0 -0.49461109173840262 -0.42047267571091063 0 -0.48473746643246862 -0.43972512984246093 0 -0.49450059031402238 -0.44698178380727199 0 -0.49461109173840262 -0.42047267571091063 0 -0.49461109173840262 -0.42047267571091063 0 -0.4947215931627828 -0.39396356761454909 0 -0.49461109173840262 -0.42047267571091063 0 -0.48393842445605872 -0.40713040098299402 0 -0.4947215931627828 -0.39396356761454909 0 -0.49461109173840262 -0.42047267571091063 0 -0.48393842445605872 -0.40713040098299402 0 -0.47214510592166908 -0.41939033492402211 0 -0.48393842445605872 -0.40713040098299402 0 -0.47214510592166908 -0.41939033492402211 0 -0.47427590700138023 -0.39469502568249409 0 -0.46897642374787268 -0.44262015471777721 0 -0.47214510592166908 -0.41939033492402211 0 -0.48043585850414389 -0.43127077967876992 0 -0.49461109173840262 -0.42047267571091063 0 -0.47214510592166908 -0.41939033492402211 0 -0.48043585850414389 -0.43127077967876992 0 -0.5 -0.39656953661894012 0 -0.4947215931627828 -0.39396356761454909 0 -0.48030453056746109 -0.36861144308094029 0 -0.49461109173840262 -0.42047267571091063 0 -0.5 -0.39656953661894012 0 -0.4947215931627828 -0.39396356761454909 0 -0.48393842445605872 -0.40713040098299402 0 -0.4947215931627828 -0.39396356761454909 0 -0.47427590700138023 -0.39469502568249409 0 -0.47427590700138023 -0.39469502568249409 0 -0.48030453056746109 -0.36861144308094029 0 -0.4947215931627828 -0.39396356761454909 0 -0.47427590700138023 -0.39469502568249409 0 -0.48030453056746109 -0.36861144308094029 0 -0.47427590700138023 -0.39469502568249409 0 -0.46334377193483078 -0.37842983215876019 0 -0.48030453056746109 -0.36861144308094029 0 -0.46334377193483078 -0.37842983215876019 0 -0.45726543839001688 -0.40541672899881109 0 -0.44416021803808919 -0.38243724496113263 0 -0.47427590700138023 -0.39469502568249409 0 -0.46334377193483078 -0.37842983215876019 0 -0.45726543839001688 -0.40541672899881109 0 -0.45726543839001688 -0.40541672899881109 0 -0.43814282409564848 -0.40387353522152758 0 -0.44416021803808919 -0.38243724496113263 0 -0.43814282409564848 -0.40387353522152758 0 -0.44416021803808919 -0.38243724496113263 0 -0.4329908326547659 -0.40007252460533121 0 -0.43814282409564848 -0.40387353522152758 0 -0.44416021803808919 -0.38243724496113263 0 -0.46897642374787268 -0.44262015471777721 0 -0.47214510592166908 -0.41939033492402211 0 -0.45660235518767722 -0.42786105997071933 0 -0.47214510592166908 -0.41939033492402211 0 -0.47427590700138023 -0.39469502568249409 0 -0.45726543839001688 -0.40541672899881109 0 -0.47214510592166908 -0.41939033492402211 0 -0.45726543839001688 -0.40541672899881109 0 -0.45660235518767722 -0.42786105997071933 0 -0.45726543839001688 -0.40541672899881109 0 -0.45660235518767722 -0.42786105997071933 0 -0.44309263043645408 -0.41812298423377797 0 -0.45726543839001688 -0.40541672899881109 0 -0.43814282409564848 -0.40387353522152758 0 -0.44309263043645408 -0.41812298423377797 0 -0.43814282409564848 -0.40387353522152758 0 -0.44309263043645408 -0.41812298423377797 0 -0.43209373842114163 -0.42530092927673752 0 -0.44838221886832419 -0.4464230337388379 0 -0.45660235518767722 -0.42786105997071933 0 -0.44213238819953832 -0.43491600865963681 0 -0.45660235518767722 -0.42786105997071933 0 -0.44213238819953832 -0.43491600865963681 0 -0.43132710435572019 -0.42815377149591122 0 -0.45660235518767722 -0.42786105997071933 0 -0.44309263043645408 -0.41812298423377797 0 -0.43132710435572019 -0.42815377149591122 0 -0.45660235518767722 -0.42786105997071933 0 -0.43132710435572019 -0.42815377149591122 0 -0.44213238819953832 -0.43491600865963681 0 -0.42986244815509678 -0.43337144475258638 0 -0.435988539966085 -0.44148905847597392 0 -0.44213238819953832 -0.43491600865963681 0 -0.42986244815509678 -0.43337144475258638 0 -0.43132710435572019 -0.42815377149591122 0 -0.42986244815509678 -0.43337144475258638 0 -0.43132710435572019 -0.42815377149591122 0 -0.42986244815509678 -0.43337144475258638 0 -0.42494843276815808 -0.42822764260015772 0 -0.42026026496879931 -0.43681168621285732 0 -0.42986244815509678 -0.43337144475258638 0 -0.42494843276815808 -0.42822764260015772 0 -0.43132710435572019 -0.42815377149591122 0 -0.42494843276815808 -0.42822764260015772 0 -0.43209373842114163 -0.42530092927673752 0 -0.42214799869492048 -0.41876725226122891 0 -0.42494843276815808 -0.42822764260015772 0 -0.43209373842114163 -0.42530092927673752 0 -0.42494843276815808 -0.42822764260015772 0 -0.43209373842114163 -0.42530092927673752 0 -0.43132710435572019 -0.42815377149591122 0 -0.42494843276815808 -0.42822764260015772 0 -0.43132710435572019 -0.42815377149591122 0 -0.44309263043645408 -0.41812298423377797 0 -0.43209373842114163 -0.42530092927673752 0 -0.43132710435572019 -0.42815377149591122 0 -0.43209373842114163 -0.42530092927673752 0 -0.43132710435572019 -0.42815377149591122 0 -0.43814282409564848 -0.40387353522152758 0 -0.43209373842114163 -0.42530092927673752 0 -0.43814282409564848 -0.40387353522152758 0 -0.43209373842114163 -0.42530092927673752 0 -0.42736227186559528 -0.41250939947999687 0 -0.43814282409564848 -0.40387353522152758 0 -0.42736227186559528 -0.41250939947999687 0 -0.42798743510346321 -0.40461924019690898 0
[...]
<PointData Scalars="" Vectors="displacement," Tensors="">
<DataArray type="Float64" Name="displacement" NumberOfComponents="3" format="ascii">
0.024999735434404924 0.024713959540306533 0 0.024610490948784824 0.02462047189077185 0 0.024999410547666977 0.024717135381347618 0 0.025000377494852424 0.024997918818598641 0 0.023703312318767131 0.025257222458797451 0 0.025000377494852424 0.024997918818598641 0 0.023703312318767131 0.025257222458797451 0 0.022074625783791751 0.025001086112349528 0 0.025000076793650454 0.024713224084689518 0 0.025655883727767032 0.024015457864113191 0 0.025398411007192347 0.024086061797985538 0 0.025000076793650454 0.024713224084689518 0 0.024999877535653223 0.023825048465794908 0 0.025398411007192347 0.024086061797985538 0 0.025655883727767032 0.024015457864113191 0 0.025676149362243814 0.023825889593514817 0 0.025398411007192347 0.024086061797985538 0 0.025676149362243814 0.023825889593514817 0 0.024999877535653223 0.023825048465794908 0 0.025398411007192347 0.024086061797985538 0 0.025223508075514638 0.023648453413635584 0 0.024999540456856293 0.022935218130699923 0 0.025151921176471623 0.02299059554149837 0 0.025676149362243814 0.023825889593514817 0 0.024999877535653223 0.023825048465794908 0 0.02499996277152294 0.022936560308320187 0 0.025440314546930822 0.023709666504616977 0 0.025000073532323419 0.02293632834809892 0 0.025223508075514638 0.023648453413635584 0 0.025151921176471623 0.02299059554149837 0 0.025265630821156498 0.023436345009071758 0 0.025113213483846441 0.022828090569451363 0 0.025151921176471623 0.02299059554149837 0 0.025265630821156498 0.023436345009071758 0 0.025113213483846441 0.022828090569451363 0 0.024999855841190726 0.022147573620350473 0 0.025151921176471623 0.02299059554149837 0 0.025312179754439217 0.022374487143335769 0 0.024999906798850068 0.022145683604046208 0 0.024999540456856293 0.022935218130699923 0 0.024999855841190726 0.022147573620350473 0 0.025151921176471623 0.02299059554149837 0 0.025516399790414191 0.023782125442761998 0 0.025635225320203143 0.022509229415574008 0 0.025888106851853838 0.023057821640077351 0 0.025516399790414191 0.023782125442761998 0 0.025741374664551359 0.023677640821425178 0 0.025888106851853838 0.023057821640077351 0 0.025516399790414191 0.023782125442761998 0 0.025265630821156498 0.023436345009071758 0 0.025355131840552939 0.023816530351935379 0 0.025516399790414191 0.023782125442761998 0 0.025265630821156498 0.023436345009071758 0 0.025635225320203143 0.022509229415574008 0 0.025113213483846441 0.022828090569451363 0 0.025265630821156498 0.023436345009071758 0 0.025635225320203143 0.022509229415574008 0 0.025223508075514638 0.023648453413635584 0 0.025265630821156498 0.023436345009071758 0 0.025319946937337308 0.023902027484332095 0 0.025265630821156498 0.023436345009071758 0 0.025355131840552939 0.023816530351935379 0 0.025319946937337308 0.023902027484332095 0 0.025516399790414191 0.023782125442761998 0 0.025166043553246191 0.024319370656253701 0 0.024786856486299053 0.02508654977424497 0 0.025516399790414191 0.023782125442761998 0 0.025355131840552939 0.023816530351935379 0 0.025166043553246191 0.024319370656253701 0 0.025355131840552939 0.023816530351935379 0 0.025319946937337308 0.023902027484332095 0 0.025166043553246191 0.024319370656253701 0 0.023703312318767131 0.025257222458797451 0 0.022074625783791751 0.025001086112349528 0 0.022355875668140131 0.025274740613021127 0 0.025166043553246191 0.024319370656253701 0 0.02476962154541822 0.023900466345376153 0 0.02422783501201577 0.024118511384301818 0 0.025166043553246191 0.024319370656253701 0 0.025327139802326246 0.023933912942774326 0 0.02476962154541822 0.023900466345376153 0 0.025319946937337308 0.023902027484332095 0 0.025166043553246191 0.024319370656253701 0 0.025327139802326246 0.023933912942774326 0 0.025440314546930822 0.023709666504616977 0 0.02534882040761743 0.023906333766362059 0 0.025655883727767032 0.024015457864113191 0 0.025676149362243814 0.023825889593514817 0 0.025327139802326246 0.023933912942774326 0 0.025223508075514638 0.023648453413635584 0 0.025319946937337308 0.023902027484332095 0 0.025327139802326246 0.023933912942774326 0 0.024610490948784824 0.02462047189077185 0 0.023745760248482836 0.024391676964793205 0 0.025655883727767032 0.024015457864113191 0 0.025327139802326246 0.023933912942774326 0 0.025189489726359243 0.0234955882200516 0 0.025327139802326246 0.023933912942774326 0 0.02476962154541822 0.023900466345376153 0 0.025189489726359243 0.0234955882200516 0 0.022074625783791751 0.025001086112349528 0 0.021005112637674902 0.025266325969843142 0 0.019830320342211681 0.024997499206965462 0 0.023745760248482836 0.024391676964793205 0 0.022125606630518234 0.024376314116193745 0 0.02476962154541822 0.023900466345376153 0 0.023253087390910053 0.023323253439560189 0 0.02422783501201577 0.024118511384301818 0 0.022074625783791751 0.025001086112349528 0 0.022355875668140131 0.025274740613021127 0 0.021005112637674902 0.025266325969843142 0 0.02476962154541822 0.023900466345376153 0 0.025189489726359243 0.0234955882200516 0 0.023253087390910053 0.023323253439560189 0 0.022125606630518234 0.024376314116193745 0 0.020086725558579429 0.024818096508799611 0 0.023253087390910053 0.023323253439560189 0 0.021687639245961302 0.02461059147331731 0 0.019837785781809305 0.024953940264135513 0 0.023253087390910053 0.023323253439560189 0 0.021687639245961302 0.02461059147331731 0 0.023359246763191139 0.024779330703755282 0 0.021687639245961302 0.02461059147331731 0 0.023359246763191139 0.024779330703755282 0 0.020595561228695967 0.025271125744781364 0 0.025166043553246191 0.024319370656253701 0 0.023359246763191139 0.024779330703755282 0 0.02422783501201577 0.024118511384301818 0 0.023253087390910053 0.023323253439560189 0 0.023359246763191139 0.024779330703755282 0 0.02422783501201577 0.024118511384301818 0 0.019830320342211681 0.024997499206965462 0 0.019837785781809305 0.024953940264135513 0 0.018678652209236788 0.025603747714839403 0 0.021005112637674902 0.025266325969843142 0 0.019830320342211681 0.024997499206965462 0 0.019837785781809305 0.024953940264135513 0 0.021687639245961302 0.02461059147331731 0 0.019837785781809305 0.024953940264135513 0 0.020595561228695967 0.025271125744781364 0 0.020427127343080519 0.025303747059808816 0 0.018922786651623599 0.025163545422916826 0 0.019837785781809305 0.024953940264135513 0 0.020595561228695967 0.025271125744781364 0 0.018678652209236788 0.025603747714839403 0 0.020595561228695967 0.025271125744781364 0 0.019672279155358942 0.02581134391213211 0 0.019070852013556967 0.024813635784956649 0 0.019672279155358942 0.02581134391213211 0 0.02184664965835505 0.025976250908759022 0 0.019970493179816584 0.027133496045713114 0 0.020595561228695967 0.025271125744781364 0 0.019672279155358942 0.02581134391213211 0 0.02184664965835505 0.025976250908759022 0 0.02184664965835505 0.025976250908759022 0 0.021763433304092333 0.027673321894229504 0 0.019970493179816584 0.027133496045713114 0 0.02059378208057408 0.021986838576905796 0 0.020552969215764102 0.021925134246549512 0 0.020644338127031023 0.021904227588409271 0 0.020943877547030889 0.02493257106859758 0 0.02061050566067614 0.024513226627717214 0 0.025166043553246191 0.024319370656253701 0 0.023359246763191139 0.024779330703755282 0 0.024786856486299053 0.02508654977424497 0 0.023359246763191139 0.024779330703755282 0 0.020595561228695967 0.025271125744781364 0 0.02184664965835505 0.025976250908759022 0 0.023359246763191139 0.024779330703755282 0 0.02184664965835505 0.025976250908759022 0 0.024786856486299053 0.02508654977424497 0 0.02184664965835505 0.025976250908759022 0 0.024786856486299053 0.02508654977424497 0 0.023402137518013268 0.027127442130428253 0 0.02184664965835505 0.025976250908759022 0 0.021763433304092333 0.027673321894229504 0 0.023402137518013268 0.027127442130428253 0 0.021763433304092333 0.027673321894229504 0 0.023402137518013268 0.027127442130428253 0 0.024331295999476182 0.028562776481282841 0 0.025516399790414191 0.023782125442761998 0 0.024786856486299053 0.02508654977424497 0 0.025741374664551359 0.023677640821425178 0 0.024786856486299053 0.02508654977424497 0 0.025741374664551359 0.023677640821425178 0 0.026837118091408183 0.022752289616767823 0 0.024786856486299053 0.02508654977424497 0 0.023402137518013268 0.027127442130428253 0 0.024716478859024896 0.028677297586350625 0 0.02519148363394777 0.025668857511611853 0 0.024774827924462485 0.024035297891995454 0 0.025741374664551359 0.023677640821425178 0 0.026507809653308307 0.022595436182514188 0 0.025888106851853838 0.023057821640077351 0 0.025741374664551359 0.023677640821425178 0 0.026507809653308307 0.022595436182514188 0 0.026837118091408183 0.022752289616767823 0 0.025792157409954976 0.023850855100181884 0 0.024774827924462485 0.024035297891995454 0 0.026507809653308307 0.022595436182514188 0 0.0270056399427425 0.022176439705006074 0 0.026613842201939016 0.021839285247378628 0 0.026507809653308307 0.022595436182514188 0 0.0270056399427425 0.022176439705006074 0 0.026987909227388043 0.022741468920175565 0 0.01960167416165173 0.021534786930806283 0 0.019738374716858312 0.021830425248167671 0 0.019978758635580286 0.021414594391283102 0 0.024713137355134744 0.021693717550285548 0 0.023201819435593449 0.02355339141656038 0 0.024124383415843054 0.02229675968657549 0 0.024762048581388869 0.02387567557919797 0 0.024136016687809823 0.023706177509416136 0 0.024713137355134744 0.021693717550285548 0 0.024774827924462485 0.024035297891995454 0 0.023402137518013268 0.027127442130428253 0 0.024331295999476182 0.028562776481282841 0 0.024716478859024896 0.028677297586350625 0 0.023201819435593449 0.02355339141656038 0 0.024774827924462485 0.024035297891995454 0 0.020943877547030889 0.02493257106859758 0 0.023201819435593449 0.02355339141656038 0 0.02059378208057408 0.021986838576905796 0 0.019738374716858312 0.021830425248167671 0 0.020233240654165645 0.021632138758243286 0 0.02059378208057408 0.021986838576905796 0 0.020233240654165645 0.021632138758243286 0 0.020512088854535409 0.02167902909156131 0 0.020233240654165645 0.021632138758243286 0 0.019978758635580286 0.021414594391283102 0 0.020316520479932914 0.021178189317495669 0 0.020233240654165645 0.021632138758243286 0 0.020316520479932914 0.021178189317495669 0 0.020512088854535409 0.02167902909156131 0 0.019738374716858312 0.021830425248167671 0 0.020233240654165645 0.021632138758243286 0 0.019978758635580286 0.021414594391283102 0 0.020316520479932914 0.021178189317495669 0 0.01992943995422955 0.021030943765740884 0 0.020207588534458809 0.020481848059608697 0 0.020316520479932914 0.021178189317495669 0 0.020646276086157826 0.020649910284981723 0 0.020207588534458809 0.020481848059608697 0 0.019978758635580286 0.021414594391283102 0 0.020316520479932914 0.021178189317495669 0 0.01992943995422955 0.021030943765740884 0 0.0270056399427425 0.022176439705006074 0 0.026613842201939016 0.021839285247378628 0 0.026945292605711289 0.020744330567408528 0 0.024713137355134744 0.021693717550285548 0 0.027278156441824249 0.02021075504247416 0 0.027412696336942113 0.020468666048847145 0 0.027151943836948821 0.019636069073910183 0 0.027459695718935858 0.019561342585590339 0 0.024713137355134744 0.021693717550285548 0 0.023388439282982024 0.01985180695846309 0 0.01960167416165173 0.021534786930806283 0 0.01992943995422955 0.021030943765740884 0 0.019544097351859375 0.020525414986835844 0 0.01960167416165173 0.021534786930806283 0 0.019978758635580286 0.021414594391283102 0 0.01992943995422955 0.021030943765740884 0 0.021831778434195662 0.021304886669837184 0 0.018239453406852749 0.022939559820001103 0 0.020644338127031023 0.021904227588409271 0 0.021051131771739014 0.02124476253934484 0 0.021636955669443226 0.021292176937194894 0 0.020536957072756271 0.021972680850174769 0 0.020644338127031023 0.021904227588409271 0 0.020493020858838158 0.022081014303743166 0 0.020552969215764102 0.021925134246549512 0 0.020536957072756271 0.021972680850174769 0 0.020644338127031023 0.021904227588409271 0 0.020536957072756271 0.021972680850174769 0 0.020493020858838158 0.022081014303743166 0 0.020440029032138048 0.021986297950189821 0 0.020552969215764102 0.021925134246549512 0 0.020536957072756271 0.021972680850174769 0 0.020440029032138048 0.021986297950189821 0 0.020644338127031023 0.021904227588409271 0 0.020645035100748135 0.02140991447811658 0 0.021051131771739014 0.02124476253934484 0 0.02059378208057408 0.021986838576905796 0 0.020644338127031023 0.021904227588409271 0 0.020512088854535409 0.02167902909156131 0 0.020644338127031023 0.021904227588409271 0 0.020512088854535409 0.02167902909156131 0 0.020645035100748135 0.02140991447811658 0 0.020316520479932914 0.021178189317495669 0 0.020512088854535409 0.02167902909156131 0 0.020645035100748135 0.02140991447811658 0 0.020918558048070978 0.020735764483302183 0 0.021051131771739014 0.02124476253934484 0 0.021321313607196669 0.020511016582478097 0 0.020316520479932914 0.021178189317495669 0 0.020645035100748135 0.02140991447811658 0 0.020714372778609609 0.02104469107558888 0 0.020316520479932914 0.021178189317495669 0 0.020714372778609609 0.02104469107558888 0 0.020646276086157826 0.020649910284981723 0 0.020714372778609609 0.02104469107558888 0 0.020918558048070978 0.020735764483302183 0 0.020646276086157826 0.020649910284981723 0 0.020714372778609609 0.02104469107558888 0 0.020918558048070978 0.020735764483302183 0 0.021051131771739014 0.02124476253934484 0 0.020645035100748135 0.02140991447811658 0 0.020714372778609609 0.02104469107558888 0 0.021051131771739014 0.02124476253934484 0 0.021063481135388192 0.021214176959982418 0 0.019680470770848453 0.01984327200509229 0 0.021051131771739014 0.02124476253934484 0 0.021438838464536227 0.020915763394921925 0 0.021244506398703362 0.020547044364884883 0 0.021051131771739014 0.02124476253934484 0 0.021444630182880432 0.021162799864939522 0 0.021636955669443226 0.021292176937194894 0 0.021051131771739014 0.02124476253934484 0 0.02144164918642457 0.021021765783451166 0 0.021444630182880432 0.021162799864939522 0 0.021051131771739014 0.02124476253934484 0 0.02144164918642457 0.021021765783451166 0 0.021438838464536227 0.020915763394921925 0 0.018249623995202979 0.021013502863029956 0 0.018666703812836982 0.020413782231872943 0 0.02144164918642457 0.021021765783451166 0 0.021524016964605985 0.021081293549857417 0 0.021436748854881005 0.020915398132484327 0 0.016422982687615953 0.019548749243817977 0 0.016331016130119662 0.019368885522513053 0 0.016998994440745416 0.018982275376464682 0 0.018835456693364387 0.020540151454426381 0 0.018666703812836982 0.020413782231872943 0 0.018249623995202979 0.021013502863029956 0 0.018239453406852749 0.022939559820001103 0 0.021523948306021952 0.021084805061365272 0 0.021444630182880432 0.021162799864939522 0 0.021636955669443226 0.021292176937194894 0 0.02144164918642457 0.021021765783451166 0 0.021524016964605985 0.021081293549857417 0 0.021444630182880432 0.021162799864939522 0 0.018249623995202979 0.021013502863029956 0 0.018787540074516607 0.020738569073219946 0 0.018142423787957131 0.020429968324227325 0 0.018113649906170606 0.017723326155712846 0 0.017495768927438097 0.019168786757232069 0 0.018859644110061635 0.018213161979907511 0 0.018778827230417103 0.018411589135372299 0 0.018589401132655916 0.018018932566778098 0 0.016331016130119662 0.019368885522513053 0 0.016318956440105805 0.018504361246166844 0 0.016998994440745416 0.018982275376464682 0 0.018666703812836982 0.020413782231872943 0 0.01650280085898052 0.017063367830952161 0 0.018666703812836982 0.020413782231872943 0 0.019680470770848453 0.01984327200509229 0 0.01650280085898052 0.017063367830952161 0 0.019680470770848453 0.01984327200509229 0 0.021321313607196669 0.020511016582478097 0 0.020877953858584621 0.020232459738444793 0 0.020892972928896251 0.019648398442824844 0 0.019680470770848453 0.01984327200509229 0 0.019338676503852407 0.017906722757745502 0 0.020918558048070978 0.020735764483302183 0 0.020877953858584621 0.020232459738444793 0 0.020646276086157826 0.020649910284981723 0 0.020918558048070978 0.020735764483302183 0 0.021321313607196669 0.020511016582478097 0 0.020877953858584621 0.020232459738444793 0 0.020877953858584621 0.020232459738444793 0 0.020646276086157826 0.020649910284981723 0 0.020595736556294403 0.020297715284990085 0 0.020646276086157826 0.020649910284981723 0 0.020595736556294403 0.020297715284990085 0 0.020207588534458809 0.020481848059608697 0 0.020595736556294403 0.020297715284990085 0 0.020712742743095324 0.019899856682985547 0 0.020439144728202737 0.02000055782294342 0 0.020877953858584621 0.020232459738444793 0 0.020595736556294403 0.020297715284990085 0 0.020712742743095324 0.019899856682985547 0 0.020549677912570844 0.01955652445349379 0 0.020717214751929707 0.01956126221503145 0 0.020439144728202737 0.02000055782294342 0 0.020717214751929707 0.01956126221503145 0 0.020999426837159309 0.019467397513983901 0 0.020439144728202737 0.02000055782294342 0 0.020712742743095324 0.019899856682985547 0 0.02081006727402309 0.019594989280945968 0 0.020439144728202737 0.02000055782294342 0 0.01953183993895817 0.017632808865646141 0 0.02017029915571077 0.019710849479091411 0 0.01953183993895817 0.017632808865646141 0 0.019420332692698262 0.015407197513820489 0 0.02080910988359827 0.019240871593705581 0 0.020996592185094975 0.019462885163370667 0 0.020848600040732166 0.018991557586955594 0 0.020549677912570844 0.01955652445349379 0 0.020717214751929707 0.01956126221503145 0 0.02070584865689782 0.019376645029401514 0 0.020549677912570844 0.01955652445349379 0 0.020570472910153268 0.019230687460437493 0 0.02070584865689782 0.019376645029401514 0 0.020570472910153268 0.019230687460437493 0 0.02070584865689782 0.019376645029401514 0 0.02080910988359827 0.019240871593705581 0 0.02070584865689782 0.019376645029401514 0 0.02080910988359827 0.019240871593705581 0 0.020890913539921323 0.019387986606226142 0 0.02080910988359827 0.019240871593705581 0 0.020890913539921323 0.019387986606226142 0 0.020996592185094975 0.019462885163370667 0 0.019844543039634836 0.01788917484429518 0 0.01953183993895817 0.017632808865646141 0 0.020717214751929707 0.01956126221503145 0 0.020890913539921323 0.019387986606226142 0 0.020999426837159309 0.019467397513983901 0 0.020717214751929707 0.01956126221503145 0 0.02070584865689782 0.019376645029401514 0 0.020890913539921323 0.019387986606226142 0 0.019336462148127061 0.01571789222699517 0 0.019420780609214726 0.015627439914558085 0 0.019276961611373874 0.015539685790648123 0 0.018105396007849526 0.015929820105452509 0 0.017833164558700577 0.016661912743204738 0 0.016100706480050003 0.015641688553700565 0 0.018105396007849526 0.015929820105452509 0 0.018376308968654331 0.016114443727267284 0 0.017833164558700577 0.016661912743204738 0 0.019338676503852407 0.017906722757745502 0 0.01953183993895817 0.017632808865646141 0 0.01953183993895817 0.017632808865646141 0 0.01841752994387676 0.014702218087417731 0 0.020877953858584621 0.020232459738444793 0 0.020712742743095324 0.019899856682985547 0 0.020892972928896251 0.019648398442824844 0 0.020712742743095324 0.019899856682985547 0 0.020892972928896251 0.019648398442824844 0 0.02081006727402309 0.019594989280945968 0 0.01650280085898052 0.017063367830952161 0 0.019338676503852407 0.017906722757745502 0 0.018105396007849526 0.015929820105452509 0 0.016100706480050003 0.015641688553700565 0 0.016096888171608151 0.015066614814446936 0 0.016093190773212706 0.014570850188667508 0 0.018105396007849526 0.015929820105452509 0 0.016096888171608151 0.015066614814446936 0 0.01841752994387676 0.014702218087417731 0 0.013920292426711939 0.012454748535862922 0 0.013920292426711939 0.012454748535862922 0 0.011984564607719964 0.0095105607947506051 0 0.0098073883492213534 0.0095649517056974609 0 0.010298868177409545 0.0090273600790446874 0 0.010247784346925214 0.0085888485443845371 0 0.0139202924267119