<?xml version="1.0"?>
<VTKFile type="UnstructuredGrid" version="0.1" byte_order="LittleEndian">
<UnstructuredGrid>
<Piece NumberOfPoints="30618" NumberOfCells="10744">
<Points>
<DataArray type="Float64" NumberOfComponents="3" format="ascii">
-0.49427958746526202 -0.49999999999999512 0 -0.4943900888896422 -0.47349089190363358 0 -0.49427958746526202 -0.49999999999999512 0 -0.5 -0.5 0 -0.4943900888896422 -0.47349089190363358 0 -0.5 -0.5 0 -0.4943900888896422 -0.47349089190363358 0 -0.5 -0.44150235328842258 0 -0.49427958746526202 -0.49999999999999512 0 -0.4943900888896422 -0.47349089190363358 0 -0.48436842240857858 -0.48714093788813112 0 -0.49427958746526202 -0.49999999999999512 0 -0.47650045540741742 -0.5 0 -0.48436842240857858 -0.48714093788813112 0 -0.4943900888896422 -0.47349089190363358 0 -0.47066899942757451 -0.47576530412887819 0 -0.48436842240857858 -0.48714093788813112 0 -0.47066899942757451 -0.47576530412887819 0 -0.47650045540741742 -0.5 0 -0.48436842240857858 -0.48714093788813112 0 -0.47066899942757451 -0.47576530412887819 0 -0.45872132334957288 -0.49999999999999928 0 -0.45242967983978871 -0.4846708604340636 0 -0.47066899942757451 -0.47576530412887819 0 -0.47650045540741742 -0.5 0 -0.45872132334957288 -0.49999999999999928 0 -0.47066899942757451 -0.47576530412887819 0 -0.45872132334957288 -0.49999999999999928 0 -0.47066899942757451 -0.47576530412887819 0 -0.45242967983978871 -0.4846708604340636 0 -0.45249717469141032 -0.46588444847215849 0 -0.43763952177061649 -0.47770500498713542 0 -0.45242967983978871 -0.4846708604340636 0 -0.45249717469141032 -0.46588444847215849 0 -0.43763952177061649 -0.47770500498713542 0 -0.44291044788006362 -0.49999999999999939 0 -0.45242967983978871 -0.4846708604340636 0 -0.43763952177061649 -0.47770500498713542 0 -0.44291044788006362 -0.49999999999999939 0 -0.45872132334957288 -0.49999999999999928 0 -0.44291044788006362 -0.49999999999999939 0 -0.45242967983978871 -0.4846708604340636 0 -0.44838221886832419 -0.4464230337388379 0 -0.4323685956611692 -0.45541000997427139 0 -0.435988539966085 -0.44148905847597392 0 -0.44838221886832419 -0.4464230337388379 0 -0.44213238819953832 -0.43491600865963681 0 -0.435988539966085 -0.44148905847597392 0 -0.44838221886832419 -0.4464230337388379 0 -0.45249717469141032 -0.46588444847215849 0 -0.45755175660874181 -0.45423607616472811 0 -0.44838221886832419 -0.4464230337388379 0 -0.45249717469141032 -0.46588444847215849 0 -0.4323685956611692 -0.45541000997427139 0 -0.43763952177061649 -0.47770500498713542 0 -0.45249717469141032 -0.46588444847215849 0 -0.4323685956611692 -0.45541000997427139 0 -0.47066899942757451 -0.47576530412887819 0 -0.45249717469141032 -0.46588444847215849 0 -0.4675747862741928 -0.45726336772241771 0 -0.45249717469141032 -0.46588444847215849 0 -0.45755175660874181 -0.45423607616472811 0 -0.4675747862741928 -0.45726336772241771 0 -0.44838221886832419 -0.4464230337388379 0 -0.46897642374787268 -0.44262015471777721 0 -0.45660235518767722 -0.42786105997071933 0 -0.44838221886832419 -0.4464230337388379 0 -0.45755175660874181 -0.45423607616472811 0 -0.46897642374787268 -0.44262015471777721 0 -0.45755175660874181 -0.45423607616472811 0 -0.4675747862741928 -0.45726336772241771 0 -0.46897642374787268 -0.44262015471777721 0 -0.4943900888896422 -0.47349089190363358 0 -0.5 -0.44150235328842258 0 -0.49450059031402238 -0.44698178380727199 0 -0.46897642374787268 -0.44262015471777721 0 -0.48473746643246862 -0.43972512984246093 0 -0.48043585850414389 -0.43127077967876992 0 -0.46897642374787268 -0.44262015471777721 0 -0.4826166755055763 -0.45153060825775743 0 -0.48473746643246862 -0.43972512984246093 0 -0.4675747862741928 -0.45726336772241771 0 -0.46897642374787268 -0.44262015471777721 0 -0.4826166755055763 -0.45153060825775743 0 -0.47066899942757451 -0.47576530412887819 0 -0.4826166755055763 -0.45153060825775743 0 -0.4943900888896422 -0.47349089190363358 0 -0.47066899942757451 -0.47576530412887819 0 -0.4826166755055763 -0.45153060825775743 0 -0.47066899942757451 -0.47576530412887819 0 -0.4675747862741928 -0.45726336772241771 0 -0.4826166755055763 -0.45153060825775743 0 -0.4943900888896422 -0.47349089190363358 0 -0.49450059031402238 -0.44698178380727199 0 -0.4943900888896422 -0.47349089190363358 0 -0.4826166755055763 -0.45153060825775743 0 -0.49450059031402238 -0.44698178380727199 0 -0.4826166755055763 -0.45153060825775743 0 -0.48473746643246862 -0.43972512984246093 0 -0.49450059031402238 -0.44698178380727199 0 -0.5 -0.44150235328842258 0 -0.49461109173840262 -0.42047267571091063 0 -0.5 -0.39656953661894012 0 -0.49450059031402238 -0.44698178380727199 0 -0.49461109173840262 -0.42047267571091063 0 -0.48473746643246862 -0.43972512984246093 0 -0.49461109173840262 -0.42047267571091063 0 -0.48043585850414389 -0.43127077967876992 0 -0.5 -0.44150235328842258 0 -0.49450059031402238 -0.44698178380727199 0 -0.49461109173840262 -0.42047267571091063 0 -0.48473746643246862 -0.43972512984246093 0 -0.49450059031402238 -0.44698178380727199 0 -0.49461109173840262 -0.42047267571091063 0 -0.49461109173840262 -0.42047267571091063 0 -0.4947215931627828 -0.39396356761454909 0 -0.49461109173840262 -0.42047267571091063 0 -0.48393842445605872 -0.40713040098299402 0 -0.4947215931627828 -0.39396356761454909 0 -0.49461109173840262 -0.42047267571091063 0 -0.48393842445605872 -0.40713040098299402 0 -0.47214510592166908 -0.41939033492402211 0 -0.48393842445605872 -0.40713040098299402 0 -0.47214510592166908 -0.41939033492402211 0 -0.47427590700138023 -0.39469502568249409 0 -0.46897642374787268 -0.44262015471777721 0 -0.47214510592166908 -0.41939033492402211 0 -0.48043585850414389 -0.43127077967876992 0 -0.49461109173840262 -0.42047267571091063 0 -0.47214510592166908 -0.41939033492402211 0 -0.48043585850414389 -0.43127077967876992 0 -0.5 -0.39656953661894012 0 -0.4947215931627828 -0.39396356761454909 0 -0.48030453056746109 -0.36861144308094029 0 -0.49461109173840262 -0.42047267571091063 0 -0.5 -0.39656953661894012 0 -0.4947215931627828 -0.39396356761454909 0 -0.48393842445605872 -0.40713040098299402 0 -0.4947215931627828 -0.39396356761454909 0 -0.47427590700138023 -0.39469502568249409 0 -0.47427590700138023 -0.39469502568249409 0 -0.48030453056746109 -0.36861144308094029 0 -0.4947215931627828 -0.39396356761454909 0 -0.47427590700138023 -0.39469502568249409 0 -0.48030453056746109 -0.36861144308094029 0 -0.47427590700138023 -0.39469502568249409 0 -0.46334377193483078 -0.37842983215876019 0 -0.48030453056746109 -0.36861144308094029 0 -0.46334377193483078 -0.37842983215876019 0 -0.45726543839001688 -0.40541672899881109 0 -0.44416021803808919 -0.38243724496113263 0 -0.47427590700138023 -0.39469502568249409 0 -0.46334377193483078 -0.37842983215876019 0 -0.45726543839001688 -0.40541672899881109 0 -0.45726543839001688 -0.40541672899881109 0 -0.43814282409564848 -0.40387353522152758 0 -0.44416021803808919 -0.38243724496113263 0 -0.43814282409564848 -0.40387353522152758 0 -0.44416021803808919 -0.38243724496113263 0 -0.4329908326547659 -0.40007252460533121 0 -0.43814282409564848 -0.40387353522152758 0 -0.44416021803808919 -0.38243724496113263 0 -0.46897642374787268 -0.44262015471777721 0 -0.47214510592166908 -0.41939033492402211 0 -0.45660235518767722 -0.42786105997071933 0 -0.47214510592166908 -0.41939033492402211 0 -0.47427590700138023 -0.39469502568249409 0 -0.45726543839001688 -0.40541672899881109 0 -0.47214510592166908 -0.41939033492402211 0 -0.45726543839001688 -0.40541672899881109 0 -0.45660235518767722 -0.42786105997071933 0 -0.45726543839001688 -0.40541672899881109 0 -0.45660235518767722 -0.42786105997071933 0 -0.44309263043645408 -0.41812298423377797 0 -0.45726543839001688 -0.40541672899881109 0 -0.43814282409564848 -0.40387353522152758 0 -0.44309263043645408 -0.41812298423377797 0 -0.43814282409564848 -0.40387353522152758 0 -0.44309263043645408 -0.41812298423377797 0 -0.43209373842114163 -0.42530092927673752 0 -0.44838221886832419 -0.4464230337388379 0 -0.45660235518767722 -0.42786105997071933 0 -0.44213238819953832 -0.43491600865963681 0 -0.45660235518767722 -0.42786105997071933 0 -0.44213238819953832 -0.43491600865963681 0 -0.43132710435572019 -0.42815377149591122 0 -0.45660235518767722 -0.42786105997071933 0 -0.44309263043645408 -0.41812298423377797 0 -0.43132710435572019 -0.42815377149591122 0 -0.45660235518767722 -0.42786105997071933 0 -0.43132710435572019 -0.42815377149591122 0 -0.44213238819953832 -0.43491600865963681 0 -0.42986244815509678 -0.43337144475258638 0 -0.435988539966085 -0.44148905847597392 0 -0.44213238819953832 -0.43491600865963681 0 -0.42986244815509678 -0.43337144475258638 0 -0.43132710435572019 -0.42815377149591122 0 -0.42986244815509678 -0.43337144475258638 0 -0.43132710435572019 -0.42815377149591122 0 -0.42986244815509678 -0.43337144475258638 0 -0.42494843276815808 -0.42822764260015772 0 -0.42026026496879931 -0.43681168621285732 0 -0.42986244815509678 -0.43337144475258638 0 -0.42494843276815808 -0.42822764260015772 0 -0.43132710435572019 -0.42815377149591122 0 -0.42494843276815808 -0.42822764260015772 0 -0.43209373842114163 -0.42530092927673752 0 -0.42214799869492048 -0.41876725226122891 0 -0.42494843276815808 -0.42822764260015772 0 -0.43209373842114163 -0.42530092927673752 0 -0.42494843276815808 -0.42822764260015772 0 -0.43209373842114163 -0.42530092927673752 0 -0.43132710435572019 -0.42815377149591122 0 -0.42494843276815808 -0.42822764260015772 0 -0.43132710435572019 -0.42815377149591122 0 -0.44309263043645408 -0.41812298423377797 0 -0.43209373842114163 -0.42530092927673752 0 -0.43132710435572019 -0.42815377149591122 0 -0.43209373842114163 -0.42530092927673752 0 -0.43132710435572019 -0.42815377149591122 0 -0.43814282409564848 -0.40387353522152758 0 -0.43209373842114163 -0.42530092927673752 0 -0.43814282409564848 -0.40387353522152758 0 -0.43209373842114163 -0.42530092927673752 0 -0.42736227186559528 -0.41250939947999687 0 -0.43814282409564848 -0.40387353522152758 0 -0.42736227186559528 -0.41250939947999687 0 -0.42798743510346321 -0.40461924019690898 0
[...]
<PointData Scalars="" Vectors="displacement," Tensors="">
<DataArray type="Float64" Name="displacement" NumberOfComponents="3" format="ascii">
9.8326751557223961e-08 0.02499960712485242 0 6.9476420170678981e-05 0.023938146269611944 0 1.1659313599231523e-11 0.024999612989287531 0 2.960746720453812e-10 0.024999937990392494 0 1.6225399360005206e-07 0.023677092700038076 0 2.960746720453812e-10 0.024999937990392494 0 1.6225399360005206e-07 0.023677092700038076 0 5.5328053737344701e-09 0.022074915504605604 0 6.7778439556500425e-08 0.02499964942238107 0 8.2371868835445498e-05 0.024215240908391392 0 5.1942687782126077e-05 0.024666619978275892 0 6.7778439556500425e-08 0.02499964942238107 0 7.9264606721065637e-08 0.024999438161071266 0 5.1942687782126077e-05 0.024666619978275892 0 8.2371868835445498e-05 0.024215240908391392 0 6.4004833393951769e-05 0.024505039794649491 0 5.1942687782126077e-05 0.024666619978275892 0 6.4004833393951769e-05 0.024505039794649491 0 7.9264606721065637e-08 0.024999438161071266 0 5.1942687782126077e-05 0.024666619978275892 0 0.00032968261637327868 0.024002401122023568 0 4.6365271582185484e-07 0.02499938203300291 0 0.00021998990459823082 0.024535559978211951 0 6.4004833393951769e-05 0.024505039794649491 0 7.9264606721065637e-08 0.024999438161071266 0 -2.7295716424733075e-08 0.025000052806124846 0 0.00018874625891523655 0.024227834300811123 0 -6.0589562950531671e-09 0.024999696465385607 0 0.00032968261637327868 0.024002401122023568 0 0.00021998990459823082 0.024535559978211951 0 0.00032099609982115404 0.024061556085711411 0 0.0003245250417115165 0.024349679976932482 0 0.00021998990459823082 0.024535559978211951 0 0.00032099609982115404 0.024061556085711411 0 0.0003245250417115165 0.024349679976932482 0 8.6033587040294081e-09 0.024999124448587127 0 0.00021998990459823082 0.024535559978211951 0 0.00021890755127482037 0.024603259529347176 0 1.3340076365459075e-07 0.024999807201885948 0 4.6365271582185484e-07 0.02499938203300291 0 8.6033587040294081e-09 0.024999124448587127 0 0.00021998990459823082 0.024535559978211951 0 0.00018522174827282115 0.02377208291917968 0 0.00021418959792599555 0.024386706117268682 0 5.3892429214832003e-05 0.024123075216991564 0 0.00018522174827282115 0.02377208291917968 0 -1.7509228187325072e-05 0.023800141294755502 0 5.3892429214832003e-05 0.024123075216991564 0 0.00018522174827282115 0.02377208291917968 0 0.00032099609982115404 0.024061556085711411 0 0.00025707042024424986 0.023715732872727113 0 0.00018522174827282115 0.02377208291917968 0 0.00032099609982115404 0.024061556085711411 0 0.00021418959792599555 0.024386706117268682 0 0.0003245250417115165 0.024349679976932482 0 0.00032099609982115404 0.024061556085711411 0 0.00021418959792599555 0.024386706117268682 0 0.00032968261637327868 0.024002401122023568 0 0.00032099609982115404 0.024061556085711411 0 0.00025843046319358622 0.02361369334068002 0 0.00032099609982115404 0.024061556085711411 0 0.00025707042024424986 0.023715732872727113 0 0.00025843046319358622 0.02361369334068002 0 0.00018522174827282115 0.02377208291917968 0 0.00022971220434351899 0.023147127081696514 0 6.4717271742773151e-05 0.022963549695615176 0 0.00018522174827282115 0.02377208291917968 0 0.00025707042024424986 0.023715732872727113 0 0.00022971220434351899 0.023147127081696514 0 0.00025707042024424986 0.023715732872727113 0 0.00025843046319358622 0.02361369334068002 0 0.00022971220434351899 0.023147127081696514 0 1.6225399360005206e-07 0.023677092700038076 0 5.5328053737344701e-09 0.022074915504605604 0 -6.8061551436184839e-07 0.022351014003533953 0 0.00022971220434351899 0.023147127081696514 0 0.00026901765515762913 0.022918994041080699 0 0.00026992315209075902 0.022611944888945374 0 0.00022971220434351899 0.023147127081696514 0 0.00021486185811021751 0.023384990840196875 0 0.00026901765515762913 0.022918994041080699 0 0.00025843046319358622 0.02361369334068002 0 0.00022971220434351899 0.023147127081696514 0 0.00021486185811021751 0.023384990840196875 0 0.00018874625891523655 0.024227834300811123 0 0.00021034456043387816 0.023537694958868347 0 8.2371868835445498e-05 0.024215240908391392 0 6.4004833393951769e-05 0.024505039794649491 0 0.00021486185811021751 0.023384990840196875 0 0.00032968261637327868 0.024002401122023568 0 0.00025843046319358622 0.02361369334068002 0 0.00021486185811021751 0.023384990840196875 0 6.9476420170678981e-05 0.023938146269611944 0 0.00013377010473010362 0.022781905146411416 0 8.2371868835445498e-05 0.024215240908391392 0 0.00021486185811021751 0.023384990840196875 0 0.00024691752787415859 0.023228458599935466 0 0.00021486185811021751 0.023384990840196875 0 0.00026901765515762913 0.022918994041080699 0 0.00024691752787415859 0.023228458599935466 0 5.5328053737344701e-09 0.022074915504605604 0 1.4331963096486214e-05 0.0210259163721387 0 1.91075757290187e-07 0.019829431755479379 0 0.00013377010473010362 0.022781905146411416 0 0.00013060837732847835 0.021420651629946389 0 0.00026901765515762913 0.022918994041080699 0 0.00030441980898308023 0.021911144452800627 0 0.00026992315209075902 0.022611944888945374 0 5.5328053737344701e-09 0.022074915504605604 0 -6.8061551436184839e-07 0.022351014003533953 0 1.4331963096486214e-05 0.0210259163721387 0 0.00026901765515762913 0.022918994041080699 0 0.00024691752787415859 0.023228458599935466 0 0.00030441980898308023 0.021911144452800627 0 0.00013060837732847835 0.021420651629946389 0 -5.3478659140270196e-05 0.020239051652474097 0 0.00030441980898308023 0.021911144452800627 0 0.00016064546285658762 0.021362845145242469 0 -1.4372345312876377e-05 0.019963288061967222 0 0.00030441980898308023 0.021911144452800627 0 0.00016064546285658762 0.021362845145242469 0 0.0002195011294793336 0.02229311042895115 0 0.00016064546285658762 0.021362845145242469 0 0.0002195011294793336 0.02229311042895115 0 -0.00014264185857595067 0.021264178077121082 0 0.00022971220434351899 0.023147127081696514 0 0.0002195011294793336 0.02229311042895115 0 0.00026992315209075902 0.022611944888945374 0 0.00030441980898308023 0.021911144452800627 0 0.0002195011294793336 0.02229311042895115 0 0.00026992315209075902 0.022611944888945374 0 1.91075757290187e-07 0.019829431755479379 0 -1.4372345312876377e-05 0.019963288061967222 0 -0.00016240880477629927 0.0192424453493832 0 1.4331963096486214e-05 0.0210259163721387 0 1.91075757290187e-07 0.019829431755479379 0 -1.4372345312876377e-05 0.019963288061967222 0 0.00016064546285658762 0.021362845145242469 0 -1.4372345312876377e-05 0.019963288061967222 0 -0.00014264185857595067 0.021264178077121082 0 -6.2218874042413837e-05 0.021045342643785894 0 -0.00071362123439836769 0.020387428272418517 0 -1.4372345312876377e-05 0.019963288061967222 0 -0.00014264185857595067 0.021264178077121082 0 -0.00016240880477629927 0.0192424453493832 0 -0.00014264185857595067 0.021264178077121082 0 -0.00094735638076834459 0.021841723689249727 0 -0.0014138623676164192 0.020973019342049926 0 -0.00094735638076834459 0.021841723689249727 0 5.7960453462717402e-05 0.022376804425713766 0 -0.00076091658078059489 0.022685834372625363 0 -0.00014264185857595067 0.021264178077121082 0 -0.00094735638076834459 0.021841723689249727 0 5.7960453462717402e-05 0.022376804425713766 0 5.7960453462717402e-05 0.022376804425713766 0 -3.2084153982927097e-05 0.022860827831712019 0 -0.00076091658078059489 0.022685834372625363 0 0.00037099337420138463 0.019689349050456717 0 -0.0001077480318211809 0.019528653181989312 0 0.00027793846105991901 0.019810453426224509 0 0.00022050856359473366 0.021173902070062249 0 -0.00047039725240504034 0.021380648211583857 0 0.00022971220434351899 0.023147127081696514 0 0.0002195011294793336 0.02229311042895115 0 6.4717271742773151e-05 0.022963549695615176 0 0.0002195011294793336 0.02229311042895115 0 -0.00014264185857595067 0.021264178077121082 0 5.7960453462717402e-05 0.022376804425713766 0 0.0002195011294793336 0.02229311042895115 0 5.7960453462717402e-05 0.022376804425713766 0 6.4717271742773151e-05 0.022963549695615176 0 5.7960453462717402e-05 0.022376804425713766 0 6.4717271742773151e-05 0.022963549695615176 0 0.00011830419141533832 0.022786972798162504 0 5.7960453462717402e-05 0.022376804425713766 0 -3.2084153982927097e-05 0.022860827831712019 0 0.00011830419141533832 0.022786972798162504 0 -3.2084153982927097e-05 0.022860827831712019 0 0.00011830419141533832 0.022786972798162504 0 0.00011719740744222004 0.022765827667594215 0 0.00018522174827282115 0.02377208291917968 0 6.4717271742773151e-05 0.022963549695615176 0 -1.7509228187325072e-05 0.023800141294755502 0 6.4717271742773151e-05 0.022963549695615176 0 -1.7509228187325072e-05 0.023800141294755502 0 -0.00043727840255418073 0.024306854476013998 0 6.4717271742773151e-05 0.022963549695615176 0 0.00011830419141533832 0.022786972798162504 0 0.00010583858528563723 0.02275538814230638 0 -1.3725185458312798e-05 0.023206857072775398 0 -2.0008486891050747e-06 0.023117154122186252 0 -1.7509228187325072e-05 0.023800141294755502 0 -0.0001858235793825407 0.024352015745333581 0 5.3892429214832003e-05 0.024123075216991564 0 -1.7509228187325072e-05 0.023800141294755502 0 -0.0001858235793825407 0.024352015745333581 0 -0.00043727840255418073 0.024306854476013998 0 -2.7204251255097588e-05 0.023427018213489817 0 -2.0008486891050747e-06 0.023117154122186252 0 -0.0001858235793825407 0.024352015745333581 0 -0.00028150099141205554 0.024461635889240933 0 -0.00011684548597637504 0.024554058037743992 0 -0.0001858235793825407 0.024352015745333581 0 -0.00028150099141205554 0.024461635889240933 0 -0.00028997505893475453 0.024321230758602701 0 0.0010341457586226178 0.020060622177767572 0 0.00095365976559249916 0.01986649667998646 0 0.0007805864160994355 0.020127409089252271 0 7.3931402579944649e-05 0.022700810115080558 0 5.7340661881549601e-06 0.022325115513775598 0 0.00018398660146702939 0.022715783553889046 0 0.00016476709292248055 0.022671223617541838 0 0.00018277241267141344 0.022676314025024069 0 7.3931402579944649e-05 0.022700810115080558 0 -2.0008486891050747e-06 0.023117154122186252 0 0.00011830419141533832 0.022786972798162504 0 0.00011719740744222004 0.022765827667594215 0 0.00010583858528563723 0.02275538814230638 0 5.7340661881549601e-06 0.022325115513775598 0 -2.0008486891050747e-06 0.023117154122186252 0 0.00022050856359473366 0.021173902070062249 0 5.7340661881549601e-06 0.022325115513775598 0 0.00037099337420138463 0.019689349050456717 0 0.00095365976559249916 0.01986649667998646 0 0.00060942630963144444 0.019980055503431501 0 0.00037099337420138463 0.019689349050456717 0 0.00060942630963144444 0.019980055503431501 0 0.00039883874946252767 0.01995227338550315 0 0.00060942630963144444 0.019980055503431501 0 0.0007805864160994355 0.020127409089252271 0 0.00054549989524362973 0.020272995835987656 0 0.00060942630963144444 0.019980055503431501 0 0.00054549989524362973 0.020272995835987656 0 0.00039883874946252767 0.01995227338550315 0 0.00095365976559249916 0.01986649667998646 0 0.00060942630963144444 0.019980055503431501 0 0.0007805864160994355 0.020127409089252271 0 0.00054549989524362973 0.020272995835987656 0 0.00080837939811592577 0.020371007303118735 0 0.00062252251756171205 0.020712530251203329 0 0.00054549989524362973 0.020272995835987656 0 0.00032732285243674322 0.020601007371584417 0 0.00062252251756171205 0.020712530251203329 0 0.0007805864160994355 0.020127409089252271 0 0.00054549989524362973 0.020272995835987656 0 0.00080837939811592577 0.020371007303118735 0 -0.00028150099141205554 0.024461635889240933 0 -0.00011684548597637504 0.024554058037743992 0 -8.8923023231953581e-05 0.024817366532361405 0 7.3931402579944649e-05 0.022700810115080558 0 -7.3003135703376859e-05 0.024654838187188648 0 -0.00030996035911775785 0.023451965269375374 0 -7.9073198555265945e-05 0.024066109443513364 0 -0.00029884043996659682 0.024115425639172121 0 7.3931402579944649e-05 0.022700810115080558 0 0.00040463295942707542 0.022187401937261497 0 0.0010341457586226178 0.020060622177767572 0 0.00080837939811592577 0.020371007303118735 0 0.0010537561641027983 0.020689418914848507 0 0.0010341457586226178 0.020060622177767572 0 0.0007805864160994355 0.020127409089252271 0 0.00080837939811592577 0.020371007303118735 0 -0.00017395454560860144 0.020511945292885834 0 0.00040099700257922307 0.017933195809378799 0 0.00027793846105991901 0.019810453426224509 0 4.3457230242391458e-05 0.020206317812812839 0 -0.00030630042968623995 0.020166243326077141 0 -0.00011362655386476675 0.019779715466269394 0 0.00027793846105991901 0.019810453426224509 0 -0.00022311122411594698 0.020051311242898572 0 -0.0001077480318211809 0.019528653181989312 0 -0.00011362655386476675 0.019779715466269394 0 0.00027793846105991901 0.019810453426224509 0 -0.00011362655386476675 0.019779715466269394 0 -0.00022311122411594698 0.020051311242898572 0 -0.00040025558104777703 0.019723819961372478 0 -0.0001077480318211809 0.019528653181989312 0 -0.00011362655386476675 0.019779715466269394 0 -0.00040025558104777703 0.019723819961372478 0 0.00027793846105991901 0.019810453426224509 0 0.0003099437150712756 0.020118676582194659 0 4.3457230242391458e-05 0.020206317812812839 0 0.00037099337420138463 0.019689349050456717 0 0.00027793846105991901 0.019810453426224509 0 0.00039883874946252767 0.01995227338550315 0 0.00027793846105991901 0.019810453426224509 0 0.00039883874946252767 0.01995227338550315 0 0.0003099437150712756 0.020118676582194659 0 0.00054549989524362973 0.020272995835987656 0 0.00039883874946252767 0.01995227338550315 0 0.0003099437150712756 0.020118676582194659 0 0.00014453747729701379 0.020542754977596361 0 4.3457230242391458e-05 0.020206317812812839 0 -0.00011622090934452982 0.020683631994674646 0 0.00054549989524362973 0.020272995835987656 0 0.0003099437150712756 0.020118676582194659 0 0.00027439052225634332 0.020347676745568009 0 0.00054549989524362973 0.020272995835987656 0 0.00027439052225634332 0.020347676745568009 0 0.00032732285243674322 0.020601007371584417 0 0.00027439052225634332 0.020347676745568009 0 0.00014453747729701379 0.020542754977596361 0 0.00032732285243674322 0.020601007371584417 0 0.00027439052225634332 0.020347676745568009 0 0.00014453747729701379 0.020542754977596361 0 4.3457230242391458e-05 0.020206317812812839 0 0.0003099437150712756 0.020118676582194659 0 0.00027439052225634332 0.020347676745568009 0 4.3457230242391458e-05 0.020206317812812839 0 -4.1595047912560391e-05 0.02046292552430826 0 0.00028630529765483897 0.020049378039427676 0 4.3457230242391458e-05 0.020206317812812839 0 -0.00018467754080468782 0.020372640189436561 0 -8.3526547052010855e-05 0.020565018682446312 0 4.3457230242391458e-05 0.020206317812812839 0 -0.0001900006648401798 0.020241647340923017 0 -0.00030630042968623995 0.020166243326077141 0 4.3457230242391458e-05 0.020206317812812839 0 -0.00018704945821604259 0.02031555985422271 0 -0.0001900006648401798 0.020241647340923017 0 4.3457230242391458e-05 0.020206317812812839 0 -0.00018704945821604259 0.02031555985422271 0 -0.00018467754080468782 0.020372640189436561 0 0.00043840723850040023 0.018737973202320322 0 0.00046157953449756469 0.019345783179813295 0 -0.00018704945821604259 0.02031555985422271 0 -0.00023007760256892957 0.020284228282820886 0 -0.00018438693188187866 0.020366429407256519 0 0.00093085409062946623 0.018530470690217116 0 0.00087480685868722972 0.018419720849478599 0 0.0013018971440422872 0.018176429597434277 0 0.0004232787573675475 0.019558819624835789 0 0.00046157953449756469 0.019345783179813295 0 0.00043840723850040023 0.018737973202320322 0 0.00040099700257922307 0.017933195809378799 0 -0.00023871273057202256 0.020285658973989797 0 -0.0001900006648401798 0.020241647340923017 0 -0.00030630042968623995 0.020166243326077141 0 -0.00018704945821604259 0.02031555985422271 0 -0.00023007760256892957 0.020284228282820886 0 -0.0001900006648401798 0.020241647340923017 0 0.00043840723850040023 0.018737973202320322 0 0.00019020822246771076 0.019039735776543172 0 0.00072386363510833717 0.019625682116940758 0 0.00072654402402315855 0.018764259581884182 0 0.00052274191429939787 0.019224998089129829 0 0.00052840332121196012 0.019545308617505922 0 0.00058780091613221466 0.01940675431841575 0 0.00073460862340871916 0.019688350158713019 0 0.00087480685868722972 0.018419720849478599 0 0.00087497714084053312 0.017890564109831517 0 0.0013018971440422872 0.018176429597434277 0 0.00046157953449756469 0.019345783179813295 0 0.0010768283950323405 0.01836138293116002 0 0.00046157953449756469 0.019345783179813295 0 0.00028630529765483897 0.020049378039427676 0 0.0010768283950323405 0.01836138293116002 0 0.00028630529765483897 0.020049378039427676 0 -0.00011622090934452982 0.020683631994674646 0 0.00017662243121196084 0.020863131634720467 0 0.00016898635188337076 0.021230801233208894 0 0.00028630529765483897 0.020049378039427676 0 0.0007203908509777607 0.020067055953210983 0 0.00014453747729701379 0.020542754977596361 0 0.00017662243121196084 0.020863131634720467 0 0.00032732285243674322 0.020601007371584417 0 0.00014453747729701379 0.020542754977596361 0 -0.00011622090934452982 0.020683631994674646 0 0.00017662243121196084 0.020863131634720467 0 0.00017662243121196084 0.020863131634720467 0 0.00032732285243674322 0.020601007371584417 0 0.00036482249338262008 0.020824686830089357 0 0.00032732285243674322 0.020601007371584417 0 0.00036482249338262008 0.020824686830089357 0 0.00062252251756171205 0.020712530251203329 0 0.00036482249338262008 0.020824686830089357 0 0.00028822767975508306 0.021074879824257056 0 0.00047453220714485569 0.021015539680422225 0 0.00017662243121196084 0.020863131634720467 0 0.00036482249338262008 0.020824686830089357 0 0.00028822767975508306 0.021074879824257056 0 0.00043991533608743981 0.02123602473189598 0 0.00036664342600749886 0.021227063384927053 0 0.00047453220714485569 0.021015539680422225 0 0.00036664342600749886 0.021227063384927053 0 0.00024798378684532827 0.021269070802775528 0 0.00047453220714485569 0.021015539680422225 0 0.00028822767975508306 0.021074879824257056 0 0.00022113184295069694 0.021264582566330965 0 0.00047453220714485569 0.021015539680422225 0 0.0006315728372990754 0.020240368140423286 0 0.00020858819122848287 0.021183236922670583 0 0.0006315728372990754 0.020240368140423286 0 0.0010300424080669911 0.020095867841692264 0 0.00033431133508803751 0.021355578370984455 0 0.00025151469192871207 0.021267228850705169 0 0.00032401647507521977 0.021450531578482555 0 0.00043991533608743981 0.02123602473189598 0 0.00036664342600749886 0.021227063384927053 0 0.00037518166442308267 0.021304211549651821 0 0.00043991533608743981 0.02123602473189598 0 0.00043324058945321139 0.021363707839418881 0 0.00037518166442308267 0.021304211549651821 0 0.00043324058945321139 0.021363707839418881 0 0.00037518166442308267 0.021304211549651821 0 0.00033431133508803751 0.021355578370984455 0 0.00037518166442308267 0.021304211549651821 0 0.00033431133508803751 0.021355578370984455 0 0.00029642390007716713 0.021297897154857377 0 0.00033431133508803751 0.021355578370984455 0 0.00029642390007716713 0.021297897154857377 0 0.00025151469192871207 0.021267228850705169 0 0.00064690313465603545 0.020317195584376887 0 0.0006315728372990754 0.020240368140423286 0 0.00036664342600749886 0.021227063384927053 0 0.00029642390007716713 0.021297897154857377 0 0.00024798378684532827 0.021269070802775528 0 0.00036664342600749886 0.021227063384927053 0 0.00037518166442308267 0.021304211549651821 0 0.00029642390007716713 0.021297897154857377 0 0.00093105849324460446 0.019606978089201935 0 0.00081378151980624684 0.0197265252494703 0 0.0010172864175473028 0.019848709006976412 0 0.0014295823833983428 0.018838088051874344 0 0.0013596702044291733 0.019028948736086505 0 0.00091347765742763988 0.018755561319851715 0 0.0014295823833983428 0.018838088051874344 0 0.0014991504102372262 0.018887231440764062 0 0.0013596702044291733 0.019028948736086505 0 0.0007203908509777607 0.020067055953210983 0 0.0006315728372990754 0.020240368140423286 0 0.0006315728372990754 0.020240368140423286 0 0.00137849755