<?xml version="1.0"?>
<VTKFile type="UnstructuredGrid" version="0.1" byte_order="LittleEndian">
<UnstructuredGrid>
<Piece NumberOfPoints="30618" NumberOfCells="10744">
<Points>
<DataArray type="Float64" NumberOfComponents="3" format="ascii">
-0.49427958746526202 -0.49999999999999512 0 -0.4943900888896422 -0.47349089190363358 0 -0.49427958746526202 -0.49999999999999512 0 -0.5 -0.5 0 -0.4943900888896422 -0.47349089190363358 0 -0.5 -0.5 0 -0.4943900888896422 -0.47349089190363358 0 -0.5 -0.44150235328842258 0 -0.49427958746526202 -0.49999999999999512 0 -0.4943900888896422 -0.47349089190363358 0 -0.48436842240857858 -0.48714093788813112 0 -0.49427958746526202 -0.49999999999999512 0 -0.47650045540741742 -0.5 0 -0.48436842240857858 -0.48714093788813112 0 -0.4943900888896422 -0.47349089190363358 0 -0.47066899942757451 -0.47576530412887819 0 -0.48436842240857858 -0.48714093788813112 0 -0.47066899942757451 -0.47576530412887819 0 -0.47650045540741742 -0.5 0 -0.48436842240857858 -0.48714093788813112 0 -0.47066899942757451 -0.47576530412887819 0 -0.45872132334957288 -0.49999999999999928 0 -0.45242967983978871 -0.4846708604340636 0 -0.47066899942757451 -0.47576530412887819 0 -0.47650045540741742 -0.5 0 -0.45872132334957288 -0.49999999999999928 0 -0.47066899942757451 -0.47576530412887819 0 -0.45872132334957288 -0.49999999999999928 0 -0.47066899942757451 -0.47576530412887819 0 -0.45242967983978871 -0.4846708604340636 0 -0.45249717469141032 -0.46588444847215849 0 -0.43763952177061649 -0.47770500498713542 0 -0.45242967983978871 -0.4846708604340636 0 -0.45249717469141032 -0.46588444847215849 0 -0.43763952177061649 -0.47770500498713542 0 -0.44291044788006362 -0.49999999999999939 0 -0.45242967983978871 -0.4846708604340636 0 -0.43763952177061649 -0.47770500498713542 0 -0.44291044788006362 -0.49999999999999939 0 -0.45872132334957288 -0.49999999999999928 0 -0.44291044788006362 -0.49999999999999939 0 -0.45242967983978871 -0.4846708604340636 0 -0.44838221886832419 -0.4464230337388379 0 -0.4323685956611692 -0.45541000997427139 0 -0.435988539966085 -0.44148905847597392 0 -0.44838221886832419 -0.4464230337388379 0 -0.44213238819953832 -0.43491600865963681 0 -0.435988539966085 -0.44148905847597392 0 -0.44838221886832419 -0.4464230337388379 0 -0.45249717469141032 -0.46588444847215849 0 -0.45755175660874181 -0.45423607616472811 0 -0.44838221886832419 -0.4464230337388379 0 -0.45249717469141032 -0.46588444847215849 0 -0.4323685956611692 -0.45541000997427139 0 -0.43763952177061649 -0.47770500498713542 0 -0.45249717469141032 -0.46588444847215849 0 -0.4323685956611692 -0.45541000997427139 0 -0.47066899942757451 -0.47576530412887819 0 -0.45249717469141032 -0.46588444847215849 0 -0.4675747862741928 -0.45726336772241771 0 -0.45249717469141032 -0.46588444847215849 0 -0.45755175660874181 -0.45423607616472811 0 -0.4675747862741928 -0.45726336772241771 0 -0.44838221886832419 -0.4464230337388379 0 -0.46897642374787268 -0.44262015471777721 0 -0.45660235518767722 -0.42786105997071933 0 -0.44838221886832419 -0.4464230337388379 0 -0.45755175660874181 -0.45423607616472811 0 -0.46897642374787268 -0.44262015471777721 0 -0.45755175660874181 -0.45423607616472811 0 -0.4675747862741928 -0.45726336772241771 0 -0.46897642374787268 -0.44262015471777721 0 -0.4943900888896422 -0.47349089190363358 0 -0.5 -0.44150235328842258 0 -0.49450059031402238 -0.44698178380727199 0 -0.46897642374787268 -0.44262015471777721 0 -0.48473746643246862 -0.43972512984246093 0 -0.48043585850414389 -0.43127077967876992 0 -0.46897642374787268 -0.44262015471777721 0 -0.4826166755055763 -0.45153060825775743 0 -0.48473746643246862 -0.43972512984246093 0 -0.4675747862741928 -0.45726336772241771 0 -0.46897642374787268 -0.44262015471777721 0 -0.4826166755055763 -0.45153060825775743 0 -0.47066899942757451 -0.47576530412887819 0 -0.4826166755055763 -0.45153060825775743 0 -0.4943900888896422 -0.47349089190363358 0 -0.47066899942757451 -0.47576530412887819 0 -0.4826166755055763 -0.45153060825775743 0 -0.47066899942757451 -0.47576530412887819 0 -0.4675747862741928 -0.45726336772241771 0 -0.4826166755055763 -0.45153060825775743 0 -0.4943900888896422 -0.47349089190363358 0 -0.49450059031402238 -0.44698178380727199 0 -0.4943900888896422 -0.47349089190363358 0 -0.4826166755055763 -0.45153060825775743 0 -0.49450059031402238 -0.44698178380727199 0 -0.4826166755055763 -0.45153060825775743 0 -0.48473746643246862 -0.43972512984246093 0 -0.49450059031402238 -0.44698178380727199 0 -0.5 -0.44150235328842258 0 -0.49461109173840262 -0.42047267571091063 0 -0.5 -0.39656953661894012 0 -0.49450059031402238 -0.44698178380727199 0 -0.49461109173840262 -0.42047267571091063 0 -0.48473746643246862 -0.43972512984246093 0 -0.49461109173840262 -0.42047267571091063 0 -0.48043585850414389 -0.43127077967876992 0 -0.5 -0.44150235328842258 0 -0.49450059031402238 -0.44698178380727199 0 -0.49461109173840262 -0.42047267571091063 0 -0.48473746643246862 -0.43972512984246093 0 -0.49450059031402238 -0.44698178380727199 0 -0.49461109173840262 -0.42047267571091063 0 -0.49461109173840262 -0.42047267571091063 0 -0.4947215931627828 -0.39396356761454909 0 -0.49461109173840262 -0.42047267571091063 0 -0.48393842445605872 -0.40713040098299402 0 -0.4947215931627828 -0.39396356761454909 0 -0.49461109173840262 -0.42047267571091063 0 -0.48393842445605872 -0.40713040098299402 0 -0.47214510592166908 -0.41939033492402211 0 -0.48393842445605872 -0.40713040098299402 0 -0.47214510592166908 -0.41939033492402211 0 -0.47427590700138023 -0.39469502568249409 0 -0.46897642374787268 -0.44262015471777721 0 -0.47214510592166908 -0.41939033492402211 0 -0.48043585850414389 -0.43127077967876992 0 -0.49461109173840262 -0.42047267571091063 0 -0.47214510592166908 -0.41939033492402211 0 -0.48043585850414389 -0.43127077967876992 0 -0.5 -0.39656953661894012 0 -0.4947215931627828 -0.39396356761454909 0 -0.48030453056746109 -0.36861144308094029 0 -0.49461109173840262 -0.42047267571091063 0 -0.5 -0.39656953661894012 0 -0.4947215931627828 -0.39396356761454909 0 -0.48393842445605872 -0.40713040098299402 0 -0.4947215931627828 -0.39396356761454909 0 -0.47427590700138023 -0.39469502568249409 0 -0.47427590700138023 -0.39469502568249409 0 -0.48030453056746109 -0.36861144308094029 0 -0.4947215931627828 -0.39396356761454909 0 -0.47427590700138023 -0.39469502568249409 0 -0.48030453056746109 -0.36861144308094029 0 -0.47427590700138023 -0.39469502568249409 0 -0.46334377193483078 -0.37842983215876019 0 -0.48030453056746109 -0.36861144308094029 0 -0.46334377193483078 -0.37842983215876019 0 -0.45726543839001688 -0.40541672899881109 0 -0.44416021803808919 -0.38243724496113263 0 -0.47427590700138023 -0.39469502568249409 0 -0.46334377193483078 -0.37842983215876019 0 -0.45726543839001688 -0.40541672899881109 0 -0.45726543839001688 -0.40541672899881109 0 -0.43814282409564848 -0.40387353522152758 0 -0.44416021803808919 -0.38243724496113263 0 -0.43814282409564848 -0.40387353522152758 0 -0.44416021803808919 -0.38243724496113263 0 -0.4329908326547659 -0.40007252460533121 0 -0.43814282409564848 -0.40387353522152758 0 -0.44416021803808919 -0.38243724496113263 0 -0.46897642374787268 -0.44262015471777721 0 -0.47214510592166908 -0.41939033492402211 0 -0.45660235518767722 -0.42786105997071933 0 -0.47214510592166908 -0.41939033492402211 0 -0.47427590700138023 -0.39469502568249409 0 -0.45726543839001688 -0.40541672899881109 0 -0.47214510592166908 -0.41939033492402211 0 -0.45726543839001688 -0.40541672899881109 0 -0.45660235518767722 -0.42786105997071933 0 -0.45726543839001688 -0.40541672899881109 0 -0.45660235518767722 -0.42786105997071933 0 -0.44309263043645408 -0.41812298423377797 0 -0.45726543839001688 -0.40541672899881109 0 -0.43814282409564848 -0.40387353522152758 0 -0.44309263043645408 -0.41812298423377797 0 -0.43814282409564848 -0.40387353522152758 0 -0.44309263043645408 -0.41812298423377797 0 -0.43209373842114163 -0.42530092927673752 0 -0.44838221886832419 -0.4464230337388379 0 -0.45660235518767722 -0.42786105997071933 0 -0.44213238819953832 -0.43491600865963681 0 -0.45660235518767722 -0.42786105997071933 0 -0.44213238819953832 -0.43491600865963681 0 -0.43132710435572019 -0.42815377149591122 0 -0.45660235518767722 -0.42786105997071933 0 -0.44309263043645408 -0.41812298423377797 0 -0.43132710435572019 -0.42815377149591122 0 -0.45660235518767722 -0.42786105997071933 0 -0.43132710435572019 -0.42815377149591122 0 -0.44213238819953832 -0.43491600865963681 0 -0.42986244815509678 -0.43337144475258638 0 -0.435988539966085 -0.44148905847597392 0 -0.44213238819953832 -0.43491600865963681 0 -0.42986244815509678 -0.43337144475258638 0 -0.43132710435572019 -0.42815377149591122 0 -0.42986244815509678 -0.43337144475258638 0 -0.43132710435572019 -0.42815377149591122 0 -0.42986244815509678 -0.43337144475258638 0 -0.42494843276815808 -0.42822764260015772 0 -0.42026026496879931 -0.43681168621285732 0 -0.42986244815509678 -0.43337144475258638 0 -0.42494843276815808 -0.42822764260015772 0 -0.43132710435572019 -0.42815377149591122 0 -0.42494843276815808 -0.42822764260015772 0 -0.43209373842114163 -0.42530092927673752 0 -0.42214799869492048 -0.41876725226122891 0 -0.42494843276815808 -0.42822764260015772 0 -0.43209373842114163 -0.42530092927673752 0 -0.42494843276815808 -0.42822764260015772 0 -0.43209373842114163 -0.42530092927673752 0 -0.43132710435572019 -0.42815377149591122 0 -0.42494843276815808 -0.42822764260015772 0 -0.43132710435572019 -0.42815377149591122 0 -0.44309263043645408 -0.41812298423377797 0 -0.43209373842114163 -0.42530092927673752 0 -0.43132710435572019 -0.42815377149591122 0 -0.43209373842114163 -0.42530092927673752 0 -0.43132710435572019 -0.42815377149591122 0 -0.43814282409564848 -0.40387353522152758 0 -0.43209373842114163 -0.42530092927673752 0 -0.43814282409564848 -0.40387353522152758 0 -0.43209373842114163 -0.42530092927673752 0 -0.42736227186559528 -0.41250939947999687 0 -0.43814282409564848 -0.40387353522152758 0 -0.42736227186559528 -0.41250939947999687 0 -0.42798743510346321 -0.40461924019690898 0
[...]
<PointData Scalars="" Vectors="displacement," Tensors="">
<DataArray type="Float64" Name="displacement" NumberOfComponents="3" format="ascii">
0.024713759956134857 -1.1035247430952623e-07 0 0.024047135210363654 -0.00020415666085402633 0 0.024716943134062835 -3.2071076495219022e-07 0 0.024998056049343558 2.3378646897666089e-07 0 0.024994423237167288 -8.0669354365171744e-07 0 0.024998056049343558 2.3378646897666089e-07 0 0.024994423237167288 -8.0669354365171744e-07 0 0.025000821151995596 -2.1524110311083899e-07 0 0.02471262772876302 -1.2113995691682315e-06 0 0.023123492746259883 -0.00048062352045147647 0 0.023819663520102657 4.3605862102639974e-05 0 0.02471262772876302 -1.2113995691682315e-06 0 0.023824459588956716 7.1315156918377225e-07 0 0.023819663520102657 4.3605862102639974e-05 0 0.023123492746259883 -0.00048062352045147647 0 0.023401853196341471 0.00037469440372483564 0 0.023819663520102657 4.3605862102639974e-05 0 0.023401853196341471 0.00037469440372483564 0 0.023824459588956716 7.1315156918377225e-07 0 0.023819663520102657 4.3605862102639974e-05 0 0.021860513822358849 -0.00044911726825247526 0 0.022932990007371423 -1.2003949295092569e-06 0 0.022210575177278626 -1.2923940042786808e-05 0 0.023401853196341471 0.00037469440372483564 0 0.023824459588956716 7.1315156918377225e-07 0 0.022938131872103841 -1.2427047479826644e-07 0 0.022611274048423613 -2.6698204945422897e-05 0 0.022936010386094424 2.760756671362197e-09 0 0.021860513822358849 -0.00044911726825247526 0 0.022210575177278626 -1.2923940042786808e-05 0 0.021743735236031805 -0.00025844809237152725 0 0.022049202781459491 9.1414929088369989e-05 0 0.022210575177278626 -1.2923940042786808e-05 0 0.021743735236031805 -0.00025844809237152725 0 0.022049202781459491 9.1414929088369989e-05 0 0.022148217872099991 9.3805115891738944e-07 0 0.022210575177278626 -1.2923940042786808e-05 0 0.0214429401047594 3.8543927895349878e-05 0 0.022145264071115202 6.7335679412089053e-09 0 0.022932990007371423 -1.2003949295092569e-06 0 0.022148217872099991 9.3805115891738944e-07 0 0.022210575177278626 -1.2923940042786808e-05 0 0.021548685969594524 -0.00035791801680112168 0 0.021135067637854842 -8.3577820191677802e-06 0 0.021305641665845358 -0.00021268610355004898 0 0.021548685969594524 -0.00035791801680112168 0 0.021540670151708925 -0.00037788449810284921 0 0.021305641665845358 -0.00021268610355004898 0 0.021548685969594524 -0.00035791801680112168 0 0.021743735236031805 -0.00025844809237152725 0 0.021725384510985438 -0.00033348172781550296 0 0.021548685969594524 -0.00035791801680112168 0 0.021743735236031805 -0.00025844809237152725 0 0.021135067637854842 -8.3577820191677802e-06 0 0.022049202781459491 9.1414929088369989e-05 0 0.021743735236031805 -0.00025844809237152725 0 0.021135067637854842 -8.3577820191677802e-06 0 0.021860513822358849 -0.00044911726825247526 0 0.021743735236031805 -0.00025844809237152725 0 0.021849213474120062 -0.00033056027589046003 0 0.021743735236031805 -0.00025844809237152725 0 0.021725384510985438 -0.00033348172781550296 0 0.021849213474120062 -0.00033056027589046003 0 0.021548685969594524 -0.00035791801680112168 0 0.021948243367236178 -0.00034445212358424307 0 0.02215796389599823 -0.00072930969856247081 0 0.021548685969594524 -0.00035791801680112168 0 0.021725384510985438 -0.00033348172781550296 0 0.021948243367236178 -0.00034445212358424307 0 0.021725384510985438 -0.00033348172781550296 0 0.021849213474120062 -0.00033056027589046003 0 0.021948243367236178 -0.00034445212358424307 0 0.024994423237167288 -8.0669354365171744e-07 0 0.025000821151995596 -2.1524110311083899e-07 0 0.02499716220611535 -1.256744978486056e-06 0 0.021948243367236178 -0.00034445212358424307 0 0.02217485974202749 -5.8670479444773608e-05 0 0.022434765660106899 -0.00010312726095430362 0 0.021948243367236178 -0.00034445212358424307 0 0.022055996492970749 -4.3068763603032254e-05 0 0.02217485974202749 -5.8670479444773608e-05 0 0.021849213474120062 -0.00033056027589046003 0 0.021948243367236178 -0.00034445212358424307 0 0.022055996492970749 -4.3068763603032254e-05 0 0.022611274048423613 -2.6698204945422897e-05 0 0.022107909197619117 -6.977606350990925e-05 0 0.023123492746259883 -0.00048062352045147647 0 0.023401853196341471 0.00037469440372483564 0 0.022055996492970749 -4.3068763603032254e-05 0 0.021860513822358849 -0.00044911726825247526 0 0.021849213474120062 -0.00033056027589046003 0 0.022055996492970749 -4.3068763603032254e-05 0 0.024047135210363654 -0.00020415666085402633 0 0.023559957961981896 -4.0778827148146222e-05 0 0.023123492746259883 -0.00048062352045147647 0 0.022055996492970749 -4.3068763603032254e-05 0 0.022012865074995634 -9.9643335966194299e-05 0 0.022055996492970749 -4.3068763603032254e-05 0 0.02217485974202749 -5.8670479444773608e-05 0 0.022012865074995634 -9.9643335966194299e-05 0 0.025000821151995596 -2.1524110311083899e-07 0 0.025004245873723418 1.6980844513572757e-06 0 0.024998575594713697 6.3509023442792253e-07 0 0.023559957961981896 -4.0778827148146222e-05 0 0.023978530664575774 0.00018860365787550163 0 0.02217485974202749 -5.8670479444773608e-05 0 0.022906790207408666 0.00047093941576720232 0 0.022434765660106899 -0.00010312726095430362 0 0.025000821151995596 -2.1524110311083899e-07 0 0.02499716220611535 -1.256744978486056e-06 0 0.025004245873723418 1.6980844513572757e-06 0 0.02217485974202749 -5.8670479444773608e-05 0 0.022012865074995634 -9.9643335966194299e-05 0 0.022906790207408666 0.00047093941576720232 0 0.023978530664575774 0.00018860365787550163 0 0.024813715590753009 9.7263758296757628e-05 0 0.022906790207408666 0.00047093941576720232 0 0.023808216484645952 -8.1524913420959544e-05 0 0.024903659609899594 5.3493690346853004e-05 0 0.022906790207408666 0.00047093941576720232 0 0.023808216484645952 -8.1524913420959544e-05 0 0.022891039597170263 -0.00038304560829272109 0 0.023808216484645952 -8.1524913420959544e-05 0 0.022891039597170263 -0.00038304560829272109 0 0.024423874266521383 -0.00035999494486445191 0 0.021948243367236178 -0.00034445212358424307 0 0.022891039597170263 -0.00038304560829272109 0 0.022434765660106899 -0.00010312726095430362 0 0.022906790207408666 0.00047093941576720232 0 0.022891039597170263 -0.00038304560829272109 0 0.022434765660106899 -0.00010312726095430362 0 0.024998575594713697 6.3509023442792253e-07 0 0.024903659609899594 5.3493690346853004e-05 0 0.024969178695150165 -3.1543028645434331e-05 0 0.025004245873723418 1.6980844513572757e-06 0 0.024998575594713697 6.3509023442792253e-07 0 0.024903659609899594 5.3493690346853004e-05 0 0.023808216484645952 -8.1524913420959544e-05 0 0.024903659609899594 5.3493690346853004e-05 0 0.024423874266521383 -0.00035999494486445191 0 0.024414036025156832 -0.00034421839044266575 0 0.025261406632833047 -8.7838139268382073e-05 0 0.024903659609899594 5.3493690346853004e-05 0 0.024423874266521383 -0.00035999494486445191 0 0.024969178695150165 -3.1543028645434331e-05 0 0.024423874266521383 -0.00035999494486445191 0 0.025028972653731642 -0.00080015385329713017 0 0.025405413698578259 -0.00015686338094621132 0 0.025028972653731642 -0.00080015385329713017 0 0.023700442312917794 -0.0010240446962294758 0 0.024822942611219825 -0.0016715977974150595 0 0.024423874266521383 -0.00035999494486445191 0 0.025028972653731642 -0.00080015385329713017 0 0.023700442312917794 -0.0010240446962294758 0 0.023700442312917794 -0.0010240446962294758 0 0.023738680664671944 -0.0020296055475779178 0 0.024822942611219825 -0.0016715977974150595 0 0.019228070472563735 -0.00061316138755753108 0 0.020259631222445101 -0.00022980466902024636 0 0.019355362631320674 -0.00078367678819039725 0 0.021489569314463546 -0.0013490911166260601 0 0.022586160742932657 -0.00096133823802966299 0 0.021948243367236178 -0.00034445212358424307 0 0.022891039597170263 -0.00038304560829272109 0 0.02215796389599823 -0.00072930969856247081 0 0.022891039597170263 -0.00038304560829272109 0 0.024423874266521383 -0.00035999494486445191 0 0.023700442312917794 -0.0010240446962294758 0 0.022891039597170263 -0.00038304560829272109 0 0.023700442312917794 -0.0010240446962294758 0 0.02215796389599823 -0.00072930969856247081 0 0.023700442312917794 -0.0010240446962294758 0 0.02215796389599823 -0.00072930969856247081 0 0.02285387004773827 -0.001741626487260073 0 0.023700442312917794 -0.0010240446962294758 0 0.023738680664671944 -0.0020296055475779178 0 0.02285387004773827 -0.001741626487260073 0 0.023738680664671944 -0.0020296055475779178 0 0.02285387004773827 -0.001741626487260073 0 0.022358198792039593 -0.0024938905685249705 0 0.021548685969594524 -0.00035791801680112168 0 0.02215796389599823 -0.00072930969856247081 0 0.021540670151708925 -0.00037788449810284921 0 0.02215796389599823 -0.00072930969856247081 0 0.021540670151708925 -0.00037788449810284921 0 0.021128392643110158 -0.00017317789786641707 0 0.02215796389599823 -0.00072930969856247081 0 0.02285387004773827 -0.001741626487260073 0 0.022158067767121828 -0.002551056681490106 0 0.022174507728994465 -0.00082037887445954869 0 0.02111583888469222 -0.0010452450048883291 0 0.021540670151708925 -0.00037788449810284921 0 0.021144931834425815 -0.00013387014251087047 0 0.021305641665845358 -0.00021268610355004898 0 0.021540670151708925 -0.00037788449810284921 0 0.021144931834425815 -0.00013387014251087047 0 0.021128392643110158 -0.00017317789786641707 0 0.021222008385963859 -0.00079537730255665507 0 0.02111583888469222 -0.0010452450048883291 0 0.021144931834425815 -0.00013387014251087047 0 0.021032562121797015 -6.7634566396054823e-05 0 0.020919570718136046 -4.0856478974611224e-05 0 0.021144931834425815 -0.00013387014251087047 0 0.021032562121797015 -6.7634566396054823e-05 0 0.021042914309247294 -0.00017102427139080461 0 0.018978066336714356 -0.00084291311182833049 0 0.019000865534436015 -0.00076818197676848179 0 0.019073643039118751 -0.00087100288134897466 0 0.020000835859300875 -0.00055185383414946125 0 0.020599229949935832 -0.0012633829424526771 0 0.020452796121610141 -0.00083391354177924607 0 0.020458930964023694 -0.00082394853625304318 0 0.020454371212996109 -0.00082485165745722195 0 0.020000835859300875 -0.00055185383414946125 0 0.02111583888469222 -0.0010452450048883291 0 0.02285387004773827 -0.001741626487260073 0 0.022358198792039593 -0.0024938905685249705 0 0.022158067767121828 -0.002551056681490106 0 0.020599229949935832 -0.0012633829424526771 0 0.02111583888469222 -0.0010452450048883291 0 0.021489569314463546 -0.0013490911166260601 0 0.020599229949935832 -0.0012633829424526771 0 0.019228070472563735 -0.00061316138755753108 0 0.019000865534436015 -0.00076818197676848179 0 0.019140244803230691 -0.00081450411819414086 0 0.019228070472563735 -0.00061316138755753108 0 0.019140244803230691 -0.00081450411819414086 0 0.019254568842769638 -0.00082470282438794253 0 0.019140244803230691 -0.00081450411819414086 0 0.019073643039118751 -0.00087100288134897466 0 0.01916877787852837 -0.00093339680741579944 0 0.019140244803230691 -0.00081450411819414086 0 0.01916877787852837 -0.00093339680741579944 0 0.019254568842769638 -0.00082470282438794253 0 0.019000865534436015 -0.00076818197676848179 0 0.019140244803230691 -0.00081450411819414086 0 0.019073643039118751 -0.00087100288134897466 0 0.01916877787852837 -0.00093339680741579944 0 0.019065470136231489 -0.00096134644966944119 0 0.019117366739311598 -0.0010760363262358561 0 0.01916877787852837 -0.00093339680741579944 0 0.019230801500064881 -0.0010407647777683016 0 0.019117366739311598 -0.0010760363262358561 0 0.019073643039118751 -0.00087100288134897466 0 0.01916877787852837 -0.00093339680741579944 0 0.019065470136231489 -0.00096134644966944119 0 0.021032562121797015 -6.7634566396054823e-05 0 0.020919570718136046 -4.0856478974611224e-05 0 0.020604726951116099 -1.4810252378884744e-05 0 0.020000835859300875 -0.00055185383414946125 0 0.019709229656825127 -3.9596743142847713e-05 0 0.018776449568688274 -0.00037744483254419092 0 0.018806487200303184 -0.00024477914918910479 0 0.018753258323194438 -0.00023427497924871489 0 0.020000835859300875 -0.00055185383414946125 0 0.018766083430508215 -0.00066688892301144075 0 0.018978066336714356 -0.00084291311182833049 0 0.019065470136231489 -0.00096134644966944119 0 0.01898725437710037 -0.0010670301420123715 0 0.018978066336714356 -0.00084291311182833049 0 0.019073643039118751 -0.00087100288134897466 0 0.019065470136231489 -0.00096134644966944119 0 0.019398789082374353 -0.00073794928903140678 0 0.01988400472471992 -0.001501270887898647 0 0.019355362631320674 -0.00078367678819039725 0 0.019359563858732019 -0.00091489095951715412 0 0.019432220248426817 -0.00092121235388524395 0 0.02028252882061304 -0.00081992553984014047 0 0.019355362631320674 -0.00078367678819039725 0 0.020549951839126706 -0.0015362346622956652 0 0.020259631222445101 -0.00022980466902024636 0 0.02028252882061304 -0.00081992553984014047 0 0.019355362631320674 -0.00078367678819039725 0 0.02028252882061304 -0.00081992553984014047 0 0.020549951839126706 -0.0015362346622956652 0 0.020981167219090366 -0.00072894753177732354 0 0.020259631222445101 -0.00022980466902024636 0 0.02028252882061304 -0.00081992553984014047 0 0.020981167219090366 -0.00072894753177732354 0 0.019355362631320674 -0.00078367678819039725 0 0.019281194312119901 -0.00088561262230748812 0 0.019359563858732019 -0.00091489095951715412 0 0.019228070472563735 -0.00061316138755753108 0 0.019355362631320674 -0.00078367678819039725 0 0.019254568842769638 -0.00082470282438794253 0 0.019355362631320674 -0.00078367678819039725 0 0.019254568842769638 -0.00082470282438794253 0 0.019281194312119901 -0.00088561262230748812 0 0.01916877787852837 -0.00093339680741579944 0 0.019254568842769638 -0.00082470282438794253 0 0.019281194312119901 -0.00088561262230748812 0 0.019301343084388065 -0.00102183584395391 0 0.019359563858732019 -0.00091489095951715412 0 0.019379844113618476 -0.0010666456563288617 0 0.01916877787852837 -0.00093339680741579944 0 0.019281194312119901 -0.00088561262230748812 0 0.019270696292373109 -0.00095873208223401106 0 0.01916877787852837 -0.00093339680741579944 0 0.019270696292373109 -0.00095873208223401106 0 0.019230801500064881 -0.0010407647777683016 0 0.019270696292373109 -0.00095873208223401106 0 0.019301343084388065 -0.00102183584395391 0 0.019230801500064881 -0.0010407647777683016 0 0.019270696292373109 -0.00095873208223401106 0 0.019301343084388065 -0.00102183584395391 0 0.019359563858732019 -0.00091489095951715412 0 0.019281194312119901 -0.00088561262230748812 0 0.019270696292373109 -0.00095873208223401106 0 0.019359563858732019 -0.00091489095951715412 0 0.019378033981447114 -0.00099468899960634309 0 0.018536323725530462 -0.0010931735340098843 0 0.019359563858732019 -0.00091489095951715412 0 0.01940674307980637 -0.0009654061110766336 0 0.019376204008861621 -0.0010179041589359595 0 0.019359563858732019 -0.00091489095951715412 0 0.01940818703585771 -0.00093313146817553428 0 0.019432220248426817 -0.00092121235388524395 0 0.019359563858732019 -0.00091489095951715412 0 0.019407376212774215 -0.0009512630433011947 0 0.01940818703585771 -0.00093313146817553428 0 0.019359563858732019 -0.00091489095951715412 0 0.019407376212774215 -0.0009512630433011947 0 0.01940674307980637 -0.0009654061110766336 0 0.018798533531586569 -0.0015123223754033915 0 0.018472309884259304 -0.0012710609288395926 0 0.019407376212774215 -0.0009512630433011947 0 0.019418231742442785 -0.00094380204809139511 0 0.019406202373959056 -0.00096598284303776058 0 0.017574106569235592 -0.001504822802457258 0 0.017596313231988275 -0.0014581921485462524 0 0.017414116599323355 -0.0013600466638249273 0 0.018529303201292546 -0.0012020639311730158 0 0.018472309884259304 -0.0012710609288395926 0 0.018798533531586569 -0.0015123223754033915 0 0.01988400472471992 -0.001501270887898647 0 0.019417552864938806 -0.00094347795622633029 0 0.01940818703585771 -0.00093313146817553428 0 0.019432220248426817 -0.00092121235388524395 0 0.019407376212774215 -0.0009512630433011947 0 0.019418231742442785 -0.00094380204809139511 0 0.01940818703585771 -0.00093313146817553428 0 0.018798533531586569 -0.0015123223754033915 0 0.018850387197654559 -0.0014761674745963568 0 0.017714190493159268 -0.0012079539948597077 0 0.017702709626372722 -0.0010063594520143579 0 0.017756825619253527 -0.0011139053998899505 0 0.017667216957016139 -0.0010800602132075272 0 0.017672877277874602 -0.0010854800335951295 0 0.0176749129736808 -0.0010745767080179549 0 0.017596313231988275 -0.0014581921485462524 0 0.017589527122271999 -0.0012363100911845649 0 0.017414116599323355 -0.0013600466638249273 0 0.018472309884259304 -0.0012710609288395926 0 0.016584271122470334 -0.0010462398114478115 0 0.018472309884259304 -0.0012710609288395926 0 0.018536323725530462 -0.0010931735340098843 0 0.016584271122470334 -0.0010462398114478115 0 0.018536323725530462 -0.0010931735340098843 0 0.019379844113618476 -0.0010666456563288617 0 0.019270397074031255 -0.0011273436520846556 0 0.019263989152644944 -0.001263443503868796 0 0.018536323725530462 -0.0010931735340098843 0 0.017575294680278773 -0.00097638668465337944 0 0.019301343084388065 -0.00102183584395391 0 0.019270397074031255 -0.0011273436520846556 0 0.019230801500064881 -0.0010407647777683016 0 0.019301343084388065 -0.00102183584395391 0 0.019379844113618476 -0.0010666456563288617 0 0.019270397074031255 -0.0011273436520846556 0 0.019270397074031255 -0.0011273436520846556 0 0.019230801500064881 -0.0010407647777683016 0 0.019200297343644375 -0.0011113768398050576 0 0.019230801500064881 -0.0010407647777683016 0 0.019200297343644375 -0.0011113768398050576 0 0.019117366739311598 -0.0010760363262358561 0 0.019200297343644375 -0.0011113768398050576 0 0.019219214613973159 -0.0012012708168996258 0 0.019139619307540004 -0.0011712861258549262 0 0.019270397074031255 -0.0011273436520846556 0 0.019200297343644375 -0.0011113768398050576 0 0.019219214613973159 -0.0012012708168996258 0 0.019110461414480865 -0.001196126754959818 0 0.019111315485713876 -0.0011951550624167957 0 0.019139619307540004 -0.0011712861258549262 0 0.019111315485713876 -0.0011951550624167957 0 0.019099822278005735 -0.0012026582092746951 0 0.019139619307540004 -0.0011712861258549262 0 0.019219214613973159 -0.0012012708168996258 0 0.019242965168010155 -0.0012793166823245135 0 0.019139619307540004 -0.0011712861258549262 0 0.017504051710421159 -0.0010434549910447058 0 0.019232659139811453 -0.0015416023013321452 0 0.017504051710421159 -0.0010434549910447058 0 0.015748904191301885 -0.00048453017317718147 0 0.019101965136995087 -0.0012011672419674178 0 0.019102314148847464 -0.001198102352665111 0 0.01909899574682403 -0.0012046643325865144 0 0.019110461414480865 -0.001196126754959818 0 0.019111315485713876 -0.0011951550624167957 0 0.019105284439062602 -0.0011990308691655893 0 0.019110461414480865 -0.001196126754959818 0 0.019100273427882748 -0.0012021880740732084 0 0.019105284439062602 -0.0011990308691655893 0 0.019100273427882748 -0.0012021880740732084 0 0.019105284439062602 -0.0011990308691655893 0 0.019101965136995087 -0.0012011672419674178 0 0.019105284439062602 -0.0011990308691655893 0 0.019101965136995087 -0.0012011672419674178 0 0.019102697186321016 -0.0011993214089992374 0 0.019101965136995087 -0.0012011672419674178 0 0.019102697186321016 -0.0011993214089992374 0 0.019102314148847464 -0.001198102352665111 0 0.017724221918671505 -0.00095733356177868855 0 0.017504051710421159 -0.0010434549910447058 0 0.019111315485713876 -0.0011951550624167957 0 0.019102697186321016 -0.0011993214089992374 0 0.019099822278005735 -0.0012026582092746951 0 0.019111315485713876 -0.0011951550624167957 0 0.019105284439062602 -0.0011990308691655893 0 0.019102697186321016 -0.0011993214089992374 0 0.016274571509870488 -0.00031388283324082836 0 0.016428786972151214 -0.00047335459387569818 0 0.016158435392832217 -0.00063471570591332161 0 0.015966415226438622 -0.00074432324646255649 0 0.015931019889756651 -0.00065616490172428106 0 0.015725649906297535 -0.00077648450779127097 0 0.015966415226438622 -0.00074432324646255649 0 0.015998864539712217 -0.00072303229123598788 