<?xml version="1.0"?>
<VTKFile type="UnstructuredGrid" version="0.1" byte_order="LittleEndian">
<UnstructuredGrid>
<Piece NumberOfPoints="30881" NumberOfCells="10862">
<Points>
<DataArray type="Float64" NumberOfComponents="3" format="ascii">
-0.49999999999999828 -0.48677703703187492 0 -0.5 -0.5 0 -0.48129281494584059 -0.49338851851593718 0 -0.5 -0.5 0 -0.48129281494584059 -0.49338851851593718 0 -0.46258562989168328 -0.5 0 -0.49999999999999828 -0.48677703703187492 0 -0.48129281494584059 -0.49338851851593718 0 -0.49999999999999828 -0.48677703703187492 0 -0.4824545428279598 -0.47451624516148783 0 -0.48129281494584059 -0.49338851851593718 0 -0.49999999999999828 -0.48677703703187492 0 -0.4824545428279598 -0.47451624516148783 0 -0.5 -0.46599539173150673 0 -0.4824545428279598 -0.47451624516148783 0 -0.46853075243710779 -0.48354990242643758 0 -0.46411508256092049 -0.46598235294430129 0 -0.4824545428279598 -0.47451624516148783 0 -0.48129281494584059 -0.49338851851593718 0 -0.46853075243710779 -0.48354990242643758 0 -0.48129281494584059 -0.49338851851593718 0 -0.46258562989168328 -0.5 0 -0.48129281494584059 -0.49338851851593718 0 -0.46258562989168328 -0.5 0 -0.46853075243710779 -0.48354990242643758 0 -0.46258562989168328 -0.5 0 -0.46853075243710779 -0.48354990242643758 0 -0.45147378687733691 -0.48362213557840178 0 -0.46853075243710779 -0.48354990242643758 0 -0.45147378687733691 -0.48362213557840178 0 -0.46411508256092049 -0.46598235294430129 0 -0.4457251648104853 -0.47020164095208389 0 -0.45147378687733691 -0.48362213557840178 0 -0.46411508256092049 -0.46598235294430129 0 -0.4457251648104853 -0.47020164095208389 0 -0.45147378687733691 -0.48362213557840178 0 -0.43513446131126993 -0.48199891714758791 0 -0.45147378687733691 -0.48362213557840178 0 -0.43275163025255442 -0.5 0 -0.43513446131126993 -0.48199891714758791 0 -0.46258562989168328 -0.5 0 -0.45147378687733691 -0.48362213557840178 0 -0.43275163025255442 -0.5 0 -0.4467190029717853 -0.45478934699519452 0 -0.4422915115958943 -0.43555510214664611 0 -0.43246707723660932 -0.44794326854796312 0 -0.4457251648104853 -0.47020164095208389 0 -0.4467190029717853 -0.45478934699519452 0 -0.46411508256092049 -0.46598235294430129 0 -0.4457251648104853 -0.47020164095208389 0 -0.4467190029717853 -0.45478934699519452 0 -0.43016578207734568 -0.46313500011938619 0 -0.4467190029717853 -0.45478934699519452 0 -0.46411508256092049 -0.46598235294430129 0 -0.47114575579794699 -0.4403844242888923 0 -0.4467190029717853 -0.45478934699519452 0 -0.47114575579794699 -0.4403844242888923 0 -0.4422915115958943 -0.43555510214664611 0 -0.47114575579794699 -0.4403844242888923 0 -0.4422915115958943 -0.43555510214664611 0 -0.46411508256092049 -0.46598235294430129 0 -0.47114575579794699 -0.4403844242888923 0 -0.48354307623736548 -0.45841843211146538 0 -0.4824545428279598 -0.47451624516148783 0 -0.46411508256092049 -0.46598235294430129 0 -0.48354307623736548 -0.45841843211146538 0 -0.4824545428279598 -0.47451624516148783 0 -0.48354307623736548 -0.45841843211146538 0 -0.5 -0.46599539173150673 0 -0.48354307623736548 -0.45841843211146538 0 -0.5 -0.46599539173150673 0 -0.49999999999999972 -0.44521374643113848 0 -0.47114575579794699 -0.4403844242888923 0 -0.49999999999999972 -0.44521374643113848 0 -0.47114575579794699 -0.4403844242888923 0 -0.49999999999999972 -0.44521374643113848 0 -0.48704432221743971 -0.42935617662229603 0 -0.47114575579794699 -0.4403844242888923 0 -0.48354307623736548 -0.45841843211146538 0 -0.49999999999999972 -0.44521374643113848 0 -0.49999999999999972 -0.44521374643113848 0 -0.48704432221743971 -0.42935617662229603 0 -0.5 -0.41591957503128979 0 -0.48704432221743971 -0.42935617662229603 0 -0.5 -0.41591957503128979 0 -0.47703153307181151 -0.41590696073786332 0 -0.5 -0.41591957503128979 0 -0.47703153307181151 -0.41590696073786332 0 -0.48817838912021821 -0.4022119694541284 0 -0.47114575579794699 -0.4403844242888923 0 -0.48704432221743971 -0.42935617662229603 0 -0.47703153307181151 -0.41590696073786332 0 -0.5 -0.38662540363144121 0 -0.47568202340906118 -0.39039593841591919 0 -0.4947615751445838 -0.37332156409002909 0 -0.47568202340906118 -0.39039593841591919 0 -0.4947615751445838 -0.37332156409002909 0 -0.5 -0.38662540363144121 0 -0.48817838912021821 -0.4022119694541284 0 -0.47568202340906118 -0.39039593841591919 0 -0.5 -0.41591957503128979 0 -0.5 -0.38662540363144121 0 -0.48817838912021821 -0.4022119694541284 0 -0.47703153307181151 -0.41590696073786332 0 -0.48817838912021821 -0.4022119694541284 0 -0.47568202340906118 -0.39039593841591919 0 -0.47703153307181151 -0.41590696073786332 0 -0.47568202340906118 -0.39039593841591919 0 -0.45660247167353862 -0.40747031274180939 0 -0.47568202340906118 -0.39039593841591919 0 -0.48030931097003587 -0.37191064435083931 0 -0.46669490250066459 -0.37481721741951951 0 -0.47568202340906118 -0.39039593841591919 0 -0.4947615751445838 -0.37332156409002909 0 -0.48030931097003587 -0.37191064435083931 0 -0.45332061783919553 -0.38729481725706361 0 -0.46669490250066459 -0.37481721741951951 0 -0.45095991715087752 -0.36968037302039969 0 -0.47568202340906118 -0.39039593841591919 0 -0.45332061783919553 -0.38729481725706361 0 -0.46669490250066459 -0.37481721741951951 0 -0.47568202340906118 -0.39039593841591919 0 -0.45660247167353862 -0.40747031274180939 0 -0.47568202340906118 -0.39039593841591919 0 -0.45332061783919553 -0.38729481725706361 0 -0.45660247167353862 -0.40747031274180939 0 -0.44332653075004852 -0.401690115615219 0 -0.44646247228389868 -0.41654464256061052 0 -0.42870657106664078 -0.39987574649354879 0 -0.45332061783919553 -0.38729481725706361 0 -0.44332653075004852 -0.401690115615219 0 -0.43479631603355468 -0.39077639303142497 0 -0.45332061783919553 -0.38729481725706361 0 -0.44332653075004852 -0.401690115615219 0 -0.45660247167353862 -0.40747031274180939 0 -0.45332061783919553 -0.38729481725706361 0 -0.43421362475025049 -0.37527491429266319 0 -0.43479631603355468 -0.39077639303142497 0 -0.45332061783919553 -0.38729481725706361 0 -0.43421362475025049 -0.37527491429266319 0 -0.45095991715087752 -0.36968037302039969 0 -0.47114575579794699 -0.4403844242888923 0 -0.45663439814062529 -0.42533932462455271 0 -0.4422915115958943 -0.43555510214664611 0 -0.47114575579794699 -0.4403844242888923 0 -0.47703153307181151 -0.41590696073786332 0 -0.45663439814062529 -0.42533932462455271 0 -0.45663439814062529 -0.42533932462455271 0 -0.45660247167353862 -0.40747031274180939 0 -0.44646247228389868 -0.41654464256061052 0 -0.47703153307181151 -0.41590696073786332 0 -0.45663439814062529 -0.42533932462455271 0 -0.45660247167353862 -0.40747031274180939 0 -0.44332653075004852 -0.401690115615219 0 -0.45660247167353862 -0.40747031274180939 0 -0.44646247228389868 -0.41654464256061052 0 -0.45660247167353862 -0.40747031274180939 0 -0.44646247228389868 -0.41654464256061052 0 -0.44646247228389868 -0.41654464256061052 0 -0.4375229199380159 -0.42454468706769971 0 -0.45663439814062529 -0.42533932462455271 0 -0.4375229199380159 -0.42454468706769971 0 -0.4422915115958943 -0.43555510214664611 0 -0.45663439814062529 -0.42533932462455271 0 -0.44646247228389868 -0.41654464256061052 0 -0.4375229199380159 -0.42454468706769971 0 -0.4375229199380159 -0.42454468706769971 0 -0.4422915115958943 -0.43555510214664611 0 -0.43077617074680319 -0.43406335077952207 0 -0.43077617074680319 -0.43406335077952207 0 -0.42550232634077589 -0.42345940056268039 0 -0.41950844772475421 -0.43888456563633732 0 -0.4375229199380159 -0.42454468706769971 0 -0.43077617074680319 -0.43406335077952207 0 -0.42550232634077589 -0.42345940056268039 0 -0.44646247228389868 -0.41654464256061052 0 -0.41657232816672918 -0.41306671883907142 0 -0.42870657106664078 -0.39987574649354879 0 -0.44646247228389868 -0.41654464256061052 0 -0.4375229199380159 -0.42454468706769971 0 -0.42550232634077589 -0.42345940056268039 0 -0.44646247228389868 -0.41654464256061052 0 -0.42550232634077589 -0.42345940056268039 0 -0.41657232816672918 -0.41306671883907142 0 -0.44646247228389868 -0.41654464256061052 0 -0.41657232816672918 -0.41306671883907142 0 -0.42550232634077589 -0.42345940056268039 0 -0.41657232816672918 -0.41306671883907142 0 -0.41333489101611293 -0.42699700567040988 0 -0.41657232816672918 -0.41306671883907142 0 -0.41333489101611293 -0.42699700567040988 0 -0.39893236021425188 -0.42931692235905211 0 -0.41333489101611293 -0.42699700567040988 0 -0.39893236021425188 -0.42931692235905211 0 -0.41950844772475421 -0.43888456563633732 0 -0.42550232634077589 -0.42345940056268039 0 -0.41333489101611293 -0.42699700567040988 0 -0.41950844772475421 -0.43888456563633732 0 -0.43421362475025049 -0.37527491429266319 0 -0.42478231784314502 -0.38643128255249681 0 -0.41656514696884139 -0.37636588688318029 0 -0.43421362475025049 -0.37527491429266319 0 -0.42478231784314502 -0.38643128255249681 0 -0.43479631603355468 -0.39077639303142497 0 -0.42478231784314502 -0.38643128255249681 0 -0.43479631603355468 -0.39077639303142497 0 -0.42870657106664078 -0.39987574649354879 0 -0.44332653075004852 -0.401690115615219 0 -0.43479631603355468 -0.39077639303142497 0 -0.42870657106664078 -0.39987574649354879 0 -0.41657232816672918 -0.41306671883907142 0 -0.40962993039643741 -0.3898634720616666 0 -0.3946356370269814 -0.39577424904278191 0 -0.42478231784314502 -0.38643128255249681 0 -0.42870657106664078 -0.39987574649354879 0 -0.40962993039643741 -0.3898634720616666 0 -0.41657232816672918 -0.41306671883907142 0 -0.42870657106664078 -0.39987574649354879 0 -0.40962993039643741 -0.3898634720616666 0 -0.42478231784314502 -0.38643128255249681 0 -0.40962993039643741 -0.3898634720616666 0 -0.41656514696884139 -0.37636588688318029 0 -0.40962993039643741 -0.3898634720616666 0 -0.41656514696884139 -0.37636588688318029 0 -0.40465459864295228 -0.37650109000307358 0 -0.39431275766669582 -0.38061373190328529 0 -0.40465459864295228 -0.37650109000307358 0 -0.3968495855878465 -0.36923685638487008 0 -0.40962993039643741 -0.3898634720616666 0 -0.39431275766669582 -0.38061373190328529 0 -0.40465459864295228 -0.376501090003
[...]
<PointData Scalars="" Vectors="displacement," Tensors="">
<DataArray type="Float64" Name="displacement" NumberOfComponents="3" format="ascii">
-6.2587889667513535e-07 0.043813847862684475 0 4.1738578608269076e-07 0.044997488510079071 0 -2.033492346712747e-07 0.044964231147734179 0 4.1738578608269076e-07 0.044997488510079071 0 -2.033492346712747e-07 0.044964231147734179 0 -2.0706618295958354e-07 0.045001105929300962 0 -1.4289648169825538e-07 0.043810858732195056 0 4.7128553315342924e-06 0.044374217151494304 0 1.786479907930254e-07 0.043807181393802394 0 0.00024190093312671798 0.043131987309693379 0 0.00022887089210197977 0.043568492301126159 0 1.786479907930254e-07 0.043807181393802394 0 0.00024190093312671798 0.043131987309693379 0 1.3203583430674328e-06 0.041940023732337559 0 0.00024190093312671798 0.043131987309693379 0 0.00014671136220614753 0.044025341102708594 0 0.00020383183488493142 0.043712107448922587 0 0.00024190093312671798 0.043131987309693379 0 0.00022887089210197977 0.043568492301126159 0 0.00014671136220614753 0.044025341102708594 0 4.7128553315342924e-06 0.044374217151494304 0 2.1279683120571319e-07 0.04499894009864281 0 0.00022887089210197977 0.043568492301126159 0 1.541133224377264e-06 0.044996958913583185 0 0.00014671136220614753 0.044025341102708594 0 1.541133224377264e-06 0.044996958913583185 0 0.00014671136220614753 0.044025341102708594 0 0.00014617129420920207 0.044426612823202483 0 0.00014671136220614753 0.044025341102708594 0 0.00014617129420920207 0.044426612823202483 0 0.00020383183488493142 0.043712107448922587 0 0.00022772545526705541 0.044081401071092242 0 0.00014617129420920207 0.044426612823202483 0 0.00020383183488493142 0.043712107448922587 0 0.00022772545526705541 0.044081401071092242 0 0.00014617129420920207 0.044426612823202483 0 0.00011378082109894994 0.044450596677300627 0 0.00014617129420920207 0.044426612823202483 0 -3.9272175256693211e-07 0.044999362137508013 0 0.00011378082109894994 0.044450596677300627 0 1.541133224377264e-06 0.044996958913583185 0 0.00014617129420920207 0.044426612823202483 0 -3.9272175256693211e-07 0.044999362137508013 0 0.00028500944146794274 0.043661514922601438 0 0.00091236737830925618 0.042920687594357659 0 0.00061664717192849033 0.043500342723030529 0 0.00022772545526705541 0.044081401071092242 0 0.00028500944146794274 0.043661514922601438 0 0.00020383183488493142 0.043712107448922587 0 0.00022772545526705541 0.044081401071092242 0 0.00028500944146794274 0.043661514922601438 0 0.00035900942517695916 0.043922654986281541 0 0.00028500944146794274 0.043661514922601438 0 0.00020383183488493142 0.043712107448922587 0 -0.00033511279605964652 0.043409868334480024 0 0.00028500944146794274 0.043661514922601438 0 -0.00033511279605964652 0.043409868334480024 0 0.00091236737830925618 0.042920687594357659 0 0.00019395056993341792 0.041140553827848057 0 0.00028134269452960583 0.041839040665867036 0 0.00020383183488493142 0.043712107448922587 0 -0.00033511279605964652 0.043409868334480024 0 0.0002239853015338689 0.042479737774422856 0 0.00024190093312671798 0.043131987309693379 0 0.00020383183488493142 0.043712107448922587 0 0.0002239853015338689 0.042479737774422856 0 0.00024190093312671798 0.043131987309693379 0 0.0002239853015338689 0.042479737774422856 0 1.3203583430674328e-06 0.041940023732337559 0 0.0002239853015338689 0.042479737774422856 0 1.3203583430674328e-06 0.041940023732337559 0 -2.4917781501600691e-06 0.040073522053148229 0 0.00019395056993341792 0.041140553827848057 0 4.834236458418614e-07 0.040070342888800667 0 0.0010623526562235665 0.038828610055611903 0 2.9931883552306118e-07 0.04006487745544654 0 0.00043434992569994823 0.03862812203173515 0 -0.00033511279605964652 0.043409868334480024 0 0.0002239853015338689 0.042479737774422856 0 -2.4917781501600691e-06 0.040073522053148229 0 2.9931883552306118e-07 0.04006487745544654 0 0.00043434992569994823 0.03862812203173515 0 1.1231276157503945e-06 0.037434322656751798 0 0.00043434992569994823 0.03862812203173515 0 1.1231276157503945e-06 0.037434322656751798 0 4.2289268114231555e-05 0.038333870157181649 0 1.1231276157503945e-06 0.037434322656751798 0 4.2289268114231555e-05 0.038333870157181649 0 -0.00010511027572307987 0.036940265859645043 0 0.0010623526562235665 0.038828610055611903 0 0.00043434992569994823 0.03862812203173515 0 4.2289268114231555e-05 0.038333870157181649 0 -1.9704906588025906e-06 0.034796125276527153 0 -0.00084291518221001071 0.03749049575434063 0 -0.00030407496198728951 0.033404625244392666 0 4.8216394322748269e-05 0.035399348179775289 0 2.4108841580602668e-05 0.035086488558409623 0 -1.9704906588025906e-06 0.034796125276527153 0 -0.00010511027572307987 0.036940265859645043 0 -0.00084291518221001071 0.03749049575434063 0 1.1231276157503945e-06 0.037434322656751798 0 -1.9704906588025906e-06 0.034796125276527153 0 -0.00010511027572307987 0.036940265859645043 0 4.2289268114231555e-05 0.038333870157181649 0 -0.00010511027572307987 0.036940265859645043 0 -0.00084291518221001071 0.03749049575434063 0 4.2289268114231555e-05 0.038333870157181649 0 -0.00084291518221001071 0.03749049575434063 0 -0.0008185820142700284 0.0400819287266342 0 -0.00030350482935486946 0.030637764388275507 0 -0.00015820719478424009 0.031316284720564726 0 -0.00021624897712477694 0.030747283702828629 0 -0.00030350482935486946 0.030637764388275507 0 -0.00030407496198728951 0.033404625244392666 0 -0.00015820719478424009 0.031316284720564726 0 0.00026474822394264338 0.031122930032546042 0 -0.00021624897712477694 0.030747283702828629 0 -0.00030401670787990736 0.031092942435304388 0 -0.00030350482935486946 0.030637764388275507 0 0.00026474822394264338 0.031122930032546042 0 -0.00021624897712477694 0.030747283702828629 0 4.8216394322748269e-05 0.035399348179775289 0 0.00036552609695929755 0.036455542385167718 0 -0.00030350482935486946 0.030637764388275507 0 0.00026474822394264338 0.031122930032546042 0 0.0014546664469153431 0.030968163907373294 0 0.0013242840414441411 0.031738613716347369 0 0.0023545984476814551 0.031521666938978558 0 0.001450944717272507 0.032773990295024993 0 0.00026474822394264338 0.031122930032546042 0 0.0013242840414441411 0.031738613716347369 0 0.00068874694369510758 0.032260978379580994 0 0.00026474822394264338 0.031122930032546042 0 0.0013242840414441411 0.031738613716347369 0 0.0014546664469153431 0.030968163907373294 0 0.00026474822394264338 0.031122930032546042 0 -0.00022395066379370489 0.032136237036367789 0 0.00068874694369510758 0.032260978379580994 0 0.00026474822394264338 0.031122930032546042 0 -0.00022395066379370489 0.032136237036367789 0 -0.00030401670787990736 0.031092942435304388 0 0.0010623526562235665 0.038828610055611903 0 0.00018412228991382862 0.040546636242058627 0 0.00091236737830925618 0.042920687594357659 0 0.0010623526562235665 0.038828610055611903 0 4.2289268114231555e-05 0.038333870157181649 0 0.00018412228991382862 0.040546636242058627 0 0.00018412228991382862 0.040546636242058627 0 -0.0008185820142700284 0.0400819287266342 0 -0.00050613899034942535 0.041626626614568403 0 4.2289268114231555e-05 0.038333870157181649 0 0.00018412228991382862 0.040546636242058627 0 -0.0008185820142700284 0.0400819287266342 0 0.0013242840414441411 0.031738613716347369 0 0.0014546664469153431 0.030968163907373294 0 0.0023545984476814551 0.031521666938978558 0 0.00036552609695929755 0.036455542385167718 0 0.00055601388157668411 0.03722205120932158 0 0.00055601388157668411 0.03722205120932158 0 0.00094522947484816818 0.037987939067529654 0 0.00018412228991382862 0.040546636242058627 0 0.00042129400691816082 0.043105435412378282 0 0.00091236737830925618 0.042920687594357659 0 0.00018412228991382862 0.040546636242058627 0 -0.00050613899034942535 0.041626626614568403 0 0.00042129400691816082 0.043105435412378282 0 0.00042129400691816082 0.043105435412378282 0 0.00091236737830925618 0.042920687594357659 0 0.00073951161502979357 0.043336191503244845 0 0.00073951161502979357 0.043336191503244845 0 0.00070500083938178435 0.043315735066044851 0 0.00074831075052334581 0.043479474604211518 0 0.00042129400691816082 0.043105435412378282 0 0.00073951161502979357 0.043336191503244845 0 0.00070500083938178435 0.043315735066044851 0 0.0023545984476814551 0.031521666938978558 0 0.0027651705538060743 0.033818345558335537 0 0.001450944717272507 0.032773990295024993 0 0.00030321777850612284 0.043031682240309579 0 0.00042129400691816082 0.043105435412378282 0 0.00070500083938178435 0.043315735066044851 0 0.00030321777850612284 0.043031682240309579 0 0.00070500083938178435 0.043315735066044851 0 0.00093652685954556951 0.043398569080663411 0 0.00055601388157668411 0.03722205120932158 0 0.0013570446863028695 0.038557692289531487 0 0.00070500083938178435 0.043315735066044851 0 0.00093652685954556951 0.043398569080663411 0 0.00086772644446801999 0.04335403836436124 0 0.00093652685954556951 0.043398569080663411 0 0.00086772644446801999 0.04335403836436124 0 0.0010131546099596479 0.043166804165731924 0 0.00086772644446801999 0.04335403836436124 0 0.0010131546099596479 0.043166804165731924 0 0.00074831075052334581 0.043479474604211518 0 0.00070500083938178435 0.043315735066044851 0 0.00086772644446801999 0.04335403836436124 0 0.00074831075052334581 0.043479474604211518 0 -0.00022395066379370489 0.032136237036367789 0 0.00043932349780645847 0.033027704506213756 0 -0.00032707034798081641 0.033658875767048915 0 -0.00022395066379370489 0.032136237036367789 0 0.00043932349780645847 0.033027704506213756 0 0.00068874694369510758 0.032260978379580994 0 0.00043932349780645847 0.033027704506213756 0 0.00068874694369510758 0.032260978379580994 0 0.001450944717272507 0.032773990295024993 0 0.0013242840414441411 0.031738613716347369 0 0.00068874694369510758 0.032260978379580994 0 0.001450944717272507 0.032773990295024993 0 0.0027651705538060743 0.033818345558335537 0 0.00074929382909942979 0.03450781329764406 0 0.0013444428146915188 0.036246083039747558 0 0.00043932349780645847 0.033027704506213756 0 0.001450944717272507 0.032773990295024993 0 0.00074929382909942979 0.03450781329764406 0 0.0027651705538060743 0.033818345558335537 0 0.001450944717272507 0.032773990295024993 0 0.00074929382909942979 0.03450781329764406 0 0.00043932349780645847 0.033027704506213756 0 0.00074929382909942979 0.03450781329764406 0 -0.00032707034798081641 0.033658875767048915 0 0.00074929382909942979 0.03450781329764406 0 -0.00032707034798081641 0.033658875767048915 0 -0.00047233758907462911 0.035022854879668698 0 -0.00016919068083114447 0.036283649382535088 0 -0.00047233758907462911 0.035022854879668698 0 -0.0013159495889061013 0.035981851819096355 0 0.00074929382909942979 0.03450781329764406 0 -0.00016919068083114447 0.036283649382535088 0 -0.00047233758907462911 0.035022854879668698 0 0.00074929382909942979 0.03450781329764406 0 -0.00016919068083114447 0.036283649382535088 0 0.0013444428146915188 0.036246083039747558 0 0.0013444428146915188 0.036246083039747558 0 0.0029579464988482079 0.037175272768450091 0 0.0012974699441421077 0.038828351704488145 0 0.0013444428146915188 0.036246083039747558 0 -0.00028969830324692336 0.038680354200934713 0 0.0012974699441421077 0.038828351704488145 0 -0.00016919068083114447 0.036283649382535088 0 0.0013444428146915188 0.036246083039747558 0 -0.00028969830324692336 0.038680354200934713 0 -0.00016919068083114447 0.036283649382535088 0 -0.00028969830324692336 0.038680354200934713 0 -0.0012923944667169696 0.037379735947559355 0 0.00093652685954556951 0.043398569080663411 0 0.0010131546099596479 0.043166804165731924 0 0.0017006046523258067 0.042846947724273624 0 0.0027651705538060743 0.033818345558335537 0 0.0013444428146915188 0.036246083039747558 0 0.0029579464988482079 0.037175272768450091 0 0.0013570446863028695 0.038557692289531487 0 0.0017671351774696817 0.039748226269626458 0 0.0017006046523258067 0.042846947724273624 0 0.0012311988423657704 0.042613795916722194 0 0.0015871881890966817 0.041792852228416402 0 0.0012311988423657704 0.042613795916722194 0 0.00081441724876678138 0.042769949033395489 0 0.0011979053156631002 0.042120642166118237 0 0.0010131546099596479 0.043166804165731924 0 0.0012311988423657704 0.042613795916722194 0 0.00081441724876678138 0.042769949033395489 0 0.0010131546099596479 0.043166804165731924 0 0.0017006046523258067 0.042846947724273624 0 0.0012311988423657704 0.042613795916722194 0 0.00081441724876678138 0.042769949033395489 0 0.00063766016813935657 0.043414284830029182 0 0.00038769229074505203 0.043086410857026046 0 0.0010131546099596479 0.043166804165731924 0 0.00081441724876678138 0.042769949033395489 0 0.00063766016813935657 0.043414284830029182 0 0.00063766016813935657 0.043414284830029182 0 0.00038769229074505203 0.043086410857026046 0 0.0002559112278287352 0.043621454879564134 0 0.00081441724876678138 0.042769949033395489 0 0.00038769229074505203 0.043086410857026046 0 0.00044737616972131874 0.04251509689079068 0 0.00038769229074505203 0.043086410857026046 0 -2.2061134049361046e-05 0.042790094534438369 0 0.00044737616972131874 0.04251509689079068 0 -2.2061134049361046e-05 0.042790094534438369 0 -0.00058485049171110178 0.043263231631986733 0 5.5547520284284746e-05 0.043334497460405741 0 0.00038769229074505203 0.043086410857026046 0 -2.2061134049361046e-05 0.042790094534438369 0 5.5547520284284746e-05 0.043334497460405741 0 -1.3212724776664359e-05 0.044280793587743159 0 0.0001402588597291243 0.044642430127745825 0 -2.5993698969901554e-05 0.045043074667283717 0 1.9401125027123519e-09 0.044999212680181824 0 -4.7657169809948871e-08 0.045000521534667652 0 -2.5993698969901554e-05 0.045043074667283717 0 1.0003848468793178e-05 0.044996040685365696 0 -4.7657169809948871e-08 0.045000521534667652 0 -2.2061134049361046e-05 0.042790094534438369 0 -0.00058485049171110178 0.043263231631986733 0 -0.00064158492706358969 0.042446039143711263 0 -1.3212724776664359e-05 0.044280793587743159 0 -4.348225028148077e-05 0.044313363005932783 0 -0.00058485049171110178 0.043263231631986733 0 5.5547520284284746e-05 0.043334497460405741 0 4.6462412980042235e-07 0.043880627402182126 0 -2.5993698969901554e-05 0.045043074667283717 0 1.9401125027123519e-09 0.044999212680181824 0 -0.00014316249268113722 0.044656250694653558 0 -0.00058485049171110178 0.043263231631986733 0 4.6462412980042235e-07 0.043880627402182126 0 -0.00014316249268113722 0.044656250694653558 0 0.00038769229074505203 0.043086410857026046 0 5.5547520284284746e-05 0.043334497460405741 0 0.0002559112278287352 0.043621454879564134 0 5.5547520284284746e-05 0.043334497460405741 0 4.6462412980042235e-07 0.043880627402182126 0 0.0002559112278287352 0.043621454879564134 0 0.0002559112278287352 0.043621454879564134 0 0.00017281584194666597 0.044179696378330503 0 0.00042273990611983183 0.043783250666760615 0 4.6462412980042235e-07 0.043880627402182126 0 0.00017281584194666597 0.044179696378330503 0 -0.00014316249268113722 0.044656250694653558 0 4.6462412980042235e-07 0.043880627402182126 0 0.0002559112278287352 0.043621454879564134 0 0.00017281584194666597 0.044179696378330503 0 0.00017281584194666597 0.044179696378330503 0 -0.00014316249268113722 0.044656250694653558 0 1.8410054285963249e-05 0.044585023829211971 0 1.9401125027123519e-09 0.044999212680181824 0 -0.00014316249268113722 0.044656250694653558 0 -3.9272175256693211e-07 0.044999362137508013 0 -0.00014316249268113722 0.044656250694653558 0 1.8410054285963249e-05 0.044585023829211971 0 -3.9272175256693211e-07 0.044999362137508013 0 1.8410054285963249e-05 0.044585023829211971 0 -3.9272175256693211e-07 0.044999362137508013 0 0.00011378082109894994 0.044450596677300627 0 0.00022772545526705541 0.044081401071092242 0 0.00011378082109894994 0.044450596677300627 0 0.00035900942517695916 0.043922654986281541 0 0.00017281584194666597 0.044179696378330503 0 0.00011378082109894994 0.044450596677300627 0 0.00035900942517695916 0.043922654986281541 0 0.00017281584194666597 0.044179696378330503 0 1.8410054285963249e-05 0.044585023829211971 0 0.00011378082109894994 0.044450596677300627 0 0.00028500944146794274 0.043661514922601438 0 0.00035900942517695916 0.043922654986281541 0 0.00061664717192849033 0.043500342723030529 0 0.00035900942517695916 0.043922654986281541 0 0.00058408752664081424 0.043641468882682555 0 0.00042273990611983183 0.043783250666760615 0 0.00035900942517695916 0.043922654986281541 0 0.00061664717192849033 0.043500342723030529 0 0.00058408752664081424 0.043641468882682555 0 0.00091236737830925618 0.042920687594357659 0 0.00073951161502979357 0.043336191503244845 0 0.00061664717192849033 0.043500342723030529 0 0.00073951161502979357 0.043336191503244845 0 0.00061664717192849033 0.043500342723030529 0 0.00074831075052334581 0.043479474604211518 0 0.00061664717192849033 0.043500342723030529 0 0.00058408752664081424 0.043641468882682555 0 0.00074831075052334581 0.043479474604211518 0 0.0010131546099596479 0.043166804165731924 0 0.00063766016813935657 0.043414284830029182 0 0.00074831075052334581 0.043479474604211518 0 0.00063766016813935657 0.043414284830029182 0 0.00058408752664081424 0.043641468882682555 0 0.00074831075052334581 0.043479474604211518 0 0.00063766016813935657 0.043414284830029182 0 0.00058408752664081424 0.043641468882682555 0 0.00042273990611983183 0.043783250666760615 0 0.00063766016813935657 0.043414284830029182 0 0.0002559112278287352 0.043621454879564134 0 0.00042273990611983183 0.043783250666760615 0 0.00017281584194666597 0.044179696378330503 0 0.00035900942517695916 0.043922654986281541 0 0.00042273990611983183 0.043783250666760615 0 0.00014731234734284774 0.025767818820924299 0 0.00020907644434941045 0.026502241931177842 0 -0.00021073943791535601 0.026324376561866723 0 0.00014731234734284774 0.025767818820924299 0 0.00044305254702430854 0.026422314946229791 0 0.00020907644434941045 0.026502241931177842 0 0.00014731234734284774 0.025767818820924299 0 -0.00021073943791535601 0.026324376561866723 0 -0.00023891257357830796 0.025549575378898251 0 0.00014731234734284774 0.025767818820924299 0 0.00044305254702430854 0.026422314946229791 0 0.00044832284973364339 0.025773095476012836 0 0.00044305254702430854 0.026422314946229791 0 0.00044832284973364339 0.025773095476012836 0 0.00055143469850895896 0.026713166264770286 0 0.00044832284973364339 0.025773095476012836 0 0.00014028159603931707 0.023947801765052686 0 -6.5120433397568132e-05 0.024784657877615159 0 0.00014731234734284774 0.025767818820924299 0 0.00044832284973364339 0.025773095476012836 0 -6.5120433397568132e-05 0.024784657877615159 0 0.00014731234734284774 0.025767818820924299 0 -6.5120433397568132e-05 0.024784657877615159 0 -0.00023891257357830796 0.025549575378898251 0 0.00014028159603931707 0.023947801765052686 0 4.7508498279764172e-07 0.024251082263547372 0 3.5108407160564649e-07 0.021613596892755223 0 0.00014028159603931707 0.023947801765052686 0 4.7508498279764172e-07 0.024251082263547372 0 0.00030181866631601016 0.025671429853139104 0 0.00044832284973364339 0.025773095476012836 0 0.00014028159603931707 0.023947801765052686 0 0.00030181866631601016 0.025671429853139104 0 0.00044832284973364339 0.025773095476012836 0 0.00030181866631601016 0.025671429853139104 0 0.0004213778118832283 0.027019867189257522 0 0.00030181866631601016 0.025671429853139104 0 7.192988159835055e-07 0.026887129677931141 0 0.0004213778118832283 0.027019867189257522 0 4.7508498279764172e-07 0.024251082263547372 0 0.00030181866631601016 0.025671429853139104 0 7.192988159835055e-07 0.026887129677931141 0 7.192988159835055e-07 0.026887129677931141 0 0.0004213778118832283 0.027019867189257522 0 9.5002316127505747e-05 0.028690904173222904 0 0.0004213778118832283 0.027019867189257522 0 0.00055143469850895896 0.026713166264770286 0 0.00017800391799200569 0.027801246952220544 0 0.00044832284973364339 0.025773095476012836 0 0.0004213778118832283 0.027019867189257522 0 0.00055143469850895896 0.026713166264770286 0 0.00044305254702430854 0.026422314946229791 0 0.00055143469850895896 0.026713166264770286 0 0.00051384944244136591 0.026599725388536596 0 0.000551434698508