<?xml version="1.0"?>
<VTKFile type="UnstructuredGrid" version="0.1" byte_order="LittleEndian">
<UnstructuredGrid>
<Piece NumberOfPoints="30881" NumberOfCells="10862">
<Points>
<DataArray type="Float64" NumberOfComponents="3" format="ascii">
-0.49999999999999828 -0.48677703703187492 0 -0.5 -0.5 0 -0.48129281494584059 -0.49338851851593718 0 -0.5 -0.5 0 -0.48129281494584059 -0.49338851851593718 0 -0.46258562989168328 -0.5 0 -0.49999999999999828 -0.48677703703187492 0 -0.48129281494584059 -0.49338851851593718 0 -0.49999999999999828 -0.48677703703187492 0 -0.4824545428279598 -0.47451624516148783 0 -0.48129281494584059 -0.49338851851593718 0 -0.49999999999999828 -0.48677703703187492 0 -0.4824545428279598 -0.47451624516148783 0 -0.5 -0.46599539173150673 0 -0.4824545428279598 -0.47451624516148783 0 -0.46853075243710779 -0.48354990242643758 0 -0.46411508256092049 -0.46598235294430129 0 -0.4824545428279598 -0.47451624516148783 0 -0.48129281494584059 -0.49338851851593718 0 -0.46853075243710779 -0.48354990242643758 0 -0.48129281494584059 -0.49338851851593718 0 -0.46258562989168328 -0.5 0 -0.48129281494584059 -0.49338851851593718 0 -0.46258562989168328 -0.5 0 -0.46853075243710779 -0.48354990242643758 0 -0.46258562989168328 -0.5 0 -0.46853075243710779 -0.48354990242643758 0 -0.45147378687733691 -0.48362213557840178 0 -0.46853075243710779 -0.48354990242643758 0 -0.45147378687733691 -0.48362213557840178 0 -0.46411508256092049 -0.46598235294430129 0 -0.4457251648104853 -0.47020164095208389 0 -0.45147378687733691 -0.48362213557840178 0 -0.46411508256092049 -0.46598235294430129 0 -0.4457251648104853 -0.47020164095208389 0 -0.45147378687733691 -0.48362213557840178 0 -0.43513446131126993 -0.48199891714758791 0 -0.45147378687733691 -0.48362213557840178 0 -0.43275163025255442 -0.5 0 -0.43513446131126993 -0.48199891714758791 0 -0.46258562989168328 -0.5 0 -0.45147378687733691 -0.48362213557840178 0 -0.43275163025255442 -0.5 0 -0.4467190029717853 -0.45478934699519452 0 -0.4422915115958943 -0.43555510214664611 0 -0.43246707723660932 -0.44794326854796312 0 -0.4457251648104853 -0.47020164095208389 0 -0.4467190029717853 -0.45478934699519452 0 -0.46411508256092049 -0.46598235294430129 0 -0.4457251648104853 -0.47020164095208389 0 -0.4467190029717853 -0.45478934699519452 0 -0.43016578207734568 -0.46313500011938619 0 -0.4467190029717853 -0.45478934699519452 0 -0.46411508256092049 -0.46598235294430129 0 -0.47114575579794699 -0.4403844242888923 0 -0.4467190029717853 -0.45478934699519452 0 -0.47114575579794699 -0.4403844242888923 0 -0.4422915115958943 -0.43555510214664611 0 -0.47114575579794699 -0.4403844242888923 0 -0.4422915115958943 -0.43555510214664611 0 -0.46411508256092049 -0.46598235294430129 0 -0.47114575579794699 -0.4403844242888923 0 -0.48354307623736548 -0.45841843211146538 0 -0.4824545428279598 -0.47451624516148783 0 -0.46411508256092049 -0.46598235294430129 0 -0.48354307623736548 -0.45841843211146538 0 -0.4824545428279598 -0.47451624516148783 0 -0.48354307623736548 -0.45841843211146538 0 -0.5 -0.46599539173150673 0 -0.48354307623736548 -0.45841843211146538 0 -0.5 -0.46599539173150673 0 -0.49999999999999972 -0.44521374643113848 0 -0.47114575579794699 -0.4403844242888923 0 -0.49999999999999972 -0.44521374643113848 0 -0.47114575579794699 -0.4403844242888923 0 -0.49999999999999972 -0.44521374643113848 0 -0.48704432221743971 -0.42935617662229603 0 -0.47114575579794699 -0.4403844242888923 0 -0.48354307623736548 -0.45841843211146538 0 -0.49999999999999972 -0.44521374643113848 0 -0.49999999999999972 -0.44521374643113848 0 -0.48704432221743971 -0.42935617662229603 0 -0.5 -0.41591957503128979 0 -0.48704432221743971 -0.42935617662229603 0 -0.5 -0.41591957503128979 0 -0.47703153307181151 -0.41590696073786332 0 -0.5 -0.41591957503128979 0 -0.47703153307181151 -0.41590696073786332 0 -0.48817838912021821 -0.4022119694541284 0 -0.47114575579794699 -0.4403844242888923 0 -0.48704432221743971 -0.42935617662229603 0 -0.47703153307181151 -0.41590696073786332 0 -0.5 -0.38662540363144121 0 -0.47568202340906118 -0.39039593841591919 0 -0.4947615751445838 -0.37332156409002909 0 -0.47568202340906118 -0.39039593841591919 0 -0.4947615751445838 -0.37332156409002909 0 -0.5 -0.38662540363144121 0 -0.48817838912021821 -0.4022119694541284 0 -0.47568202340906118 -0.39039593841591919 0 -0.5 -0.41591957503128979 0 -0.5 -0.38662540363144121 0 -0.48817838912021821 -0.4022119694541284 0 -0.47703153307181151 -0.41590696073786332 0 -0.48817838912021821 -0.4022119694541284 0 -0.47568202340906118 -0.39039593841591919 0 -0.47703153307181151 -0.41590696073786332 0 -0.47568202340906118 -0.39039593841591919 0 -0.45660247167353862 -0.40747031274180939 0 -0.47568202340906118 -0.39039593841591919 0 -0.48030931097003587 -0.37191064435083931 0 -0.46669490250066459 -0.37481721741951951 0 -0.47568202340906118 -0.39039593841591919 0 -0.4947615751445838 -0.37332156409002909 0 -0.48030931097003587 -0.37191064435083931 0 -0.45332061783919553 -0.38729481725706361 0 -0.46669490250066459 -0.37481721741951951 0 -0.45095991715087752 -0.36968037302039969 0 -0.47568202340906118 -0.39039593841591919 0 -0.45332061783919553 -0.38729481725706361 0 -0.46669490250066459 -0.37481721741951951 0 -0.47568202340906118 -0.39039593841591919 0 -0.45660247167353862 -0.40747031274180939 0 -0.47568202340906118 -0.39039593841591919 0 -0.45332061783919553 -0.38729481725706361 0 -0.45660247167353862 -0.40747031274180939 0 -0.44332653075004852 -0.401690115615219 0 -0.44646247228389868 -0.41654464256061052 0 -0.42870657106664078 -0.39987574649354879 0 -0.45332061783919553 -0.38729481725706361 0 -0.44332653075004852 -0.401690115615219 0 -0.43479631603355468 -0.39077639303142497 0 -0.45332061783919553 -0.38729481725706361 0 -0.44332653075004852 -0.401690115615219 0 -0.45660247167353862 -0.40747031274180939 0 -0.45332061783919553 -0.38729481725706361 0 -0.43421362475025049 -0.37527491429266319 0 -0.43479631603355468 -0.39077639303142497 0 -0.45332061783919553 -0.38729481725706361 0 -0.43421362475025049 -0.37527491429266319 0 -0.45095991715087752 -0.36968037302039969 0 -0.47114575579794699 -0.4403844242888923 0 -0.45663439814062529 -0.42533932462455271 0 -0.4422915115958943 -0.43555510214664611 0 -0.47114575579794699 -0.4403844242888923 0 -0.47703153307181151 -0.41590696073786332 0 -0.45663439814062529 -0.42533932462455271 0 -0.45663439814062529 -0.42533932462455271 0 -0.45660247167353862 -0.40747031274180939 0 -0.44646247228389868 -0.41654464256061052 0 -0.47703153307181151 -0.41590696073786332 0 -0.45663439814062529 -0.42533932462455271 0 -0.45660247167353862 -0.40747031274180939 0 -0.44332653075004852 -0.401690115615219 0 -0.45660247167353862 -0.40747031274180939 0 -0.44646247228389868 -0.41654464256061052 0 -0.45660247167353862 -0.40747031274180939 0 -0.44646247228389868 -0.41654464256061052 0 -0.44646247228389868 -0.41654464256061052 0 -0.4375229199380159 -0.42454468706769971 0 -0.45663439814062529 -0.42533932462455271 0 -0.4375229199380159 -0.42454468706769971 0 -0.4422915115958943 -0.43555510214664611 0 -0.45663439814062529 -0.42533932462455271 0 -0.44646247228389868 -0.41654464256061052 0 -0.4375229199380159 -0.42454468706769971 0 -0.4375229199380159 -0.42454468706769971 0 -0.4422915115958943 -0.43555510214664611 0 -0.43077617074680319 -0.43406335077952207 0 -0.43077617074680319 -0.43406335077952207 0 -0.42550232634077589 -0.42345940056268039 0 -0.41950844772475421 -0.43888456563633732 0 -0.4375229199380159 -0.42454468706769971 0 -0.43077617074680319 -0.43406335077952207 0 -0.42550232634077589 -0.42345940056268039 0 -0.44646247228389868 -0.41654464256061052 0 -0.41657232816672918 -0.41306671883907142 0 -0.42870657106664078 -0.39987574649354879 0 -0.44646247228389868 -0.41654464256061052 0 -0.4375229199380159 -0.42454468706769971 0 -0.42550232634077589 -0.42345940056268039 0 -0.44646247228389868 -0.41654464256061052 0 -0.42550232634077589 -0.42345940056268039 0 -0.41657232816672918 -0.41306671883907142 0 -0.44646247228389868 -0.41654464256061052 0 -0.41657232816672918 -0.41306671883907142 0 -0.42550232634077589 -0.42345940056268039 0 -0.41657232816672918 -0.41306671883907142 0 -0.41333489101611293 -0.42699700567040988 0 -0.41657232816672918 -0.41306671883907142 0 -0.41333489101611293 -0.42699700567040988 0 -0.39893236021425188 -0.42931692235905211 0 -0.41333489101611293 -0.42699700567040988 0 -0.39893236021425188 -0.42931692235905211 0 -0.41950844772475421 -0.43888456563633732 0 -0.42550232634077589 -0.42345940056268039 0 -0.41333489101611293 -0.42699700567040988 0 -0.41950844772475421 -0.43888456563633732 0 -0.43421362475025049 -0.37527491429266319 0 -0.42478231784314502 -0.38643128255249681 0 -0.41656514696884139 -0.37636588688318029 0 -0.43421362475025049 -0.37527491429266319 0 -0.42478231784314502 -0.38643128255249681 0 -0.43479631603355468 -0.39077639303142497 0 -0.42478231784314502 -0.38643128255249681 0 -0.43479631603355468 -0.39077639303142497 0 -0.42870657106664078 -0.39987574649354879 0 -0.44332653075004852 -0.401690115615219 0 -0.43479631603355468 -0.39077639303142497 0 -0.42870657106664078 -0.39987574649354879 0 -0.41657232816672918 -0.41306671883907142 0 -0.40962993039643741 -0.3898634720616666 0 -0.3946356370269814 -0.39577424904278191 0 -0.42478231784314502 -0.38643128255249681 0 -0.42870657106664078 -0.39987574649354879 0 -0.40962993039643741 -0.3898634720616666 0 -0.41657232816672918 -0.41306671883907142 0 -0.42870657106664078 -0.39987574649354879 0 -0.40962993039643741 -0.3898634720616666 0 -0.42478231784314502 -0.38643128255249681 0 -0.40962993039643741 -0.3898634720616666 0 -0.41656514696884139 -0.37636588688318029 0 -0.40962993039643741 -0.3898634720616666 0 -0.41656514696884139 -0.37636588688318029 0 -0.40465459864295228 -0.37650109000307358 0 -0.39431275766669582 -0.38061373190328529 0 -0.40465459864295228 -0.37650109000307358 0 -0.3968495855878465 -0.36923685638487008 0 -0.40962993039643741 -0.3898634720616666 0 -0.39431275766669582 -0.38061373190328529 0 -0.40465459864295228 -0.376501090003
[...]
<PointData Scalars="" Vectors="displacement," Tensors="">
<DataArray type="Float64" Name="displacement" NumberOfComponents="3" format="ascii">
0.044999730232169896 -1.2425286310469941e-07 0 0.04499910907358802 2.5101639290773405e-07 0 0.043652918370374029 -4.2184608844058026e-08 0 0.04499910907358802 2.5101639290773405e-07 0 0.043652918370374029 -4.2184608844058026e-08 0 0.041634755680598573 -3.7700636752983617e-07 0 0.044996018822379281 6.4995847846223812e-07 0 0.04334309221658933 6.023360238652432e-05 0 0.044997437280262939 7.8669306509555364e-07 0 0.043891094305101748 0.00032322211160398486 0 0.043229821407111645 0.00038244943529999026 0 0.044997437280262939 7.8669306509555364e-07 0 0.043891094305101748 0.00032322211160398486 0 0.044999334576287062 5.741968922444334e-08 0 0.043891094305101748 0.00032322211160398486 0 0.042747432589205443 0.00027243150269266631 0 0.043115170222742888 0.00037220603844600363 0 0.043891094305101748 0.00032322211160398486 0 0.043229821407111645 0.00038244943529999026 0 0.042747432589205443 0.00027243150269266631 0 0.04334309221658933 6.023360238652432e-05 0 0.04163680690616102 -4.2872827533213855e-07 0 0.043229821407111645 0.00038244943529999026 0 0.041632111322261925 1.4377344160624563e-06 0 0.042747432589205443 0.00027243150269266631 0 0.041632111322261925 1.4377344160624563e-06 0 0.042747432589205443 0.00027243150269266631 0 0.041643387266429646 0.00024213298299913906 0 0.042747432589205443 0.00027243150269266631 0 0.041643387266429646 0.00024213298299913906 0 0.043115170222742888 0.00037220603844600363 0 0.042074805032180244 0.00020518573389121005 0 0.041643387266429646 0.00024213298299913906 0 0.043115170222742888 0.00037220603844600363 0 0.042074805032180244 0.00020518573389121005 0 0.041643387266429646 0.00024213298299913906 0 0.040797622606752064 8.3451565428337287e-05 0 0.041643387266429646 0.00024213298299913906 0 0.038949803811818631 3.0206869907249485e-07 0 0.040797622606752064 8.3451565428337287e-05 0 0.041632111322261925 1.4377344160624563e-06 0 0.041643387266429646 0.00024213298299913906 0 0.038949803811818631 3.0206869907249485e-07 0 0.042808245489625023 0.00018027972279517979 0 0.043428370534449305 -2.9547310180417697e-05 0 0.042763491436635208 -0.00017109043190592158 0 0.042074805032180244 0.00020518573389121005 0 0.042808245489625023 0.00018027972279517979 0 0.043115170222742888 0.00037220603844600363 0 0.042074805032180244 0.00020518573389121005 0 0.042808245489625023 0.00018027972279517979 0 0.0419954292550501 -0.00013198078745543616 0 0.042808245489625023 0.00018027972279517979 0 0.043115170222742888 0.00037220603844600363 0 0.043686680507278308 0.00043773470505638898 0 0.042808245489625023 0.00018027972279517979 0 0.043686680507278308 0.00043773470505638898 0 0.043428370534449305 -2.9547310180417697e-05 0 0.044472904703968676 0.00016691938135469269 0 0.044258626775693144 4.7059975338466476e-05 0 0.043115170222742888 0.00037220603844600363 0 0.043686680507278308 0.00043773470505638898 0 0.044158769678357801 0.00027196522274434872 0 0.043891094305101748 0.00032322211160398486 0 0.043115170222742888 0.00037220603844600363 0 0.044158769678357801 0.00027196522274434872 0 0.043891094305101748 0.00032322211160398486 0 0.044158769678357801 0.00027196522274434872 0 0.044999334576287062 5.741968922444334e-08 0 0.044158769678357801 0.00027196522274434872 0 0.044999334576287062 5.741968922444334e-08 0 0.044998098568909475 3.7549087302660872e-07 0 0.044472904703968676 0.00016691938135469269 0 0.044999025236153067 3.0796674623314743e-07 0 0.044489121763796595 0.00010753363932199967 0 0.044999678127410639 4.5882390547366268e-08 0 0.044786775406000699 5.8331783333472063e-05 0 0.043686680507278308 0.00043773470505638898 0 0.044158769678357801 0.00027196522274434872 0 0.044998098568909475 3.7549087302660872e-07 0 0.044999678127410639 4.5882390547366268e-08 0 0.044786775406000699 5.8331783333472063e-05 0 0.044999590374216004 1.1316364649132168e-07 0 0.044786775406000699 5.8331783333472063e-05 0 0.044999590374216004 1.1316364649132168e-07 0 0.044656780531906096 9.9226514266108486e-05 0 0.044999590374216004 1.1316364649132168e-07 0 0.044656780531906096 9.9226514266108486e-05 0 0.044890568506252872 6.6770438246200017e-05 0 0.044489121763796595 0.00010753363932199967 0 0.044786775406000699 5.8331783333472063e-05 0 0.044656780531906096 9.9226514266108486e-05 0 0.0449996125410769 8.9393718974476845e-08 0 0.044894834650236172 7.623116536952387e-05 0 0.044825328978216929 5.8934584360571523e-05 0 0.044003201318203275 -0.00023763990908389089 0 0.044187694820957614 -0.00011995553061751261 0 0.0449996125410769 8.9393718974476845e-08 0 0.044890568506252872 6.6770438246200017e-05 0 0.044894834650236172 7.623116536952387e-05 0 0.044999590374216004 1.1316364649132168e-07 0 0.0449996125410769 8.9393718974476845e-08 0 0.044890568506252872 6.6770438246200017e-05 0 0.044656780531906096 9.9226514266108486e-05 0 0.044890568506252872 6.6770438246200017e-05 0 0.044894834650236172 7.623116536952387e-05 0 0.044656780531906096 9.9226514266108486e-05 0 0.044894834650236172 7.623116536952387e-05 0 0.044549510912033755 -1.8671695437733676e-06 0 0.043331613808646412 -0.00019553572966635427 0 0.044338735059241276 -0.00014178702282076407 0 0.043893818163028703 -0.00050757718733408764 0 0.043331613808646412 -0.00019553572966635427 0 0.044825328978216929 5.8934584360571523e-05 0 0.044338735059241276 -0.00014178702282076407 0 0.043176410345338485 -0.0010123581236362921 0 0.043893818163028703 -0.00050757718733408764 0 0.043707275100417935 -0.00096531262358465772 0 0.043331613808646412 -0.00019553572966635427 0 0.043176410345338485 -0.0010123581236362921 0 0.043893818163028703 -0.00050757718733408764 0 0.044003201318203275 -0.00023763990908389089 0 0.043667654772578508 -0.00051646492071808978 0 0.043331613808646412 -0.00019553572966635427 0 0.043176410345338485 -0.0010123581236362921 0 0.042467263986370483 -0.0009351837210513237 0 0.042612407778733596 -0.001377134812681367 0 0.042238488188817189 -0.0013142255519470434 0 0.042620307790421343 -0.0017597894227062017 0 0.043176410345338485 -0.0010123581236362921 0 0.042612407778733596 -0.001377134812681367 0 0.042807691872502329 -0.001604352800091404 0 0.043176410345338485 -0.0010123581236362921 0 0.042612407778733596 -0.001377134812681367 0 0.042467263986370483 -0.0009351837210513237 0 0.043176410345338485 -0.0010123581236362921 0 0.043139684708729899 -0.0015832751632139353 0 0.042807691872502329 -0.001604352800091404 0 0.043176410345338485 -0.0010123581236362921 0 0.043139684708729899 -0.0015832751632139353 0 0.043707275100417935 -0.00096531262358465772 0 0.044489121763796595 0.00010753363932199967 0 0.044145653605417237 6.941228700292058e-05 0 0.043428370534449305 -2.9547310180417697e-05 0 0.044489121763796595 0.00010753363932199967 0 0.044656780531906096 9.9226514266108486e-05 0 0.044145653605417237 6.941228700292058e-05 0 0.044145653605417237 6.941228700292058e-05 0 0.044549510912033755 -1.8671695437733676e-06 0 0.044188125778311986 -0.00010894960875806603 0 0.044656780531906096 9.9226514266108486e-05 0 0.044145653605417237 6.941228700292058e-05 0 0.044549510912033755 -1.8671695437733676e-06 0 0.042612407778733596 -0.001377134812681367 0 0.042467263986370483 -0.0009351837210513237 0 0.042238488188817189 -0.0013142255519470434 0 0.043667654772578508 -0.00051646492071808978 0 0.043493973982069889 -0.00070165303936870469 0 0.043493973982069889 -0.00070165303936870469 0 0.04358414136711098 -0.00058466089723034208 0 0.044145653605417237 6.941228700292058e-05 0 0.043586990946056517 -0.00021055688566490896 0 0.043428370534449305 -2.9547310180417697e-05 0 0.044145653605417237 6.941228700292058e-05 0 0.044188125778311986 -0.00010894960875806603 0 0.043586990946056517 -0.00021055688566490896 0 0.043586990946056517 -0.00021055688566490896 0 0.043428370534449305 -2.9547310180417697e-05 0 0.043216523665885402 -0.00028089527927861995 0 0.043216523665885402 -0.00028089527927861995 0 0.043373035202340836 -0.00040598086907669105 0 0.04286294512062943 -0.00051767973522000136 0 0.043586990946056517 -0.00021055688566490896 0 0.043216523665885402 -0.00028089527927861995 0 0.043373035202340836 -0.00040598086907669105 0 0.042238488188817189 -0.0013142255519470434 0 0.042507320066944514 -0.0019603267475848296 0 0.042620307790421343 -0.0017597894227062017 0 0.043708650422425999 -7.0274794009763902e-05 0 0.043586990946056517 -0.00021055688566490896 0 0.043373035202340836 -0.00040598086907669105 0 0.043708650422425999 -7.0274794009763902e-05 0 0.043373035202340836 -0.00040598086907669105 0 0.043398933639165881 -0.00059212173302608008 0 0.043493973982069889 -0.00070165303936870469 0 0.043145444888914315 -0.001010947343363463 0 0.043373035202340836 -0.00040598086907669105 0 0.043398933639165881 -0.00059212173302608008 0 0.043094767364725353 -0.00067102475672875192 0 0.043398933639165881 -0.00059212173302608008 0 0.043094767364725353 -0.00067102475672875192 0 0.042866310758056657 -0.0010009434662542778 0 0.043094767364725353 -0.00067102475672875192 0 0.042866310758056657 -0.0010009434662542778 0 0.04286294512062943 -0.00051767973522000136 0 0.043373035202340836 -0.00040598086907669105 0 0.043094767364725353 -0.00067102475672875192 0 0.04286294512062943 -0.00051767973522000136 0 0.043139684708729899 -0.0015832751632139353 0 0.042727179801191423 -0.0018471438267061999 0 0.042661166122445006 -0.0020657798902695744 0 0.043139684708729899 -0.0015832751632139353 0 0.042727179801191423 -0.0018471438267061999 0 0.042807691872502329 -0.001604352800091404 0 0.042727179801191423 -0.0018471438267061999 0 0.042807691872502329 -0.001604352800091404 0 0.042620307790421343 -0.0017597894227062017 0 0.042612407778733596 -0.001377134812681367 0 0.042807691872502329 -0.001604352800091404 0 0.042620307790421343 -0.0017597894227062017 0 0.042507320066944514 -0.0019603267475848296 0 0.042537398837399258 -0.0020046677589924014 0 0.042511023128620096 -0.0018033357331878489 0 0.042727179801191423 -0.0018471438267061999 0 0.042620307790421343 -0.0017597894227062017 0 0.042537398837399258 -0.0020046677589924014 0 0.042507320066944514 -0.0019603267475848296 0 0.042620307790421343 -0.0017597894227062017 0 0.042537398837399258 -0.0020046677589924014 0 0.042727179801191423 -0.0018471438267061999 0 0.042537398837399258 -0.0020046677589924014 0 0.042661166122445006 -0.0020657798902695744 0 0.042537398837399258 -0.0020046677589924014 0 0.042661166122445006 -0.0020657798902695744 0 0.042342182022864876 -0.0020716361790715366 0 0.042194557532516455 -0.0018211558321072489 0 0.042342182022864876 -0.0020716361790715366 0 0.041926384916455402 -0.0019343447823133633 0 0.042537398837399258 -0.0020046677589924014 0 0.042194557532516455 -0.0018211558321072489 0 0.042342182022864876 -0.0020716361790715366 0 0.042537398837399258 -0.0020046677589924014 0 0.042194557532516455 -0.0018211558321072489 0 0.042511023128620096 -0.0018033357331878489 0 0.042511023128620096 -0.0018033357331878489 0 0.042720407050287214 -0.0016179810943615146 0 0.042424739109957851 -0.0012410193535052274 0 0.042511023128620096 -0.0018033357331878489 0 0.04190676499249784 -0.0011827458730844728 0 0.042424739109957851 -0.0012410193535052274 0 0.042194557532516455 -0.0018211558321072489 0 0.042511023128620096 -0.0018033357331878489 0 0.04190676499249784 -0.0011827458730844728 0 0.042194557532516455 -0.0018211558321072489 0 0.04190676499249784 -0.0011827458730844728 0 0.041648939656571501 -0.0015121751864591193 0 0.043398933639165881 -0.00059212173302608008 0 0.042866310758056657 -0.0010009434662542778 0 0.042976058624891365 -0.0012211008204316991 0 0.042507320066944514 -0.0019603267475848296 0 0.042511023128620096 -0.0018033357331878489 0 0.042720407050287214 -0.0016179810943615146 0 0.043145444888914315 -0.001010947343363463 0 0.042969747235147807 -0.001142974362281027 0 0.042976058624891365 -0.0012211008204316991 0 0.042768617075980411 -0.0012583666954662628 0 0.042740272210151906 -0.0011566332523824847 0 0.042768617075980411 -0.0012583666954662628 0 0.042370900448166667 -0.0013519752862445778 0 0.042615456590958077 -0.0013540077337302833 0 0.042866310758056657 -0.0010009434662542778 0 0.042768617075980411 -0.0012583666954662628 0 0.042370900448166667 -0.0013519752862445778 0 0.042866310758056657 -0.0010009434662542778 0 0.042976058624891365 -0.0012211008204316991 0 0.042768617075980411 -0.0012583666954662628 0 0.042370900448166667 -0.0013519752862445778 0 0.042239039495253115 -0.00091232584132253027 0 0.041557980763301187 -0.0013838911091112664 0 0.042866310758056657 -0.0010009434662542778 0 0.042370900448166667 -0.0013519752862445778 0 0.042239039495253115 -0.00091232584132253027 0 0.042239039495253115 -0.00091232584132253027 0 0.041557980763301187 -0.0013838911091112664 0 0.041153438794614222 -0.0010210766439358624 0 0.042370900448166667 -0.0013519752862445778 0 0.041557980763301187 -0.0013838911091112664 0 0.041762880182792075 -0.0016718283860691729 0 0.041557980763301187 -0.0013838911091112664 0 0.040876472269545785 -0.0017289702881173642 0 0.041762880182792075 -0.0016718283860691729 0 0.040876472269545785 -0.0017289702881173642 0 0.039924137825707098 -0.0015395186624605468 0 0.040720567910250603 -0.001380425177711453 0 0.041557980763301187 -0.0013838911091112664 0 0.040876472269545785 -0.0017289702881173642 0 0.040720567910250603 -0.001380425177711453 0 0.035221949060060209 0.00013325381948053316 0 0.033704017104619691 -0.00070729557541887697 0 0.03533728264409304 -1.5088776612357287e-05 0 0.036263775750151342 -1.2587873241867867e-06 0 0.033578655837156954 2.8730229440710002e-07 0 0.03533728264409304 -1.5088776612357287e-05 0 0.033713708165875426 -6.184735807018626e-05 0 0.033578655837156954 2.8730229440710002e-07 0 0.040876472269545785 -0.0017289702881173642 0 0.039924137825707098 -0.0015395186624605468 0 0.04021703600259062 -0.0020908678759729653 0 0.035221949060060209 0.00013325381948053316 0 0.035742097705740959 0.00058869378131214665 0 0.039924137825707098 -0.0015395186624605468 0 0.040720567910250603 -0.001380425177711453 0 0.040158944059124395 -0.0010219643423364929 0 0.03533728264409304 -1.5088776612357287e-05 0 0.036263775750151342 -1.2587873241867867e-06 0 0.038510539742625673 -0.00022215783363090474 0 0.039924137825707098 -0.0015395186624605468 0 0.040158944059124395 -0.0010219643423364929 0 0.038510539742625673 -0.00022215783363090474 0 0.041557980763301187 -0.0013838911091112664 0 0.040720567910250603 -0.001380425177711453 0 0.041153438794614222 -0.0010210766439358624 0 0.040720567910250603 -0.001380425177711453 0 0.040158944059124395 -0.0010219643423364929 0 0.041153438794614222 -0.0010210766439358624 0 0.041153438794614222 -0.0010210766439358624 0 0.04081140525724599 -0.00034333561259065594 0 0.041771193864686126 -0.00056470379288466044 0 0.040158944059124395 -0.0010219643423364929 0 0.04081140525724599 -0.00034333561259065594 0 0.038510539742625673 -0.00022215783363090474 0 0.040158944059124395 -0.0010219643423364929 0 0.041153438794614222 -0.0010210766439358624 0 0.04081140525724599 -0.00034333561259065594 0 0.04081140525724599 -0.00034333561259065594 0 0.038510539742625673 -0.00022215783363090474 0 0.039703548601264196 -8.5451871140290525e-05 0 0.036263775750151342 -1.2587873241867867e-06 0 0.038510539742625673 -0.00022215783363090474 0 0.038949803811818631 3.0206869907249485e-07 0 0.038510539742625673 -0.00022215783363090474 0 0.039703548601264196 -8.5451871140290525e-05 0 0.038949803811818631 3.0206869907249485e-07 0 0.039703548601264196 -8.5451871140290525e-05 0 0.038949803811818631 3.0206869907249485e-07 0 0.040797622606752064 8.3451565428337287e-05 0 0.042074805032180244 0.00020518573389121005 0 0.040797622606752064 8.3451565428337287e-05 0 0.0419954292550501 -0.00013198078745543616 0 0.04081140525724599 -0.00034333561259065594 0 0.040797622606752064 8.3451565428337287e-05 0 0.0419954292550501 -0.00013198078745543616 0 0.04081140525724599 -0.00034333561259065594 0 0.039703548601264196 -8.5451871140290525e-05 0 0.040797622606752064 8.3451565428337287e-05 0 0.042808245489625023 0.00018027972279517979 0 0.0419954292550501 -0.00013198078745543616 0 0.042763491436635208 -0.00017109043190592158 0 0.0419954292550501 -0.00013198078745543616 0 0.042370421543880502 -0.0004528210145149647 0 0.041771193864686126 -0.00056470379288466044 0 0.0419954292550501 -0.00013198078745543616 0 0.042763491436635208 -0.00017109043190592158 0 0.042370421543880502 -0.0004528210145149647 0 0.043428370534449305 -2.9547310180417697e-05 0 0.043216523665885402 -0.00028089527927861995 0 0.042763491436635208 -0.00017109043190592158 0 0.043216523665885402 -0.00028089527927861995 0 0.042763491436635208 -0.00017109043190592158 0 0.04286294512062943 -0.00051767973522000136 0 0.042763491436635208 -0.00017109043190592158 0 0.042370421543880502 -0.0004528210145149647 0 0.04286294512062943 -0.00051767973522000136 0 0.042866310758056657 -0.0010009434662542778 0 0.042239039495253115 -0.00091232584132253027 0 0.04286294512062943 -0.00051767973522000136 0 0.042239039495253115 -0.00091232584132253027 0 0.042370421543880502 -0.0004528210145149647 0 0.04286294512062943 -0.00051767973522000136 0 0.042239039495253115 -0.00091232584132253027 0 0.042370421543880502 -0.0004528210145149647 0 0.041771193864686126 -0.00056470379288466044 0 0.042239039495253115 -0.00091232584132253027 0 0.041153438794614222 -0.0010210766439358624 0 0.041771193864686126 -0.00056470379288466044 0 0.04081140525724599 -0.00034333561259065594 0 0.0419954292550501 -0.00013198078745543616 0 0.041771193864686126 -0.00056470379288466044 0 0.044857766000298317 4.1029306239903847e-05 0 0.044866230616733796 8.7501307866804147e-06 0 0.044854793581725581 3.0636589857957186e-05 0 0.044857766000298317 4.1029306239903847e-05 0 0.044890175296715788 -1.2496770019989642e-05 0 0.044866230616733796 8.7501307866804147e-06 0 0.044857766000298317 4.1029306239903847e-05 0 0.044854793581725581 3.0636589857957186e-05 0 0.044824324918207571 7.2953897685233294e-05 0 0.044857766000298317 4.1029306239903847e-05 0 0.044890175296715788 -1.2496770019989642e-05 0 0.044925994570279522 -1.4174685805493676e-05 0 0.044890175296715788 -1.2496770019989642e-05 0 0.044925994570279522 -1.4174685805493676e-05 0 0.044931395649340539 -7.5552793253201242e-05 0 0.044925994570279522 -1.4174685805493676e-05 0 0.044908497848758069 -2.7903490901719052e-05 0 0.044828786079077122 5.7958678257557706e-05 0 0.044857766000298317 4.1029306239903847e-05 0 0.044925994570279522 -1.4174685805493676e-05 0 0.044828786079077122 5.7958678257557706e-05 0 0.044857766000298317 4.1029306239903847e-05 0 0.044828786079077122 5.7958678257557706e-05 0 0.044824324918207571 7.2953897685233294e-05 0 0.044908497848758069 -2.7903490901719052e-05 0 0.044999998784110415 1.803348617853408e-08 0 0.044999554029970336 -2.660418441526503e-07 0 0.044908497848758069 -2.7903490901719052e-05 0 0.044999998784110415 1.803348617853408e-08 0 0.044975813550759192 -3.352575974182404e-05 0 0.044925994570279522 -1.4174685805493676e-05 0 0.044908497848758069 -2.7903490901719052e-05 0 0.044975813550759192 -3.352575974182404e-05 0 0.044925994570279522 -1.4174685805493676e-05 0 0.044975813550759192 -3.352575974182404e-05 0 0.044968242602134792 -7.7823345687064047e-05 0 0.044975813550759192 -3.352575974182404e-05 0 0.044999961557132026 -4.999766637885074e-08 0 0.044968242602134792 -7.7823345687064047e-05 0 0.044999998784110415 1.803348617853408e-08 0 0.044975813550759192 -3.352575974182404e-05 0 0.044999961557132026 -4.999766637885074e-08 0 0.044999961557132026 -4.999766637885074e-08 0 0.044968242602134792 -7.7823345687064047e-05 0 0.04496346004271938 -0.00010818462235000484 0 0.044968242602134792 -7.7823345687064047e-05 0 0.044931395649340539 -7.5552793253201242e-05 0 0.044914293010123653 -0.00022345589464818199 0 0.044925994570279522 -1.4174685805493676e-05 0 0.044968242602134792 -7.7823345687064047e-05 0 0.044931395649340539 -7.5552793253201242e-05 0 0.044890175296715788 -1.2496770019989642e-05 0 0.0449313956493405