<?xml version="1.0"?>
<VTKFile type="UnstructuredGrid" version="0.1" byte_order="LittleEndian">
<UnstructuredGrid>
<Piece NumberOfPoints="29014" NumberOfCells="10197">
<Points>
<DataArray type="Float64" NumberOfComponents="3" format="ascii">
-0.5 -0.5 0 -0.48465704410188409 -0.47542077001927502 0 -0.5 -0.44313971332394703 0 -0.5 -0.5 0 -0.48465704410188409 -0.47542077001927502 0 -0.48344448442784099 -0.49994320683622973 0 -0.48465704410188409 -0.47542077001927502 0 -0.46817459960948948 -0.48260129233378729 0 -0.46650423996023838 -0.45882075131211503 0 -0.48344448442784099 -0.49994320683622973 0 -0.45463376357668472 -0.5 0 -0.46817459960948948 -0.48260129233378729 0 -0.48465704410188409 -0.47542077001927502 0 -0.48344448442784099 -0.49994320683622973 0 -0.48465704410188409 -0.47542077001927502 0 -0.48344448442784099 -0.49994320683622973 0 -0.46817459960948948 -0.48260129233378729 0 -0.46817459960948948 -0.48260129233378729 0 -0.44990441719525209 -0.47002788434896681 0 -0.46650423996023838 -0.45882075131211503 0 -0.45463376357668472 -0.5 0 -0.46817459960948948 -0.48260129233378729 0 -0.44990441719525209 -0.47002788434896681 0 -0.45463376357668472 -0.5 0 -0.44990441719525209 -0.47002788434896681 0 -0.433020502247631 -0.47989563830060311 0 -0.45463376357668472 -0.5 0 -0.4258230427255284 -0.5 0 -0.433020502247631 -0.47989563830060311 0 -0.4443334779845044 -0.44044552365894801 0 -0.44857254813530162 -0.45423376037155161 0 -0.45685792805245501 -0.44451708195107947 0 -0.4443334779845044 -0.44044552365894801 0 -0.45685792805245501 -0.44451708195107947 0 -0.45657079582390581 -0.43094122299774712 0 -0.4443334779845044 -0.44044552365894801 0 -0.44857254813530162 -0.45423376037155161 0 -0.43441013091248348 -0.45586417297676418 0 -0.44990441719525209 -0.47002788434896681 0 -0.44857254813530162 -0.45423376037155161 0 -0.43441013091248348 -0.45586417297676418 0 -0.44990441719525209 -0.47002788434896681 0 -0.433020502247631 -0.47989563830060311 0 -0.43441013091248348 -0.45586417297676418 0 -0.44990441719525209 -0.47002788434896681 0 -0.44857254813530162 -0.45423376037155161 0 -0.46650423996023838 -0.45882075131211503 0 -0.46650423996023838 -0.45882075131211503 0 -0.45685792805245501 -0.44451708195107947 0 -0.47021429782258017 -0.43783302899631021 0 -0.44857254813530162 -0.45423376037155161 0 -0.46650423996023838 -0.45882075131211503 0 -0.45685792805245501 -0.44451708195107947 0 -0.45685792805245501 -0.44451708195107947 0 -0.47021429782258017 -0.43783302899631021 0 -0.45657079582390581 -0.43094122299774712 0 -0.47021429782258017 -0.43783302899631021 0 -0.48586960377592731 -0.45089833320232031 0 -0.48708216344997052 -0.4263758963853656 0 -0.46650423996023838 -0.45882075131211503 0 -0.47021429782258017 -0.43783302899631021 0 -0.48586960377592731 -0.45089833320232031 0 -0.48465704410188409 -0.47542077001927502 0 -0.48586960377592731 -0.45089833320232031 0 -0.5 -0.44313971332394703 0 -0.48465704410188409 -0.47542077001927502 0 -0.46650423996023838 -0.45882075131211503 0 -0.48586960377592731 -0.45089833320232031 0 -0.48465704410188409 -0.47542077001927502 0 -0.48586960377592731 -0.45089833320232031 0 -0.48586960377592731 -0.45089833320232031 0 -0.5 -0.44313971332394703 0 -0.49383652301880743 -0.42902657478453199 0 -0.48586960377592731 -0.45089833320232031 0 -0.48708216344997052 -0.4263758963853656 0 -0.48586960377592731 -0.45089833320232031 0 -0.48708216344997052 -0.4263758963853656 0 -0.49383652301880743 -0.42902657478453199 0 -0.5 -0.44313971332394703 0 -0.49383652301880743 -0.42902657478453199 0 -0.50000000000000089 -0.3700903026111948 0 -0.48708216344997052 -0.4263758963853656 0 -0.48752606894762168 -0.41739848706533011 0 -0.48708216344997052 -0.4263758963853656 0 -0.49383652301880743 -0.42902657478453199 0 -0.48752606894762168 -0.41739848706533011 0 -0.48708216344997052 -0.4263758963853656 0 -0.49383652301880743 -0.42902657478453199 0 -0.48708216344997052 -0.4263758963853656 0 -0.48752606894762168 -0.41739848706533011 0 -0.46564102369152482 -0.41796154333945201 0 -0.48752606894762168 -0.41739848706533011 0 -0.47525544381716728 -0.40727421622748428 0 -0.46564102369152482 -0.41796154333945201 0 -0.48708216344997052 -0.4263758963853656 0 -0.46564102369152482 -0.41796154333945201 0 -0.47021429782258017 -0.43783302899631021 0 -0.48708216344997052 -0.4263758963853656 0 -0.46564102369152482 -0.41796154333945201 0 -0.49383652301880743 -0.42902657478453199 0 -0.48752606894762168 -0.41739848706533011 0 -0.50000000000000089 -0.3700903026111948 0 -0.48752606894762168 -0.41739848706533011 0 -0.47986557504501159 -0.39396997625215191 0 -0.50000000000000089 -0.3700903026111948 0 -0.47986557504501159 -0.39396997625215191 0 -0.47668956764215198 -0.38185706742259362 0 -0.50000000000000089 -0.3700903026111948 0 -0.48752606894762168 -0.41739848706533011 0 -0.47525544381716728 -0.40727421622748428 0 -0.47986557504501159 -0.39396997625215191 0 -0.47525544381716728 -0.40727421622748428 0 -0.47986557504501159 -0.39396997625215191 0 -0.46769437693767257 -0.3921833637141377 0 -0.47668956764215198 -0.38185706742259362 0 -0.45645553426884911 -0.38477264487657298 0 -0.48177800277553651 -0.36945645535155858 0 -0.45645553426884911 -0.38477264487657298 0 -0.48177800277553651 -0.36945645535155858 0 -0.47986557504501159 -0.39396997625215191 0 -0.47668956764215198 -0.38185706742259362 0 -0.46769437693767257 -0.3921833637141377 0 -0.47668956764215198 -0.38185706742259362 0 -0.45645553426884911 -0.38477264487657298 0 -0.46769437693767257 -0.3921833637141377 0 -0.45645553426884911 -0.38477264487657298 0 -0.44608759851346791 -0.37631564888437641 0 -0.45768247145607199 -0.36861829879230901 0 -0.45645553426884911 -0.38477264487657298 0 -0.46769437693767257 -0.3921833637141377 0 -0.46080396787954547 -0.40209524915241912 0 -0.45645553426884911 -0.38477264487657298 0 -0.46080396787954547 -0.40209524915241912 0 -0.44419988393307891 -0.40954719029353909 0 -0.47525544381716728 -0.40727421622748428 0 -0.46769437693767257 -0.3921833637141377 0 -0.46080396787954547 -0.40209524915241912 0 -0.45645553426884911 -0.38477264487657298 0 -0.44419988393307891 -0.40954719029353909 0 -0.43113306576216182 -0.4000888344015876 0 -0.45645553426884911 -0.38477264487657298 0 -0.43113306576216182 -0.4000888344015876 0 -0.45645553426884911 -0.38477264487657298 0 -0.43662544819234311 -0.38409150963556438 0 -0.43113306576216182 -0.4000888344015876 0 -0.45645553426884911 -0.38477264487657298 0 -0.44608759851346791 -0.37631564888437641 0 -0.43662544819234311 -0.38409150963556438 0 -0.44608759851346791 -0.37631564888437641 0 -0.43662544819234311 -0.38409150963556438 0 -0.43358694013660748 -0.36778014223305922 0 -0.47021429782258017 -0.43783302899631021 0 -0.45657079582390581 -0.43094122299774712 0 -0.46564102369152482 -0.41796154333945201 0 -0.45657079582390581 -0.43094122299774712 0 -0.46564102369152482 -0.41796154333945201 0 -0.45017682339775589 -0.42074171837987889 0 -0.46080396787954547 -0.40209524915241912 0 -0.46564102369152482 -0.41796154333945201 0 -0.44419988393307891 -0.40954719029353909 0 -0.46564102369152482 -0.41796154333945201 0 -0.45017682339775589 -0.42074171837987889 0 -0.44419988393307891 -0.40954719029353909 0 -0.47525544381716728 -0.40727421622748428 0 -0.46080396787954547 -0.40209524915241912 0 -0.46564102369152482 -0.41796154333945201 0 -0.46564102369152482 -0.41796154333945201 0 -0.44419988393307891 -0.40954719029353909 0 -0.45017682339775589 -0.42074171837987889 0 -0.44419988393307891 -0.40954719029353909 0 -0.4416799865228086 -0.41784876908856861 0 -0.44419988393307891 -0.40954719029353909 0 -0.4416799865228086 -0.41784876908856861 0 -0.43725291675991379 -0.41039167292954482 0 -0.4416799865228086 -0.41784876908856861 0 -0.43399402420539263 -0.42282550983583828 0 -0.43725291675991379 -0.41039167292954482 0 -0.45017682339775589 -0.42074171837987889 0 -0.4416799865228086 -0.41784876908856861 0 -0.44279242701746108 -0.42740986618008758 0 -0.4416799865228086 -0.41784876908856861 0 -0.44279242701746108 -0.42740986618008758 0 -0.43399402420539263 -0.42282550983583828 0 -0.45657079582390581 -0.43094122299774712 0 -0.45017682339775589 -0.42074171837987889 0 -0.44279242701746108 -0.42740986618008758 0 -0.4443334779845044 -0.44044552365894801 0 -0.45657079582390581 -0.43094122299774712 0 -0.44279242701746108 -0.42740986618008758 0 -0.4443334779845044 -0.44044552365894801 0 -0.44279242701746108 -0.42740986618008758 0 -0.4290399325316131 -0.43572833240508718 0 -0.4290399325316131 -0.43572833240508718 0 -0.43399402420539263 -0.42282550983583828 0 -0.41920485819516651 -0.42274890857590319 0 -0.44279242701746108 -0.42740986618008758 0 -0.4290399325316131 -0.43572833240508718 0 -0.43399402420539263 -0.42282550983583828 0 -0.44419988393307891 -0.40954719029353909 0 -0.43725291675991379 -0.41039167292954482 0 -0.42275874417463299 -0.40113283724762611 0 -0.43725291675991379 -0.41039167292954482 0 -0.42418977897308457 -0.41121974743174011 0 -0.41920485819516651 -0.42274890857590319 0 -0.43399402420539263 -0.42282550983583828 0 -0.43725291675991379 -0.41039167292954482 0 -0.41920485819516651 -0.42274890857590319 0 -0.43725291675991379 -0.41039167292954482 0 -0.41920485819516651 -0.42274890857590319 0 -0.43725291675991379 -0.41039167292954482 0 -0.42418977897308457 -0.41121974743174011 0 -0.42275874417463299 -0.40113283724762611 0 -0.42418977897308457 -0.41121974743174011 0 -0.41754259676262501 -0.41060557097388589 0 -0.41920485819516651 -0.42274890857590319 0 -0.41754259676262501 -0.41060557097388589 0 -0.41009862473078762 -0.41549132182148879 0 -0.41920485819516651 -0.42274890857590319 0 -0.42418977897308457 -0.41121974743174011 0 -0.41754259676262501 -0.41060557097388589 0 -0.42275874417463299 -0.40113283724762611 0 -0.41754259676262501 -0.41060557097388589 0 -0.4076711454514913 -0.40805356031014128 0 -0.4123225227012341 -0.40312761318334162 0 -0.4076711454514913 -0.40805356031014128 0 -0.41009862473078762 -0.41549132182148879 0 -0.40146980263345122 -0.41378603825928911 0 -0.41754259676262501 -
[...]
<PointData Scalars="" Vectors="displacement," Tensors="">
<DataArray type="Float64" Name="displacement" NumberOfComponents="3" format="ascii">
8.7489675697005661e-08 -0.034999763763867028 0 -1.9803006163910409e-05 -0.033365608669387349 0 -5.5342909050946981e-07 -0.031018983410426772 0 8.7489675697005661e-08 -0.034999763763867028 0 -1.9803006163910409e-05 -0.033365608669387349 0 -5.2267464950906262e-08 -0.034994602316778575 0 1.2112736818562701e-05 -0.034905911192267831 0 7.2352396193860332e-06 -0.034941313919706313 0 2.4790107185896299e-05 -0.034869817798725694 0 -4.03737060693067e-10 -0.034995906326028746 0 2.2735746683914666e-09 -0.034999912975511686 0 7.2352396193860332e-06 -0.034941313919706313 0 -8.8123123657912628e-05 -0.034121549953760613 0 -2.7352026643928774e-07 -0.034995694541407975 0 1.2112736818562701e-05 -0.034905911192267831 0 -4.03737060693067e-10 -0.034995906326028746 0 7.2352396193860332e-06 -0.034941313919706313 0 7.2352396193860332e-06 -0.034941313919706313 0 1.3061711371799875e-05 -0.034905762296668044 0 2.4790107185896299e-05 -0.034869817798725694 0 2.2735746683914666e-09 -0.034999912975511686 0 7.2352396193860332e-06 -0.034941313919706313 0 1.3061711371799875e-05 -0.034905762296668044 0 2.2735746683914666e-09 -0.034999912975511686 0 1.3061711371799875e-05 -0.034905762296668044 0 2.0692985184524462e-06 -0.034943460265955559 0 2.2735746683914666e-09 -0.034999912975511686 0 -4.2000544247681462e-09 -0.034999925720073106 0 2.0692985184524462e-06 -0.034943460265955559 0 3.9383187787566149e-05 -0.03479600202132941 0 2.6218006010950515e-05 -0.034852680585160861 0 3.5561117627301034e-05 -0.034826873744922868 0 3.9383187787566149e-05 -0.03479600202132941 0 3.5561117627301034e-05 -0.034826873744922868 0 4.3073143468362996e-05 -0.034791620226489565 0 3.9383187787566149e-05 -0.03479600202132941 0 2.6218006010950515e-05 -0.034852680585160861 0 1.7460051126309802e-05 -0.034863555842939931 0 1.3061711371799875e-05 -0.034905762296668044 0 2.6218006010950515e-05 -0.034852680585160861 0 1.7460051126309802e-05 -0.034863555842939931 0 1.3061711371799875e-05 -0.034905762296668044 0 2.0692985184524462e-06 -0.034943460265955559 0 1.7460051126309802e-05 -0.034863555842939931 0 1.3061711371799875e-05 -0.034905762296668044 0 2.6218006010950515e-05 -0.034852680585160861 0 2.4790107185896299e-05 -0.034869817798725694 0 2.4790107185896299e-05 -0.034869817798725694 0 3.5561117627301034e-05 -0.034826873744922868 0 3.6631608183742201e-05 -0.034819728472851426 0 2.6218006010950515e-05 -0.034852680585160861 0 2.4790107185896299e-05 -0.034869817798725694 0 3.5561117627301034e-05 -0.034826873744922868 0 3.5561117627301034e-05 -0.034826873744922868 0 3.6631608183742201e-05 -0.034819728472851426 0 4.3073143468362996e-05 -0.034791620226489565 0 3.6631608183742201e-05 -0.034819728472851426 0 2.9491891026403501e-05 -0.034836578759063229 0 3.3736146160080895e-05 -0.034794970691375736 0 2.4790107185896299e-05 -0.034869817798725694 0 3.6631608183742201e-05 -0.034819728472851426 0 2.9491891026403501e-05 -0.034836578759063229 0 -1.9803006163910409e-05 -0.033365608669387349 0 -3.2832827541711968e-05 -0.03165955704988091 0 -5.5342909050946981e-07 -0.031018983410426772 0 1.2112736818562701e-05 -0.034905911192267831 0 2.4790107185896299e-05 -0.034869817798725694 0 2.9491891026403501e-05 -0.034836578759063229 0 -8.8123123657912628e-05 -0.034121549953760613 0 -0.00014130791886046411 -0.033409648888036735 0 -3.2832827541711968e-05 -0.03165955704988091 0 -5.5342909050946981e-07 -0.031018983410426772 0 -3.3986059961922657e-05 -0.030017090101236186 0 -0.00014130791886046411 -0.033409648888036735 0 0.00022667607404788478 -0.031078586117787993 0 -3.2832827541711968e-05 -0.03165955704988091 0 2.6653810466643295e-05 -0.03017314709937554 0 -3.3986059961922657e-05 -0.030017090101236186 0 -5.5342909050946981e-07 -0.031018983410426772 0 -3.3986059961922657e-05 -0.030017090101236186 0 7.4482578180367024e-07 -0.025910163107417932 0 0.00022667607404788478 -0.031078586117787993 0 -0.00012176964441536762 -0.030060874675543317 0 6.9664430663640963e-06 -0.029441124276797452 0 -3.3986059961922657e-05 -0.030017090101236186 0 -0.00016663891007076626 -0.02906064772788506 0 0.00022667607404788478 -0.031078586117787993 0 -8.498412052946782e-05 -0.03008551707031782 0 1.057726249490045e-05 -0.029061311385575422 0 -0.00016663891007076626 -0.02906064772788506 0 -0.00044228939329338387 -0.028612262311903416 0 -0.00016663891007076626 -0.02906064772788506 0 -0.0003308852901657978 -0.028562128339628207 0 -0.00044228939329338387 -0.028612262311903416 0 0.00022667607404788478 -0.031078586117787993 0 -0.00019514902572631516 -0.031909478201711923 0 3.6631608183742201e-05 -0.034819728472851426 0 3.3736146160080895e-05 -0.034794970691375736 0 2.6597999187404582e-05 -0.034793207563249953 0 -3.3986059961922657e-05 -0.030017090101236186 0 -0.00016663891007076626 -0.02906064772788506 0 7.4482578180367024e-07 -0.025910163107417932 0 -0.00016663891007076626 -0.02906064772788506 0 -0.00016609896862664422 -0.028085976783942226 0 7.4482578180367024e-07 -0.025910163107417932 0 -0.00016609896862664422 -0.028085976783942226 0 0.00017496691931450682 -0.027978713979635101 0 7.4482578180367024e-07 -0.025910163107417932 0 -0.00016663891007076626 -0.02906064772788506 0 -0.0003308852901657978 -0.028562128339628207 0 -0.00016609896862664422 -0.028085976783942226 0 -0.0003308852901657978 -0.028562128339628207 0 -0.00016609896862664422 -0.028085976783942226 0 -0.00010123091672378523 -0.028481689703097068 0 0.00017496691931450682 -0.027978713979635101 0 0.00022771032103556703 -0.028935637375918279 0 0.00067083251326033322 -0.027559092110668888 0 0.00044159781431503148 -0.028838246261720286 0 0.00072330294210499958 -0.025986060540954883 0 -0.00016609896862664422 -0.028085976783942226 0 0.00017496691931450682 -0.027978713979635101 0 -0.00010123091672378523 -0.028481689703097068 0 0.00017496691931450682 -0.027978713979635101 0 0.00022771032103556703 -0.028935637375918279 0 -0.00010123091672378523 -0.028481689703097068 0 0.00060597125820758071 -0.028322052460010433 0 0.0012516944320289547 -0.029093804575057964 0 0.0018322228009045485 -0.028208156109668838 0 0.00022771032103556703 -0.028935637375918279 0 -0.00010123091672378523 -0.028481689703097068 0 -0.00034981134865878772 -0.028762839173782678 0 0.00022771032103556703 -0.028935637375918279 0 -0.00034981134865878772 -0.028762839173782678 0 -0.0007367879440035339 -0.029433257517866265 0 -0.0003308852901657978 -0.028562128339628207 0 -0.00010123091672378523 -0.028481689703097068 0 -0.00034981134865878772 -0.028762839173782678 0 0.00022771032103556703 -0.028935637375918279 0 -0.0007367879440035339 -0.029433257517866265 0 -0.00043220343807478395 -0.030213150406834949 0 0.00044159781431503148 -0.028838246261720286 0 -0.00039930983843272649 -0.030062104429140892 0 0.00060597125820758071 -0.028322052460010433 0 0.00067509460659095661 -0.029807140710982685 0 -0.00043220343807478395 -0.030213150406834949 0 0.00060597125820758071 -0.028322052460010433 0 0.0012516944320289547 -0.029093804575057964 0 0.00067509460659095661 -0.029807140710982685 0 0.0012516944320289547 -0.029093804575057964 0 0.00067509460659095661 -0.029807140710982685 0 0.001899185531813564 -0.030034763175868159 0 3.6631608183742201e-05 -0.034819728472851426 0 4.3073143468362996e-05 -0.034791620226489565 0 2.6597999187404582e-05 -0.034793207563249953 0 4.3073143468362996e-05 -0.034791620226489565 0 2.6597999187404582e-05 -0.034793207563249953 0 3.5034911484724432e-05 -0.034753378507149671 0 -0.00034981134865878772 -0.028762839173782678 0 -0.00044228939329338387 -0.028612262311903416 0 -0.0007367879440035339 -0.029433257517866265 0 2.6597999187404582e-05 -0.034793207563249953 0 3.5034911484724432e-05 -0.034753378507149671 0 -3.9489040708216712e-05 -0.034740770544623829 0 -0.0003308852901657978 -0.028562128339628207 0 -0.00034981134865878772 -0.028762839173782678 0 -0.00044228939329338387 -0.028612262311903416 0 -0.00019514902572631516 -0.031909478201711923 0 -0.0003757874151755776 -0.032058529663145777 0 3.5034911484724432e-05 -0.034753378507149671 0 -3.9489040708216712e-05 -0.034740770544623829 0 5.2015993884975726e-05 -0.034665414199812415 0 -3.9489040708216712e-05 -0.034740770544623829 0 5.2015993884975726e-05 -0.034665414199812415 0 1.2464711896293147e-05 -0.034452415162058748 0 5.2015993884975726e-05 -0.034665414199812415 0 5.5568746815791175e-05 -0.034667950777669619 0 1.2464711896293147e-05 -0.034452415162058748 0 3.5034911484724432e-05 -0.034753378507149671 0 5.2015993884975726e-05 -0.034665414199812415 0 5.4506794010210469e-05 -0.034729599139098871 0 5.2015993884975726e-05 -0.034665414199812415 0 5.4506794010210469e-05 -0.034729599139098871 0 5.5568746815791175e-05 -0.034667950777669619 0 4.3073143468362996e-05 -0.034791620226489565 0 3.5034911484724432e-05 -0.034753378507149671 0 5.4506794010210469e-05 -0.034729599139098871 0 3.9383187787566149e-05 -0.03479600202132941 0 4.3073143468362996e-05 -0.034791620226489565 0 5.4506794010210469e-05 -0.034729599139098871 0 3.9383187787566149e-05 -0.03479600202132941 0 5.4506794010210469e-05 -0.034729599139098871 0 3.6836000227635142e-05 -0.034781607476540043 0 3.6836000227635142e-05 -0.034781607476540043 0 5.5568746815791175e-05 -0.034667950777669619 0 8.9645048508341874e-05 -0.034804765702002853 0 5.4506794010210469e-05 -0.034729599139098871 0 3.6836000227635142e-05 -0.034781607476540043 0 5.5568746815791175e-05 -0.034667950777669619 0 -3.9489040708216712e-05 -0.034740770544623829 0 1.2464711896293147e-05 -0.034452415162058748 0 -0.00032342978739541918 -0.033681413626665713 0 1.2464711896293147e-05 -0.034452415162058748 0 1.5848550208922329e-05 -0.033768167301852822 0 0.00030721221395739478 -0.033474989397943564 0 5.5568746815791175e-05 -0.034667950777669619 0 1.2464711896293147e-05 -0.034452415162058748 0 8.9645048508341874e-05 -0.034804765702002853 0 1.8930836929259166e-07 -0.03446484688235861 0 0.00018168728559494769 -0.034134227940686976 0 1.2464711896293147e-05 -0.034452415162058748 0 1.5848550208922329e-05 -0.033768167301852822 0 -0.00032342978739541918 -0.033681413626665713 0 1.5848550208922329e-05 -0.033768167301852822 0 1.629172895591832e-05 -0.033482347151620399 0 0.00030721221395739478 -0.033474989397943564 0 1.629172895591832e-05 -0.033482347151620399 0 0.00010432196785433423 -0.033302569744489169 0 0.00030721221395739478 -0.033474989397943564 0 1.5848550208922329e-05 -0.033768167301852822 0 1.629172895591832e-05 -0.033482347151620399 0 -0.00032342978739541918 -0.033681413626665713 0 1.629172895591832e-05 -0.033482347151620399 0 -4.1079659302724322e-06 -0.033219921834979793 0 -9.10366075099974e-05 -0.033297097971859604 0 -4.1079659302724322e-06 -0.033219921834979793 0 0.00010432196785433423 -0.033302569744489169 0 5.1615816354172758e-05 -0.033188313938931194 0 1.629172895591832e-05 -0.033482347151620399 0 -4.1079659302724322e-06 -0.033219921834979793 0 0.00010432196785433423 -0.033302569744489169 0 0.00010432196785433423 -0.033302569744489169 0 0.00030721221395739478 -0.033474989397943564 0 0.00013089473755599436 -0.033251987993692535 0 0.00018168728559494769 -0.034134227940686976 0 1.2199634272560248e-05 -0.034267102971126222 0 4.7841434160245703e-05 -0.034850570421026419 0 8.9645048508341874e-05 -0.034804765702002853 0 5.0188873534754549e-05 -0.034917725543802021 0 0.00030721221395739478 -0.033474989397943564 0 0.00012267656447850683 -0.033209454881971197 0 0.00013089473755599436 -0.033251987993692535 0 4.7841434160245703e-05 -0.034850570421026419 0 5.0188873534754549e-05 -0.034917725543802021 0 3.5406396128227476e-05 -0.034886129299807681 0 3.6836000227635142e-05 -0.034781607476540043 0 4.7841434160245703e-05 -0.034850570421026419 0 8.9645048508341874e-05 -0.034804765702002853 0 0.00071565370279104749 -0.030665707581043453 0 0.0009993952205360518 -0.031598624852844488 0 0.001899185531813564 -0.030034763175868159 0 0.00067509460659095661 -0.029807140710982685 0 0.00071565370279104749 -0.030665707581043453 0 0.001899185531813564 -0.030034763175868159 0 0.00071565370279104749 -0.030665707581043453 0 0.00011930193634957409 -0.030539335240256895 0 0.00025337128688423816 -0.031285398646013957 0 0.00067509460659095661 -0.029807140710982685 0 0.00071565370279104749 -0.030665707581043453 0 0.00011930193634957409 -0.030539335240256895 0 0.00067509460659095661 -0.029807140710982685 0 0.00011930193634957409 -0.030539335240256895 0 -0.00043220343807478395 -0.030213150406834949 0 -0.0007367879440035339 -0.029433257517866265 0 -0.00043220343807478395 -0.030213150406834949 0 -0.00061143072032556064 -0.030784471165891076 0 -0.0003757874151755776 -0.032058529663145777 0 -0.0004011009153296769 -0.032290440610909167 0 0.00011930193634957409 -0.030539335240256895 0 -0.00043220343807478395 -0.030213150406834949 0 -0.00061143072032556064 -0.030784471165891076 0 0.00011930193634957409 -0.030539335240256895 0 -0.00061143072032556064 -0.030784471165891076 0 0.00025337128688423816 -0.031285398646013957 0 -0.0004011009153296769 -0.032290440610909167 0 -5.7473022924538512e-05 -0.032832820445498852 0 -0.00061143072032556064 -0.030784471165891076 0 0.00025337128688423816 -0.031285398646013957 0 5.123933772069371e-07 -0.032830596789954786 0 -0.00032342978739541918 -0.033681413626665713 0 -9.10366075099974e-05 -0.033297097971859604 0 5.123933772069371e-07 -0.032830596789954786 0 1.629172895591832e-05 -0.033482347151620399 0 -0.00032342978739541918 -0.033681413626665713 0 -9.10366075099974e-05 -0.033297097971859604 0 -4.1079659302724322e-06 -0.033219921834979793 0 -9.10366075099974e-05 -0.033297097971859604 0 5.123933772069371e-07 -0.032830596789954786 0 0.00025337128688423816 -0.031285398646013957 0 0.0009993952205360518 -0.031598624852844488 0 5.123933772069371e-07 -0.032830596789954786 0 0.00071565370279104749 -0.030665707581043453 0 0.00025337128688423816 -0.031285398646013957 0 0.0009993952205360518 -0.031598624852844488 0 0.00098711489763472944 -0.032691091476477786 0 0.00037121634360613427 -0.033321245971047887 0 0.0018146207238063916 -0.03366267575836869 0 0.0009993952205360518 -0.031598624852844488 0 0.00098711489763472944 -0.032691091476477786 0 5.123933772069371e-07 -0.032830596789954786 0 0.00098711489763472944 -0.032691091476477786 0 5.123933772069371e-07 -0.032830596789954786 0 0.00037121634360613427 -0.033321245971047887 0 5.123933772069371e-07 -0.032830596789954786 0 5.5097113392955708e-05 -0.033221039039559995 0 0.00037121634360613427 -0.033321245971047887 0 -4.1079659302724322e-06 -0.033219921834979793 0 5.123933772069371e-07 -0.032830596789954786 0 1.2535036158454903e-06 -0.03307892769502873 0 5.123933772069371e-07 -0.032830596789954786 0 1.2535036158454903e-06 -0.03307892769502873 0 5.5097113392955708e-05 -0.033221039039559995 0 1.2535036158454903e-06 -0.03307892769502873 0 5.5097113392955708e-05 -0.033221039039559995 0 2.502874181014049e-05 -0.033204265592025446 0 5.5097113392955708e-05 -0.033221039039559995 0 0.00019336903143006196 -0.03338617934710849 0 4.6485354615644351e-05 -0.033312473950652677 0 0.00019336903143006196 -0.03338617934710849 0 4.6485354615644351e-05 -0.033312473950652677 0 0.00010781697591086262 -0.033458860467108567 0 5.5097113392955708e-05 -0.033221039039559995 0 0.00019336903143006196 -0.03338617934710849 0 0.00037121634360613427 -0.033321245971047887 0 0.00097073353644642417 -0.03376559849609552 0 0.00018636168081091788 -0.029753825207691754 0 0.00037121634360613427 -0.033321245971047887 0 0.0004596814528052914 -0.033334791589571457 0 0.00031725843974130327 -0.033491605260466371 0 0.00019336903143006196 -0.03338617934710849 0 0.00037121634360613427 -0.033321245971047887 0 0.00031725843974130327 -0.033491605260466371 0 4.1780689114414108e-05 -0.033247872778916915 0 0.00012267656447850683 -0.033209454881971197 0 9.8430485234744818e-05 -0.033226092897850425 0 4.1780689114414108e-05 -0.033247872778916915 0 9.8430485234744818e-05 -0.033226092897850425 0 6.6573900038189934e-05 -0.033213538096525073 0 0.00012267656447850683 -0.033209454881971197 0 9.8430485234744818e-05 -0.033226092897850425 0 0.00013089473755599436 -0.033251987993692535 0 9.8430485234744818e-05 -0.033226092897850425 0 0.00013089473755599436 -0.033251987993692535 0 6.6573900038189934e-05 -0.033213538096525073 0 0.00013089473755599436 -0.033251987993692535 0 5.1615816354172758e-05 -0.033188313938931194 0 6.6573900038189934e-05 -0.033213538096525073 0 0.00010432196785433423 -0.033302569744489169 0 0.00013089473755599436 -0.033251987993692535 0 5.1615816354172758e-05 -0.033188313938931194 0 -4.1079659302724322e-06 -0.033219921834979793 0 1.2535036158454903e-06 -0.03307892769502873 0 5.1615816354172758e-05 -0.033188313938931194 0 1.2535036158454903e-06 -0.03307892769502873 0 5.1615816354172758e-05 -0.033188313938931194 0 2.502874181014049e-05 -0.033204265592025446 0 4.1780689114414108e-05 -0.033247872778916915 0 2.502874181014049e-05 -0.033204265592025446 0 6.6573900038189934e-05 -0.033213538096525073 0 5.1615816354172758e-05 -0.033188313938931194 0 2.502874181014049e-05 -0.033204265592025446 0 6.6573900038189934e-05 -0.033213538096525073 0 4.1780689114414108e-05 -0.033247872778916915 0 2.502874181014049e-05 -0.033204265592025446 0 5.2768064155694434e-06 -0.033277635571337838 0 5.2768064155694434e-06 -0.033277635571337838 0 4.6485354615644351e-05 -0.033312473950652677 0 -8.5910936336383803e-05 -0.033360465762090979 0 5.5097113392955708e-05 -0.033221039039559995 0 2.502874181014049e-05 -0.033204265592025446 0 4.6485354615644351e-05 -0.033312473950652677 0 2.502874181014049e-05 -0.033204265592025446 0 5.2768064155694434e-06 -0.033277635571337838 0 4.6485354615644351e-05 -0.033312473950652677 0 4.1780689114414108e-05 -0.033247872778916915 0 0.00012267656447850683 -0.033209454881971197 0 -8.5910936336383803e-05 -0.033360465762090979 0 -6.3846157904627374e-05 -0.034947662001259767 0 -3.8463866785748843e-05 -0.034923004592515551 0 -8.8950139640185652e-05 -0.034903037160625504 0 1.2199634272560248e-05 -0.034267102971126222 0 -8.2188765998365194e-05 -0.034098249222256682 0 4.1780689114414108e-05 -0.033247872778916915 0 5.2768064155694434e-06 -0.033277635571337838 0 -8.5910936336383803e-05 -0.033360465762090979 0 5.0188873534754549e-05 -0.034917725543802021 0 1.5684461259479032e-06 -0.034950955389894935 0 2.9243606863462234e-05 -0.034921077147361396 0 1.5684461259479032e-06 -0.034950955389894935 0 1.0276238785229838e-05 -0.03493214901686327 0 2.9243606863462234e-05 -0.034921077147361396 0 1.2199634272560248e-05 -0.034267102971126222 0 -5.9439956426015525e-05 -0.035051788299181603 0 1.0276238785229838e-05 -0.03493214901686327 0 2.1088138854406057e-05 -0.034905608814824379 0 2.9243606863462234e-05 -0.034921077147361396 0 1.0276238785229838e-05 -0.03493214901686327 0 2.1088138854406057e-05 -0.034905608814824379 0 5.2994028689858662e-06 -0.034918720659558582 0 2.1088138854406057e-05 -0.034905608814824379 0 3.2707723017246426e-05 -0.034907090716164692 0 3.5406396128227476e-05 -0.034886129299807681 0 2.1088138854406057e-05 -0.034905608814824379 0 3.2707723017246426e-05 -0.034907090716164692 0 2.9243606863462234e-05 -0.034921077147361396 0 5.0188873534754549e-05 -0.034917725543802021 0 3.2707723017246426e-05 -0.034907090716164692 0 3.5406396128227476e-05 -0.034886129299807681 0 5.0188873534754549e-05 -0.034917725543802021 0 3.2707723017246426e-05 -0.034907090716164692 0 2.9243606863462234e-05 -0.034921077147361396 0 1.0276238785229838e-05 -0.03493214901686327 0 -7.8410588868597843e-07 -0.034954581704416447 0 5.2994028689858662e-06 -0.034918720659558582 0 -7.8410588868597843e-07 -0.034954581704416447 0 -2.6012475977967484e-06 -0.034959776112897231 0 5.2994028689858662e-06 -0.034918720659558582 0 -7.8410588868597843e-07 -0.034954581704416447 0 1.1497755692579853e-06 -0.034969400624960373 0 -8.034268440284837e-06 -0.03492029313788695 0 1.5684461259479032e-06 -0.034950955389894935 0 -7.8410588868597843e-07 -0.034954581704416447 0 -8.034268440284837e-06 -0.03492029313788695 0 1.56844612594