<?xml version="1.0"?>
<VTKFile type="UnstructuredGrid" version="0.1" byte_order="LittleEndian">
<UnstructuredGrid>
<Piece NumberOfPoints="31898" NumberOfCells="11152">
<Points>
<DataArray type="Float64" NumberOfComponents="3" format="ascii">
-0.5 -0.5 0 -0.47620991077874902 -0.44978878706170539 0 -0.49999999999999473 -0.42132396840504388 0 -0.5 -0.5 0 -0.47160970827802529 -0.4793630013852106 0 -0.47620991077874902 -0.44978878706170539 0 -0.5 -0.5 0 -0.47160970827802529 -0.4793630013852106 0 -0.44860394795025399 -0.5 0 -0.47160970827802529 -0.4793630013852106 0 -0.44860394795025399 -0.5 0 -0.4490820238307246 -0.45820516232899983 0 -0.44860394795025399 -0.5 0 -0.4490820238307246 -0.45820516232899983 0 -0.42881687682924802 -0.47781464288736519 0 -0.4490820238307246 -0.45820516232899983 0 -0.45555437223955858 -0.42914059360647611 0 -0.4490820238307246 -0.45820516232899983 0 -0.45555437223955858 -0.42914059360647611 0 -0.43867285131603428 -0.4271457417558665 0 -0.4490820238307246 -0.45820516232899983 0 -0.43867285131603428 -0.4271457417558665 0 -0.4263356171060747 -0.44269880333887462 0 -0.47160970827802529 -0.4793630013852106 0 -0.4490820238307246 -0.45820516232899983 0 -0.47620991077874902 -0.44978878706170539 0 -0.4490820238307246 -0.45820516232899983 0 -0.47620991077874902 -0.44978878706170539 0 -0.45555437223955858 -0.42914059360647611 0 -0.47620991077874902 -0.44978878706170539 0 -0.48101336032419229 -0.41069999664450008 0 -0.45555437223955858 -0.42914059360647611 0 -0.47620991077874902 -0.44978878706170539 0 -0.49999999999999473 -0.42132396840504388 0 -0.48101336032419229 -0.41069999664450008 0 -0.49999999999999473 -0.42132396840504388 0 -0.48101336032419229 -0.41069999664450008 0 -0.5 -0.393886241813306 0 -0.49999999999999473 -0.42132396840504388 0 -0.48101336032419229 -0.41069999664450008 0 -0.5 -0.393886241813306 0 -0.47854472220918332 -0.38978458738689759 0 -0.48422759779560409 -0.37130120630367158 0 -0.5 -0.393886241813306 0 -0.5 -0.36644851522156802 0 -0.48422759779560409 -0.37130120630367158 0 -0.48101336032419229 -0.41069999664450008 0 -0.5 -0.393886241813306 0 -0.47854472220918332 -0.38978458738689759 0 -0.48101336032419229 -0.41069999664450008 0 -0.47854472220918332 -0.38978458738689759 0 -0.46202672064839212 -0.40007602488395211 0 -0.48101336032419229 -0.41069999664450008 0 -0.46202672064839212 -0.40007602488395211 0 -0.47854472220918332 -0.38978458738689759 0 -0.46725442735267431 -0.37660061361585562 0 -0.46202672064839212 -0.40007602488395211 0 -0.47854472220918332 -0.38978458738689759 0 -0.46725442735267431 -0.37660061361585562 0 -0.48422759779560409 -0.37130120630367158 0 -0.46725442735267431 -0.37660061361585562 0 -0.46202672064839212 -0.40007602488395211 0 -0.46725442735267431 -0.37660061361585562 0 -0.45645674801697989 -0.38644133236760531 0 -0.46202672064839212 -0.40007602488395211 0 -0.46725442735267431 -0.37660061361585562 0 -0.45645674801697989 -0.38644133236760531 0 -0.4540003998136638 -0.37455519391687309 0 -0.45645674801697989 -0.38644133236760531 0 -0.46202672064839212 -0.40007602488395211 0 -0.44257020456291563 -0.38918913383950271 0 -0.46202672064839212 -0.40007602488395211 0 -0.44257020456291563 -0.38918913383950271 0 -0.44727608925983742 -0.41095911152778891 0 -0.46202672064839212 -0.40007602488395211 0 -0.44257020456291563 -0.38918913383950271 0 -0.44257020456291563 -0.38918913383950271 0 -0.44727608925983742 -0.41095911152778891 0 -0.43479358559901082 -0.4041454901736512 0 -0.44257020456291563 -0.38918913383950271 0 -0.4540003998136638 -0.37455519391687309 0 -0.44172858264042247 -0.37082207246888088 0 -0.45645674801697989 -0.38644133236760531 0 -0.44257020456291563 -0.38918913383950271 0 -0.4540003998136638 -0.37455519391687309 0 -0.46202672064839212 -0.40007602488395211 0 -0.45555437223955858 -0.42914059360647611 0 -0.44727608925983742 -0.41095911152778891 0 -0.46202672064839212 -0.40007602488395211 0 -0.45555437223955858 -0.42914059360647611 0 -0.48101336032419229 -0.41069999664450008 0 -0.46202672064839212 -0.40007602488395211 0 -0.45555437223955858 -0.42914059360647611 0 -0.44727608925983742 -0.41095911152778891 0 -0.43867285131603428 -0.4271457417558665 0 -0.43676601469929588 -0.41441201227470881 0 -0.44727608925983742 -0.41095911152778891 0 -0.43676601469929588 -0.41441201227470881 0 -0.43479358559901082 -0.4041454901736512 0 -0.45555437223955858 -0.42914059360647611 0 -0.44727608925983742 -0.41095911152778891 0 -0.43867285131603428 -0.4271457417558665 0 -0.43867285131603428 -0.4271457417558665 0 -0.42681803064840879 -0.42717069814352421 0 -0.4263356171060747 -0.44269880333887462 0 -0.42681803064840879 -0.42717069814352421 0 -0.41531815884496182 -0.42985383783075998 0 -0.4263356171060747 -0.44269880333887462 0 -0.42681803064840879 -0.42717069814352421 0 -0.42624289495594048 -0.42089725947505818 0 -0.42083332353326591 -0.42146747131641099 0 -0.42681803064840879 -0.42717069814352421 0 -0.43096994786351572 -0.41951492446283251 0 -0.42624289495594048 -0.42089725947505818 0 -0.43867285131603428 -0.4271457417558665 0 -0.42681803064840879 -0.42717069814352421 0 -0.43096994786351572 -0.41951492446283251 0 -0.43867285131603428 -0.4271457417558665 0 -0.43676601469929588 -0.41441201227470881 0 -0.43096994786351572 -0.41951492446283251 0 -0.43676601469929588 -0.41441201227470881 0 -0.43096994786351572 -0.41951492446283251 0 -0.42907264086257813 -0.41311715872526122 0 -0.43676601469929588 -0.41441201227470881 0 -0.42907264086257813 -0.41311715872526122 0 -0.43479358559901082 -0.4041454901736512 0 -0.42907264086257813 -0.41311715872526122 0 -0.43479358559901082 -0.4041454901736512 0 -0.42460885511582858 -0.40417321677700252 0 -0.42907264086257813 -0.41311715872526122 0 -0.41997834854398469 -0.41180534796019508 0 -0.42907264086257813 -0.41311715872526122 0 -0.42635027777857132 -0.41543594397746519 0 -0.41997834854398469 -0.41180534796019508 0 -0.42907264086257813 -0.41311715872526122 0 -0.41997834854398469 -0.41180534796019508 0 -0.42460885511582858 -0.40417321677700252 0 -0.42635027777857132 -0.41543594397746519 0 -0.41997834854398469 -0.41180534796019508 0 -0.42635027777857132 -0.41543594397746519 0 -0.42083332353326591 -0.42146747131641099 0 -0.41997834854398469 -0.41180534796019508 0 -0.43096994786351572 -0.41951492446283251 0 -0.42624289495594048 -0.42089725947505818 0 -0.42635027777857132 -0.41543594397746519 0 -0.43096994786351572 -0.41951492446283251 0 -0.42907264086257813 -0.41311715872526122 0 -0.42635027777857132 -0.41543594397746519 0 -0.42624289495594048 -0.42089725947505818 0 -0.42635027777857132 -0.41543594397746519 0 -0.42083332353326591 -0.42146747131641099 0 -0.42083332353326591 -0.42146747131641099 0 -0.41997834854398469 -0.41180534796019508 0 -0.40992282953163789 -0.42011435591993562 0 -0.41997834854398469 -0.41180534796019508 0 -0.39756877647335259 -0.40857286797681719 0 -0.41997834854398469 -0.41180534796019508 0 -0.40992282953163789 -0.42011435591993562 0 -0.39756877647335259 -0.40857286797681719 0 -0.40992282953163789 -0.42011435591993562 0 -0.41531815884496182 -0.42985383783075998 0 -0.39591554026262499 -0.42887225451549271 0 -0.41531815884496182 -0.42985383783075998 0 -0.39591554026262499 -0.42887225451549271 0 -0.41160927495564159 -0.44339431233754628 0 -0.42083332353326591 -0.42146747131641099 0 -0.40992282953163789 -0.42011435591993562 0 -0.41531815884496182 -0.42985383783075998 0 -0.42681803064840879 -0.42717069814352421 0 -0.42083332353326591 -0.42146747131641099 0 -0.41531815884496182 -0.42985383783075998 0 -0.44257020456291563 -0.38918913383950271 0 -0.42311368847744002 -0.37830224279505142 0 -0.42594061475171041 -0.39368797999533162 0 -0.44257020456291563 -0.38918913383950271 0 -0.42311368847744002 -0.37830224279505142 0 -0.44172858264042247 -0.37082207246888088 0 -0.44257020456291563 -0.38918913383950271 0 -0.42311368847744002 -0.37830224279505142 0 -0.42311368847744002 -0.37830224279505142 0 -0.42594061475171041 -0.39368797999533162 0 -0.416587075656149 -0.38785930376960043 0 -0.44257020456291563 -0.38918913383950271 0 -0.42594061475171041 -0.39368797999533162 0 -0.43479358559901082 -0.4041454901736512 0 -0.42594061475171041 -0.39368797999533162 0 -0.43479358559901082 -0.4041454901736512 0 -0.42460885511582858 -0.40417321677700252 0 -0.41997834854398469 -0.41180534796019508 0 -0.41325908582185972 -0.39811010703057192 0 -0.39770572831670092 -0.39911486077581648 0 -0.41997834854398469 -0.41180534796019508 0 -0.39770572831670092 -0.39911486077581648 0 -0.42594061475171041 -0.39368797999533162 0 -0.42460885511582858 -0.40417321677700252 0 -0.41325908582185972 -0.39811010703057192 0 -0.41997834854398469 -0.41180534796019508 0 -0.42460885511582858 -0.40417321677700252 0 -0.41325908582185972 -0.39811010703057192 0 -0.42594061475171041 -0.39368797999533162 0 -0.41325908582185972 -0.39811010703057192 0 -0.416587075656149 -0.38785930376960043 0 -0.41325908582185972 -0.39811010703057192 0 -0.416587075656149 -0.38785930376960043 0 -0.40403491357358612 -0.38133688525744702 0 -0.42311368847744002 -0.37830224279505142 0 -0.40403491357358612 -0.38133688525744702 0 -0.40365717239196519 -0.36741535175059892 0 -0.42311368847744002 -0.37830224279505142 0 -0.416587075656149 -0.38785930376960043 0 -0.40403491357358612 -0.38133688525744702 0 -0.40403491357358612 -0.38133688525744702 0 -0.39190790742475001 -0.38540387676521748 0 -0.39770572831670092 -0.39911486077581648 0 -0.40403491357358612 -0.38133688525744702 0 -0.39190790742475001 -0.38540387676521748 0 -0.3904578797192948 -0.37473938743617019 0 -0.41325908582185972 -0.39811010703057192 0 -0.40403491357358612 -0.38133688525744702 0 -0.39770572831670092 -0.39911486077581648 0 -0.39770572831670092 -0.39911486077581648 0 -0.37543310808941849 -0.38642437359143528 0 -0.39770572831670092 -0.39911486077581648 0 -0.37515920440272033 -0.40534038799344108 0 -0.37543310808941849 -0.38642437359143528 0 -0.39770572831670092 -0.39911486077581648 0 -0.37515920440272033 -0.40534038799344108 0 -0.39756877647335259 -0.40857286797681719
[...]
<PointData Scalars="" Vectors="displacement," Tensors="">
<DataArray type="Float64" Name="displacement" NumberOfComponents="3" format="ascii">
-0.02499819653090567 -0.02499859227330134 0 -0.023307011697738179 -0.024554334150484674 0 -0.021073767946609059 -0.024996668880347926 0 -0.02499819653090567 -0.02499859227330134 0 -0.024601256187319169 -0.024088416635129509 0 -0.023307011697738179 -0.024554334150484674 0 -0.02499819653090567 -0.02499859227330134 0 -0.024601256187319169 -0.024088416635129509 0 -0.024998599473076599 -0.022432356751937117 0 -0.024601256187319169 -0.024088416635129509 0 -0.024998599473076599 -0.022432356751937117 0 -0.024752879718789693 -0.023740592452191071 0 -0.024998599473076599 -0.022432356751937117 0 -0.024752879718789693 -0.023740592452191071 0 -0.025079623405497676 -0.021971455395296012 0 -0.024252166133667905 -0.024410235550754888 0 -0.024156987754986488 -0.024607228210829266 0 -0.024752879718789693 -0.023740592452191071 0 -0.026896157736127371 -0.023958236390435865 0 -0.027063688564748518 -0.022889695695695846 0 -0.024752879718789693 -0.023740592452191071 0 -0.027063688564748518 -0.022889695695695846 0 -0.026165209953705634 -0.022067492876154279 0 -0.024601256187319169 -0.024088416635129509 0 -0.024752879718789693 -0.023740592452191071 0 -0.023307011697738179 -0.024554334150484674 0 -0.024752879718789693 -0.023740592452191071 0 -0.023307011697738179 -0.024554334150484674 0 -0.022746185390300822 -0.024985361458322374 0 -0.023307011697738179 -0.024554334150484674 0 -0.021690764465024527 -0.024732990709275697 0 -0.022746185390300822 -0.024985361458322374 0 -0.023307011697738179 -0.024554334150484674 0 -0.021073767946609059 -0.024996668880347926 0 -0.021690764465024527 -0.024732990709275697 0 -0.021066191768774303 -0.024999997063924608 0 -0.020534339382195892 -0.025942992745862002 0 -0.01969431555451143 -0.024999995969604342 0 -0.021066935672562386 -0.025000321514353236 0 -0.021407957446889992 -0.025123439092066307 0 -0.01969431555451143 -0.024999995969604342 0 -0.019491157108217031 -0.026065393099531712 0 -0.018566677109225785 -0.02578344658139415 0 -0.01969431555451143 -0.024999995969604342 0 -0.018322427761990355 -0.024999995251212041 0 -0.018566677109225785 -0.02578344658139415 0 -0.020534339382195892 -0.025942992745862002 0 -0.01969431555451143 -0.024999995969604342 0 -0.019491157108217031 -0.026065393099531712 0 -0.020534339382195892 -0.025942992745862002 0 -0.019491157108217031 -0.026065393099531712 0 -0.020006684793397064 -0.026883558317885761 0 -0.021407957446889992 -0.025123439092066307 0 -0.022143745171378751 -0.024689773058956657 0 -0.019491157108217031 -0.026065393099531712 0 -0.018833218981654919 -0.026626866978120743 0 -0.020006684793397064 -0.026883558317885761 0 -0.019491157108217031 -0.026065393099531712 0 -0.018833218981654919 -0.026626866978120743 0 -0.018566677109225785 -0.02578344658139415 0 -0.018985401230426819 -0.025322062036103044 0 -0.022143745171378751 -0.024689773058956657 0 -0.017414610385860629 -0.026422157981108595 0 -0.017367225944111379 -0.026407039731742337 0 -0.017334878558993856 -0.026422456954780914 0 -0.017414610385860629 -0.026422157981108595 0 -0.017367225944111379 -0.026407039731742337 0 -0.01737428468881428 -0.026416212457513577 0 -0.017367225944111379 -0.026407039731742337 0 -0.017334878558993856 -0.026422456954780914 0 -0.017342672376382973 -0.026366926976243276 0 -0.028398662149850946 -0.024079642658050539 0 -0.02882556065286674 -0.023079284320933771 0 -0.027876184198807517 -0.023365276112823477 0 -0.022143745171378751 -0.024689773058956657 0 -0.022355580633413547 -0.024271268185515723 0 -0.02882556065286674 -0.023079284320933771 0 -0.027876184198807517 -0.023365276112823477 0 -0.028182117012020249 -0.022724261871368476 0 -0.017342672376382973 -0.026366926976243276 0 -0.01737428468881428 -0.026416212457513577 0 -0.017375480096301282 -0.026364943078686861 0 -0.017367225944111379 -0.026407039731742337 0 -0.017342672376382973 -0.026366926976243276 0 -0.01737428468881428 -0.026416212457513577 0 -0.028398662149850946 -0.024079642658050539 0 -0.026896157736127371 -0.023958236390435865 0 -0.027876184198807517 -0.023365276112823477 0 -0.022143745171378751 -0.024689773058956657 0 -0.024156987754986488 -0.024607228210829266 0 -0.021690764465024527 -0.024732990709275697 0 -0.02158188607263407 -0.025106748399201156 0 -0.022746185390300822 -0.024985361458322374 0 -0.027876184198807517 -0.023365276112823477 0 -0.027063688564748518 -0.022889695695695846 0 -0.027719590041033051 -0.022806119323124319 0 -0.027876184198807517 -0.023365276112823477 0 -0.027719590041033051 -0.022806119323124319 0 -0.028182117012020249 -0.022724261871368476 0 -0.026896157736127371 -0.023958236390435865 0 -0.027876184198807517 -0.023365276112823477 0 -0.027063688564748518 -0.022889695695695846 0 -0.027063688564748518 -0.022889695695695846 0 -0.027040371823006761 -0.022187300093088735 0 -0.026165209953705634 -0.022067492876154279 0 -0.027040371823006761 -0.022187300093088735 0 -0.026887139494177908 -0.021528394411193801 0 -0.026165209953705634 -0.022067492876154279 0 -0.027040371823006761 -0.022187300093088735 0 -0.027383212666702919 -0.022185079408043634 0 -0.027348158788821908 -0.021861674178632377 0 -0.027040371823006761 -0.022187300093088735 0 -0.027462150778258275 -0.022474623622680837 0 -0.027383212666702919 -0.022185079408043634 0 -0.027063688564748518 -0.022889695695695846 0 -0.027040371823006761 -0.022187300093088735 0 -0.027462150778258275 -0.022474623622680837 0 -0.027063688564748518 -0.022889695695695846 0 -0.027719590041033051 -0.022806119323124319 0 -0.027462150778258275 -0.022474623622680837 0 -0.027719590041033051 -0.022806119323124319 0 -0.027462150778258275 -0.022474623622680837 0 -0.027817092439953221 -0.022417921161159426 0 -0.027719590041033051 -0.022806119323124319 0 -0.027817092439953221 -0.022417921161159426 0 -0.028182117012020249 -0.022724261871368476 0 -0.027817092439953221 -0.022417921161159426 0 -0.028182117012020249 -0.022724261871368476 0 -0.028175174541596751 -0.022296070108722643 0 -0.026908748794306374 -0.020948994005394614 0 -0.026894539114527164 -0.020779396824142812 0 -0.027817092439953221 -0.022417921161159426 0 -0.027682822922565534 -0.022217577038360355 0 -0.027940013107347991 -0.021775359750753343 0 -0.027817092439953221 -0.022417921161159426 0 -0.027901891711582204 -0.022121634095583341 0 -0.028175174541596751 -0.022296070108722643 0 -0.026891479240823239 -0.020844541263060897 0 -0.026894539114527164 -0.020779396824142812 0 -0.027682822922565534 -0.022217577038360355 0 -0.027348158788821908 -0.021861674178632377 0 -0.027896366779260027 -0.02181372577235029 0 -0.027462150778258275 -0.022474623622680837 0 -0.027383212666702919 -0.022185079408043634 0 -0.027682822922565534 -0.022217577038360355 0 -0.027462150778258275 -0.022474623622680837 0 -0.027817092439953221 -0.022417921161159426 0 -0.027682822922565534 -0.022217577038360355 0 -0.027383212666702919 -0.022185079408043634 0 -0.027682822922565534 -0.022217577038360355 0 -0.027348158788821908 -0.021861674178632377 0 -0.027348158788821908 -0.021861674178632377 0 -0.027896366779260027 -0.02181372577235029 0 -0.027424218575669797 -0.021242902253429691 0 -0.026894539114527164 -0.020779396824142812 0 -0.027062953713856797 -0.019883215804239698 0 -0.027896366779260027 -0.02181372577235029 0 -0.027424218575669797 -0.021242902253429691 0 -0.028051631897290451 -0.020564013785032802 0 -0.027424218575669797 -0.021242902253429691 0 -0.026887139494177908 -0.021528394411193801 0 -0.02695102824576218 -0.020477470214778276 0 -0.026887139494177908 -0.021528394411193801 0 -0.02695102824576218 -0.020477470214778276 0 -0.026176845869208792 -0.021314900891900506 0 -0.027348158788821908 -0.021861674178632377 0 -0.027424218575669797 -0.021242902253429691 0 -0.026887139494177908 -0.021528394411193801 0 -0.027040371823006761 -0.022187300093088735 0 -0.027348158788821908 -0.021861674178632377 0 -0.026887139494177908 -0.021528394411193801 0 -0.02882556065286674 -0.023079284320933771 0 -0.029108248273498276 -0.022255806191254817 0 -0.028577614411802104 -0.02236532764947146 0 -0.017342672376382973 -0.026366926976243276 0 -0.017348808946956888 -0.026273393429081807 0 -0.017375480096301282 -0.026364943078686861 0 -0.022355580633413547 -0.024271268185515723 0 -0.022339881124369892 -0.023516780238215171 0 -0.029108248273498276 -0.022255806191254817 0 -0.028577614411802104 -0.02236532764947146 0 -0.028758231824377263 -0.022022195970249903 0 -0.02882556065286674 -0.023079284320933771 0 -0.028577614411802104 -0.02236532764947146 0 -0.028182117012020249 -0.022724261871368476 0 -0.028577614411802104 -0.02236532764947146 0 -0.028182117012020249 -0.022724261871368476 0 -0.028175174541596751 -0.022296070108722643 0 -0.027901891711582204 -0.022121634095583341 0 -0.028401725274577919 -0.021899090868036469 0 -0.028383973603073945 -0.021385968042601698 0 -0.026894539114527164 -0.020779396824142812 0 -0.026735177867326137 -0.019920559746166164 0 -0.028577614411802104 -0.02236532764947146 0 -0.028175174541596751 -0.022296070108722643 0 -0.028401725274577919 -0.021899090868036469 0 -0.027901891711582204 -0.022121634095583341 0 -0.028175174541596751 -0.022296070108722643 0 -0.028401725274577919 -0.021899090868036469 0 -0.028577614411802104 -0.02236532764947146 0 -0.028401725274577919 -0.021899090868036469 0 -0.028758231824377263 -0.022022195970249903 0 -0.028401725274577919 -0.021899090868036469 0 -0.028758231824377263 -0.022022195970249903 0 -0.028941846557896472 -0.021579707276274333 0 -0.029108248273498276 -0.022255806191254817 0 -0.028941846557896472 -0.021579707276274333 0 -0.029423780822802122 -0.021568479949665823 0 -0.029108248273498276 -0.022255806191254817 0 -0.028758231824377263 -0.022022195970249903 0 -0.028941846557896472 -0.021579707276274333 0 -0.028941846557896472 -0.021579707276274333 0 -0.028796337119965106 -0.02123153858342465 0 -0.028383973603073945 -0.021385968042601698 0 -0.028941846557896472 -0.021579707276274333 0 -0.028796337119965106 -0.02123153858342465 0 -0.029083390046198986 -0.021196329392113272 0 -0.028401725274577919 -0.021899090868036469 0 -0.028941846557896472 -0.021579707276274333 0 -0.028383973603073945 -0.021385968042601698 0 -0.026735177867326137 -0.019920559746166164 0 -0.026132785386774798 -0.018581613039583198 0 -0.026931915376972058 -0.019588705691816845 0 -0.026725090726340921 -0.018839660646914041 0 -0.027349540591693724 -0.018848178892189111 0 -0.026931915376972058 -0.019588705691816845 0 -0.026725090726340921 -0.018839660646914041 0 -0.026618468199874654 -0.01958461624860966 0 -0.027152155317878592 -0.018616283604839377 0 -0.026132785386774798 -0.018581613039583198 0 -0.028767225013024856 -0.020780302516809335 0 -0.029083390046198986 -0.021196329392113272 0 -0.029217232638798527 -0.020806069697458525 0 -0.028796337119965106 -0.02123153858342465 0 -0.028767225013024856 -0.020780302516809335 0 -0.029083390046198986 -0.021196329392113272 0 -0.026132785386774798 -0.018581613039583198 0 -0.024736672169317239 -0.019047380186481805 0 -0.028796337119965106 -0.02123153858342465 0 -0.028383973603073945 -0.021385968042601698 0 -0.028767225013024856 -0.020780302516809335 0 -0.026512974188592241 -0.020332668995503966 0 -0.026931915376972058 -0.019588705691816845 0 -0.026618468199874654 -0.01958461624860966 0 -0.027424218575669797 -0.021242902253429691 0 -0.02695102824576218 -0.020477470214778276 0 -0.028051631897290451 -0.020564013785032802 0 -0.0282205812808442 -0.01935622385989634 0 -0.02695102824576218 -0.020477470214778276 0 -0.028051631897290451 -0.020564013785032802 0 -0.027152155317878592 -0.018616283604839377 0 -0.027062953713856797 -0.019883215804239698 0 -0.0282205812808442 -0.01935622385989634 0 -0.02695102824576218 -0.020477470214778276 0 -0.026600078209048333 -0.019340276504516904 0 -0.02695102824576218 -0.020477470214778276 0 -0.02600873725999131 -0.020319870081048321 0 -0.026600078209048333 -0.019340276504516904 0 -0.02600873725999131 -0.020319870081048321 0 -0.024997177487314465 -0.019319752104637107 0 -0.026600078209048333 -0.019340276504516904 0 -0.02695102824576218 -0.020477470214778276 0 -0.02600873725999131 -0.020319870081048321 0 -0.026176845869208792 -0.021314900891900506 0 -0.02600873725999131 -0.020319870081048321 0 -0.025424252048187424 -0.020903366249534386 0 -0.026176845869208792 -0.021314900891900506 0 -0.025739700325972815 -0.020948888108407324 0 -0.02542791522582034 -0.020124423135204225 0 -0.025412608114235267 -0.021163542900194798 0 -0.027072806452362475 -0.020151365089114762 0 -0.0268798868025216 -0.01943619597402307 0 -0.026047456261062991 -0.019600312146408238 0 -0.026202738998401295 -0.019885162506785809 0 -0.025633930485893245 -0.019546136637721982 0 -0.026202738998401295 -0.019885162506785809 0 -0.026203341998269843 -0.019895297226534034 0 -0.026202738998401295 -0.019885162506785809 0 -0.026205955107494055 -0.019478250871257902 0 -0.02600873725999131 -0.020319870081048321 0 -0.025424252048187424 -0.020903366249534386 0 -0.025210912169701099 -0.020111253087637324 0 -0.02600873725999131 -0.020319870081048321 0 -0.025210912169701099 -0.020111253087637324 0 -0.024997177487314465 -0.019319752104637107 0 -0.026205955107494055 -0.019478250871257902 0 -0.026197950676607844 -0.018856906319525694 0 -0.0268798868025216 -0.01943619597402307 0 -0.026395150470317881 -0.019176979701481453 0 -0.026686768263730187 -0.018715673862217497 0 -0.026395150470317881 -0.019176979701481453 0 -0.026047456261062991 -0.019600312146408238 0 -0.026117994919612468 -0.018704219520766278 0 -0.026047456261062991 -0.019600312146408238 0 -0.025506972215103115 -0.018619477895103285 0 -0.026117994919612468 -0.018704219520766278 0 -0.026395150470317881 -0.019176979701481453 0 -0.026117994919612468 -0.018704219520766278 0 -0.026686768263730187 -0.018715673862217497 0 -0.0268798868025216 -0.01943619597402307 0 -0.026395150470317881 -0.019176979701481453 0 -0.026047456261062991 -0.019600312146408238 0 -0.025000472614673769 -0.019047974152702735 0 -0.025633930485893245 -0.019546136637721982 0 -0.025000002338965651 -0.01904732779377771 0 -0.026047456261062991 -0.019600312146408238 0 -0.025506972215103115 -0.018619477895103285 0 -0.024999916931369739 -0.019048211968063507 0 -0.02542791522582034 -0.020124423135204225 0 -0.024999379884281407 -0.020499344744995353 0 -0.02542791522582034 -0.020124423135204225 0 -0.025412608114235267 -0.021163542900194798 0 -0.024999379884281407 -0.020499344744995353 0 -0.025412608114235267 -0.021163542900194798 0 -0.024999379884281407 -0.020499344744995353 0 -0.025079623405497676 -0.021971455395296012 0 -0.024998599473076599 -0.022432356751937117 0 -0.024999379884281407 -0.020499344744995353 0 -0.025079623405497676 -0.021971455395296012 0 -0.025412608114235267 -0.021163542900194798 0 -0.025079623405497676 -0.021971455395296012 0 -0.025366106480290158 -0.022029401776444524 0 -0.024752879718789693 -0.023740592452191071 0 -0.025079623405497676 -0.021971455395296012 0 -0.025366106480290158 -0.022029401776444524 0 -0.024752879718789693 -0.023740592452191071 0 -0.025366106480290158 -0.022029401776444524 0 -0.026165209953705634 -0.022067492876154279 0 -0.025366106480290158 -0.022029401776444524 0 -0.026165209953705634 -0.022067492876154279 0 -0.025743303941074457 -0.021506666465821809 0 -0.026165209953705634 -0.022067492876154279 0 -0.026176845869208792 -0.021314900891900506 0 -0.025743303941074457 -0.021506666465821809 0 -0.026887139494177908 -0.021528394411193801 0 -0.026165209953705634 -0.022067492876154279 0 -0.026176845869208792 -0.021314900891900506 0 -0.025712961469137641 -0.020953834085762384 0 -0.026176845869208792 -0.021314900891900506 0 -0.025733858133122491 -0.021052440719921541 0 -0.026176845869208792 -0.021314900891900506 0 -0.025733858133122491 -0.021052440719921541 0 -0.025743303941074457 -0.021506666465821809 0 -0.026202738998401295 -0.019885162506785809 0 -0.026253941379382622 -0.020050417856488728 0 -0.025412608114235267 -0.021163542900194798 0 -0.025733858133122491 -0.021052440719921541 0 -0.025743303941074457 -0.021506666465821809 0 -0.025739700325972815 -0.020948888108407324 0 -0.025412608114235267 -0.021163542900194798 0 -0.025733858133122491 -0.021052440719921541 0 -0.025412608114235267 -0.021163542900194798 0 -0.025366106480290158 -0.022029401776444524 0 -0.025743303941074457 -0.021506666465821809 0 -0.010703877114315592 -0.026218098082919118 0 -0.0095803231257537095 -0.024842849406286335 0 -0.012580614137666968 -0.026985759405127888 0 -0.012511878428152007 -0.028491993138736418 0 -0.011712700721238841 -0.027342217068585885 0 -0.013738189310225612 -0.027343531571580516 0 -0.012793044104310643 -0.027030116553000055 0 -0.012712244067964902 -0.028095886073850052 0 -0.013738189310225612 -0.027343531571580516 0 -0.013686514233615442 -0.028270468135191108 0 -0.012712244067964902 -0.028095886073850052 0 -0.013738189310225612 -0.027343531571580516 0 -0.014599345169744626 -0.027744360111668084 0 -0.013686514233615442 -0.028270468135191108 0 -0.013738189310225612 -0.027343531571580516 0 -0.013378919763735234 -0.026521777568401319 0 -0.014127149668236907 -0.026428621529812801 0 -0.013738189310225612 -0.027343531571580516 0 -0.013378919763735234 -0.026521777568401319 0 -0.012793044104310643 -0.027030116553000055 0 -0.010703877114315592 -0.026218098082919118 0 -0.011070948965712389 -0.026161457704149123 0 -0.013378919763735234 -0.026521777568401319 0 -0.012793044104310643 -0.027030116553000055 0 -0.012817035127964699 -0.025914373065434215 0 -0.012580614137666968 -0.026985759405127888 0 -0.012817035127964699 -0.025914373065434215 0 -0.011543595671496864 -0.026177779176670381 0 -0.012817035127964699 -0.025914373065434215 0 -0.012834761559201702 -0.024999777524518214 0 -0.01367872590831443 -0.025729905750021244 0 -0.012817035127964699 -0.025914373065434215 0 -0.012834761559201702 -0.024999777524518214 0 -0.011998028930438331 -0.025483453842455244 0 -0.012834761559201702 -0.024999777524518214 0 -0.01367872590831443 -0.025729905750021244 0 -0.014206729932297687 -0.024999968959445888 0 -0.013378919763735234 -0.026521777568401319 0 -0.012817035127964699 -0.025914373065434215 0 -0.01367872590831443 -0.025729905750021244 0 -0.013378919763735234 -0.026521777568401319 0 -0.01367872590831443 -0.025729905750021244 0 -0.014127149668236907 -0.026428621529812801 0 -0.014127149668236907 -0.026428621529812801 0 -0.014576668762072253 -0.025654267542834827 0 -0.01489449832720865 -0.026311647238799807 0 -0.01367872590831443 -0.025729905750021244 0 -0.014127149668236907 -0.026428621529812801 0 -0.014576668762072253 -0.025654267542834827 0 -0.014206729932297687 -0.024999968959445888 0 -0.014576668762072253 -0.025654267542834827 0 -0.015578598925892986 -0.024999958502231568 0 -0.01367872590831443 -0.025729905750021244 0 -0.014206729932297687 -0.024999968959445888 0 -0.014576668762072253 -0.025654267542834827 0 -0.014576668762072253 -0.025654267542834827 0 -0.015578598925892986 -0.024999958502231568 0 -0.015280571844655212 -0.025802463930305424 0 -0.015280571844655212 -0.025802463930305424 0 -0.01489449832720865 -0.026311647238799807 0 -0.015687467300160386 -0.026281160473981203 0 -0.014576668762072253 -0.025654267542834827 0 -0.015280571844655212 -0.025802463930305424 0 -0.01489449832720865 -0.026311647238799807 0 -0.01489449832720865 -0.026311647238799807 0 -0.015284828356456493 -0.02679710233935376 0 -0.015687467300160386 -0.026281160473981203 0 -0.015284828356456493 -0.02679710233935376 0 -0.015129076813956338 -0.027444633112919396 0 -0.015634594713258641 -0.027194661433901163 0 -0.015284828356456493 -0.02679710233935376 0 -0.014613570865307925 -0.027006985384207597 0 -0.015129076813956338 -0.027444633112919396 0 -0.01489449832720865 -0.026311647238799807 0 -0.015284828356456493 -0.02679710233935376 0 -0.014613570865307925 -0.027006985384207597 0 -0.013738189310225612 -0.027343531571580516 0 -0.014127149668236907 -0.026428621529812801 0 -0.014613570865307925 -0.027006985384207597 0 -0.014127149668236907