<?xml version="1.0"?>
<VTKFile type="UnstructuredGrid" version="0.1" byte_order="LittleEndian">
<UnstructuredGrid>
<Piece NumberOfPoints="30578" NumberOfCells="10723">
<Points>
<DataArray type="Float64" NumberOfComponents="3" format="ascii">
-0.5 -0.5 0 -0.47439485679867832 -0.48072581506667478 0 -0.5 -0.44765434486020428 0 -0.5 -0.5 0 -0.47439485679867832 -0.48072581506667478 0 -0.43702443379937372 -0.49999999999999922 0 -0.47439485679867832 -0.48072581506667478 0 -0.45530669598391149 -0.47718009944797551 0 -0.43702443379937372 -0.49999999999999922 0 -0.47439485679867832 -0.48072581506667478 0 -0.45530669598391149 -0.47718009944797551 0 -0.4597353119515426 -0.45943449384344293 0 -0.45530669598391149 -0.47718009944797551 0 -0.44381084376742141 -0.47114793899167112 0 -0.4597353119515426 -0.45943449384344293 0 -0.45530669598391149 -0.47718009944797551 0 -0.44381084376742141 -0.47114793899167112 0 -0.43702443379937372 -0.49999999999999922 0 -0.44381084376742141 -0.47114793899167112 0 -0.43702443379937372 -0.49999999999999922 0 -0.45059725373546922 -0.44229587798334291 0 -0.4339166039271336 -0.43498117536117131 0 -0.43309128002320102 -0.45351235807576151 0 -0.44381084376742141 -0.47114793899167112 0 -0.45059725373546922 -0.44229587798334291 0 -0.4597353119515426 -0.45943449384344293 0 -0.44381084376742141 -0.47114793899167112 0 -0.45059725373546922 -0.44229587798334291 0 -0.43309128002320102 -0.45351235807576151 0 -0.44381084376742141 -0.47114793899167112 0 -0.45059725373546922 -0.44229587798334291 0 -0.4597353119515426 -0.45943449384344293 0 -0.47505511338101108 -0.44868394208069429 0 -0.46517432262153441 -0.43649963461163338 0 -0.45059725373546922 -0.44229587798334291 0 -0.4597353119515426 -0.45943449384344293 0 -0.46517432262153441 -0.43649963461163338 0 -0.47505511338101108 -0.44868394208069429 0 -0.47820614292347569 -0.42776699273468149 0 -0.46517432262153441 -0.43649963461163338 0 -0.47505511338101108 -0.44868394208069429 0 -0.47820614292347569 -0.42776699273468149 0 -0.47439485679867832 -0.48072581506667478 0 -0.47505511338101108 -0.44868394208069429 0 -0.5 -0.44765434486020428 0 -0.47439485679867832 -0.48072581506667478 0 -0.4597353119515426 -0.45943449384344293 0 -0.47505511338101108 -0.44868394208069429 0 -0.47505511338101108 -0.44868394208069429 0 -0.5 -0.44765434486020428 0 -0.47820614292347569 -0.42776699273468149 0 -0.5 -0.44765434486020428 0 -0.49656450065014057 -0.42151023988558672 0 -0.47820614292347569 -0.42776699273468149 0 -0.5 -0.44765434486020428 0 -0.49656450065014057 -0.42151023988558672 0 -0.50000000000000089 -0.37904661106745707 0 -0.49656450065014057 -0.42151023988558672 0 -0.48135717246594062 -0.40685004338866881 0 -0.47820614292347569 -0.42776699273468149 0 -0.49656450065014057 -0.42151023988558672 0 -0.48135717246594062 -0.40685004338866881 0 -0.48135717246594062 -0.40685004338866881 0 -0.47820614292347569 -0.42776699273468149 0 -0.48135717246594062 -0.40685004338866881 0 -0.47820614292347569 -0.42776699273468149 0 -0.45738366370351707 -0.41344381697501481 0 -0.49656450065014057 -0.42151023988558672 0 -0.48135717246594062 -0.40685004338866881 0 -0.50000000000000089 -0.37904661106745707 0 -0.50000000000000089 -0.37904661106745707 0 -0.48466894952205442 -0.38486603086372417 0 -0.48717439863114548 -0.36823452950912272 0 -0.48135717246594062 -0.40685004338866881 0 -0.50000000000000089 -0.37904661106745707 0 -0.48466894952205442 -0.38486603086372417 0 -0.48466894952205442 -0.38486603086372417 0 -0.48717439863114548 -0.36823452950912272 0 -0.50000000000000089 -0.37904661106745707 0 -0.48466894952205442 -0.38486603086372417 0 -0.48135717246594062 -0.40685004338866881 0 -0.48466894952205442 -0.38486603086372417 0 -0.46593083509403682 -0.39197871725165279 0 -0.48135717246594062 -0.40685004338866881 0 -0.48466894952205442 -0.38486603086372417 0 -0.48135717246594062 -0.40685004338866881 0 -0.46593083509403682 -0.39197871725165279 0 -0.48466894952205442 -0.38486603086372417 0 -0.47195833844942919 -0.37959069520904498 0 -0.46593083509403682 -0.39197871725165279 0 -0.48466894952205442 -0.38486603086372417 0 -0.46593083509403682 -0.39197871725165279 0 -0.48466894952205442 -0.38486603086372417 0 -0.47195833844942919 -0.37959069520904498 0 -0.48717439863114548 -0.36823452950912272 0 -0.46593083509403682 -0.39197871725165279 0 -0.44890944387521442 -0.39029302340116001 0 -0.45132291774153199 -0.37789636588759368 0 -0.47195833844942919 -0.37959069520904498 0 -0.46593083509403682 -0.39197871725165279 0 -0.45132291774153199 -0.37789636588759368 0 -0.46593083509403682 -0.39197871725165279 0 -0.45132291774153199 -0.37789636588759368 0 -0.48135717246594062 -0.40685004338866881 0 -0.46593083509403682 -0.39197871725165279 0 -0.45738366370351707 -0.41344381697501481 0 -0.46593083509403682 -0.39197871725165279 0 -0.44275815558040038 -0.40077469311046232 0 -0.45738366370351707 -0.41344381697501481 0 -0.46593083509403682 -0.39197871725165279 0 -0.44275815558040038 -0.40077469311046232 0 -0.46593083509403682 -0.39197871725165279 0 -0.44275815558040038 -0.40077469311046232 0 -0.44890944387521442 -0.39029302340116001 0 -0.44275815558040038 -0.40077469311046232 0 -0.44064580868350911 -0.39542861624611658 0 -0.44890944387521442 -0.39029302340116001 0 -0.44225344557501872 -0.38376649822575309 0 -0.45132291774153199 -0.37789636588759368 0 -0.43671500038902772 -0.36381401452353412 0 -0.44890944387521442 -0.39029302340116001 0 -0.44225344557501872 -0.38376649822575309 0 -0.45132291774153199 -0.37789636588759368 0 -0.44064580868350911 -0.39542861624611658 0 -0.44225344557501872 -0.38376649822575309 0 -0.43040194378266172 -0.3881600185019185 0 -0.44064580868350911 -0.39542861624611658 0 -0.44890944387521442 -0.39029302340116001 0 -0.44225344557501872 -0.38376649822575309 0 -0.47820614292347569 -0.42776699273468149 0 -0.46517432262153441 -0.43649963461163338 0 -0.45738366370351707 -0.41344381697501481 0 -0.45059725373546922 -0.44229587798334291 0 -0.45738366370351707 -0.41344381697501481 0 -0.45059725373546922 -0.44229587798334291 0 -0.46517432262153441 -0.43649963461163338 0 -0.45738366370351707 -0.41344381697501481 0 -0.44275815558040038 -0.40077469311046232 0 -0.45738366370351707 -0.41344381697501481 0 -0.44164244492799948 -0.42121090558557039 0 -0.45059725373546922 -0.44229587798334291 0 -0.45738366370351707 -0.41344381697501481 0 -0.44164244492799948 -0.42121090558557039 0 -0.45059725373546922 -0.44229587798334291 0 -0.44164244492799948 -0.42121090558557039 0 -0.4339166039271336 -0.43498117536117131 0 -0.4339166039271336 -0.43498117536117131 0 -0.42355654769347711 -0.414558964497861 0 -0.41671115160429401 -0.44095791049380378 0 -0.44164244492799948 -0.42121090558557039 0 -0.4339166039271336 -0.43498117536117131 0 -0.42355654769347711 -0.414558964497861 0 -0.44275815558040038 -0.40077469311046232 0 -0.44164244492799948 -0.42121090558557039 0 -0.42355654769347711 -0.414558964497861 0 -0.42355654769347711 -0.414558964497861 0 -0.41056920252370888 -0.3963363404412637 0 -0.40050668374064252 -0.41734442193795029 0 -0.42355654769347711 -0.414558964497861 0 -0.41671115160429401 -0.44095791049380378 0 -0.42355654769347711 -0.414558964497861 0 -0.40050668374064252 -0.41734442193795029 0 -0.41671115160429401 -0.44095791049380378 0 -0.44225344557501872 -0.38376649822575309 0 -0.43040194378266172 -0.3881600185019185 0 -0.43671500038902772 -0.36381401452353412 0 -0.43040194378266172 -0.3881600185019185 0 -0.43671500038902772 -0.36381401452353412 0 -0.44064580868350911 -0.39542861624611658 0 -0.42355654769347711 -0.414558964497861 0 -0.43040194378266172 -0.3881600185019185 0 -0.42355654769347711 -0.414558964497861 0 -0.43040194378266172 -0.3881600185019185 0 -0.44275815558040038 -0.40077469311046232 0 -0.44064580868350911 -0.39542861624611658 0 -0.42355654769347711 -0.414558964497861 0 -0.44064580868350911 -0.39542861624611658 0 -0.43040194378266172 -0.3881600185019185 0 -0.42355654769347711 -0.414558964497861 0 -0.43040194378266172 -0.3881600185019185 0 -0.41056920252370888 -0.3963363404412637 0 -0.43040194378266172 -0.3881600185019185 0 -0.4079689369259607 -0.37224253963894771 0 -0.43040194378266172 -0.3881600185019185 0 -0.41056920252370888 -0.3963363404412637 0 -0.4079689369259607 -0.37224253963894771 0 -0.41056920252370888 -0.3963363404412637 0 -0.39195929229331972 -0.37982250283040359 0 -0.4079689369259607 -0.37224253963894771 0 -0.41056920252370888 -0.3963363404412637 0 -0.39195929229331972 -0.37982250283040359 0 -0.39357845321732049 -0.39746174547711199 0 -0.41056920252370888 -0.3963363404412637 0 -0.39357845321732049 -0.39746174547711199 0 -0.40050668374064252 -0.41734442193795029 0 -0.39357845321732049 -0.39746174547711199 0 -0.38114412328536468 -0.40833987260765031 0 -0.36544727141479139 -0.39026932065168712 0 -0.39195929229331972 -0.37982250283040359 0 -0.37549160074202448 -0.3732971907138336 0 -0.36544727141479139 -0.39026932065168712 0 -0.39195929229331972 -0.37982250283040359 0 -0.39357845321732049 -0.39746174547711199 0 -0.36544727141479139 -0.39026932065168712 0 -0.40050668374064252 -0.41734442193795029 0 -0.3944977858259317 -0.43926335073686201 0 -0.41671115160429401 -0.44095791049380378 0 -0.40050668374064252 -0.41734442193795029 0 -0.38028594703985957 -0.42392304976487449 0 -0.3944977858259317 -0.43926335073686201 0 -0.39357845321732049 -0.39746174547711199 0 -0.40050668374064252 -0.41734442193795029 0 -0.38114412328536468 -0.40833987260765031 0 -0.40050668374064252 -0.41734442193795029 0 -0.38114412328536468 -0.40833987260765031 0 -0.38028594703985957 -0.42392304976487449 0 -0.38114412328536468 -0.40833987260765031 0 -0.38028594703985957 -0.42392304976487449 0 -0.36590226101420908 -0.41270082520662749 0 -0.38028594703985957 -0.42392304976487449 0 -0.3944977858259317 -0.43926335073686201 0 -0.3723601590800425 -0.44005613486137668 0 -0.3944977858259317 -0.43926335073686201 0 -0.38265619596279349 -0.45813348326120767 0 -0.3723601590800425 -0.44005613486137668 0 -0.40093272222703252 -0.45142790024540502 0 -0.3944977858
[...]
<PointData Scalars="" Vectors="displacement," Tensors="">
<DataArray type="Float64" Name="displacement" NumberOfComponents="3" format="ascii">
0.054996161557853418 0.054996164738809292 0 0.053857615442027405 0.053355413187749612 0 0.049249197654479965 0.05499651175434761 0 0.054996161557853418 0.054996164738809292 0 0.053857615442027405 0.053355413187749612 0 0.054995780684641588 0.048084813235423664 0 0.053857615442027405 0.053355413187749612 0 0.053855360078762883 0.051820620277454627 0 0.054995780684641588 0.048084813235423664 0 0.053857615442027405 0.053355413187749612 0 0.053855360078762883 0.051820620277454627 0 0.052565404146954806 0.052822311109760767 0 0.053855360078762883 0.051820620277454627 0 0.05349881299864459 0.051988563843043387 0 0.052565404146954806 0.052822311109760767 0 0.053855360078762883 0.051820620277454627 0 0.05349881299864459 0.051988563843043387 0 0.054995780684641588 0.048084813235423664 0 0.054912288473252795 0.050094500900733578 0 0.054999222558485966 0.048073303646595331 0 0.055865378091096346 0.049219520867502677 0 0.055979433886716896 0.049147382591730474 0 0.056215817872064318 0.048720940147860159 0 0.05349881299864459 0.051988563843043387 0 0.052694672531879101 0.052272235511878373 0 0.052565404146954806 0.052822311109760767 0 0.056633984225853549 0.048474113371747042 0 0.055865378091096346 0.049219520867502677 0 0.056215817872064318 0.048720940147860159 0 0.054912288473252795 0.050094500900733578 0 0.054484813733750678 0.050769344349576064 0 0.052565404146954806 0.052822311109760767 0 0.05123155718688318 0.054564751987202301 0 0.052986066193911489 0.05309708824974077 0 0.052694672531879101 0.052272235511878373 0 0.052565404146954806 0.052822311109760767 0 0.052986066193911489 0.05309708824974077 0 0.05123155718688318 0.054564751987202301 0 0.054081904724550107 0.054591802123076343 0 0.052986066193911489 0.05309708824974077 0 0.050884709803084606 0.054695545142780209 0 0.051323758499671197 0.055143538669738014 0 0.053857615442027405 0.053355413187749612 0 0.05123155718688318 0.054564751987202301 0 0.049249197654479965 0.05499651175434761 0 0.053857615442027405 0.053355413187749612 0 0.052565404146954806 0.052822311109760767 0 0.05123155718688318 0.054564751987202301 0 0.05123155718688318 0.054564751987202301 0 0.049249197654479965 0.05499651175434761 0 0.047834593328076651 0.055805285028509809 0 0.049249197654479965 0.05499651175434761 0 0.046500305796544128 0.055259456871177254 0 0.047834593328076651 0.055805285028509809 0 0.049249197654479965 0.05499651175434761 0 0.046500305796544128 0.055259456871177254 0 0.041693180379520085 0.0550009556113693 0 0.046500305796544128 0.055259456871177254 0 0.04636794461637473 0.05580564935732471 0 0.047834593328076651 0.055805285028509809 0 0.045279280587730661 0.056226151673671169 0 0.049695360749873949 0.055087536548395849 0 0.049695360749873949 0.055087536548395849 0 0.051323758499671197 0.055143538669738014 0 0.056852049049554869 0.054690027275051144 0 0.054081904724550107 0.054591802123076343 0 0.0560881246122822 0.051311795285239804 0 0.046500305796544128 0.055259456871177254 0 0.044857525812507439 0.057010854281548472 0 0.041693180379520085 0.0550009556113693 0 0.041694654159039085 0.054999782769198494 0 0.04225931880640877 0.056589206695931753 0 0.040390937935810271 0.056263074538185451 0 0.044857525812507439 0.057010854281548472 0 0.041693180379520085 0.0550009556113693 0 0.042375491695972899 0.056677032171791035 0 0.043291466092327015 0.055829694009193839 0 0.040255236370719899 0.056226290268504425 0 0.041695492753906653 0.055000750462920286 0 0.043291466092327015 0.055829694009193839 0 0.049077166951405224 0.054605852568023139 0 0.047667536641777947 0.054397894259743083 0 0.04814667091053243 0.055570497250562047 0 0.049695360749873949 0.055087536548395849 0 0.043291466092327015 0.055829694009193839 0 0.049695360749873949 0.055087536548395849 0 0.051955026225323962 0.053799591381517582 0 0.041934083443694856 0.056456162908861705 0 0.041422088218853119 0.057655396149014604 0 0.042666324079753702 0.058216190566662149 0 0.043291466092327015 0.055829694009193839 0 0.051955026225323962 0.053799591381517582 0 0.041934083443694856 0.056456162908861705 0 0.041422088218853119 0.057655396149014604 0 0.040390937935810271 0.056263074538185451 0 0.056783789447639212 0.048448747215536297 0 0.056704687671666344 0.049457621368329277 0 0.055759763581493829 0.049266534028891674 0 0.041422088218853119 0.057655396149014604 0 0.042666324079753702 0.058216190566662149 0 0.041236839469026045 0.059654511853034421 0 0.051955026225323962 0.053799591381517582 0 0.048329512164621807 0.054650500659048168 0 0.056852049049554869 0.054690027275051144 0 0.058587275161678505 0.05247413765235364 0 0.0560881246122822 0.051311795285239804 0 0.058587275161678505 0.05247413765235364 0 0.057216726520563692 0.049858601706432248 0 0.0560881246122822 0.051311795285239804 0 0.051955026225323962 0.053799591381517582 0 0.058377385700078777 0.049001479557092012 0 0.056783789447639212 0.048448747215536297 0 0.057216726520563692 0.049858601706432248 0 0.056704687671666344 0.049457621368329277 0 0.057216726520563692 0.049858601706432248 0 0.057205593290743949 0.049882820516149 0 0.056704687671666344 0.049457621368329277 0 0.056214513904717614 0.049907056475773627 0 0.055759763581493829 0.049266534028891674 0 0.05449434055563826 0.050411674386601185 0 0.056704687671666344 0.049457621368329277 0 0.056214513904717614 0.049907056475773627 0 0.055759763581493829 0.049266534028891674 0 0.057205593290743949 0.049882820516149 0 0.056214513904717614 0.049907056475773627 0 0.056579803399802599 0.050859561713620161 0 0.057205593290743949 0.049882820516149 0 0.056704687671666344 0.049457621368329277 0 0.056214513904717614 0.049907056475773627 0 0.054081904724550107 0.054591802123076343 0 0.052986066193911489 0.05309708824974077 0 0.0560881246122822 0.051311795285239804 0 0.054484813733750678 0.050769344349576064 0 0.056146814405962288 0.051312037706927778 0 0.052694672531879101 0.052272235511878373 0 0.052986066193911489 0.05309708824974077 0 0.0560881246122822 0.051311795285239804 0 0.057216726520563692 0.049858601706432248 0 0.0560881246122822 0.051311795285239804 0 0.056102513914138154 0.049723397789856731 0 0.055865378091096346 0.049219520867502677 0 0.0560881246122822 0.051311795285239804 0 0.056102513914138154 0.049723397789856731 0 0.055865378091096346 0.049219520867502677 0 0.056102513914138154 0.049723397789856731 0 0.055979433886716896 0.049147382591730474 0 0.055979433886716896 0.049147382591730474 0 0.056452386695785103 0.048994013711218101 0 0.055987755588544644 0.048799841152766137 0 0.056102513914138154 0.049723397789856731 0 0.055979433886716896 0.049147382591730474 0 0.056452386695785103 0.048994013711218101 0 0.057216726520563692 0.049858601706432248 0 0.056102513914138154 0.049723397789856731 0 0.056452386695785103 0.048994013711218101 0 0.059572130319717906 0.039070189165423909 0 0.059962268919977621 0.038779984656063159 0 0.059533781506314082 0.038525592295802713 0 0.058300239531322656 0.043904548131431173 0 0.057534378525964491 0.043858762033919703 0 0.059572130319717906 0.039070189165423909 0 0.059533781506314082 0.038525592295802713 0 0.059080774936462785 0.038904619293398945 0 0.056214513904717614 0.049907056475773627 0 0.056579803399802599 0.050859561713620161 0 0.05449434055563826 0.050411674386601185 0 0.057350747653914125 0.045608204928378047 0 0.045599013660893223 0.054203199290549696 0 0.057205593290743949 0.049882820516149 0 0.056452386695785103 0.048994013711218101 0 0.057545350953176859 0.049388609380732078 0 0.058300239531322656 0.043904548131431173 0 0.057350747653914125 0.045608204928378047 0 0.057216726520563692 0.049858601706432248 0 0.057205593290743949 0.049882820516149 0 0.056452386695785103 0.048994013711218101 0 0.056258898551515911 0.050286751412880207 0 0.057350747653914125 0.045608204928378047 0 0.059572130319717906 0.039070189165423909 0 0.060131677836080935 0.039298309433935343 0 0.059962268919977621 0.038779984656063159 0 0.057350747653914125 0.045608204928378047 0 0.05498884191588805 0.043758648164034589 0 0.060131677836080935 0.039298309433935343 0 0.059962268919977621 0.038779984656063159 0 0.060527187876438987 0.038743641962604436 0 0.059962268919977621 0.038779984656063159 0 0.060368022980937193 0.038291740490702351 0 0.060527187876438987 0.038743641962604436 0 0.059962268919977621 0.038779984656063159 0 0.060368022980937193 0.038291740490702351 0 0.059940993802207569 0.038329864339097193 0 0.059962268919977621 0.038779984656063159 0 0.059940993802207569 0.038329864339097193 0 0.059533781506314082 0.038525592295802713 0 0.059940993802207569 0.038329864339097193 0 0.05973344228555983 0.037985972138668396 0 0.060032184292299999 0.037309227881422664 0 0.060368022980937193 0.038291740490702351 0 0.060543162877777314 0.037760823690756833 0 0.060032184292299999 0.037309227881422664 0 0.060368022980937193 0.038291740490702351 0 0.059940993802207569 0.038329864339097193 0 0.060032184292299999 0.037309227881422664 0 0.059533781506314082 0.038525592295802713 0 0.059134182047450121 0.038421597877962822 0 0.059080774936462785 0.038904619293398945 0 0.059533781506314082 0.038525592295802713 0 0.059450074304819529 0.0380731742863765 0 0.059134182047450121 0.038421597877962822 0 0.059940993802207569 0.038329864339097193 0 0.059533781506314082 0.038525592295802713 0 0.05973344228555983 0.037985972138668396 0 0.059533781506314082 0.038525592295802713 0 0.05973344228555983 0.037985972138668396 0 0.059450074304819529 0.0380731742863765 0 0.05973344228555983 0.037985972138668396 0 0.059450074304819529 0.0380731742863765 0 0.059748934204642813 0.037646254521386646 0 0.059450074304819529 0.0380731742863765 0 0.059134182047450121 0.038421597877962822 0 0.059148757234165267 0.038026974710558055 0 0.059134182047450121 0.038421597877962822 0 0.058825110082908812 0.038201172750183914 0 0.059148757234165267 0.038026974710558055 0 0.05889944537346968 0.038576492452589435 0 0.059134182047450121 0.038421597877962822 0 0.058825110082908812 0.038201172750183914 0 0.05889944537346968 0.038576492452589435 0 0.059134182047450121 0.038421597877962822 0 0.059080774936462785 0.038904619293398945 0 0.059019857615992273 0.039371395749702033 0 0.05730283816528696 0.043925051311874706 0 0.058860929178151014 0.041628065461556084 0 0.057375899049600665 0.042958355243494256 0 0.058039027145194884 0.044620007963764481 0 0.05889944537346968 0.038576492452589435 0 0.058825110082908812 0.038201172750183914 0 0.05855918841060475 0.038795792907186342 0 0.058860929178151014 0.041628065461556084 0 0.05742247388261143 0.041772110648937322 0 0.057375899049600665 0.042958355243494256 0 0.05742247388261143 0.041772110648937322 0 0.056268454556050271 0.042557832878262744 0 0.056452647366847915 0.040262944965501257 0 0.05742247388261143 0.041772110648937322 0 0.056268454556050271 0.042557832878262744 0 0.057375899049600665 0.042958355243494256 0 0.054999838851720842 0.041250545735031452 0 0.056268454556050271 0.042557832878262744 0 0.054999755735654854 0.044153081242238129 0 0.054999838851720842 0.041250545735031452 0 0.056268454556050271 0.042557832878262744 0 0.056452647366847915 0.040262944965501257 0 0.056268454556050271 0.042557832878262744 0 0.054999755735654854 0.044153081242238129 0 0.056453003759589067 0.044225776736342759 0 0.055000101960046829 0.044154241874748243 0 0.056455829069165249 0.044654297701287947 0 0.056453003759589067 0.044225776736342759 0 0.057375899049600665 0.042958355243494256 0 0.058039027145194884 0.044620007963764481 0 0.056268454556050271 0.042557832878262744 0 0.056453003759589067 0.044225776736342759 0 0.057375899049600665 0.042958355243494256 0 0.056455829069165249 0.044654297701287947 0 0.05730283816528696 0.043925051311874706 0 0.056530230871659967 0.048918905301795074 0 0.05730283816528696 0.043925051311874706 0 0.05600313556185478 0.046608202172906059 0 0.056778108756364881 0.047855897047226169 0 0.057740359061949985 0.045644327519687548 0 0.056257258921606448 0.045068578040179275 0 0.05600313556185478 0.046608202172906059 0 0.057740359061949985 0.045644327519687548 0 0.056257258921606448 0.045068578040179275 0 0.05600313556185478 0.046608202172906059 0 0.054999364685083679 0.046114249349387418 0 0.054999980869035264 0.044154677434440494 0 0.056257258921606448 0.045068578040179275 0 0.054999364685083679 0.046114249349387418 0 0.05600313556185478 0.046608202172906059 0 0.054999364685083679 0.046114249349387418 0 0.055000389795447725 0.048071974635154779 0 0.05600313556185478 0.046608202172906059 0 0.055000389795447725 0.048071974635154779 0 0.056778108756364881 0.047855897047226169 0 0.056633984225853549 0.048474113371747042 0 0.055000389795447725 0.048071974635154779 0 0.056778108756364881 0.047855897047226169 0 0.056778108756364881 0.047855897047226169 0 0.056312373138325503 0.048571788977067903 0 0.056215817872064318 0.048720940147860159 0 0.056633984225853549 0.048474113371747042 0 0.056778108756364881 0.047855897047226169 0 0.056215817872064318 0.048720940147860159 0 0.055979433886716896 0.049147382591730474 0 0.056215817872064318 0.048720940147860159 0 0.055987755588544644 0.048799841152766137 0 0.056312373138325503 0.048571788977067903 0 0.056215817872064318 0.048720940147860159 0 0.055987755588544644 0.048799841152766137 0 0.056312373138325503 0.048571788977067903 0 0.055987755588544644 0.048799841152766137 0 0.056551333865943125 0.048854141016644079 0 0.057534378525964491 0.043858762033919703 0 0.05730283816528696 0.043925051311874706 0 0.05889944537346968 0.038576492452589435 0 0.059080774936462785 0.038904619293398945 0 0.05855918841060475 0.038795792907186342 0 0.056778108756364881 0.047855897047226169 0 0.056312373138325503 0.048571788977067903 0 0.056551333865943125 0.048854141016644079 0 0.026835510832071769 0.057286111314037158 0 0.026631485296803831 0.057973447874785908 0 0.026272703459594274 0.057357959845062367 0 0.027288891914040041 0.057845683259142099 0 0.026835510832071769 0.057286111314037158 0 0.026631485296803831 0.057973447874785908 0 0.031605974998881292 0.058218420844705202 0 0.031345244894290428 0.057898687343250856 0 0.029775027626081481 0.058072695171197536 0 0.029096141463583747 0.058064755873538917 0 0.02831210782003965 0.057614100669084942 0 0.031345244894290428 0.057898687343250856 0 0.029998547463160125 0.056756653543582135 0 0.031933933685668645 0.057217436405172774 0 0.031345244894290428 0.057898687343250856 0 0.029775027626081481 0.058072695171197536 0 0.029998547463160125 0.056756653543582135 0 0.02831210782003965 0.057614100669084942 0 0.02687808273849283 0.056670126627835854 0 0.029775027626081481 0.058072695171197536 0 0.029998547463160125 0.056756653543582135 0 0.027541440709585922 0.056967605211217458 0 0.028470346630191823 0.056099408409351882 0 0.029998547463160125 0.056756653543582135 0 0.027541440709585922 0.056967605211217458 0 0.028470346630191823 0.056099408409351882 0 0.027507616650461777 0.054999531968285761 0 0.030345076179706318 0.054999832283039618 0 0.028470346630191823 0.056099408409351882 0 0.027507616650461777 0.054999531968285761 0 0.02722636348036692 0.055817657240353452 0 0.028470346630191823 0.056099408409351882 0 0.030345076179706318 0.054999832283039618 0 0.029998547463160125 0.056756653543582135 0 0.030345076179706318 0.054999832283039618 0 0.029998547463160125 0.056756653543582135 0 0.031739717420939832 0.056108468654670778 0 0.029998547463160125 0.056756653543582135 0 0.031933933685668645 0.057217436405172774 0 0.031739717420939832 0.056108468654670778 0 0.031933933685668645 0.057217436405172774 0 0.031739717420939832 0.056108468654670778 0 0.033240450335202676 0.056603661695069876 0 0.030345076179706318 0.054999832283039618 0 0.031739717420939832 0.056108468654670778 0 0.033181951915485057 0.054999771265046349 0 0.031739717420939832 0.056108468654670778 0 0.033181951915485057 0.054999771265046349 0 0.033240450335202676 0.056603661695069876 0 0.033181951915485057 0.054999771265046349 0 0.033240450335202676 0.056603661695069876 0 0.036019182073025423 0.054999663859486611 0 0.031933933685668645 0.057217436405172774 0 0.033240450335202676 0.056603661695069876 0 0.032790031674333073 0.057795183212929313 0 0.033240450335202676 0.056603661695069876 0 0.032790031674333073 0.057795183212929313 0 0.034871410230562311 0.057136457235895124 0 0.031345244894290428 0.057898687343250856 0 0.031933933685668645 0.057217436405172774 0 0.032790031674333073 0.057795183212929313 0 0.031345244894290428 0.057898687343250856 0 0.032790031674333073 0.057795183212929313 0 0.032432863733780661 0.05786704414065811 0 0.031605974998881292 0.058218420844705202 0 0.031345244894290428 0.057898687343250856 0 0.032432863733780661 0.05786704414065811 0 0.032790031674333073 0.057795183212929313 0 0.032432863733780661 0.05786704414065811 0 0.032638194900333747 0.057695216537523276 0 0.032638194900333747 0.057695216537523276 0 0.033147543755741242 0.057907365617257199 0 0.031713998948288011 0.057098378125284253 0 0.032790031674333073 0.057795183212929313 0 0.032638194900333747 0.057695216537523276 0 0.033147543755741242 0.057907365617257199 0 0.034372557058406188 0.058535296111179816 0 0.033890828944118906 0.059765607092828972 0 0.035595013635130457 0.059682326534556566 0 0.037091340423406893 0.060566612700142811 0 0.03697832694279838 0.058782427633500688 0 0.037091340423406893 0.060566612700142811 0 0.03697832694279838 0.058782427633500688 0 0.038166116813082192 0.0597179825960635 0 0.035595013635130457 0.059682326534556566 0 0.037091340423406893 0.060566612700142811 0 0.035991286424523025 0.061731763838383483 0 0.032790031674333073 0.057795183212929313 0 0.033147543755741242 0.057907365617257199 0 0.034871410230562311 0.057136457235895124 0 0.035595013635130457 0.059682326534556566 0 0.03697832694279838 0.058782427633500688 0 0.034871410230562311 0.057136457235895124 0 0.034372557058406188 0.058535296111179816 0 0.034755821516079595 0.057172340391087796 0 0.033240450335202676 0.056603661695069876 0 0.034871410230562311 0.057136457235895124 0 0.036019182073025423 0.054999663859486611 0 0.034871410230562311 0.057136457235895124 0 0.036019182073025423 0.054999663859486611 0 0.037389704385379773 0.056759509386873443 0 0.036019182073025423 0.054999663859486611 0 0.037389704385379773 0.056759509386873443 0 0.038857472987410838 0.054999862996966055 0 0.03697832694279838 0.058782427633500688 0 0.037389704385379773 0.056759509386873443 0 0.03850810925849435 0.05833810248148226 0 0.03697832694279838 0.058782427633500688 0 0.034871410230562311 0.057136457235895124 0 0.037389704385379773 0.056759509386873443 0 0.037389704385379773 0.056759509386873443 0 0.039061489732490934 0.056888771227354105 0 0.03850810925849435 0.05833810248148226 0 0.039061489732490934 0.056888771227354105 0 0.040094473108531765 0.058098126313264199 0 0.03850810925849435 0.05833810248148226 0 0.039061489732490934 0.056888771227354105 0 0.038857472987410838 0.054999862996966055 0 0.040390937935810271 0.056263074538185451 0 0.037389704385379773 0.056759509386873443 0 0.039061489732490934 0.056888771227354105 0 0.038857472987410838 0.054999862996966055 0 0.041694654159039085 0.054999782769198494 0 0.038857472987410838 0.054999862996966055 0 0.040390937935810271 0.056263074538185451 0 0.041422088218853119 0.057655396149014604 0 0.040390937935810271 0.056263074538185451 0 0.040094473108531765 0.058098126313264199 0 0.039061489732490934 0.056888771227354105 0 0.040390937935810271 0.056263074538185451 0 0.040094473108531765 0.058098126313264199 0 0.041236839469026045 0.059654511853034421 0 0.040094473108531765 0.058098126313264199 0 0.039600358931226404 0.059590803550335157 0 0.041422088218853119 0.057655396149014604 0 0.041236839469026045 0.059654511853034421 0 0.040094473108531765 0.058098126313264199 0 0.040094473108531765 0.058098126313264199 0 0.03850810925849435 0.05833810248148226 0 0.039600358931226404 0.059590803550335157 0 0.03697832694279838 0.05878242763350068