<?xml version="1.0"?>
<VTKFile type="UnstructuredGrid" version="0.1" byte_order="LittleEndian">
<UnstructuredGrid>
<Piece NumberOfPoints="30578" NumberOfCells="10723">
<Points>
<DataArray type="Float64" NumberOfComponents="3" format="ascii">
-0.5 -0.5 0 -0.47439485679867832 -0.48072581506667478 0 -0.5 -0.44765434486020428 0 -0.5 -0.5 0 -0.47439485679867832 -0.48072581506667478 0 -0.43702443379937372 -0.49999999999999922 0 -0.47439485679867832 -0.48072581506667478 0 -0.45530669598391149 -0.47718009944797551 0 -0.43702443379937372 -0.49999999999999922 0 -0.47439485679867832 -0.48072581506667478 0 -0.45530669598391149 -0.47718009944797551 0 -0.4597353119515426 -0.45943449384344293 0 -0.45530669598391149 -0.47718009944797551 0 -0.44381084376742141 -0.47114793899167112 0 -0.4597353119515426 -0.45943449384344293 0 -0.45530669598391149 -0.47718009944797551 0 -0.44381084376742141 -0.47114793899167112 0 -0.43702443379937372 -0.49999999999999922 0 -0.44381084376742141 -0.47114793899167112 0 -0.43702443379937372 -0.49999999999999922 0 -0.45059725373546922 -0.44229587798334291 0 -0.4339166039271336 -0.43498117536117131 0 -0.43309128002320102 -0.45351235807576151 0 -0.44381084376742141 -0.47114793899167112 0 -0.45059725373546922 -0.44229587798334291 0 -0.4597353119515426 -0.45943449384344293 0 -0.44381084376742141 -0.47114793899167112 0 -0.45059725373546922 -0.44229587798334291 0 -0.43309128002320102 -0.45351235807576151 0 -0.44381084376742141 -0.47114793899167112 0 -0.45059725373546922 -0.44229587798334291 0 -0.4597353119515426 -0.45943449384344293 0 -0.47505511338101108 -0.44868394208069429 0 -0.46517432262153441 -0.43649963461163338 0 -0.45059725373546922 -0.44229587798334291 0 -0.4597353119515426 -0.45943449384344293 0 -0.46517432262153441 -0.43649963461163338 0 -0.47505511338101108 -0.44868394208069429 0 -0.47820614292347569 -0.42776699273468149 0 -0.46517432262153441 -0.43649963461163338 0 -0.47505511338101108 -0.44868394208069429 0 -0.47820614292347569 -0.42776699273468149 0 -0.47439485679867832 -0.48072581506667478 0 -0.47505511338101108 -0.44868394208069429 0 -0.5 -0.44765434486020428 0 -0.47439485679867832 -0.48072581506667478 0 -0.4597353119515426 -0.45943449384344293 0 -0.47505511338101108 -0.44868394208069429 0 -0.47505511338101108 -0.44868394208069429 0 -0.5 -0.44765434486020428 0 -0.47820614292347569 -0.42776699273468149 0 -0.5 -0.44765434486020428 0 -0.49656450065014057 -0.42151023988558672 0 -0.47820614292347569 -0.42776699273468149 0 -0.5 -0.44765434486020428 0 -0.49656450065014057 -0.42151023988558672 0 -0.50000000000000089 -0.37904661106745707 0 -0.49656450065014057 -0.42151023988558672 0 -0.48135717246594062 -0.40685004338866881 0 -0.47820614292347569 -0.42776699273468149 0 -0.49656450065014057 -0.42151023988558672 0 -0.48135717246594062 -0.40685004338866881 0 -0.48135717246594062 -0.40685004338866881 0 -0.47820614292347569 -0.42776699273468149 0 -0.48135717246594062 -0.40685004338866881 0 -0.47820614292347569 -0.42776699273468149 0 -0.45738366370351707 -0.41344381697501481 0 -0.49656450065014057 -0.42151023988558672 0 -0.48135717246594062 -0.40685004338866881 0 -0.50000000000000089 -0.37904661106745707 0 -0.50000000000000089 -0.37904661106745707 0 -0.48466894952205442 -0.38486603086372417 0 -0.48717439863114548 -0.36823452950912272 0 -0.48135717246594062 -0.40685004338866881 0 -0.50000000000000089 -0.37904661106745707 0 -0.48466894952205442 -0.38486603086372417 0 -0.48466894952205442 -0.38486603086372417 0 -0.48717439863114548 -0.36823452950912272 0 -0.50000000000000089 -0.37904661106745707 0 -0.48466894952205442 -0.38486603086372417 0 -0.48135717246594062 -0.40685004338866881 0 -0.48466894952205442 -0.38486603086372417 0 -0.46593083509403682 -0.39197871725165279 0 -0.48135717246594062 -0.40685004338866881 0 -0.48466894952205442 -0.38486603086372417 0 -0.48135717246594062 -0.40685004338866881 0 -0.46593083509403682 -0.39197871725165279 0 -0.48466894952205442 -0.38486603086372417 0 -0.47195833844942919 -0.37959069520904498 0 -0.46593083509403682 -0.39197871725165279 0 -0.48466894952205442 -0.38486603086372417 0 -0.46593083509403682 -0.39197871725165279 0 -0.48466894952205442 -0.38486603086372417 0 -0.47195833844942919 -0.37959069520904498 0 -0.48717439863114548 -0.36823452950912272 0 -0.46593083509403682 -0.39197871725165279 0 -0.44890944387521442 -0.39029302340116001 0 -0.45132291774153199 -0.37789636588759368 0 -0.47195833844942919 -0.37959069520904498 0 -0.46593083509403682 -0.39197871725165279 0 -0.45132291774153199 -0.37789636588759368 0 -0.46593083509403682 -0.39197871725165279 0 -0.45132291774153199 -0.37789636588759368 0 -0.48135717246594062 -0.40685004338866881 0 -0.46593083509403682 -0.39197871725165279 0 -0.45738366370351707 -0.41344381697501481 0 -0.46593083509403682 -0.39197871725165279 0 -0.44275815558040038 -0.40077469311046232 0 -0.45738366370351707 -0.41344381697501481 0 -0.46593083509403682 -0.39197871725165279 0 -0.44275815558040038 -0.40077469311046232 0 -0.46593083509403682 -0.39197871725165279 0 -0.44275815558040038 -0.40077469311046232 0 -0.44890944387521442 -0.39029302340116001 0 -0.44275815558040038 -0.40077469311046232 0 -0.44064580868350911 -0.39542861624611658 0 -0.44890944387521442 -0.39029302340116001 0 -0.44225344557501872 -0.38376649822575309 0 -0.45132291774153199 -0.37789636588759368 0 -0.43671500038902772 -0.36381401452353412 0 -0.44890944387521442 -0.39029302340116001 0 -0.44225344557501872 -0.38376649822575309 0 -0.45132291774153199 -0.37789636588759368 0 -0.44064580868350911 -0.39542861624611658 0 -0.44225344557501872 -0.38376649822575309 0 -0.43040194378266172 -0.3881600185019185 0 -0.44064580868350911 -0.39542861624611658 0 -0.44890944387521442 -0.39029302340116001 0 -0.44225344557501872 -0.38376649822575309 0 -0.47820614292347569 -0.42776699273468149 0 -0.46517432262153441 -0.43649963461163338 0 -0.45738366370351707 -0.41344381697501481 0 -0.45059725373546922 -0.44229587798334291 0 -0.45738366370351707 -0.41344381697501481 0 -0.45059725373546922 -0.44229587798334291 0 -0.46517432262153441 -0.43649963461163338 0 -0.45738366370351707 -0.41344381697501481 0 -0.44275815558040038 -0.40077469311046232 0 -0.45738366370351707 -0.41344381697501481 0 -0.44164244492799948 -0.42121090558557039 0 -0.45059725373546922 -0.44229587798334291 0 -0.45738366370351707 -0.41344381697501481 0 -0.44164244492799948 -0.42121090558557039 0 -0.45059725373546922 -0.44229587798334291 0 -0.44164244492799948 -0.42121090558557039 0 -0.4339166039271336 -0.43498117536117131 0 -0.4339166039271336 -0.43498117536117131 0 -0.42355654769347711 -0.414558964497861 0 -0.41671115160429401 -0.44095791049380378 0 -0.44164244492799948 -0.42121090558557039 0 -0.4339166039271336 -0.43498117536117131 0 -0.42355654769347711 -0.414558964497861 0 -0.44275815558040038 -0.40077469311046232 0 -0.44164244492799948 -0.42121090558557039 0 -0.42355654769347711 -0.414558964497861 0 -0.42355654769347711 -0.414558964497861 0 -0.41056920252370888 -0.3963363404412637 0 -0.40050668374064252 -0.41734442193795029 0 -0.42355654769347711 -0.414558964497861 0 -0.41671115160429401 -0.44095791049380378 0 -0.42355654769347711 -0.414558964497861 0 -0.40050668374064252 -0.41734442193795029 0 -0.41671115160429401 -0.44095791049380378 0 -0.44225344557501872 -0.38376649822575309 0 -0.43040194378266172 -0.3881600185019185 0 -0.43671500038902772 -0.36381401452353412 0 -0.43040194378266172 -0.3881600185019185 0 -0.43671500038902772 -0.36381401452353412 0 -0.44064580868350911 -0.39542861624611658 0 -0.42355654769347711 -0.414558964497861 0 -0.43040194378266172 -0.3881600185019185 0 -0.42355654769347711 -0.414558964497861 0 -0.43040194378266172 -0.3881600185019185 0 -0.44275815558040038 -0.40077469311046232 0 -0.44064580868350911 -0.39542861624611658 0 -0.42355654769347711 -0.414558964497861 0 -0.44064580868350911 -0.39542861624611658 0 -0.43040194378266172 -0.3881600185019185 0 -0.42355654769347711 -0.414558964497861 0 -0.43040194378266172 -0.3881600185019185 0 -0.41056920252370888 -0.3963363404412637 0 -0.43040194378266172 -0.3881600185019185 0 -0.4079689369259607 -0.37224253963894771 0 -0.43040194378266172 -0.3881600185019185 0 -0.41056920252370888 -0.3963363404412637 0 -0.4079689369259607 -0.37224253963894771 0 -0.41056920252370888 -0.3963363404412637 0 -0.39195929229331972 -0.37982250283040359 0 -0.4079689369259607 -0.37224253963894771 0 -0.41056920252370888 -0.3963363404412637 0 -0.39195929229331972 -0.37982250283040359 0 -0.39357845321732049 -0.39746174547711199 0 -0.41056920252370888 -0.3963363404412637 0 -0.39357845321732049 -0.39746174547711199 0 -0.40050668374064252 -0.41734442193795029 0 -0.39357845321732049 -0.39746174547711199 0 -0.38114412328536468 -0.40833987260765031 0 -0.36544727141479139 -0.39026932065168712 0 -0.39195929229331972 -0.37982250283040359 0 -0.37549160074202448 -0.3732971907138336 0 -0.36544727141479139 -0.39026932065168712 0 -0.39195929229331972 -0.37982250283040359 0 -0.39357845321732049 -0.39746174547711199 0 -0.36544727141479139 -0.39026932065168712 0 -0.40050668374064252 -0.41734442193795029 0 -0.3944977858259317 -0.43926335073686201 0 -0.41671115160429401 -0.44095791049380378 0 -0.40050668374064252 -0.41734442193795029 0 -0.38028594703985957 -0.42392304976487449 0 -0.3944977858259317 -0.43926335073686201 0 -0.39357845321732049 -0.39746174547711199 0 -0.40050668374064252 -0.41734442193795029 0 -0.38114412328536468 -0.40833987260765031 0 -0.40050668374064252 -0.41734442193795029 0 -0.38114412328536468 -0.40833987260765031 0 -0.38028594703985957 -0.42392304976487449 0 -0.38114412328536468 -0.40833987260765031 0 -0.38028594703985957 -0.42392304976487449 0 -0.36590226101420908 -0.41270082520662749 0 -0.38028594703985957 -0.42392304976487449 0 -0.3944977858259317 -0.43926335073686201 0 -0.3723601590800425 -0.44005613486137668 0 -0.3944977858259317 -0.43926335073686201 0 -0.38265619596279349 -0.45813348326120767 0 -0.3723601590800425 -0.44005613486137668 0 -0.40093272222703252 -0.45142790024540502 0 -0.3944977858
[...]
<PointData Scalars="" Vectors="displacement," Tensors="">
<DataArray type="Float64" Name="displacement" NumberOfComponents="3" format="ascii">
-0.054995746625009216 -1.7570062878895958e-06 0 -0.053401691616519927 -0.00026156393590958153 0 -0.054998477002983416 2.6921128532271981e-08 0 -0.054995746625009216 -1.7570062878895958e-06 0 -0.053401691616519927 -0.00026156393590958153 0 -0.048082623260047037 3.1508403515388217e-06 0 -0.053401691616519927 -0.00026156393590958153 0 -0.052494668062934145 2.7940843885548534e-05 0 -0.048082623260047037 3.1508403515388217e-06 0 -0.053401691616519927 -0.00026156393590958153 0 -0.052494668062934145 2.7940843885548534e-05 0 -0.053654866565471547 -4.5298910578197438e-05 0 -0.052494668062934145 2.7940843885548534e-05 0 -0.05303221550067376 0.00087282264074949652 0 -0.053654866565471547 -4.5298910578197438e-05 0 -0.052494668062934145 2.7940843885548534e-05 0 -0.05303221550067376 0.00087282264074949652 0 -0.048082623260047037 3.1508403515388217e-06 0 -0.050120398881184226 0.00021443775977386461 0 -0.048073550458431147 1.4914011439093274e-07 0 -0.049252530749082327 -0.00089733700205485401 0 -0.049744139051512835 0.00019490629395527723 0 -0.048333181286307682 0.00018795081117086942 0 -0.05303221550067376 0.00087282264074949652 0 -0.053701671638022579 -0.00035790355696161839 0 -0.053654866565471547 -4.5298910578197438e-05 0 -0.047134218170269866 -0.00019708551115139403 0 -0.049252530749082327 -0.00089733700205485401 0 -0.048333181286307682 0.00018795081117086942 0 -0.050120398881184226 0.00021443775977386461 0 -0.051387340635539729 -0.00053876375042188277 0 -0.053654866565471547 -4.5298910578197438e-05 0 -0.054157026433797828 0.00016369945932105261 0 -0.0534112283716634 -4.3336947915053396e-05 0 -0.053701671638022579 -0.00035790355696161839 0 -0.053654866565471547 -4.5298910578197438e-05 0 -0.0534112283716634 -4.3336947915053396e-05 0 -0.054157026433797828 0.00016369945932105261 0 -0.05274479274140375 0.00068241727855823534 0 -0.0534112283716634 -4.3336947915053396e-05 0 -0.054151249551977733 0.00021270416166390346 0 -0.053700314607011579 0.00038657191715227854 0 -0.053401691616519927 -0.00026156393590958153 0 -0.054157026433797828 0.00016369945932105261 0 -0.054998477002983416 2.6921128532271981e-08 0 -0.053401691616519927 -0.00026156393590958153 0 -0.053654866565471547 -4.5298910578197438e-05 0 -0.054157026433797828 0.00016369945932105261 0 -0.054157026433797828 0.00016369945932105261 0 -0.054998477002983416 2.6921128532271981e-08 0 -0.054856028015131834 0.00011105183366657217 0 -0.054998477002983416 2.6921128532271981e-08 0 -0.054989608264888273 4.5085496550785703e-06 0 -0.054856028015131834 0.00011105183366657217 0 -0.054998477002983416 2.6921128532271981e-08 0 -0.054989608264888273 4.5085496550785703e-06 0 -0.055000638723451116 1.0979240373562494e-08 0 -0.054989608264888273 4.5085496550785703e-06 0 -0.055027345821081611 9.6481873516983925e-05 0 -0.054856028015131834 0.00011105183366657217 0 -0.055322351566854437 0.0001925135738237452 0 -0.053677227944080572 1.0148530951871763e-05 0 -0.053677227944080572 1.0148530951871763e-05 0 -0.053700314607011579 0.00038657191715227854 0 -0.051431675203069994 0.0006045233077756351 0 -0.05274479274140375 0.00068241727855823534 0 -0.051519065998340531 -0.00061136621360665874 0 -0.054989608264888273 4.5085496550785703e-06 0 -0.054987756451088089 5.5453342176221821e-06 0 -0.055000638723451116 1.0979240373562494e-08 0 -0.055000036144782043 -2.3036458945627611e-08 0 -0.05500793341233446 -1.7919392674361989e-05 0 -0.054997851257733744 -1.8293253975654939e-05 0 -0.054987756451088089 5.5453342176221821e-06 0 -0.055000638723451116 1.0979240373562494e-08 0 -0.054995492894743252 3.9155508160582493e-06 0 -0.054817303632616353 -0.00016470621656984813 0 -0.055060985876366889 -3.2203202464159461e-05 0 -0.054999964625155398 5.2038175293382956e-08 0 -0.054817303632616353 -0.00016470621656984813 0 -0.053610441184635843 -0.00018475527270912036 0 -0.053871763176053966 -0.00022480284283310173 0 -0.053781098722682649 -5.8988024057487868e-06 0 -0.053677227944080572 1.0148530951871763e-05 0 -0.054817303632616353 -0.00016470621656984813 0 -0.053677227944080572 1.0148530951871763e-05 0 -0.052726698442044799 -0.00023465156426963013 0 -0.055052306455614992 -3.4307229598034143e-05 0 -0.055033994938733531 -8.1874036868138082e-05 0 -0.055072731152084997 -0.00010756103781648452 0 -0.054817303632616353 -0.00016470621656984813 0 -0.052726698442044799 -0.00023465156426963013 0 -0.055052306455614992 -3.4307229598034143e-05 0 -0.055033994938733531 -8.1874036868138082e-05 0 -0.054997851257733744 -1.8293253975654939e-05 0 -0.051663048262099755 -0.00057083272481311075 0 -0.051664596552886813 -0.00037853308289086216 0 -0.051782810092223443 -0.0003939615671825266 0 -0.055033994938733531 -8.1874036868138082e-05 0 -0.055072731152084997 -0.00010756103781648452 0 -0.055027234061062892 -0.00017411284813879707 0 -0.052726698442044799 -0.00023465156426963013 0 -0.053670229699256222 -6.5276605474459933e-05 0 -0.051431675203069994 0.0006045233077756351 0 -0.051043606302677312 -0.00022497104457765634 0 -0.051519065998340531 -0.00061136621360665874 0 -0.051043606302677312 -0.00022497104457765634 0 -0.051478272514180697 -0.00032622500277471126 0 -0.051519065998340531 -0.00061136621360665874 0 -0.052726698442044799 -0.00023465156426963013 0 -0.051133964998667888 -0.00027537870732012381 0 -0.051663048262099755 -0.00057083272481311075 0 -0.051478272514180697 -0.00032622500277471126 0 -0.051664596552886813 -0.00037853308289086216 0 -0.051478272514180697 -0.00032622500277471126 0 -0.05163551656184362 -0.00025705607194894124 0 -0.051664596552886813 -0.00037853308289086216 0 -0.051718627909461058 -0.00030661968645373852 0 -0.051782810092223443 -0.0003939615671825266 0 -0.051881024036077049 -0.00027338120283020527 0 -0.051664596552886813 -0.00037853308289086216 0 -0.051718627909461058 -0.00030661968645373852 0 -0.051782810092223443 -0.0003939615671825266 0 -0.05163551656184362 -0.00025705607194894124 0 -0.051718627909461058 -0.00030661968645373852 0 -0.051663220084009559 -0.0002156921281443072 0 -0.05163551656184362 -0.00025705607194894124 0 -0.051664596552886813 -0.00037853308289086216 0 -0.051718627909461058 -0.00030661968645373852 0 -0.05274479274140375 0.00068241727855823534 0 -0.0534112283716634 -4.3336947915053396e-05 0 -0.051519065998340531 -0.00061136621360665874 0 -0.051387340635539729 -0.00053876375042188277 0 -0.051467306255526618 -0.00062205354285545819 0 -0.053701671638022579 -0.00035790355696161839 0 -0.0534112283716634 -4.3336947915053396e-05 0 -0.051519065998340531 -0.00061136621360665874 0 -0.051478272514180697 -0.00032622500277471126 0 -0.051519065998340531 -0.00061136621360665874 0 -0.050756770042295271 -0.00016802560951797302 0 -0.049252530749082327 -0.00089733700205485401 0 -0.051519065998340531 -0.00061136621360665874 0 -0.050756770042295271 -0.00016802560951797302 0 -0.049252530749082327 -0.00089733700205485401 0 -0.050756770042295271 -0.00016802560951797302 0 -0.049744139051512835 0.00019490629395527723 0 -0.049744139051512835 0.00019490629395527723 0 -0.050938160772744323 0.00064999759539306984 0 -0.049258238335609536 0.0012292384919153365 0 -0.050756770042295271 -0.00016802560951797302 0 -0.049744139051512835 0.00019490629395527723 0 -0.050938160772744323 0.00064999759539306984 0 -0.051478272514180697 -0.00032622500277471126 0 -0.050756770042295271 -0.00016802560951797302 0 -0.050938160772744323 0.00064999759539306984 0 -0.036009086473747197 -0.0033428355002462634 0 -0.036455943264114915 -0.0030293933537183415 0 -0.035858602257594706 -0.0027565576547096673 0 -0.043189189356413832 -0.0012045787242676944 0 -0.042189666891658303 -0.0010506228483360823 0 -0.036009086473747197 -0.0033428355002462634 0 -0.035858602257594706 -0.0027565576547096673 0 -0.035322042395510483 -0.0031091186852362368 0 -0.051718627909461058 -0.00030661968645373852 0 -0.051663220084009559 -0.0002156921281443072 0 -0.051881024036077049 -0.00027338120283020527 0 -0.045605771182225717 -0.0024409851811210454 0 -0.052234988676094392 -0.0011848096153901186 0 -0.05163551656184362 -0.00025705607194894124 0 -0.050938160772744323 0.00064999759539306984 0 -0.051900933991166187 0.00016537549796305886 0 -0.043189189356413832 -0.0012045787242676944 0 -0.045605771182225717 -0.0024409851811210454 0 -0.051478272514180697 -0.00032622500277471126 0 -0.05163551656184362 -0.00025705607194894124 0 -0.050938160772744323 0.00064999759539306984 0 -0.051652465498902914 0.0012322804943622108 0 -0.045605771182225717 -0.0024409851811210454 0 -0.036009086473747197 -0.0033428355002462634 0 -0.036736641776338154 -0.0035319001625333454 0 -0.036455943264114915 -0.0030293933537183415 0 -0.045605771182225717 -0.0024409851811210454 0 -0.041477809976323943 -0.0026498574444562594 0 -0.036736641776338154 -0.0035319001625333454 0 -0.036455943264114915 -0.0030293933537183415 0 -0.037093303631084748 -0.0029739710061308751 0 -0.036455943264114915 -0.0030293933537183415 0 -0.036854312994920285 -0.0025708763093277992 0 -0.037093303631084748 -0.0029739710061308751 0 -0.036455943264114915 -0.0030293933537183415 0 -0.036854312994920285 -0.0025708763093277992 0 -0.036369775228375985 -0.0026081183442856252 0 -0.036455943264114915 -0.0030293933537183415 0 -0.036369775228375985 -0.0026081183442856252 0 -0.035858602257594706 -0.0027565576547096673 0 -0.036369775228375985 -0.0026081183442856252 0 -0.036019373593856235 -0.0023048552867248541 0 -0.036490015198124594 -0.0019549755845779154 0 -0.036854312994920285 -0.0025708763093277992 0 -0.037018375224563756 -0.0021514608133952895 0 -0.036490015198124594 -0.0019549755845779154 0 -0.036854312994920285 -0.0025708763093277992 0 -0.036369775228375985 -0.0026081183442856252 0 -0.036490015198124594 -0.0019549755845779154 0 -0.035858602257594706 -0.0027565576547096673 0 -0.035297470407814217 -0.0025799020075900122 0 -0.035322042395510483 -0.0031091186852362368 0 -0.035858602257594706 -0.0027565576547096673 0 -0.035601586117493103 -0.0022580129666355747 0 -0.035297470407814217 -0.0025799020075900122 0 -0.036369775228375985 -0.0026081183442856252 0 -0.035858602257594706 -0.0027565576547096673 0 -0.036019373593856235 -0.0023048552867248541 0 -0.035858602257594706 -0.0027565576547096673 0 -0.036019373593856235 -0.0023048552867248541 0 -0.035601586117493103 -0.0022580129666355747 0 -0.036019373593856235 -0.0023048552867248541 0 -0.035601586117493103 -0.0022580129666355747 0 -0.035813438618293524 -0.0019345333333930174 0 -0.035601586117493103 -0.0022580129666355747 0 -0.035297470407814217 -0.0025799020075900122 0 -0.035190119543314524 -0.0020333184570027036 0 -0.035297470407814217 -0.0025799020075900122 0 -0.034841625360721433 -0.0022889061370174194 0 -0.035190119543314524 -0.0020333184570027036 0 -0.03505172030809884 -0.0027176594795356498 0 -0.035297470407814217 -0.0025799020075900122 0 -0.034841625360721433 -0.0022889061370174194 0 -0.03505172030809884 -0.0027176594795356498 0 -0.035297470407814217 -0.0025799020075900122 0 -0.035322042395510483 -0.0031091186852362368 0 -0.034885427976226922 -0.0013889054945066929 0 -0.041890912611754962 0.00012395994689009371 0 -0.036658951953299823 -9.0074434352636532e-05 0 -0.038803444195477668 0.0010238163678726649 0 -0.038152628935663999 0.002907412382234846 0 -0.03505172030809884 -0.0027176594795356498 0 -0.034841625360721433 -0.0022889061370174194 0 -0.034753502165987861 -0.0028948263659276624 0 -0.036658951953299823 -9.0074434352636532e-05 0 -0.038423127988029659 -1.3527592861734224e-05 0 -0.038803444195477668 0.0010238163678726649 0 -0.038423127988029659 -1.3527592861734224e-05 0 -0.040603614073522004 0.00014973652261306172 0 -0.03896424037835771 -0.00027996880097367374 0 -0.038423127988029659 -1.3527592861734224e-05 0 -0.040603614073522004 0.00014973652261306172 0 -0.038803444195477668 0.0010238163678726649 0 -0.041249933011311191 -2.0207805800139092e-06 0 -0.040603614073522004 0.00014973652261306172 0 -0.044148877262780065 5.8574188235081175e-06 0 -0.041249933011311191 -2.0207805800139092e-06 0 -0.040603614073522004 0.00014973652261306172 0 -0.03896424037835771 -0.00027996880097367374 0 -0.040603614073522004 0.00014973652261306172 0 -0.044148877262780065 5.8574188235081175e-06 0 -0.040420823658190982 0.0022463451803272517 0 -0.044153849065019915 6.7400116317113518e-07 0 -0.043370525916765941 0.001038257804605604 0 -0.040420823658190982 0.0022463451803272517 0 -0.038803444195477668 0.0010238163678726649 0 -0.038152628935663999 0.002907412382234846 0 -0.040603614073522004 0.00014973652261306172 0 -0.040420823658190982 0.0022463451803272517 0 -0.038803444195477668 0.0010238163678726649 0 -0.043370525916765941 0.001038257804605604 0 -0.041890912611754962 0.00012395994689009371 0 -0.047500950712080915 0.0008762236990281769 0 -0.041890912611754962 0.00012395994689009371 0 -0.046781019935887125 -6.830359619896456e-05 0 -0.046944802130474202 8.5851758272985812e-05 0 -0.046785953061279126 8.1215742959430456e-05 0 -0.046389276278503151 0.00017560559664178677 0 -0.046781019935887125 -6.830359619896456e-05 0 -0.046785953061279126 8.1215742959430456e-05 0 -0.046389276278503151 0.00017560559664178677 0 -0.046781019935887125 -6.830359619896456e-05 0 -0.046114143863846296 -1.1011753391302122e-06 0 -0.044157545676079629 2.0952489920954188e-06 0 -0.046389276278503151 0.00017560559664178677 0 -0.046114143863846296 -1.1011753391302122e-06 0 -0.046781019935887125 -6.830359619896456e-05 0 -0.046114143863846296 -1.1011753391302122e-06 0 -0.048068197494008334 3.503922850752948e-07 0 -0.046781019935887125 -6.830359619896456e-05 0 -0.048068197494008334 3.503922850752948e-07 0 -0.046944802130474202 8.5851758272985812e-05 0 -0.047134218170269866 -0.00019708551115139403 0 -0.048068197494008334 3.503922850752948e-07 0 -0.046944802130474202 8.5851758272985812e-05 0 -0.046944802130474202 8.5851758272985812e-05 0 -0.047981120588583268 0.00078617193269300779 0 -0.048333181286307682 0.00018795081117086942 0 -0.047134218170269866 -0.00019708551115139403 0 -0.046944802130474202 8.5851758272985812e-05 0 -0.048333181286307682 0.00018795081117086942 0 -0.049744139051512835 0.00019490629395527723 0 -0.048333181286307682 0.00018795081117086942 0 -0.049258238335609536 0.0012292384919153365 0 -0.047981120588583268 0.00078617193269300779 0 -0.048333181286307682 0.00018795081117086942 0 -0.049258238335609536 0.0012292384919153365 0 -0.047981120588583268 0.00078617193269300779 0 -0.049258238335609536 0.0012292384919153365 0 -0.047324043967053954 0.0016570193369882928 0 -0.042189666891658303 -0.0010506228483360823 0 -0.041890912611754962 0.00012395994689009371 0 -0.03505172030809884 -0.0027176594795356498 0 -0.035322042395510483 -0.0031091186852362368 0 -0.034753502165987861 -0.0028948263659276624 0 -0.046944802130474202 8.5851758272985812e-05 0 -0.047981120588583268 0.00078617193269300779 0 -0.047324043967053954 0.0016570193369882928 0 -0.054550288996707462 0.00021845833578011204 0 -0.054612186937569709 0.00055146248608908257 0 -0.054783479481064247 0.00024673409057896693 0 -0.054278851103106644 0.00049579745281301242 0 -0.054550288996707462 0.00021845833578011204 0 -0.054612186937569709 0.00055146248608908257 0 -0.054897319200067206 0.00023856973421501398 0 -0.054880712647489151 8.4122177926750338e-05 0 -0.054986850053481202 7.3601442463844727e-05 0 -0.05454822964135652 0.00038283473461716308 0 -0.054772056099345941 0.00014832819924237667 0 -0.054880712647489151 8.4122177926750338e-05 0 -0.05496551698062075 3.5818848960362456e-06 0 -0.054860097047567363 1.7716384096263202e-05 0 -0.054880712647489151 8.4122177926750338e-05 0 -0.054986850053481202 7.3601442463844727e-05 0 -0.05496551698062075 3.5818848960362456e-06 0 -0.054772056099345941 0.00014832819924237667 0 -0.054903508152396342 2.7286969321903962e-05 0 -0.054986850053481202 7.3601442463844727e-05 0 -0.05496551698062075 3.5818848960362456e-06 0 -0.055008571909109162 9.799498176471213e-06 0 -0.054990941195542528 -1.0244735403925278e-06 0 -0.05496551698062075 3.5818848960362456e-06 0 -0.055008571909109162 9.799498176471213e-06 0 -0.054990941195542528 -1.0244735403925278e-06 0 -0.055000000200494906 1.880430308180465e-08 0 -0.054999930531656173 -2.9074340196105292e-08 0 -0.054990941195542528 -1.0244735403925278e-06 0 -0.055000000200494906 1.880430308180465e-08 0 -0.054999814431941511 5.7666453823447304e-07 0 -0.054990941195542528 -1.0244735403925278e-06 0 -0.054999930531656173 -2.9074340196105292e-08 0 -0.05496551698062075 3.5818848960362456e-06 0 -0.054999930531656173 -2.9074340196105292e-08 0 -0.05496551698062075 3.5818848960362456e-06 0 -0.05493863204708492 -8.3754156666199512e-06 0 -0.05496551698062075 3.5818848960362456e-06 0 -0.054860097047567363 1.7716384096263202e-05 0 -0.05493863204708492 -8.3754156666199512e-06 0 -0.054860097047567363 1.7716384096263202e-05 0 -0.05493863204708492 -8.3754156666199512e-06 0 -0.054868338234132868 -1.184277425362612e-05 0 -0.054999930531656173 -2.9074340196105292e-08 0 -0.05493863204708492 -8.3754156666199512e-06 0 -0.054999819481381655 -2.05379453487784e-08 0 -0.05493863204708492 -8.3754156666199512e-06 0 -0.054999819481381655 -2.05379453487784e-08 0 -0.054868338234132868 -1.184277425362612e-05 0 -0.054999819481381655 -2.05379453487784e-08 0 -0.054868338234132868 -1.184277425362612e-05 0 -0.054999804223871906 1.3007433373401696e-08 0 -0.054860097047567363 1.7716384096263202e-05 0 -0.054868338234132868 -1.184277425362612e-05 0 -0.054687007267378671 6.7191693919371685e-05 0 -0.054868338234132868 -1.184277425362612e-05 0 -0.054687007267378671 6.7191693919371685e-05 0 -0.054812092675048718 -2.4458108075634005e-05 0 -0.054880712647489151 8.4122177926750338e-05 0 -0.054860097047567363 1.7716384096263202e-05 0 -0.054687007267378671 6.7191693919371685e-05 0 -0.054880712647489151 8.4122177926750338e-05 0 -0.054687007267378671 6.7191693919371685e-05 0 -0.054629685927122945 0.00021957303375623506 0 -0.054897319200067206 0.00023856973421501398 0 -0.054880712647489151 8.4122177926750338e-05 0 -0.054629685927122945 0.00021957303375623506 0 -0.054687007267378671 6.7191693919371685e-05 0 -0.054629685927122945 0.00021957303375623506 0 -0.054413144700024701 0.00024326457810501309 0 -0.054413144700024701 0.00024326457810501309 0 -0.054471023899466613 0.00013329058744512875 0 -0.054242342983527668 0.00037397166265576562 0 -0.054687007267378671 6.7191693919371685e-05 0 -0.054413144700024701 0.00024326457810501309 0 -0.054471023899466613 0.00013329058744512875 0 -0.054623867380303733 -8.1445909596369728e-06 0 -0.054522395072150169 3.0306539657933945e-05 0 -0.054764478999952675 -0.00017659220467627391 0 -0.054831332580035412 -0.00023967389406900387 0 -0.054866129725707098 -0.00012246682241899559 0 -0.054831332580035412 -0.00023967389406900387 0 -0.054866129725707098 -0.00012246682241899559 0 -0.054901344317909787 -0.00018276545220680316 0 -0.054764478999952675 -0.00017659220467627391 0 -0.054831332580035412 -0.00023967389406900387 0 -0.054726169786213856 -0.00032944871580392214 0 -0.054687007267378671 6.7191693919371685e-05 0 -0.054471023899466613 0.00013329058744512875 0 -0.054812092675048718 -2.4458108075634005e-05 0 -0.054764478999952675 -0.00017659220467627391 0 -0.054866129725707098 -0.00012246682241899559 0 -0.054812092675048718 -2.4458108075634005e-05 0 -0.054623867380303733 -8.1445909596369728e-06 0 -0.054770592643034431 -1.0280189760310768e-05 0 -0.054868338234132868 -1.184277425362612e-05 0 -0.054812092675048718 -2.4458108075634005e-05 0 -0.054999804223871906 1.3007433373401696e-08 0 -0.054812092675048718 -2.4458108075634005e-05 0 -0.054999804223871906 1.3007433373401696e-08 0 -0.054932150571247659 -2.4455293465090532e-05 0 -0.054999804223871906 1.3007433373401696e-08 0 -0.054932150571247659 -2.4455293465090532e-05 0 -0.054999964388507148 -5.3659194884373682e-09 0 -0.054866129725707098 -0.00012246682241899559 0 -0.054932150571247659 -2.4455293465090532e-05 0 -0.054934878468422321 -0.00010276074615656304 0 -0.054866129725707098 -0.00012246682241899559 0 