<?xml version="1.0"?>
<VTKFile type="UnstructuredGrid" version="0.1" byte_order="LittleEndian">
<UnstructuredGrid>
<Piece NumberOfPoints="30578" NumberOfCells="10723">
<Points>
<DataArray type="Float64" NumberOfComponents="3" format="ascii">
-0.5 -0.5 0 -0.47439485679867832 -0.48072581506667478 0 -0.5 -0.44765434486020428 0 -0.5 -0.5 0 -0.47439485679867832 -0.48072581506667478 0 -0.43702443379937372 -0.49999999999999922 0 -0.47439485679867832 -0.48072581506667478 0 -0.45530669598391149 -0.47718009944797551 0 -0.43702443379937372 -0.49999999999999922 0 -0.47439485679867832 -0.48072581506667478 0 -0.45530669598391149 -0.47718009944797551 0 -0.4597353119515426 -0.45943449384344293 0 -0.45530669598391149 -0.47718009944797551 0 -0.44381084376742141 -0.47114793899167112 0 -0.4597353119515426 -0.45943449384344293 0 -0.45530669598391149 -0.47718009944797551 0 -0.44381084376742141 -0.47114793899167112 0 -0.43702443379937372 -0.49999999999999922 0 -0.44381084376742141 -0.47114793899167112 0 -0.43702443379937372 -0.49999999999999922 0 -0.45059725373546922 -0.44229587798334291 0 -0.4339166039271336 -0.43498117536117131 0 -0.43309128002320102 -0.45351235807576151 0 -0.44381084376742141 -0.47114793899167112 0 -0.45059725373546922 -0.44229587798334291 0 -0.4597353119515426 -0.45943449384344293 0 -0.44381084376742141 -0.47114793899167112 0 -0.45059725373546922 -0.44229587798334291 0 -0.43309128002320102 -0.45351235807576151 0 -0.44381084376742141 -0.47114793899167112 0 -0.45059725373546922 -0.44229587798334291 0 -0.4597353119515426 -0.45943449384344293 0 -0.47505511338101108 -0.44868394208069429 0 -0.46517432262153441 -0.43649963461163338 0 -0.45059725373546922 -0.44229587798334291 0 -0.4597353119515426 -0.45943449384344293 0 -0.46517432262153441 -0.43649963461163338 0 -0.47505511338101108 -0.44868394208069429 0 -0.47820614292347569 -0.42776699273468149 0 -0.46517432262153441 -0.43649963461163338 0 -0.47505511338101108 -0.44868394208069429 0 -0.47820614292347569 -0.42776699273468149 0 -0.47439485679867832 -0.48072581506667478 0 -0.47505511338101108 -0.44868394208069429 0 -0.5 -0.44765434486020428 0 -0.47439485679867832 -0.48072581506667478 0 -0.4597353119515426 -0.45943449384344293 0 -0.47505511338101108 -0.44868394208069429 0 -0.47505511338101108 -0.44868394208069429 0 -0.5 -0.44765434486020428 0 -0.47820614292347569 -0.42776699273468149 0 -0.5 -0.44765434486020428 0 -0.49656450065014057 -0.42151023988558672 0 -0.47820614292347569 -0.42776699273468149 0 -0.5 -0.44765434486020428 0 -0.49656450065014057 -0.42151023988558672 0 -0.50000000000000089 -0.37904661106745707 0 -0.49656450065014057 -0.42151023988558672 0 -0.48135717246594062 -0.40685004338866881 0 -0.47820614292347569 -0.42776699273468149 0 -0.49656450065014057 -0.42151023988558672 0 -0.48135717246594062 -0.40685004338866881 0 -0.48135717246594062 -0.40685004338866881 0 -0.47820614292347569 -0.42776699273468149 0 -0.48135717246594062 -0.40685004338866881 0 -0.47820614292347569 -0.42776699273468149 0 -0.45738366370351707 -0.41344381697501481 0 -0.49656450065014057 -0.42151023988558672 0 -0.48135717246594062 -0.40685004338866881 0 -0.50000000000000089 -0.37904661106745707 0 -0.50000000000000089 -0.37904661106745707 0 -0.48466894952205442 -0.38486603086372417 0 -0.48717439863114548 -0.36823452950912272 0 -0.48135717246594062 -0.40685004338866881 0 -0.50000000000000089 -0.37904661106745707 0 -0.48466894952205442 -0.38486603086372417 0 -0.48466894952205442 -0.38486603086372417 0 -0.48717439863114548 -0.36823452950912272 0 -0.50000000000000089 -0.37904661106745707 0 -0.48466894952205442 -0.38486603086372417 0 -0.48135717246594062 -0.40685004338866881 0 -0.48466894952205442 -0.38486603086372417 0 -0.46593083509403682 -0.39197871725165279 0 -0.48135717246594062 -0.40685004338866881 0 -0.48466894952205442 -0.38486603086372417 0 -0.48135717246594062 -0.40685004338866881 0 -0.46593083509403682 -0.39197871725165279 0 -0.48466894952205442 -0.38486603086372417 0 -0.47195833844942919 -0.37959069520904498 0 -0.46593083509403682 -0.39197871725165279 0 -0.48466894952205442 -0.38486603086372417 0 -0.46593083509403682 -0.39197871725165279 0 -0.48466894952205442 -0.38486603086372417 0 -0.47195833844942919 -0.37959069520904498 0 -0.48717439863114548 -0.36823452950912272 0 -0.46593083509403682 -0.39197871725165279 0 -0.44890944387521442 -0.39029302340116001 0 -0.45132291774153199 -0.37789636588759368 0 -0.47195833844942919 -0.37959069520904498 0 -0.46593083509403682 -0.39197871725165279 0 -0.45132291774153199 -0.37789636588759368 0 -0.46593083509403682 -0.39197871725165279 0 -0.45132291774153199 -0.37789636588759368 0 -0.48135717246594062 -0.40685004338866881 0 -0.46593083509403682 -0.39197871725165279 0 -0.45738366370351707 -0.41344381697501481 0 -0.46593083509403682 -0.39197871725165279 0 -0.44275815558040038 -0.40077469311046232 0 -0.45738366370351707 -0.41344381697501481 0 -0.46593083509403682 -0.39197871725165279 0 -0.44275815558040038 -0.40077469311046232 0 -0.46593083509403682 -0.39197871725165279 0 -0.44275815558040038 -0.40077469311046232 0 -0.44890944387521442 -0.39029302340116001 0 -0.44275815558040038 -0.40077469311046232 0 -0.44064580868350911 -0.39542861624611658 0 -0.44890944387521442 -0.39029302340116001 0 -0.44225344557501872 -0.38376649822575309 0 -0.45132291774153199 -0.37789636588759368 0 -0.43671500038902772 -0.36381401452353412 0 -0.44890944387521442 -0.39029302340116001 0 -0.44225344557501872 -0.38376649822575309 0 -0.45132291774153199 -0.37789636588759368 0 -0.44064580868350911 -0.39542861624611658 0 -0.44225344557501872 -0.38376649822575309 0 -0.43040194378266172 -0.3881600185019185 0 -0.44064580868350911 -0.39542861624611658 0 -0.44890944387521442 -0.39029302340116001 0 -0.44225344557501872 -0.38376649822575309 0 -0.47820614292347569 -0.42776699273468149 0 -0.46517432262153441 -0.43649963461163338 0 -0.45738366370351707 -0.41344381697501481 0 -0.45059725373546922 -0.44229587798334291 0 -0.45738366370351707 -0.41344381697501481 0 -0.45059725373546922 -0.44229587798334291 0 -0.46517432262153441 -0.43649963461163338 0 -0.45738366370351707 -0.41344381697501481 0 -0.44275815558040038 -0.40077469311046232 0 -0.45738366370351707 -0.41344381697501481 0 -0.44164244492799948 -0.42121090558557039 0 -0.45059725373546922 -0.44229587798334291 0 -0.45738366370351707 -0.41344381697501481 0 -0.44164244492799948 -0.42121090558557039 0 -0.45059725373546922 -0.44229587798334291 0 -0.44164244492799948 -0.42121090558557039 0 -0.4339166039271336 -0.43498117536117131 0 -0.4339166039271336 -0.43498117536117131 0 -0.42355654769347711 -0.414558964497861 0 -0.41671115160429401 -0.44095791049380378 0 -0.44164244492799948 -0.42121090558557039 0 -0.4339166039271336 -0.43498117536117131 0 -0.42355654769347711 -0.414558964497861 0 -0.44275815558040038 -0.40077469311046232 0 -0.44164244492799948 -0.42121090558557039 0 -0.42355654769347711 -0.414558964497861 0 -0.42355654769347711 -0.414558964497861 0 -0.41056920252370888 -0.3963363404412637 0 -0.40050668374064252 -0.41734442193795029 0 -0.42355654769347711 -0.414558964497861 0 -0.41671115160429401 -0.44095791049380378 0 -0.42355654769347711 -0.414558964497861 0 -0.40050668374064252 -0.41734442193795029 0 -0.41671115160429401 -0.44095791049380378 0 -0.44225344557501872 -0.38376649822575309 0 -0.43040194378266172 -0.3881600185019185 0 -0.43671500038902772 -0.36381401452353412 0 -0.43040194378266172 -0.3881600185019185 0 -0.43671500038902772 -0.36381401452353412 0 -0.44064580868350911 -0.39542861624611658 0 -0.42355654769347711 -0.414558964497861 0 -0.43040194378266172 -0.3881600185019185 0 -0.42355654769347711 -0.414558964497861 0 -0.43040194378266172 -0.3881600185019185 0 -0.44275815558040038 -0.40077469311046232 0 -0.44064580868350911 -0.39542861624611658 0 -0.42355654769347711 -0.414558964497861 0 -0.44064580868350911 -0.39542861624611658 0 -0.43040194378266172 -0.3881600185019185 0 -0.42355654769347711 -0.414558964497861 0 -0.43040194378266172 -0.3881600185019185 0 -0.41056920252370888 -0.3963363404412637 0 -0.43040194378266172 -0.3881600185019185 0 -0.4079689369259607 -0.37224253963894771 0 -0.43040194378266172 -0.3881600185019185 0 -0.41056920252370888 -0.3963363404412637 0 -0.4079689369259607 -0.37224253963894771 0 -0.41056920252370888 -0.3963363404412637 0 -0.39195929229331972 -0.37982250283040359 0 -0.4079689369259607 -0.37224253963894771 0 -0.41056920252370888 -0.3963363404412637 0 -0.39195929229331972 -0.37982250283040359 0 -0.39357845321732049 -0.39746174547711199 0 -0.41056920252370888 -0.3963363404412637 0 -0.39357845321732049 -0.39746174547711199 0 -0.40050668374064252 -0.41734442193795029 0 -0.39357845321732049 -0.39746174547711199 0 -0.38114412328536468 -0.40833987260765031 0 -0.36544727141479139 -0.39026932065168712 0 -0.39195929229331972 -0.37982250283040359 0 -0.37549160074202448 -0.3732971907138336 0 -0.36544727141479139 -0.39026932065168712 0 -0.39195929229331972 -0.37982250283040359 0 -0.39357845321732049 -0.39746174547711199 0 -0.36544727141479139 -0.39026932065168712 0 -0.40050668374064252 -0.41734442193795029 0 -0.3944977858259317 -0.43926335073686201 0 -0.41671115160429401 -0.44095791049380378 0 -0.40050668374064252 -0.41734442193795029 0 -0.38028594703985957 -0.42392304976487449 0 -0.3944977858259317 -0.43926335073686201 0 -0.39357845321732049 -0.39746174547711199 0 -0.40050668374064252 -0.41734442193795029 0 -0.38114412328536468 -0.40833987260765031 0 -0.40050668374064252 -0.41734442193795029 0 -0.38114412328536468 -0.40833987260765031 0 -0.38028594703985957 -0.42392304976487449 0 -0.38114412328536468 -0.40833987260765031 0 -0.38028594703985957 -0.42392304976487449 0 -0.36590226101420908 -0.41270082520662749 0 -0.38028594703985957 -0.42392304976487449 0 -0.3944977858259317 -0.43926335073686201 0 -0.3723601590800425 -0.44005613486137668 0 -0.3944977858259317 -0.43926335073686201 0 -0.38265619596279349 -0.45813348326120767 0 -0.3723601590800425 -0.44005613486137668 0 -0.40093272222703252 -0.45142790024540502 0 -0.3944977858
[...]
<PointData Scalars="" Vectors="displacement," Tensors="">
<DataArray type="Float64" Name="displacement" NumberOfComponents="3" format="ascii">
8.1172937735899913e-08 0.0049996942536397046 0 3.0772201561672188e-05 0.0048917262891878558 0 -3.5265207170479669e-08 0.0044768007320288936 0 8.1172937735899913e-08 0.0049996942536397046 0 3.0772201561672188e-05 0.0048917262891878558 0 4.5770344665512413e-08 0.0049997799846412446 0 3.0772201561672188e-05 0.0048917262891878558 0 2.0649791687554006e-05 0.0049107015591371176 0 4.5770344665512413e-08 0.0049997799846412446 0 3.0772201561672188e-05 0.0048917262891878558 0 2.0649791687554006e-05 0.0049107015591371176 0 6.7691109199786583e-07 0.0048396831325394933 0 2.0649791687554006e-05 0.0049107015591371176 0 1.9730356919902724e-05 0.0049185934711733388 0 6.7691109199786583e-07 0.0048396831325394933 0 2.0649791687554006e-05 0.0049107015591371176 0 1.9730356919902724e-05 0.0049185934711733388 0 4.5770344665512413e-08 0.0049997799846412446 0 -1.9648335747828112e-06 0.0049306850482289171 0 1.0515966021415285e-08 0.0049999771041991607 0 -0.00010040869348868606 0.0048743349634862857 0 -0.00012869388479795456 0.0049304593809768836 0 -6.7616639418565104e-05 0.0049469618807276902 0 1.9730356919902724e-05 0.0049185934711733388 0 -6.9186367281089356e-05 0.0048589069153349316 0 6.7691109199786583e-07 0.0048396831325394933 0 -2.2266917877526386e-05 0.004939244269510118 0 -0.00010040869348868606 0.0048743349634862857 0 -6.7616639418565104e-05 0.0049469618807276902 0 -1.9648335747828112e-06 0.0049306850482289171 0 -8.7864998632102397e-05 0.004866564692426619 0 6.7691109199786583e-07 0.0048396831325394933 0 -2.1070207061929306e-05 0.0046866685098816852 0 -9.9115493972169337e-05 0.0047726187127837211 0 -6.9186367281089356e-05 0.0048589069153349316 0 6.7691109199786583e-07 0.0048396831325394933 0 -9.9115493972169337e-05 0.0047726187127837211 0 -2.1070207061929306e-05 0.0046866685098816852 0 -0.00014619418446302628 0.0046994008370241317 0 -9.9115493972169337e-05 0.0047726187127837211 0 -1.6087214337937265e-06 0.0046657447329185144 0 -9.1009678737571744e-05 0.004618959026978578 0 3.0772201561672188e-05 0.0048917262891878558 0 -2.1070207061929306e-05 0.0046866685098816852 0 -3.5265207170479669e-08 0.0044768007320288936 0 3.0772201561672188e-05 0.0048917262891878558 0 6.7691109199786583e-07 0.0048396831325394933 0 -2.1070207061929306e-05 0.0046866685098816852 0 -2.1070207061929306e-05 0.0046866685098816852 0 -3.5265207170479669e-08 0.0044768007320288936 0 -1.2079032052215216e-05 0.0044913495389546747 0 -3.5265207170479669e-08 0.0044768007320288936 0 -9.0759926324647132e-06 0.0042313035938462574 0 -1.2079032052215216e-05 0.0044913495389546747 0 -3.5265207170479669e-08 0.0044768007320288936 0 -9.0759926324647132e-06 0.0042313035938462574 0 -1.2576321326138038e-07 0.003790787193240283 0 -9.0759926324647132e-06 0.0042313035938462574 0 -0.00023331640198606356 0.0044364859705710354 0 -1.2079032052215216e-05 0.0044913495389546747 0 -6.8931361987880459e-07 0.004193129532467115 0 -0.00014439038555059407 0.0043385667805273705 0 -0.00014439038555059407 0.0043385667805273705 0 -9.1009678737571744e-05 0.004618959026978578 0 -0.00024678279154264981 0.0046876233408701708 0 -0.00014619418446302628 0.0046994008370241317 0 -0.00021575123351350137 0.0048122736814778912 0 -9.0759926324647132e-06 0.0042313035938462574 0 6.949359620032374e-06 0.0040628841817286071 0 -1.2576321326138038e-07 0.003790787193240283 0 -3.4741877637423269e-07 0.0037900223792775812 0 -0.00012581282371125122 0.0035661346020108521 0 -3.331171666210095e-06 0.0035373448450412709 0 6.949359620032374e-06 0.0040628841817286071 0 -1.2576321326138038e-07 0.003790787193240283 0 -2.2539422309513208e-05 0.0039361773215808244 0 -0.00011213807488096193 0.0037361792511674398 0 -2.6339458358676924e-05 0.0035445031256333562 0 -2.9681552036974203e-08 0.0037904889273127872 0 -0.00011213807488096193 0.0037361792511674398 0 -0.00010347160032758692 0.0040946424258876228 0 -0.00021534011643908139 0.0040753057152753125 0 -0.00017940458966961363 0.0041728185571427191 0 -0.00014439038555059407 0.0043385667805273705 0 -0.00011213807488096193 0.0037361792511674398 0 -0.00014439038555059407 0.0043385667805273705 0 -0.00022307203817443404 0.0042658610774004889 0 -0.00012125606212268612 0.003511326475829205 0 -8.6654898465773555e-05 0.0034239736829941012 0 -0.00015302703806300381 0.0033965117511275231 0 -0.00011213807488096193 0.0037361792511674398 0 -0.00022307203817443404 0.0042658610774004889 0 -0.00012125606212268612 0.003511326475829205 0 -8.6654898465773555e-05 0.0034239736829941012 0 -3.331171666210095e-06 0.0035373448450412709 0 -0.00028415904642952025 0.0048094563151022561 0 -0.00028955774231167965 0.0048528230438140574 0 -0.00030762584509370813 0.0048462640238047484 0 -8.6654898465773555e-05 0.0034239736829941012 0 -0.00015302703806300381 0.0033965117511275231 0 -6.6528744832056462e-05 0.0033298265053268751 0 -0.00022307203817443404 0.0042658610774004889 0 -0.00019197058164334337 0.0040861631169284958 0 -0.00024678279154264981 0.0046876233408701708 0 -0.00031476511966486574 0.0047660532787933184 0 -0.00021575123351350137 0.0048122736814778912 0 -0.00031476511966486574 0.0047660532787933184 0 -0.00026710939970531336 0.0048720803589520989 0 -0.00021575123351350137 0.0048122736814778912 0 -0.00022307203817443404 0.0042658610774004889 0 -0.0002510271268926758 0.0050633252534493748 0 -0.00028415904642952025 0.0048094563151022561 0 -0.00026710939970531336 0.0048720803589520989 0 -0.00028955774231167965 0.0048528230438140574 0 -0.00026710939970531336 0.0048720803589520989 0 -0.00028461233520822208 0.0048751822202219514 0 -0.00028955774231167965 0.0048528230438140574 0 -0.00029895168715073003 0.00486171769613778 0 -0.00030762584509370813 0.0048462640238047484 0 -0.00031707653067522968 0.0048583058353631244 0 -0.00028955774231167965 0.0048528230438140574 0 -0.00029895168715073003 0.00486171769613778 0 -0.00030762584509370813 0.0048462640238047484 0 -0.00028461233520822208 0.0048751822202219514 0 -0.00029895168715073003 0.00486171769613778 0 -0.00029371984946130296 0.0048743623393265227 0 -0.00028461233520822208 0.0048751822202219514 0 -0.00028955774231167965 0.0048528230438140574 0 -0.00029895168715073003 0.00486171769613778 0 -0.00014619418446302628 0.0046994008370241317 0 -9.9115493972169337e-05 0.0047726187127837211 0 -0.00021575123351350137 0.0048122736814778912 0 -8.7864998632102397e-05 0.004866564692426619 0 -0.00021092776264841918 0.0048166550452015651 0 -6.9186367281089356e-05 0.0048589069153349316 0 -9.9115493972169337e-05 0.0047726187127837211 0 -0.00021575123351350137 0.0048122736814778912 0 -0.00026710939970531336 0.0048720803589520989 0 -0.00021575123351350137 0.0048122736814778912 0 -0.00018248320705115364 0.00488988039629737 0 -0.00010040869348868606 0.0048743349634862857 0 -0.00021575123351350137 0.0048122736814778912 0 -0.00018248320705115364 0.00488988039629737 0 -0.00010040869348868606 0.0048743349634862857 0 -0.00018248320705115364 0.00488988039629737 0 -0.00012869388479795456 0.0049304593809768836 0 -0.00012869388479795456 0.0049304593809768836 0 -0.0002073138346141195 0.0049607079601977095 0 -0.00010607034702391109 0.004994220198271249 0 -0.00018248320705115364 0.00488988039629737 0 -0.00012869388479795456 0.0049304593809768836 0 -0.0002073138346141195 0.0049607079601977095 0 -0.00026710939970531336 0.0048720803589520989 0 -0.00018248320705115364 0.00488988039629737 0 -0.0002073138346141195 0.0049607079601977095 0 1.5856045805472664e-05 0.0047194282486732967 0 -8.2771719516322382e-07 0.0047310576226748703 0 1.9120203461166179e-05 0.0047434993541881493 0 -8.1295224009715928e-05 0.0048681262119154205 0 -3.0111182896073378e-05 0.0048505613441802986 0 1.5856045805472664e-05 0.0047194282486732967 0 1.9120203461166179e-05 0.0047434993541881493 0 4.5392606894259973e-05 0.0047271124829633701 0 -0.00029895168715073003 0.00486171769613778 0 -0.00029371984946130296 0.0048743623393265227 0 -0.00031707653067522968 0.0048583058353631244 0 -0.00020731376994304876 0.0046162803431929024 0 -8.6655092721922659e-05 0.0039906585308615294 0 -0.00028461233520822208 0.0048751822202219514 0 -0.0002073138346141195 0.0049607079601977095 0 -0.00031618857198920276 0.0049193646437539571 0 -8.1295224009715928e-05 0.0048681262119154205 0 -0.00020731376994304876 0.0046162803431929024 0 -0.00026710939970531336 0.0048720803589520989 0 -0.00028461233520822208 0.0048751822202219514 0 -0.0002073138346141195 0.0049607079601977095 0 -0.00033954000980671088 0.0049161512243079443 0 -0.00020731376994304876 0.0046162803431929024 0 1.5856045805472664e-05 0.0047194282486732967 0 -9.2310701502084404e-06 0.004712204631918411 0 -8.2771719516322382e-07 0.0047310576226748703 0 -0.00020731376994304876 0.0046162803431929024 0 -7.7691104788439575e-05 0.00434625220738683 0 -9.2310701502084404e-06 0.004712204631918411 0 -8.2771719516322382e-07 0.0047310576226748703 0 -2.0302494163268414e-05 0.0047302242677585409 0 -8.2771719516322382e-07 0.0047310576226748703 0 -1.3392709357889458e-05 0.0047454249863346735 0 -2.0302494163268414e-05 0.0047302242677585409 0 -8.2771719516322382e-07 0.0047310576226748703 0 -1.3392709357889458e-05 0.0047454249863346735 0 1.0510048994060395e-06 0.004747790156938915 0 -8.2771719516322382e-07 0.0047310576226748703 0 1.0510048994060395e-06 0.004747790156938915 0 1.9120203461166179e-05 0.0047434993541881493 0 1.0510048994060395e-06 0.004747790156938915 0 1.0706192341538152e-05 0.0047625416744453263 0 -1.4624286271562275e-06 0.0047697715264455893 0 -1.3392709357889458e-05 0.0047454249863346735 0 -1.8274265390130768e-05 0.004758996388071925 0 -1.4624286271562275e-06 0.0047697715264455893 0 -1.3392709357889458e-05 0.0047454249863346735 0 1.0510048994060395e-06 0.004747790156938915 0 -1.4624286271562275e-06 0.0047697715264455893 0 1.9120203461166179e-05 0.0047434993541881493 0 4.3584495819975648e-05 0.0047519598121554315 0 4.5392606894259973e-05 0.0047271124829633701 0 1.9120203461166179e-05 0.0047434993541881493 0 2.5187694896156535e-05 0.004767817598506547 0 4.3584495819975648e-05 0.0047519598121554315 0 1.0510048994060395e-06 0.004747790156938915 0 1.9120203461166179e-05 0.0047434993541881493 0 1.0706192341538152e-05 0.0047625416744453263 0 1.9120203461166179e-05 0.0047434993541881493 0 1.0706192341538152e-05 0.0047625416744453263 0 2.5187694896156535e-05 0.004767817598506547 0 1.0706192341538152e-05 0.0047625416744453263 0 2.5187694896156535e-05 0.004767817598506547 0 1.4705883806004117e-05 0.0047797547614241006 0 2.5187694896156535e-05 0.004767817598506547 0 4.3584495819975648e-05 0.0047519598121554315 0 4.2900769367872151e-05 0.0047830854392127324 0 4.3584495819975648e-05 0.0047519598121554315 0 6.9931060699229963e-05 0.0047674874873978486 0 4.2900769367872151e-05 0.0047830854392127324 0 5.88606635437526e-05 0.0047453063926483447 0 4.3584495819975648e-05 0.0047519598121554315 0 6.9931060699229963e-05 0.0047674874873978486 0 5.88606635437526e-05 0.0047453063926483447 0 4.3584495819975648e-05 0.0047519598121554315 0 4.5392606894259973e-05 0.0047271124829633701 0 6.4082420807216723e-05 0.0048527350148378362 0 -1.4369199001154033e-06 0.0049234518613612329 0 4.4685424981205409e-05 0.0049650445753708465 0 3.9005145635956833e-06 0.0049912107982005337 0 1.4501289476752873e-05 0.005016611560288326 0 5.88606635437526e-05 0.0047453063926483447 0 6.9931060699229963e-05 0.0047674874873978486 0 7.6843501438134311e-05 0.0047360804136942249 0 4.4685424981205409e-05 0.0049650445753708465 0 -1.1193284347757564e-06 0.004974597308270717 0 3.9005145635956833e-06 0.0049912107982005337 0 -1.1193284347757564e-06 0.004974597308270717 0 -1.5643532234387669e-06 0.0049912524862546145 0 2.1700379583992983e-06 0.0049944427460174873 0 -1.1193284347757564e-06 0.004974597308270717 0 -1.5643532234387669e-06 0.0049912524862546145 0 3.9005145635956833e-06 0.0049912107982005337 0 5.4244059385388094e-09 0.004999984471037334 0 -1.5643532234387669e-06 0.0049912524862546145 0 -1.3368993751720171e-08 0.0049999911079083616 0 5.4244059385388094e-09 0.004999984471037334 0 -1.5643532234387669e-06 0.0049912524862546145 0 2.1700379583992983e-06 0.0049944427460174873 0 -1.5643532234387669e-06 0.0049912524862546145 0 -1.3368993751720171e-08 0.0049999911079083616 0 -1.9590148154316123e-06 0.0050018569212216275 0 -4.7172442853874982e-09 0.0050000004386350026 0 -1.0695433262898209e-06 0.0050023078309755836 0 -1.9590148154316123e-06 0.0050018569212216275 0 3.9005145635956833e-06 0.0049912107982005337 0 1.4501289476752873e-05 0.005016611560288326 0 -1.5643532234387669e-06 0.0049912524862546145 0 -1.9590148154316123e-06 0.0050018569212216275 0 3.9005145635956833e-06 0.0049912107982005337 0 -1.0695433262898209e-06 0.0050023078309755836 0 -1.4369199001154033e-06 0.0049234518613612329 0 -2.9194271806266559e-05 0.0050068830892673636 0 -1.4369199001154033e-06 0.0049234518613612329 0 -6.9544158460102965e-06 0.0049920207415505421 0 -1.8762108755468746e-05 0.0049745447844875982 0 -2.3803119103535403e-05 0.004998438673379001 0 -7.3444990458512135e-06 0.0050013652813270301 0 -6.9544158460102965e-06 0.0049920207415505421 0 -2.3803119103535403e-05 0.004998438673379001 0 -7.3444990458512135e-06 0.0050013652813270301 0 -6.9544158460102965e-06 0.0049920207415505421 0 -7.7832997207973891e-09 0.00500000026537906 0 -6.746338565104322e-10 0.0050000070698524926 0 -7.3444990458512135e-06 0.0050013652813270301 0 -7.7832997207973891e-09 0.00500000026537906 0 -6.9544158460102965e-06 0.0049920207415505421 0 -7.7832997207973891e-09 0.00500000026537906 0 2.1803544500787708e-08 0.0049999413203597751 0 -6.9544158460102965e-06 0.0049920207415505421 0 2.1803544500787708e-08 0.0049999413203597751 0 -1.8762108755468746e-05 0.0049745447844875982 0 -2.2266917877526386e-05 0.004939244269510118 0 2.1803544500787708e-08 0.0049999413203597751 0 -1.8762108755468746e-05 0.0049745447844875982 0 -1.8762108755468746e-05 0.0049745447844875982 0 -5.4347297167989001e-05 0.0049815388685566162 0 -6.7616639418565104e-05 0.0049469618807276902 0 -2.2266917877526386e-05 0.004939244269510118 0 -1.8762108755468746e-05 0.0049745447844875982 0 -6.7616639418565104e-05 0.0049469618807276902 0 -0.00012869388479795456 0.0049304593809768836 0 -6.7616639418565104e-05 0.0049469618807276902 0 -0.00010607034702391109 0.004994220198271249 0 -5.4347297167989001e-05 0.0049815388685566162 0 -6.7616639418565104e-05 0.0049469618807276902 0 -0.00010607034702391109 0.004994220198271249 0 -5.4347297167989001e-05 0.0049815388685566162 0 -0.00010607034702391109 0.004994220198271249 0 -3.1835723524823315e-05 0.0050128779971771835 0 -3.0111182896073378e-05 0.0048505613441802986 0 -1.4369199001154033e-06 0.0049234518613612329 0 5.88606635437526e-05 0.0047453063926483447 0 4.5392606894259973e-05 0.0047271124829633701 0 7.6843501438134311e-05 0.0047360804136942249 0 -1.8762108755468746e-05 0.0049745447844875982 0 -5.4347297167989001e-05 0.0049815388685566162 0 -3.1835723524823315e-05 0.0050128779971771835 0 -3.6747109870973009e-05 0.0023723719178203487 0 -3.4885525990053971e-05 0.0023481291295838636 0 -2.27510304733276e-05 0.0023697660885541013 0 -5.6024388731004937e-05 0.0023543683270974254 0 -3.6747109870973009e-05 0.0023723719178203487 0 -3.4885525990053971e-05 0.0023481291295838636 0 3.4466834070096442e-05 0.0029440636813786464 0 3.7710903878939072e-05 0.0029332106782144038 0 -9.8171893216828859e-06 0.0029048795030548946 0 -1.6639344182468212e-05 0.0026285280916988917 0 -1.9911018729907412e-05 0.0026401374394105824 0 3.7710903878939072e-05 0.0029332106782144038 0 2.6010614275665361e-05 0.0028071654103361795 0 4.1164637230867236e-05 0.0029437453683405007 0 3.7710903878939072e-05 0.0029332106782144038 0 -9.8171893216828859e-06 0.0029048795030548946 0 2.6010614275665361e-05 0.0028071654103361795 0 -1.9911018729907412e-05 0.0026401374394105824 0 -2.6234201566000182e-05 0.0025433492155452482 0 -9.8171893216828859e-06 0.0029048795030548946 0 2.6010614275665361e-05 0.0028071654103361795 0 -6.3218800497927781e-05 0.0027259397041669267 0 2.4332381429819008e-06 0.0026626759194496043 0 2.6010614275665361e-05 0.0028071654103361795 0 -6.3218800497927781e-05 0.0027259397041669267 0 2.4332381429819008e-06 0.0026626759194496043 0 -2.5187120653048311e-08 0.002500679226651004 0 7.6151327297488294e-08 0.0027586625176796572 0 2.4332381429819008e-06 0.0026626759194496043 0 -2.5187120653048311e-08 0.002500679226651004 0 -1.8795459132900639e-05 0.0025460093723739577 0 2.4332381429819008e-06 0.0026626759194496043 0 7.6151327297488294e-08 0.0027586625176796572 0 2.6010614275665361e-05 0.0028071654103361795 0 7.6151327297488294e-08 0.0027586625176796572 0 2.6010614275665361e-05 0.0028071654103361795 0 2.5041467352058234e-05 0.0029143698978948036 0 2.6010614275665361e-05 0.0028071654103361795 0 4.1164637230867236e-05 0.0029437453683405007 0 2.5041467352058234e-05 0.0029143698978948036 0 4.1164637230867236e-05 0.0029437453683405007 0 2.5041467352058234e-05 0.0029143698978948036 0 1.9164561197530997e-05 0.0030503412462658873 0 7.6151327297488294e-08 0.0027586625176796572 0 2.5041467352058234e-05 0.0029143698978948036 0 4.7867264342538747e-08 0.0030165961296021253 0 2.5041467352058234e-05 0.0029143698978948036 0 4.7867264342538747e-08 0.0030165961296021253 0 1.9164561197530997e-05 0.0030503412462658873 0 4.7867264342538747e-08 0.0030165961296021253 0 1.9164561197530997e-05 0.0030503412462658873 0 -1.3328203878646522e-08 0.0032744763780749001 0 4.1164637230867236e-05 0.0029437453683405007 0 1.9164561197530997e-05 0.0030503412462658873 0 3.0753257410805441e-05 0.0029831780146840417 0 1.9164561197530997e-05 0.0030503412462658873 0 3.0753257410805441e-05 0.0029831780146840417 0 -1.2909196324104859e-05 0.0031773909664806086 0 3.7710903878939072e-05 0.0029332106782144038 0 4.1164637230867236e-05 0.0029437453683405007 0 3.0753257410805441e-05 0.0029831780146840417 0 3.7710903878939072e-05 0.0029332106782144038 0 3.0753257410805441e-05 0.0029831780146840417 0 2.3137937022900459e-05 0.0029438491849034347 0 3.4466834070096442e-05 0.0029440636813786464 0 3.7710903878939072e-05 0.0029332106782144038 0 2.3137937022900459e-05 0.0029438491849034347 0 3.0753257410805441e-05 0.0029831780146840417 0 2.3137937022900459e-05 0.0029438491849034347 0 -1.0767115413579712e-05 0.0029412636177341403 0 -1.0767115413579712e-05 0.0029412636177341403 0 -4.7060176140184849e-05 0.0029742429745996746 0 -2.1260454501350956e-05 0.0029191407927825698 0 3.0753257410805441e-05 0.0029831780146840417 0 -1.0767115413579712e-05 0.0029412636177341403 0 -4.7060176140184849e-05 0.0029742429745996746 0 -2.7255083107135925e-05 0.0031487153143664468 0 -1.5714044368655928e-05 0.0031307663293995347 0 -1.6612988676918383e-05 0.0033238163798291216 0 4.7931546974795718e-06 0.0033288891249610136 0 2.2045001695699834e-05 0.0033074897716126122 0 4.7931546974795718e-06 0.0033288891249610136 0 2.2045001695699834e-05 0.0033074897716126122 0 1.4249813003667499e-05 0.0033248827736805028 0 -1.6612988676918383e-05 0.0033238163798291216 0 4.7931546974795718e-06 0.0033288891249610136 0 -4.3610286722609946e-06 0.0033333143184649328 0 3.0753257410805441e-05 0.0029831780146840417 0 -4.7060176140184849e-05 0.0029742429745996746 0 -1.2909196324104859e-05 0.0031773909664806086 0 -1.6612988676918383e-05 0.0033238163798291216 0 2.2045001695699834e-05 0.0033074897716126122 0 -1.2909196324104859e-05 0.0031773909664806086 0 -2.7255083107135925e-05 0.0031487153143664468 0 -1.7553989915926794e-05 0.0031745973796814143 0 1.9164561197530997e-05 0.0030503412462658873 0 -1.2909196324104859e-05 0.0031773909664806086 0 -1.3328203878646522e-08 0.0032744763780749001 0 -1.2909196324104859e-05 0.0031773909664806086 0 -1.3328203878646522e-08 0.0032744763780749001 0 1.8782566054898857e-05 0.0033289719592918118 0 -1.3328203878646522e-08 0.0032744763780749001 0 1.8782566054898857e-05 0.0033289719592918118 0 1.4587256976864402e-07 0.003532478169371682 0 2.2045001695699834e-05 0.0033074897716126122 0 1.8782566054898857e-05 0.0033289719