<?xml version="1.0"?>
<VTKFile type="UnstructuredGrid" version="0.1" byte_order="LittleEndian">
<UnstructuredGrid>
<Piece NumberOfPoints="30578" NumberOfCells="10723">
<Points>
<DataArray type="Float64" NumberOfComponents="3" format="ascii">
-0.5 -0.5 0 -0.47439485679867832 -0.48072581506667478 0 -0.5 -0.44765434486020428 0 -0.5 -0.5 0 -0.47439485679867832 -0.48072581506667478 0 -0.43702443379937372 -0.49999999999999922 0 -0.47439485679867832 -0.48072581506667478 0 -0.45530669598391149 -0.47718009944797551 0 -0.43702443379937372 -0.49999999999999922 0 -0.47439485679867832 -0.48072581506667478 0 -0.45530669598391149 -0.47718009944797551 0 -0.4597353119515426 -0.45943449384344293 0 -0.45530669598391149 -0.47718009944797551 0 -0.44381084376742141 -0.47114793899167112 0 -0.4597353119515426 -0.45943449384344293 0 -0.45530669598391149 -0.47718009944797551 0 -0.44381084376742141 -0.47114793899167112 0 -0.43702443379937372 -0.49999999999999922 0 -0.44381084376742141 -0.47114793899167112 0 -0.43702443379937372 -0.49999999999999922 0 -0.45059725373546922 -0.44229587798334291 0 -0.4339166039271336 -0.43498117536117131 0 -0.43309128002320102 -0.45351235807576151 0 -0.44381084376742141 -0.47114793899167112 0 -0.45059725373546922 -0.44229587798334291 0 -0.4597353119515426 -0.45943449384344293 0 -0.44381084376742141 -0.47114793899167112 0 -0.45059725373546922 -0.44229587798334291 0 -0.43309128002320102 -0.45351235807576151 0 -0.44381084376742141 -0.47114793899167112 0 -0.45059725373546922 -0.44229587798334291 0 -0.4597353119515426 -0.45943449384344293 0 -0.47505511338101108 -0.44868394208069429 0 -0.46517432262153441 -0.43649963461163338 0 -0.45059725373546922 -0.44229587798334291 0 -0.4597353119515426 -0.45943449384344293 0 -0.46517432262153441 -0.43649963461163338 0 -0.47505511338101108 -0.44868394208069429 0 -0.47820614292347569 -0.42776699273468149 0 -0.46517432262153441 -0.43649963461163338 0 -0.47505511338101108 -0.44868394208069429 0 -0.47820614292347569 -0.42776699273468149 0 -0.47439485679867832 -0.48072581506667478 0 -0.47505511338101108 -0.44868394208069429 0 -0.5 -0.44765434486020428 0 -0.47439485679867832 -0.48072581506667478 0 -0.4597353119515426 -0.45943449384344293 0 -0.47505511338101108 -0.44868394208069429 0 -0.47505511338101108 -0.44868394208069429 0 -0.5 -0.44765434486020428 0 -0.47820614292347569 -0.42776699273468149 0 -0.5 -0.44765434486020428 0 -0.49656450065014057 -0.42151023988558672 0 -0.47820614292347569 -0.42776699273468149 0 -0.5 -0.44765434486020428 0 -0.49656450065014057 -0.42151023988558672 0 -0.50000000000000089 -0.37904661106745707 0 -0.49656450065014057 -0.42151023988558672 0 -0.48135717246594062 -0.40685004338866881 0 -0.47820614292347569 -0.42776699273468149 0 -0.49656450065014057 -0.42151023988558672 0 -0.48135717246594062 -0.40685004338866881 0 -0.48135717246594062 -0.40685004338866881 0 -0.47820614292347569 -0.42776699273468149 0 -0.48135717246594062 -0.40685004338866881 0 -0.47820614292347569 -0.42776699273468149 0 -0.45738366370351707 -0.41344381697501481 0 -0.49656450065014057 -0.42151023988558672 0 -0.48135717246594062 -0.40685004338866881 0 -0.50000000000000089 -0.37904661106745707 0 -0.50000000000000089 -0.37904661106745707 0 -0.48466894952205442 -0.38486603086372417 0 -0.48717439863114548 -0.36823452950912272 0 -0.48135717246594062 -0.40685004338866881 0 -0.50000000000000089 -0.37904661106745707 0 -0.48466894952205442 -0.38486603086372417 0 -0.48466894952205442 -0.38486603086372417 0 -0.48717439863114548 -0.36823452950912272 0 -0.50000000000000089 -0.37904661106745707 0 -0.48466894952205442 -0.38486603086372417 0 -0.48135717246594062 -0.40685004338866881 0 -0.48466894952205442 -0.38486603086372417 0 -0.46593083509403682 -0.39197871725165279 0 -0.48135717246594062 -0.40685004338866881 0 -0.48466894952205442 -0.38486603086372417 0 -0.48135717246594062 -0.40685004338866881 0 -0.46593083509403682 -0.39197871725165279 0 -0.48466894952205442 -0.38486603086372417 0 -0.47195833844942919 -0.37959069520904498 0 -0.46593083509403682 -0.39197871725165279 0 -0.48466894952205442 -0.38486603086372417 0 -0.46593083509403682 -0.39197871725165279 0 -0.48466894952205442 -0.38486603086372417 0 -0.47195833844942919 -0.37959069520904498 0 -0.48717439863114548 -0.36823452950912272 0 -0.46593083509403682 -0.39197871725165279 0 -0.44890944387521442 -0.39029302340116001 0 -0.45132291774153199 -0.37789636588759368 0 -0.47195833844942919 -0.37959069520904498 0 -0.46593083509403682 -0.39197871725165279 0 -0.45132291774153199 -0.37789636588759368 0 -0.46593083509403682 -0.39197871725165279 0 -0.45132291774153199 -0.37789636588759368 0 -0.48135717246594062 -0.40685004338866881 0 -0.46593083509403682 -0.39197871725165279 0 -0.45738366370351707 -0.41344381697501481 0 -0.46593083509403682 -0.39197871725165279 0 -0.44275815558040038 -0.40077469311046232 0 -0.45738366370351707 -0.41344381697501481 0 -0.46593083509403682 -0.39197871725165279 0 -0.44275815558040038 -0.40077469311046232 0 -0.46593083509403682 -0.39197871725165279 0 -0.44275815558040038 -0.40077469311046232 0 -0.44890944387521442 -0.39029302340116001 0 -0.44275815558040038 -0.40077469311046232 0 -0.44064580868350911 -0.39542861624611658 0 -0.44890944387521442 -0.39029302340116001 0 -0.44225344557501872 -0.38376649822575309 0 -0.45132291774153199 -0.37789636588759368 0 -0.43671500038902772 -0.36381401452353412 0 -0.44890944387521442 -0.39029302340116001 0 -0.44225344557501872 -0.38376649822575309 0 -0.45132291774153199 -0.37789636588759368 0 -0.44064580868350911 -0.39542861624611658 0 -0.44225344557501872 -0.38376649822575309 0 -0.43040194378266172 -0.3881600185019185 0 -0.44064580868350911 -0.39542861624611658 0 -0.44890944387521442 -0.39029302340116001 0 -0.44225344557501872 -0.38376649822575309 0 -0.47820614292347569 -0.42776699273468149 0 -0.46517432262153441 -0.43649963461163338 0 -0.45738366370351707 -0.41344381697501481 0 -0.45059725373546922 -0.44229587798334291 0 -0.45738366370351707 -0.41344381697501481 0 -0.45059725373546922 -0.44229587798334291 0 -0.46517432262153441 -0.43649963461163338 0 -0.45738366370351707 -0.41344381697501481 0 -0.44275815558040038 -0.40077469311046232 0 -0.45738366370351707 -0.41344381697501481 0 -0.44164244492799948 -0.42121090558557039 0 -0.45059725373546922 -0.44229587798334291 0 -0.45738366370351707 -0.41344381697501481 0 -0.44164244492799948 -0.42121090558557039 0 -0.45059725373546922 -0.44229587798334291 0 -0.44164244492799948 -0.42121090558557039 0 -0.4339166039271336 -0.43498117536117131 0 -0.4339166039271336 -0.43498117536117131 0 -0.42355654769347711 -0.414558964497861 0 -0.41671115160429401 -0.44095791049380378 0 -0.44164244492799948 -0.42121090558557039 0 -0.4339166039271336 -0.43498117536117131 0 -0.42355654769347711 -0.414558964497861 0 -0.44275815558040038 -0.40077469311046232 0 -0.44164244492799948 -0.42121090558557039 0 -0.42355654769347711 -0.414558964497861 0 -0.42355654769347711 -0.414558964497861 0 -0.41056920252370888 -0.3963363404412637 0 -0.40050668374064252 -0.41734442193795029 0 -0.42355654769347711 -0.414558964497861 0 -0.41671115160429401 -0.44095791049380378 0 -0.42355654769347711 -0.414558964497861 0 -0.40050668374064252 -0.41734442193795029 0 -0.41671115160429401 -0.44095791049380378 0 -0.44225344557501872 -0.38376649822575309 0 -0.43040194378266172 -0.3881600185019185 0 -0.43671500038902772 -0.36381401452353412 0 -0.43040194378266172 -0.3881600185019185 0 -0.43671500038902772 -0.36381401452353412 0 -0.44064580868350911 -0.39542861624611658 0 -0.42355654769347711 -0.414558964497861 0 -0.43040194378266172 -0.3881600185019185 0 -0.42355654769347711 -0.414558964497861 0 -0.43040194378266172 -0.3881600185019185 0 -0.44275815558040038 -0.40077469311046232 0 -0.44064580868350911 -0.39542861624611658 0 -0.42355654769347711 -0.414558964497861 0 -0.44064580868350911 -0.39542861624611658 0 -0.43040194378266172 -0.3881600185019185 0 -0.42355654769347711 -0.414558964497861 0 -0.43040194378266172 -0.3881600185019185 0 -0.41056920252370888 -0.3963363404412637 0 -0.43040194378266172 -0.3881600185019185 0 -0.4079689369259607 -0.37224253963894771 0 -0.43040194378266172 -0.3881600185019185 0 -0.41056920252370888 -0.3963363404412637 0 -0.4079689369259607 -0.37224253963894771 0 -0.41056920252370888 -0.3963363404412637 0 -0.39195929229331972 -0.37982250283040359 0 -0.4079689369259607 -0.37224253963894771 0 -0.41056920252370888 -0.3963363404412637 0 -0.39195929229331972 -0.37982250283040359 0 -0.39357845321732049 -0.39746174547711199 0 -0.41056920252370888 -0.3963363404412637 0 -0.39357845321732049 -0.39746174547711199 0 -0.40050668374064252 -0.41734442193795029 0 -0.39357845321732049 -0.39746174547711199 0 -0.38114412328536468 -0.40833987260765031 0 -0.36544727141479139 -0.39026932065168712 0 -0.39195929229331972 -0.37982250283040359 0 -0.37549160074202448 -0.3732971907138336 0 -0.36544727141479139 -0.39026932065168712 0 -0.39195929229331972 -0.37982250283040359 0 -0.39357845321732049 -0.39746174547711199 0 -0.36544727141479139 -0.39026932065168712 0 -0.40050668374064252 -0.41734442193795029 0 -0.3944977858259317 -0.43926335073686201 0 -0.41671115160429401 -0.44095791049380378 0 -0.40050668374064252 -0.41734442193795029 0 -0.38028594703985957 -0.42392304976487449 0 -0.3944977858259317 -0.43926335073686201 0 -0.39357845321732049 -0.39746174547711199 0 -0.40050668374064252 -0.41734442193795029 0 -0.38114412328536468 -0.40833987260765031 0 -0.40050668374064252 -0.41734442193795029 0 -0.38114412328536468 -0.40833987260765031 0 -0.38028594703985957 -0.42392304976487449 0 -0.38114412328536468 -0.40833987260765031 0 -0.38028594703985957 -0.42392304976487449 0 -0.36590226101420908 -0.41270082520662749 0 -0.38028594703985957 -0.42392304976487449 0 -0.3944977858259317 -0.43926335073686201 0 -0.3723601590800425 -0.44005613486137668 0 -0.3944977858259317 -0.43926335073686201 0 -0.38265619596279349 -0.45813348326120767 0 -0.3723601590800425 -0.44005613486137668 0 -0.40093272222703252 -0.45142790024540502 0 -0.3944977858
[...]
<PointData Scalars="" Vectors="displacement," Tensors="">
<DataArray type="Float64" Name="displacement" NumberOfComponents="3" format="ascii">
7.195684128784398e-07 0.044997256049470087 0 0.00028026834859681951 0.044029268584803022 0 -2.4274866444278758e-07 0.040291246269054455 0 7.195684128784398e-07 0.044997256049470087 0 0.00028026834859681951 0.044029268584803022 0 4.0929910879332453e-07 0.044997983170998339 0 0.00028026834859681951 0.044029268584803022 0 0.00018894810310728032 0.044186880230533056 0 4.0929910879332453e-07 0.044997983170998339 0 0.00028026834859681951 0.044029268584803022 0 0.00018894810310728032 0.044186880230533056 0 2.768383513005434e-05 0.043544978897090816 0 0.00018894810310728032 0.044186880230533056 0 0.00017932879579380661 0.044242099160649286 0 2.768383513005434e-05 0.043544978897090816 0 0.00018894810310728032 0.044186880230533056 0 0.00017932879579380661 0.044242099160649286 0 4.0929910879332453e-07 0.044997983170998339 0 -5.3578330075609185e-06 0.044330600153742072 0 8.6342294121255004e-08 0.044999777105956401 0 -0.00069082140340389134 0.043801584200855129 0 -0.0008882186835452784 0.044179959586713786 0 -0.00047299051966487879 0.044371984026267491 0 0.00017932879579380661 0.044242099160649286 0 -0.00052335427379724428 0.043645889738360519 0 2.768383513005434e-05 0.043544978897090816 0 -0.00017997685981273196 0.044389862344224491 0 -0.00069082140340389134 0.043801584200855129 0 -0.00047299051966487879 0.044371984026267491 0 -5.3578330075609185e-06 0.044330600153742072 0 -0.00062822767841500112 0.043726089808373239 0 2.768383513005434e-05 0.043544978897090816 0 -0.0001546010359036453 0.042216582646016659 0 -0.00074304251277329352 0.04296753340514313 0 -0.00052335427379724428 0.043645889738360519 0 2.768383513005434e-05 0.043544978897090816 0 -0.00074304251277329352 0.04296753340514313 0 -0.0001546010359036453 0.042216582646016659 0 -0.0010661182737230948 0.042453266938058953 0 -0.00074304251277329352 0.04296753340514313 0 3.0397217594293851e-05 0.042039725839203623 0 -0.0006813255873772099 0.041659955481934297 0 0.00028026834859681951 0.044029268584803022 0 -0.0001546010359036453 0.042216582646016659 0 -2.4274866444278758e-07 0.040291246269054455 0 0.00028026834859681951 0.044029268584803022 0 2.768383513005434e-05 0.043544978897090816 0 -0.0001546010359036453 0.042216582646016659 0 -0.0001546010359036453 0.042216582646016659 0 -2.4274866444278758e-07 0.040291246269054455 0 -0.00010578559461275883 0.040441952677383895 0 -2.4274866444278758e-07 0.040291246269054455 0 -8.1945681695456529e-05 0.038083123179635837 0 -0.00010578559461275883 0.040441952677383895 0 -2.4274866444278758e-07 0.040291246269054455 0 -8.1945681695456529e-05 0.038083123179635837 0 -1.1711815099809241e-06 0.034117073790957797 0 -8.1945681695456529e-05 0.038083123179635837 0 -0.0021113337684336409 0.039944253652210285 0 -0.00010578559461275883 0.040441952677383895 0 -5.397832743478281e-05 0.037756586444442422 0 -0.0010908033174150688 0.039100015114547623 0 -0.0010908033174150688 0.039100015114547623 0 -0.0006813255873772099 0.041659955481934297 0 -0.001723885502279814 0.042395451946867821 0 -0.0010661182737230948 0.042453266938058953 0 -0.0015091664041216426 0.043259790420887331 0 -8.1945681695456529e-05 0.038083123179635837 0 6.3323532321633418e-05 0.036566825625610762 0 -1.1711815099809241e-06 0.034117073790957797 0 -3.0924375884063321e-06 0.03411022128188991 0 -0.0011207188004562359 0.032118297480652473 0 -3.6039057964964919e-05 0.031859561381907375 0 6.3323532321633418e-05 0.036566825625610762 0 -1.1711815099809241e-06 0.034117073790957797 0 -0.00020237077849306345 0.035426081103577624 0 -0.00096490895330917194 0.033627334166878659 0 -0.00024780344775137352 0.031924128259408047 0 -2.635101840447589e-07 0.034114400391536168 0 -0.00096490895330917194 0.033627334166878659 0 -0.00062316288804079262 0.036922256634351537 0 -0.0017297965083684851 0.036732950614001447 0 -0.0013725646336183862 0.037696019896158096 0 -0.0010908033174150688 0.039100015114547623 0 -0.00096490895330917194 0.033627334166878659 0 -0.0010908033174150688 0.039100015114547623 0 -0.0014855158048194569 0.03860668883138544 0 -0.0010628150372167869 0.03164237671374355 0 -0.00077107569770428928 0.030897069551611624 0 -0.001336023912022778 0.030679457105674081 0 -0.00096490895330917194 0.033627334166878659 0 -0.0014855158048194569 0.03860668883138544 0 -0.0010628150372167869 0.03164237671374355 0 -0.00077107569770428928 0.030897069551611624 0 -3.6039057964964919e-05 0.031859561381907375 0 -0.001621973960047347 0.043998771800280584 0 -0.001612529066448587 0.043713750196944144 0 -0.0012009057125371514 0.043751837381390948 0 -0.00077107569770428928 0.030897069551611624 0 -0.001336023912022778 0.030679457105674081 0 -0.00061808606582229326 0.03012854223457918 0 -0.0014855158048194569 0.03860668883138544 0 -0.00091309584317628405 0.036910572101775209 0 -0.001723885502279814 0.042395451946867821 0 -0.0021650988032527879 0.042938575869003161 0 -0.0015091664041216426 0.043259790420887331 0 -0.0021650988032527879 0.042938575869003161 0 -0.0018061950135698638 0.043649573060084539 0 -0.0015091664041216426 0.043259790420887331 0 -0.0014855158048194569 0.03860668883138544 0 -0.0015757545752910422 0.045487115525884331 0 -0.001621973960047347 0.043998771800280584 0 -0.0018061950135698638 0.043649573060084539 0 -0.001612529066448587 0.043713750196944144 0 -0.0018061950135698638 0.043649573060084539 0 -0.0018382049885715349 0.043613266148806638 0 -0.001612529066448587 0.043713750196944144 0 -0.0013996616946209033 0.043495652024196682 0 -0.0012009057125371514 0.043751837381390948 0 -0.00058246647202033028 0.043152617558190137 0 -0.001612529066448587 0.043713750196944144 0 -0.0013996616946209033 0.043495652024196682 0 -0.0012009057125371514 0.043751837381390948 0 -0.0018382049885715349 0.043613266148806638 0 -0.0013996616946209033 0.043495652024196682 0 -0.0015685109139412694 0.043046166420943284 0 -0.0018382049885715349 0.043613266148806638 0 -0.001612529066448587 0.043713750196944144 0 -0.0013996616946209033 0.043495652024196682 0 -0.0010661182737230948 0.042453266938058953 0 -0.00074304251277329352 0.04296753340514313 0 -0.0015091664041216426 0.043259790420887331 0 -0.00062822767841500112 0.043726089808373239 0 -0.0014803234123071205 0.043301232988073528 0 -0.00052335427379724428 0.043645889738360519 0 -0.00074304251277329352 0.04296753340514313 0 -0.0015091664041216426 0.043259790420887331 0 -0.0018061950135698638 0.043649573060084539 0 -0.0015091664041216426 0.043259790420887331 0 -0.0012637848149559792 0.04384150902908282 0 -0.00069082140340389134 0.043801584200855129 0 -0.0015091664041216426 0.043259790420887331 0 -0.0012637848149559792 0.04384150902908282 0 -0.00069082140340389134 0.043801584200855129 0 -0.0012637848149559792 0.04384150902908282 0 -0.0008882186835452784 0.044179959586713786 0 -0.0008882186835452784 0.044179959586713786 0 -0.0014220033880056146 0.04429860909133522 0 -0.00072447055104388821 0.044659956603009608 0 -0.0012637848149559792 0.04384150902908282 0 -0.0008882186835452784 0.044179959586713786 0 -0.0014220033880056146 0.04429860909133522 0 -0.0018061950135698638 0.043649573060084539 0 -0.0012637848149559792 0.04384150902908282 0 -0.0014220033880056146 0.04429860909133522 0 0.00093962492765972379 0.04222059075464716 0 0.00095779088504216827 0.042211882172433247 0 0.00094284809256358466 0.042234068594446207 0 -0.00011627695985832673 0.04354450782330882 0 0.00014849939033069844 0.043322158557867939 0 0.00093962492765972379 0.04222059075464716 0 0.00094284809256358466 0.042234068594446207 0 0.00098317646585313568 0.042221474873662769 0 -0.0013996616946209033 0.043495652024196682 0 -0.0015685109139412694 0.043046166420943284 0 -0.00058246647202033028 0.043152617558190137 0 -0.00087014114220132738 0.0410532936741188 0 -0.00015536768306829301 0.03570237634745943 0 -0.0018382049885715349 0.043613266148806638 0 -0.0014220033880056146 0.04429860909133522 0 -0.0020501441156642098 0.043909267269302082 0 -0.00011627695985832673 0.04354450782330882 0 -0.00087014114220132738 0.0410532936741188 0 -0.0018061950135698638 0.043649573060084539 0 -0.0018382049885715349 0.043613266148806638 0 -0.0014220033880056146 0.04429860909133522 0 -0.0022676308841578369 0.04391788294594437 0 -0.00087014114220132738 0.0410532936741188 0 0.00093962492765972379 0.04222059075464716 0 0.00095832303352931178 0.042225308630825485 0 0.00095779088504216827 0.042211882172433247 0 -0.00087014114220132738 0.0410532936741188 0 0.00017982990387978656 0.038827394115505585 0 0.00095832303352931178 0.042225308630825485 0 0.00095779088504216827 0.042211882172433247 0 0.0010155967411391055 0.042179767554734349 0 0.00095779088504216827 0.042211882172433247 0 0.0010095278065239183 0.042162383488213141 0 0.0010155967411391055 0.042179767554734349 0 0.00095779088504216827 0.042211882172433247 0 0.0010095278065239183 0.042162383488213141 0 0.00096436005810423826 0.042206984065172086 0 0.00095779088504216827 0.042211882172433247 0 0.00096436005810423826 0.042206984065172086 0 0.00094284809256358466 0.042234068594446207 0 0.00096436005810423826 0.042206984065172086 0 0.0009450506916652971 0.042227868759560229 0 0.0010259714799028079 0.042092598213498457 0 0.0010095278065239183 0.042162383488213141 0 0.0010327384686884672 0.042113228722070441 0 0.0010259714799028079 0.042092598213498457 0 0.0010095278065239183 0.042162383488213141 0 0.00096436005810423826 0.042206984065172086 0 0.0010259714799028079 0.042092598213498457 0 0.00094284809256358466 0.042234068594446207 0 0.00098124109120950142 0.042261764387339085 0 0.00098317646585313568 0.042221474873662769 0 0.00094284809256358466 0.042234068594446207 0 0.00093677856001293715 0.042285677077729032 0 0.00098124109120950142 0.042261764387339085 0 0.00096436005810423826 0.042206984065172086 0 0.00094284809256358466 0.042234068594446207 0 0.0009450506916652971 0.042227868759560229 0 0.00094284809256358466 0.042234068594446207 0 0.0009450506916652971 0.042227868759560229 0 0.00093677856001293715 0.042285677077729032 0 0.0009450506916652971 0.042227868759560229 0 0.00093677856001293715 0.042285677077729032 0 0.0009406039731889702 0.042256866934376074 0 0.00093677856001293715 0.042285677077729032 0 0.00098124109120950142 0.042261764387339085 0 0.00096515931407727856 0.042381945137147492 0 0.00098124109120950142 0.042261764387339085 0 0.0010830260206706704 0.04231186929962396 0 0.00096515931407727856 0.042381945137147492 0 0.0010252494602844909 0.042255133033802683 0 0.00098124109120950142 0.042261764387339085 0 0.0010830260206706704 0.04231186929962396 0 0.0010252494602844909 0.042255133033802683 0 0.00098124109120950142 0.042261764387339085 0 0.00098317646585313568 0.042221474873662769 0 0.00098355032518841843 0.043317630217538948 0 0.000121675580569001 0.044161509387448603 0 0.0007289400106646472 0.044579563490294266 0 0.00012668840761854817 0.044930338485099704 0 0.00027659940553143226 0.045298099652040513 0 0.0010252494602844909 0.042255133033802683 0 0.0010830260206706704 0.04231186929962396 0 0.0010585564714474525 0.042244480500950213 0 0.0007289400106646472 0.044579563490294266 0 6.6560864380472688e-05 0.044691879956608387 0 0.00012668840761854817 0.044930338485099704 0 6.6560864380472688e-05 0.044691879956608387 0 1.1928292725842272e-05 0.044904499543517953 0 5.7766575422283778e-05 0.044929167991272598 0 6.6560864380472688e-05 0.044691879956608387 0 1.1928292725842272e-05 0.044904499543517953 0 0.00012668840761854817 0.044930338485099704 0 9.6231222972574673e-08 0.044999780802792211 0 1.1928292725842272e-05 0.044904499543517953 0 -1.5429472976097272e-07 0.04500002214158378 0 9.6231222972574673e-08 0.044999780802792211 0 1.1928292725842272e-05 0.044904499543517953 0 5.7766575422283778e-05 0.044929167991272598 0 1.1928292725842272e-05 0.044904499543517953 0 -1.5429472976097272e-07 0.04500002214158378 0 1.8663754355696778e-05 0.045081216769136734 0 -2.4391429923841625e-08 0.045000019586853422 0 1.6731284491392991e-05 0.045045149730618635 0 1.8663754355696778e-05 0.045081216769136734 0 0.00012668840761854817 0.044930338485099704 0 0.00027659940553143226 0.045298099652040513 0 1.1928292725842272e-05 0.044904499543517953 0 1.8663754355696778e-05 0.045081216769136734 0 0.00012668840761854817 0.044930338485099704 0 1.6731284491392991e-05 0.045045149730618635 0 0.000121675580569001 0.044161509387448603 0 -0.00027073408081827429 0.044964814173463027 0 0.000121675580569001 0.044161509387448603 0 -5.3348171965850385e-05 0.044890619915869075 0 -0.00016419917885637561 0.044674913823705129 0 -0.00023386226149728969 0.044957239587890559 0 -5.9867199637975965e-05 0.044995702494648085 0 -5.3348171965850385e-05 0.044890619915869075 0 -0.00023386226149728969 0.044957239587890559 0 -5.9867199637975965e-05 0.044995702494648085 0 -5.3348171965850385e-05 0.044890619915869075 0 -4.429301989168517e-08 0.044999957158243183 0 -1.4917431408398159e-08 0.045000060984825306 0 -5.9867199637975965e-05 0.044995702494648085 0 -4.429301989168517e-08 0.044999957158243183 0 -5.3348171965850385e-05 0.044890619915869075 0 -4.429301989168517e-08 0.044999957158243183 0 1.74071008600118e-07 0.044999391183836057 0 -5.3348171965850385e-05 0.044890619915869075 0 1.74071008600118e-07 0.044999391183836057 0 -0.00016419917885637561 0.044674913823705129 0 -0.00017997685981273196 0.044389862344224491 0 1.74071008600118e-07 0.044999391183836057 0 -0.00016419917885637561 0.044674913823705129 0 -0.00016419917885637561 0.044674913823705129 0 -0.00038429454718019919 0.044628284626519292 0 -0.00047299051966487879 0.044371984026267491 0 -0.00017997685981273196 0.044389862344224491 0 -0.00016419917885637561 0.044674913823705129 0 -0.00047299051966487879 0.044371984026267491 0 -0.0008882186835452784 0.044179959586713786 0 -0.00047299051966487879 0.044371984026267491 0 -0.00072447055104388821 0.044659956603009608 0 -0.00038429454718019919 0.044628284626519292 0 -0.00047299051966487879 0.044371984026267491 0 -0.00072447055104388821 0.044659956603009608 0 -0.00038429454718019919 0.044628284626519292 0 -0.00072447055104388821 0.044659956603009608 0 -0.00024519751569123451 0.044825724013936155 0 0.00014849939033069844 0.043322158557867939 0 0.000121675580569001 0.044161509387448603 0 0.0010252494602844909 0.042255133033802683 0 0.00098317646585313568 0.042221474873662769 0 0.0010585564714474525 0.042244480500950213 0 -0.00016419917885637561 0.044674913823705129 0 -0.00038429454718019919 0.044628284626519292 0 -0.00024519751569123451 0.044825724013936155 0 -0.00019259608240192327 0.021492901002780961 0 -0.00020477626105751658 0.021393994020788842 0 -0.00014726387950415149 0.021477787243441786 0 -0.00028875736645966909 0.02143090621916062 0 -0.00019259608240192327 0.021492901002780961 0 -0.00020477626105751658 0.021393994020788842 0 0.00030726865390948242 0.026301574982330211 0 0.00030884275408790592 0.026320301616167191 0 -6.0323541664266864e-05 0.026080079353288575 0 1.4482130657559077e-05 0.023725324791789966 0 -0.00010899589919291819 0.023785497724500171 0 0.00030884275408790592 0.026320301616167191 0 0.00023256803811050575 0.02525344540602285 0 0.00030867836211312573 0.026470409908339567 0 0.00030884275408790592 0.026320301616167191 0 -6.0323541664266864e-05 0.026080079353288575 0 0.00023256803811050575 0.02525344540602285 0 -0.00010899589919291819 0.023785497724500171 0 -0.00019477534988490152 0.022911543249200601 0 -6.0323541664266864e-05 0.026080079353288575 0 0.00023256803811050575 0.02525344540602285 0 -0.00055024412618203831 0.024520244447903086 0 2.6498948712997443e-05 0.023959374234063597 0 0.00023256803811050575 0.02525344540602285 0 -0.00055024412618203831 0.024520244447903086 0 2.6498948712997443e-05 0.023959374234063597 0 -1.9092822154362525e-07 0.022506111282029975 0 6.6094334634700727e-07 0.024827972797722322 0 2.6498948712997443e-05 0.023959374234063597 0 -1.9092822154362525e-07 0.022506111282029975 0 -0.00016196906525303334 0.022910727732521192 0 2.6498948712997443e-05 0.023959374234063597 0 6.6094334634700727e-07 0.024827972797722322 0 0.00023256803811050575 0.02525344540602285 0 6.6094334634700727e-07 0.024827972797722322 0 0.00023256803811050575 0.02525344540602285 0 0.00019751998340515874 0.026231495161873567 0 0.00023256803811050575 0.02525344540602285 0 0.00030867836211312573 0.026470409908339567 0 0.00019751998340515874 0.026231495161873567 0 0.00030867836211312573 0.026470409908339567 0 0.00019751998340515874 0.026231495161873567 0 0.00010113266800481012 0.027459646612203716 0 6.6094334634700727e-07 0.024827972797722322 0 0.00019751998340515874 0.026231495161873567 0 3.3741338331778568e-07 0.027149376892232718 0 0.00019751998340515874 0.026231495161873567 0 3.3741338331778568e-07 0.027149376892232718 0 0.00010113266800481012 0.027459646612203716 0 3.3741338331778568e-07 0.027149376892232718 0 0.00010113266800481012 0.027459646612203716 0 -2.3961931106534373e-07 0.029470285935946746 0 0.00030867836211312573 0.026470409908339567 0 0.00010113266800481012 0.027459646612203716 0 0.00011284853804673472 0.02678626682396058 0 0.00010113266800481012 0.027459646612203716 0 0.00011284853804673472 0.02678626682396058 0 -0.00022666950990236321 0.02861652670692396 0 0.00030884275408790592 0.026320301616167191 0 0.00030867836211312573 0.026470409908339567 0 0.00011284853804673472 0.02678626682396058 0 0.00030884275408790592 0.026320301616167191 0 0.00011284853804673472 0.02678626682396058 0 4.0780172591038628e-05 0.026297392865227382 0 0.00030726865390948242 0.026301574982330211 0 0.00030884275408790592 0.026320301616167191 0 4.0780172591038628e-05 0.026297392865227382 0 0.00011284853804673472 0.02678626682396058 0 4.0780172591038628e-05 0.026297392865227382 0 -0.00041996112048870918 0.026265366415814135 0 -0.00041996112048870918 0.026265366415814135 0 -0.00074857108210739007 0.026662227160710008 0 -0.00070285896046800797 0.025942627040548387 0 0.00011284853804673472 0.02678626682396058 0 -0.00041996112048870918 0.026265366415814135 0 -0.00074857108210739007 0.026662227160710008 0 -0.00046065883459233325 0.028326334949694484 0 -0.00043049597397758178 0.028100468971990866 0 -0.00025991520248261498 0.030030412205504876 0 -3.5165031344046715e-05 0.030098962993643449 0 0.00012860244124167602 0.029857422166498147 0 -3.5165031344046715e-05 0.030098962993643449 0 0.00012860244124167602 0.029857422166498147 0 7.0459190504236217e-05 0.030048098173535567 0 -0.00025991520248261498 0.030030412205504876 0 -3.5165031344046715e-05 0.030098962993643449 0 -0.00013775484934689004 0.030155763475721634 0 0.00011284853804673472 0.02678626682396058 0 -0.00074857108210739007 0.026662227160710008 0 -0.00022666950990236321 0.02861652670692396 0 -0.00025991520248261498 0.030030412205504876 0 0.00012860244124167602 0.029857422166498147 0 -0.00022666950990236321 0.02861652670692396 0 -0.00046065883459233325 0.028326334949694484 0 -0.00029115985003030426 0.028583029301176777 0 0.00010113266800481012 0.027459646612203716 0 -0.00022666950990236321 0.02861652670692396 0 -2.3961931106534373e-07 0.029470285935946746 0 -0.00022666950990236321 0.02861652670692396 0 -2.3961931106534373e-07 0.029470285935946746 0 0.00012837633204704286 0.029986848012295089 0 -2.3961931106534373e-07 0.029470285935946746 0 0.00012837633204704286 0.029986848012295089 0 1.2789307364891305e-06 0.031792321661589025 0 0.00012860244124167602 0.029857422166498147 0 0.00012837633204704286 0.029986848012295089 0 0.0001040253733246803 0.030230282558406738 0 0.00012860244124167602 0.029857422166498147 0 -0.00022666950990236321 0.02861652670692396 0 0.00012837633204704286 0.029986848012295089 0 0.00012837633204704286 0.029986848012295089 0 6.4151533045778703e-05 0.030847349968423265 0 0.0001040253733246803 0.030230282558406738 0 6.4151533045778703e-05 0.030847349968423265 0 -0.00020110424605322439 0.030553998289745896 0 0.0001040253733246803 0.030230282558406738 0 6.4151533045778703e-05 0.030847349968423265 0 1.2789307364891305e-06 0.031792321661589025 0 -3.6039057964964