<?xml version="1.0"?>
<VTKFile type="UnstructuredGrid" version="0.1" byte_order="LittleEndian">
<UnstructuredGrid>
<Piece NumberOfPoints="30578" NumberOfCells="10723">
<Points>
<DataArray type="Float64" NumberOfComponents="3" format="ascii">
-0.5 -0.5 0 -0.47439485679867832 -0.48072581506667478 0 -0.5 -0.44765434486020428 0 -0.5 -0.5 0 -0.47439485679867832 -0.48072581506667478 0 -0.43702443379937372 -0.49999999999999922 0 -0.47439485679867832 -0.48072581506667478 0 -0.45530669598391149 -0.47718009944797551 0 -0.43702443379937372 -0.49999999999999922 0 -0.47439485679867832 -0.48072581506667478 0 -0.45530669598391149 -0.47718009944797551 0 -0.4597353119515426 -0.45943449384344293 0 -0.45530669598391149 -0.47718009944797551 0 -0.44381084376742141 -0.47114793899167112 0 -0.4597353119515426 -0.45943449384344293 0 -0.45530669598391149 -0.47718009944797551 0 -0.44381084376742141 -0.47114793899167112 0 -0.43702443379937372 -0.49999999999999922 0 -0.44381084376742141 -0.47114793899167112 0 -0.43702443379937372 -0.49999999999999922 0 -0.45059725373546922 -0.44229587798334291 0 -0.4339166039271336 -0.43498117536117131 0 -0.43309128002320102 -0.45351235807576151 0 -0.44381084376742141 -0.47114793899167112 0 -0.45059725373546922 -0.44229587798334291 0 -0.4597353119515426 -0.45943449384344293 0 -0.44381084376742141 -0.47114793899167112 0 -0.45059725373546922 -0.44229587798334291 0 -0.43309128002320102 -0.45351235807576151 0 -0.44381084376742141 -0.47114793899167112 0 -0.45059725373546922 -0.44229587798334291 0 -0.4597353119515426 -0.45943449384344293 0 -0.47505511338101108 -0.44868394208069429 0 -0.46517432262153441 -0.43649963461163338 0 -0.45059725373546922 -0.44229587798334291 0 -0.4597353119515426 -0.45943449384344293 0 -0.46517432262153441 -0.43649963461163338 0 -0.47505511338101108 -0.44868394208069429 0 -0.47820614292347569 -0.42776699273468149 0 -0.46517432262153441 -0.43649963461163338 0 -0.47505511338101108 -0.44868394208069429 0 -0.47820614292347569 -0.42776699273468149 0 -0.47439485679867832 -0.48072581506667478 0 -0.47505511338101108 -0.44868394208069429 0 -0.5 -0.44765434486020428 0 -0.47439485679867832 -0.48072581506667478 0 -0.4597353119515426 -0.45943449384344293 0 -0.47505511338101108 -0.44868394208069429 0 -0.47505511338101108 -0.44868394208069429 0 -0.5 -0.44765434486020428 0 -0.47820614292347569 -0.42776699273468149 0 -0.5 -0.44765434486020428 0 -0.49656450065014057 -0.42151023988558672 0 -0.47820614292347569 -0.42776699273468149 0 -0.5 -0.44765434486020428 0 -0.49656450065014057 -0.42151023988558672 0 -0.50000000000000089 -0.37904661106745707 0 -0.49656450065014057 -0.42151023988558672 0 -0.48135717246594062 -0.40685004338866881 0 -0.47820614292347569 -0.42776699273468149 0 -0.49656450065014057 -0.42151023988558672 0 -0.48135717246594062 -0.40685004338866881 0 -0.48135717246594062 -0.40685004338866881 0 -0.47820614292347569 -0.42776699273468149 0 -0.48135717246594062 -0.40685004338866881 0 -0.47820614292347569 -0.42776699273468149 0 -0.45738366370351707 -0.41344381697501481 0 -0.49656450065014057 -0.42151023988558672 0 -0.48135717246594062 -0.40685004338866881 0 -0.50000000000000089 -0.37904661106745707 0 -0.50000000000000089 -0.37904661106745707 0 -0.48466894952205442 -0.38486603086372417 0 -0.48717439863114548 -0.36823452950912272 0 -0.48135717246594062 -0.40685004338866881 0 -0.50000000000000089 -0.37904661106745707 0 -0.48466894952205442 -0.38486603086372417 0 -0.48466894952205442 -0.38486603086372417 0 -0.48717439863114548 -0.36823452950912272 0 -0.50000000000000089 -0.37904661106745707 0 -0.48466894952205442 -0.38486603086372417 0 -0.48135717246594062 -0.40685004338866881 0 -0.48466894952205442 -0.38486603086372417 0 -0.46593083509403682 -0.39197871725165279 0 -0.48135717246594062 -0.40685004338866881 0 -0.48466894952205442 -0.38486603086372417 0 -0.48135717246594062 -0.40685004338866881 0 -0.46593083509403682 -0.39197871725165279 0 -0.48466894952205442 -0.38486603086372417 0 -0.47195833844942919 -0.37959069520904498 0 -0.46593083509403682 -0.39197871725165279 0 -0.48466894952205442 -0.38486603086372417 0 -0.46593083509403682 -0.39197871725165279 0 -0.48466894952205442 -0.38486603086372417 0 -0.47195833844942919 -0.37959069520904498 0 -0.48717439863114548 -0.36823452950912272 0 -0.46593083509403682 -0.39197871725165279 0 -0.44890944387521442 -0.39029302340116001 0 -0.45132291774153199 -0.37789636588759368 0 -0.47195833844942919 -0.37959069520904498 0 -0.46593083509403682 -0.39197871725165279 0 -0.45132291774153199 -0.37789636588759368 0 -0.46593083509403682 -0.39197871725165279 0 -0.45132291774153199 -0.37789636588759368 0 -0.48135717246594062 -0.40685004338866881 0 -0.46593083509403682 -0.39197871725165279 0 -0.45738366370351707 -0.41344381697501481 0 -0.46593083509403682 -0.39197871725165279 0 -0.44275815558040038 -0.40077469311046232 0 -0.45738366370351707 -0.41344381697501481 0 -0.46593083509403682 -0.39197871725165279 0 -0.44275815558040038 -0.40077469311046232 0 -0.46593083509403682 -0.39197871725165279 0 -0.44275815558040038 -0.40077469311046232 0 -0.44890944387521442 -0.39029302340116001 0 -0.44275815558040038 -0.40077469311046232 0 -0.44064580868350911 -0.39542861624611658 0 -0.44890944387521442 -0.39029302340116001 0 -0.44225344557501872 -0.38376649822575309 0 -0.45132291774153199 -0.37789636588759368 0 -0.43671500038902772 -0.36381401452353412 0 -0.44890944387521442 -0.39029302340116001 0 -0.44225344557501872 -0.38376649822575309 0 -0.45132291774153199 -0.37789636588759368 0 -0.44064580868350911 -0.39542861624611658 0 -0.44225344557501872 -0.38376649822575309 0 -0.43040194378266172 -0.3881600185019185 0 -0.44064580868350911 -0.39542861624611658 0 -0.44890944387521442 -0.39029302340116001 0 -0.44225344557501872 -0.38376649822575309 0 -0.47820614292347569 -0.42776699273468149 0 -0.46517432262153441 -0.43649963461163338 0 -0.45738366370351707 -0.41344381697501481 0 -0.45059725373546922 -0.44229587798334291 0 -0.45738366370351707 -0.41344381697501481 0 -0.45059725373546922 -0.44229587798334291 0 -0.46517432262153441 -0.43649963461163338 0 -0.45738366370351707 -0.41344381697501481 0 -0.44275815558040038 -0.40077469311046232 0 -0.45738366370351707 -0.41344381697501481 0 -0.44164244492799948 -0.42121090558557039 0 -0.45059725373546922 -0.44229587798334291 0 -0.45738366370351707 -0.41344381697501481 0 -0.44164244492799948 -0.42121090558557039 0 -0.45059725373546922 -0.44229587798334291 0 -0.44164244492799948 -0.42121090558557039 0 -0.4339166039271336 -0.43498117536117131 0 -0.4339166039271336 -0.43498117536117131 0 -0.42355654769347711 -0.414558964497861 0 -0.41671115160429401 -0.44095791049380378 0 -0.44164244492799948 -0.42121090558557039 0 -0.4339166039271336 -0.43498117536117131 0 -0.42355654769347711 -0.414558964497861 0 -0.44275815558040038 -0.40077469311046232 0 -0.44164244492799948 -0.42121090558557039 0 -0.42355654769347711 -0.414558964497861 0 -0.42355654769347711 -0.414558964497861 0 -0.41056920252370888 -0.3963363404412637 0 -0.40050668374064252 -0.41734442193795029 0 -0.42355654769347711 -0.414558964497861 0 -0.41671115160429401 -0.44095791049380378 0 -0.42355654769347711 -0.414558964497861 0 -0.40050668374064252 -0.41734442193795029 0 -0.41671115160429401 -0.44095791049380378 0 -0.44225344557501872 -0.38376649822575309 0 -0.43040194378266172 -0.3881600185019185 0 -0.43671500038902772 -0.36381401452353412 0 -0.43040194378266172 -0.3881600185019185 0 -0.43671500038902772 -0.36381401452353412 0 -0.44064580868350911 -0.39542861624611658 0 -0.42355654769347711 -0.414558964497861 0 -0.43040194378266172 -0.3881600185019185 0 -0.42355654769347711 -0.414558964497861 0 -0.43040194378266172 -0.3881600185019185 0 -0.44275815558040038 -0.40077469311046232 0 -0.44064580868350911 -0.39542861624611658 0 -0.42355654769347711 -0.414558964497861 0 -0.44064580868350911 -0.39542861624611658 0 -0.43040194378266172 -0.3881600185019185 0 -0.42355654769347711 -0.414558964497861 0 -0.43040194378266172 -0.3881600185019185 0 -0.41056920252370888 -0.3963363404412637 0 -0.43040194378266172 -0.3881600185019185 0 -0.4079689369259607 -0.37224253963894771 0 -0.43040194378266172 -0.3881600185019185 0 -0.41056920252370888 -0.3963363404412637 0 -0.4079689369259607 -0.37224253963894771 0 -0.41056920252370888 -0.3963363404412637 0 -0.39195929229331972 -0.37982250283040359 0 -0.4079689369259607 -0.37224253963894771 0 -0.41056920252370888 -0.3963363404412637 0 -0.39195929229331972 -0.37982250283040359 0 -0.39357845321732049 -0.39746174547711199 0 -0.41056920252370888 -0.3963363404412637 0 -0.39357845321732049 -0.39746174547711199 0 -0.40050668374064252 -0.41734442193795029 0 -0.39357845321732049 -0.39746174547711199 0 -0.38114412328536468 -0.40833987260765031 0 -0.36544727141479139 -0.39026932065168712 0 -0.39195929229331972 -0.37982250283040359 0 -0.37549160074202448 -0.3732971907138336 0 -0.36544727141479139 -0.39026932065168712 0 -0.39195929229331972 -0.37982250283040359 0 -0.39357845321732049 -0.39746174547711199 0 -0.36544727141479139 -0.39026932065168712 0 -0.40050668374064252 -0.41734442193795029 0 -0.3944977858259317 -0.43926335073686201 0 -0.41671115160429401 -0.44095791049380378 0 -0.40050668374064252 -0.41734442193795029 0 -0.38028594703985957 -0.42392304976487449 0 -0.3944977858259317 -0.43926335073686201 0 -0.39357845321732049 -0.39746174547711199 0 -0.40050668374064252 -0.41734442193795029 0 -0.38114412328536468 -0.40833987260765031 0 -0.40050668374064252 -0.41734442193795029 0 -0.38114412328536468 -0.40833987260765031 0 -0.38028594703985957 -0.42392304976487449 0 -0.38114412328536468 -0.40833987260765031 0 -0.38028594703985957 -0.42392304976487449 0 -0.36590226101420908 -0.41270082520662749 0 -0.38028594703985957 -0.42392304976487449 0 -0.3944977858259317 -0.43926335073686201 0 -0.3723601590800425 -0.44005613486137668 0 -0.3944977858259317 -0.43926335073686201 0 -0.38265619596279349 -0.45813348326120767 0 -0.3723601590800425 -0.44005613486137668 0 -0.40093272222703252 -0.45142790024540502 0 -0.3944977858
[...]
<PointData Scalars="" Vectors="displacement," Tensors="">
<DataArray type="Float64" Name="displacement" NumberOfComponents="3" format="ascii">
5.6797185872861508e-07 0.034997859842491215 0 0.00021541066388543721 0.034242033164250577 0 -2.4591562992815773e-07 0.031337605338376408 0 5.6797185872861508e-07 0.034997859842491215 0 0.00021541066388543721 0.034242033164250577 0 3.203654888410576e-07 0.034998459026485844 0 0.00021541066388543721 0.034242033164250577 0 0.00014456760636583058 0.034374662441067384 0 3.203654888410576e-07 0.034998459026485844 0 0.00021541066388543721 0.034242033164250577 0 0.00014456760636583058 0.034374662441067384 0 4.9803958380698905e-06 0.033877356961195822 0 0.00014456760636583058 0.034374662441067384 0 0.00013811234901682601 0.034429696499559251 0 4.9803958380698905e-06 0.033877356961195822 0 0.00014456760636583058 0.034374662441067384 0 0.00013811234901682601 0.034429696499559251 0 3.203654888410576e-07 0.034998459026485844 0 -1.3161796951358095e-05 0.034514185748818801 0 7.3612069673810312e-08 0.034999839523120281 0 -0.00069886001326296076 0.034119005772818858 0 -0.00089626602484361084 0.034510574392941439 0 -0.00047031990061531282 0.034626661872599815 0 0.00013811234901682601 0.034429696499559251 0 -0.00048310621593106531 0.03401087379197916 0 4.9803958380698905e-06 0.033877356961195822 0 -0.00015470690261722256 0.034574038304019741 0 -0.00069886001326296076 0.034119005772818858 0 -0.00047031990061531282 0.034626661872599815 0 -1.3161796951358095e-05 0.034514185748818801 0 -0.00061241033772530809 0.034064574946483073 0 4.9803958380698905e-06 0.033877356961195822 0 -0.00014707065529371142 0.032806858160983075 0 -0.00069200015831368368 0.033407925232163321 0 -0.00048310621593106531 0.03401087379197916 0 4.9803958380698905e-06 0.033877356961195822 0 -0.00069200015831368368 0.033407925232163321 0 -0.00014707065529371142 0.032806858160983075 0 -0.0010203505315128786 0.032896999169625879 0 -0.00069200015831368368 0.033407925232163321 0 -1.0792255748985904e-05 0.032660472620396189 0 -0.00063531625801229558 0.032333405611235572 0 0.00021541066388543721 0.034242033164250577 0 -0.00014707065529371142 0.032806858160983075 0 -2.4591562992815773e-07 0.031337605338376408 0 0.00021541066388543721 0.034242033164250577 0 4.9803958380698905e-06 0.033877356961195822 0 -0.00014707065529371142 0.032806858160983075 0 -0.00014707065529371142 0.032806858160983075 0 -2.4591562992815773e-07 0.031337605338376408 0 -8.4486749015408294e-05 0.031439547113547753 0 -2.4591562992815773e-07 0.031337605338376408 0 -6.3528670999137362e-05 0.029619130389688508 0 -8.4486749015408294e-05 0.031439547113547753 0 -2.4591562992815773e-07 0.031337605338376408 0 -6.3528670999137362e-05 0.029619130389688508 0 -8.8080015619445551e-07 0.026535510237978056 0 -6.3528670999137362e-05 0.029619130389688508 0 -0.0016332377878464266 0.031055477478003718 0 -8.4486749015408294e-05 0.031439547113547753 0 -5.4024079572372329e-06 0.029352294849212344 0 -0.0010086056952311917 0.030369600199883096 0 -0.0010086056952311917 0.030369600199883096 0 -0.00063531625801229558 0.032333405611235572 0 -0.0017214791560232305 0.032814885403463577 0 -0.0010203505315128786 0.032896999169625879 0 -0.0015049942197521904 0.033684224363830929 0 -6.3528670999137362e-05 0.029619130389688508 0 4.8648401591691765e-05 0.028440179230832731 0 -8.8080015619445551e-07 0.026535510237978056 0 -2.4447246347914314e-06 0.026530151950486476 0 -0.00088232714678232016 0.024962108772872707 0 -2.7919602664254213e-05 0.024758691685303463 0 4.8648401591691765e-05 0.028440179230832731 0 -8.8080015619445551e-07 0.026535510237978056 0 -0.00015778020202151079 0.027553227879406127 0 -0.00078794287300534577 0.026150877232480985 0 -0.00018986302258993721 0.024808964057147449 0 -2.0767020820296738e-07 0.026533424066456045 0 -0.00078794287300534577 0.026150877232480985 0 -0.00072340394169355404 0.028660148520900316 0 -0.0015076320025425608 0.028524611769655765 0 -0.0012557011100005479 0.029208158414638252 0 -0.0010086056952311917 0.030369600199883096 0 -0.00078794287300534577 0.026150877232480985 0 -0.0010086056952311917 0.030369600199883096 0 -0.001559860010915328 0.029857444062155705 0 -0.00085849518405159701 0.024576163025004996 0 -0.00061583037151687525 0.023962657266566073 0 -0.0010811323903236578 0.023770195915396131 0 -0.00078794287300534577 0.026150877232480985 0 -0.001559860010915328 0.029857444062155705 0 -0.00085849518405159701 0.024576163025004996 0 -0.00061583037151687525 0.023962657266566073 0 -2.7919602664254213e-05 0.024758691685303463 0 -0.0019830910075186448 0.033659984822239468 0 -0.0020210626017644353 0.033965248705087193 0 -0.0021487535553484684 0.03391892294276172 0 -0.00061583037151687525 0.023962657266566073 0 -0.0010811323903236578 0.023770195915396131 0 -0.0004760484438287921 0.023303781121914242 0 -0.001559860010915328 0.029857444062155705 0 -0.0013469410544939137 0.028602150138783131 0 -0.0017214791560232305 0.032814885403463577 0 -0.0021954772789760965 0.033361777846462305 0 -0.0015049942197521904 0.033684224363830929 0 -0.0021954772789760965 0.033361777846462305 0 -0.0018631825280064694 0.03410100634451603 0 -0.0015049942197521904 0.033684224363830929 0 -0.001559860010915328 0.029857444062155705 0 -0.0017493118970064254 0.035440134668829518 0 -0.0019830910075186448 0.033659984822239468 0 -0.0018631825280064694 0.03410100634451603 0 -0.0020210626017644353 0.033965248705087193 0 -0.0018631825280064694 0.03410100634451603 0 -0.0019857752169326042 0.034122495563327977 0 -0.0020210626017644353 0.033965248705087193 0 -0.0020874508592843202 0.034027824269164758 0 -0.0021487535553484684 0.03391892294276172 0 -0.0022163864188782961 0.034003933861910779 0 -0.0020210626017644353 0.033965248705087193 0 -0.0020874508592843202 0.034027824269164758 0 -0.0021487535553484684 0.03391892294276172 0 -0.0019857752169326042 0.034122495563327977 0 -0.0020874508592843202 0.034027824269164758 0 -0.0020503766218684834 0.034117153272616288 0 -0.0019857752169326042 0.034122495563327977 0 -0.0020210626017644353 0.033965248705087193 0 -0.0020874508592843202 0.034027824269164758 0 -0.0010203505315128786 0.032896999169625879 0 -0.00069200015831368368 0.033407925232163321 0 -0.0015049942197521904 0.033684224363830929 0 -0.00061241033772530809 0.034064574946483073 0 -0.00147135063291281 0.033714993296462645 0 -0.00048310621593106531 0.03401087379197916 0 -0.00069200015831368368 0.033407925232163321 0 -0.0015049942197521904 0.033684224363830929 0 -0.0018631825280064694 0.03410100634451603 0 -0.0015049942197521904 0.033684224363830929 0 -0.0012721267986152201 0.034226536376753144 0 -0.00069886001326296076 0.034119005772818858 0 -0.0015049942197521904 0.033684224363830929 0 -0.0012721267986152201 0.034226536376753144 0 -0.00069886001326296076 0.034119005772818858 0 -0.0012721267986152201 0.034226536376753144 0 -0.00089626602484361084 0.034510574392941439 0 -0.00089626602484361084 0.034510574392941439 0 -0.0014450450207573091 0.034721031855744405 0 -0.00073804246205403583 0.034955751541929987 0 -0.0012721267986152201 0.034226536376753144 0 -0.00089626602484361084 0.034510574392941439 0 -0.0014450450207573091 0.034721031855744405 0 -0.0018631825280064694 0.03410100634451603 0 -0.0012721267986152201 0.034226536376753144 0 -0.0014450450207573091 0.034721031855744405 0 0.0002253052942184818 0.032964673508196249 0 0.00012822549666084492 0.033032012176919985 0 0.00024558550261645701 0.03310949891101652 0 -0.00049557108061435849 0.034049117901473497 0 -0.00016548089552842973 0.033908741453168606 0 0.0002253052942184818 0.032964673508196249 0 0.00024558550261645701 0.03310949891101652 0 0.00040534820916317873 0.03301167362268094 0 -0.0020874508592843202 0.034027824269164758 0 -0.0020503766218684834 0.034117153272616288 0 -0.0022163864188782961 0.034003933861910779 0 -0.0014325256835641931 0.032217356078378147 0 -0.00064427391556181148 0.027878695930114439 0 -0.0019857752169326042 0.034122495563327977 0 -0.0014450450207573091 0.034721031855744405 0 -0.0022063651274143344 0.03443101830378141 0 -0.00049557108061435849 0.034049117901473497 0 -0.0014325256835641931 0.032217356078378147 0 -0.0018631825280064694 0.03410100634451603 0 -0.0019857752169326042 0.034122495563327977 0 -0.0014450450207573091 0.034721031855744405 0 -0.0023886930507230402 0.034417635973203096 0 -0.0014325256835641931 0.032217356078378147 0 0.0002253052942184818 0.032964673508196249 0 7.7350796373925026e-05 0.032921169036650919 0 0.00012822549666084492 0.033032012176919985 0 -0.0014325256835641931 0.032217356078378147 0 -0.00049860442405078704 0.03028320916487617 0 7.7350796373925026e-05 0.032921169036650919 0 0.00012822549666084492 0.033032012176919985 0 1.8244623096337453e-05 0.033022162689801668 0 0.00012822549666084492 0.033032012176919985 0 5.9336214395104483e-05 0.033111174008380727 0 1.8244623096337453e-05 0.033022162689801668 0 0.00012822549666084492 0.033032012176919985 0 5.9336214395104483e-05 0.033111174008380727 0 0.00014100538082781301 0.033131067931380528 0 0.00012822549666084492 0.033032012176919985 0 0.00014100538082781301 0.033131067931380528 0 0.00024558550261645701 0.03310949891101652 0 0.00014100538082781301 0.033131067931380528 0 0.00019708986530028377 0.033221764974210623 0 0.0001349146730182465 0.033250505878338089 0 5.9336214395104483e-05 0.033111174008380727 0 3.2685181543210928e-05 0.03318750604628453 0 0.0001349146730182465 0.033250505878338089 0 5.9336214395104483e-05 0.033111174008380727 0 0.00014100538082781301 0.033131067931380528 0 0.0001349146730182465 0.033250505878338089 0 0.00024558550261645701 0.03310949891101652 0 0.000394451600077392 0.033163442949709743 0 0.00040534820916317873 0.03301167362268094 0 0.00024558550261645701 0.03310949891101652 0 0.00028110767315449629 0.033260024968299134 0 0.000394451600077392 0.033163442949709743 0 0.00014100538082781301 0.033131067931380528 0 0.00024558550261645701 0.03310949891101652 0 0.00019708986530028377 0.033221764974210623 0 0.00024558550261645701 0.03310949891101652 0 0.00019708986530028377 0.033221764974210623 0 0.00028110767315449629 0.033260024968299134 0 0.00019708986530028377 0.033221764974210623 0 0.00028110767315449629 0.033260024968299134 0 0.00022115280049494161 0.033326504168561581 0 0.00028110767315449629 0.033260024968299134 0 0.000394451600077392 0.033163442949709743 0 0.00038792998371101279 0.033361997863876169 0 0.000394451600077392 0.033163442949709743 0 0.00056203983555313099 0.033261347018281026 0 0.00038792998371101279 0.033361997863876169 0 0.00048982727264810914 0.033123495971618407 0 0.000394451600077392 0.033163442949709743 0 0.00056203983555313099 0.033261347018281026 0 0.00048982727264810914 0.033123495971618407 0 0.000394451600077392 0.033163442949709743 0 0.00040534820916317873 0.03301167362268094 0 0.00051257193633133633 0.033899469911977523 0 8.6039344958522102e-06 0.034442397885958875 0 0.00036164384681704572 0.034736450593831569 0 3.86227219059603e-05 0.034938384732376447 0 0.00012153595390273853 0.035138148179221715 0 0.00048982727264810914 0.033123495971618407 0 0.00056203983555313099 0.033261347018281026 0 0.00059980407938558221 0.033068046298157142 0 0.00036164384681704572 0.034736450593831569 0 3.9463495298757e-07 0.03480784553739532 0 3.86227219059603e-05 0.034938384732376447 0 3.9463495298757e-07 0.03480784553739532 0 -8.5560861666813975e-06 0.034935185542628644 0 1.9492033811250284e-05 0.034957448390200208 0 3.9463495298757e-07 0.03480784553739532 0 -8.5560861666813975e-06 0.034935185542628644 0 3.86227219059603e-05 0.034938384732376447 0 4.4434348991815155e-08 0.034999878643080101 0 -8.5560861666813975e-06 0.034935185542628644 0 -1.0088795789740298e-07 0.034999948616235017 0 4.4434348991815155e-08 0.034999878643080101 0 -8.5560861666813975e-06 0.034935185542628644 0 1.9492033811250284e-05 0.034957448390200208 0 -8.5560861666813975e-06 0.034935185542628644 0 -1.0088795789740298e-07 0.034999948616235017 0 -1.0122264555370426e-05 0.035021436712233067 0 -3.1751432682933882e-08 0.035000005439450629 0 -4.2421801869393643e-06 0.035020299093693266 0 -1.0122264555370426e-05 0.035021436712233067 0 3.86227219059603e-05 0.034938384732376447 0 0.00012153595390273853 0.035138148179221715 0 -8.5560861666813975e-06 0.034935185542628644 0 -1.0122264555370426e-05 0.035021436712233067 0 3.86227219059603e-05 0.034938384732376447 0 -4.2421801869393643e-06 0.035020299093693266 0 8.6039344958522102e-06 0.034442397885958875 0 -0.00020697445033989581 0.035054660217145893 0 8.6039344958522102e-06 0.034442397885958875 0 -4.819580217823338e-05 0.034943532231740598 0 -0.0001305179651564354 0.034820480579888048 0 -0.00016607087028967774 0.034988300329968247 0 -5.0953591158326973e-05 0.035009050634373477 0 -4.819580217823338e-05 0.034943532231740598 0 -0.00016607087028967774 0.034988300329968247 0 -5.0953591158326973e-05 0.035009050634373477 0 -4.819580217823338e-05 0.034943532231740598 0 -5.3938668005549486e-08 0.035000000943318857 0 -4.6986223427726177e-09 0.035000048986944539 0 -5.0953591158326973e-05 0.035009050634373477 0 -5.3938668005549486e-08 0.035000000943318857 0 -4.819580217823338e-05 0.034943532231740598 0 -5.3938668005549486e-08 0.035000000943318857 0 1.5247899883405917e-07 0.034999588884903364 0 -4.819580217823338e-05 0.034943532231740598 0 1.5247899883405917e-07 0.034999588884903364 0 -0.0001305179651564354 0.034820480579888048 0 -0.00015470690261722256 0.034574038304019741 0 1.5247899883405917e-07 0.034999588884903364 0 -0.0001305179651564354 0.034820480579888048 0 -0.0001305179651564354 0.034820480579888048 0 -0.00037786592082527282 0.034867869989468614 0 -0.00047031990061531282 0.034626661872599815 0 -0.00015470690261722256 0.034574038304019741 0 -0.0001305179651564354 0.034820480579888048 0 -0.00047031990061531282 0.034626661872599815 0 -0.00089626602484361084 0.034510574392941439 0 -0.00047031990061531282 0.034626661872599815 0 -0.00073804246205403583 0.034955751541929987 0 -0.00037786592082527282 0.034867869989468614 0 -0.00047031990061531282 0.034626661872599815 0 -0.00073804246205403583 0.034955751541929987 0 -0.00037786592082527282 0.034867869989468614 0 -0.00073804246205403583 0.034955751541929987 0 -0.00022117082574274591 0.035085775599821428 0 -0.00016548089552842973 0.033908741453168606 0 8.6039344958522102e-06 0.034442397885958875 0 0.00048982727264810914 0.033123495971618407 0 0.00040534820916317873 0.03301167362268094 0 0.00059980407938558221 0.033068046298157142 0 -0.0001305179651564354 0.034820480579888048 0 -0.00037786592082527282 0.034867869989468614 0 -0.00022117082574274591 0.035085775599821428 0 -0.0001884162378341786 0.016658551567908499 0 -0.00018494372030676066 0.01653468353288878 0 -0.0001235838872308106 0.016644345564540388 0 -0.00029094014915304598 0.016569896173947714 0 -0.0001884162378341786 0.016658551567908499 0 -0.00018494372030676066 0.01653468353288878 0 0.00030188915240697117 0.02043716854801805 0 0.0002943900883995333 0.020444415819855122 0 -1.4913910022517507e-05 0.02026419754732299 0 -2.6914867729869339e-05 0.018382858219943003 0 -8.2861715897519534e-05 0.018463470430860947 0 0.0002943900883995333 0.020444415819855122 0 0.00020322039030101782 0.019624819678400934 0 0.00028603885438545828 0.020563221143556774 0 0.0002943900883995333 0.020444415819855122 0 -1.4913910022517507e-05 0.02026419754732299 0 0.00020322039030101782 0.019624819678400934 0 -8.2861715897519534e-05 0.018463470430860947 0 -0.00015385241838466291 0.017801592635683771 0 -1.4913910022517507e-05 0.02026419754732299 0 0.00020322039030101782 0.019624819678400934 0 -0.00041655933329562043 0.019061002830068102 0 3.1303077703305204e-05 0.018625751239567112 0 0.00020322039030101782 0.019624819678400934 0 -0.00041655933329562043 0.019061002830068102 0 3.1303077703305204e-05 0.018625751239567112 0 -1.3492256229927542e-07 0.017504742183364765 0 5.4820996003376667e-07 0.019310630539944161 0 3.1303077703305204e-05 0.018625751239567112 0 -1.3492256229927542e-07 0.017504742183364765 0 -0.00012065795911102192 0.017813775162377078 0 3.1303077703305204e-05 0.018625751239567112 0 5.4820996003376667e-07 0.019310630539944161 0 0.00020322039030101782 0.019624819678400934 0 5.4820996003376667e-07 0.019310630539944161 0 0.00020322039030101782 0.019624819678400934 0 0.00017402783280566104 0.020389026755601544 0 0.00020322039030101782 0.019624819678400934 0 0.00028603885438545828 0.020563221143556774 0 0.00017402783280566104 0.020389026755601544 0 0.00028603885438545828 0.020563221143556774 0 0.00017402783280566104 0.020389026755601544 0 0.00011413280698833935 0.02133683439643207 0 5.4820996003376667e-07 0.019310630539944161 0 0.00017402783280566104 0.020389026755601544 0 3.1308489044818906e-07 0.021116166061755204 0 0.00017402783280566104 0.020389026755601544 0 3.1308489044818906e-07 0.021116166061755204 0 0.00011413280698833935 0.02133683439643207 0 3.1308489044818906e-07 0.021116166061755204 0 0.00011413280698833935 0.02133683439643207 0 -1.3999023323055964e-07 0.022921321741613879 0 0.00028603885438545828 0.020563221143556774 0 0.00011413280698833935 0.02133683439643207 0 0.00017126580883264304 0.020803015350597167 0 0.00011413280698833935 0.02133683439643207 0 0.00017126580883264304 0.020803015350597167 0 -0.00013121626410930788 0.022226287941603157 0 0.0002943900883995333 0.020444415819855122 0 0.00028603885438545828 0.020563221143556774 0 0.00017126580883264304 0.020803015350597167 0 0.0002943900883995333 0.020444415819855122 0 0.00017126580883264304 0.020803015350597167 0 0.00014545374724958312 0.020421030450408353 0 0.00030188915240697117 0.02043716854801805 0 0.0002943900883995333 0.020444415819855122 0 0.00014545374724958312 0.020421030450408353 0 0.00017126580883264304 0.020803015350597167 0 0.00014545374724958312 0.020421030450408353 0 -0.00018041000653882543 0.020399913827825206 0 -0.00018041000653882543 0.020399913827825206 0 -0.0004719936973418649 0.020710494904135533 0 -0.00038751729866972977 0.020146608867044172 0 0.00017126580883264304 0.020803015350597167 0 -0.00018041000653882543 0.020399913827825206 0 -0.0004719936973418649 0.020710494904135533 0 -0.00027339399240242416 0.02197442703675281 0 -0.00023126594708856632 0.021780394599162461 0 -0.00013883651064690143 0.023264587278590852 0 1.4843187735760616e-05 0.023297921207465162 0 0.00013577434932463708 0.023148570004477034 0 1.4843187735760616e-05 0.023297921207465162 0 0.00013577434932463708 0.023148570004477034 0 8.3387211722590746e-05 0.023270087750019885 0 -0.00013883651064690143 0.023264587278590852 0 1.4843187735760616e-05 0.023297921207465162 0 -4.4433595514740262e-05 0.023323300983212655 0 0.00017126580883264304 0.020803015350597167 0 -0.0004719936973418649 0.020710494904135533 0 -0.00013121626410930788 0.022226287941603157 0 -0.00013883651064690143 0.023264587278590852 0 0.00013577434932463708 0.023148570004477034 0 -0.00013121626410930788 0.022226287941603157 0 -0.00027339399240242416 0.02197442703675281 0 -0.00017224630295959974 0.022200539256737581 0 0.00011413280698833935 0.02133683439643207 0 -0.00013121626410930788 0.022226287941603157 0 -1.3999023323055964e-07 0.022921321741613879 0 -0.00013121626410930788 0.022226287941603157 0 -1.3999023323055964e-07 0.022921321741613879 0 0.00011904212199238388 0.023293493421321993 0 -1.3999023323055964e-07 0.022921321741613879 0 0.00011904212199238388 0.023293493421321993 0 1.0161824814608856e-06 0.02472734314571149 0 0.00013577434932463708 0.023148570004477034 0 0.00011904212199238388 0.023293493421321993 0 0.00010216891525701047 0.023441583186787945 0 0.00013577434932463708 0.023148570004477034 0 -0.00013121626410930788 0.022226287941603157 0 0.00011904212199238388 0.023293493421321993 0 0.00011904212199238388 0.023293493421321993 0 6.0723188098650223e-05 0.023956178243979817 0 0.00010216891525701047 0.023441583186787945 0 6.0723188098650223e-05 0.023956178243979817 0 -0.00014906781174813807 0.023689869990593665 0 0.00010216891525701047 0.023441583186787945 0 6.0723188098650223e-05 0.023956178243979817 0 1.0161824814608856e-06 0.