<?xml version="1.0"?>
<VTKFile type="UnstructuredGrid" version="0.1" byte_order="LittleEndian">
<UnstructuredGrid>
<Piece NumberOfPoints="30578" NumberOfCells="10723">
<Points>
<DataArray type="Float64" NumberOfComponents="3" format="ascii">
-0.5 -0.5 0 -0.47439485679867832 -0.48072581506667478 0 -0.5 -0.44765434486020428 0 -0.5 -0.5 0 -0.47439485679867832 -0.48072581506667478 0 -0.43702443379937372 -0.49999999999999922 0 -0.47439485679867832 -0.48072581506667478 0 -0.45530669598391149 -0.47718009944797551 0 -0.43702443379937372 -0.49999999999999922 0 -0.47439485679867832 -0.48072581506667478 0 -0.45530669598391149 -0.47718009944797551 0 -0.4597353119515426 -0.45943449384344293 0 -0.45530669598391149 -0.47718009944797551 0 -0.44381084376742141 -0.47114793899167112 0 -0.4597353119515426 -0.45943449384344293 0 -0.45530669598391149 -0.47718009944797551 0 -0.44381084376742141 -0.47114793899167112 0 -0.43702443379937372 -0.49999999999999922 0 -0.44381084376742141 -0.47114793899167112 0 -0.43702443379937372 -0.49999999999999922 0 -0.45059725373546922 -0.44229587798334291 0 -0.4339166039271336 -0.43498117536117131 0 -0.43309128002320102 -0.45351235807576151 0 -0.44381084376742141 -0.47114793899167112 0 -0.45059725373546922 -0.44229587798334291 0 -0.4597353119515426 -0.45943449384344293 0 -0.44381084376742141 -0.47114793899167112 0 -0.45059725373546922 -0.44229587798334291 0 -0.43309128002320102 -0.45351235807576151 0 -0.44381084376742141 -0.47114793899167112 0 -0.45059725373546922 -0.44229587798334291 0 -0.4597353119515426 -0.45943449384344293 0 -0.47505511338101108 -0.44868394208069429 0 -0.46517432262153441 -0.43649963461163338 0 -0.45059725373546922 -0.44229587798334291 0 -0.4597353119515426 -0.45943449384344293 0 -0.46517432262153441 -0.43649963461163338 0 -0.47505511338101108 -0.44868394208069429 0 -0.47820614292347569 -0.42776699273468149 0 -0.46517432262153441 -0.43649963461163338 0 -0.47505511338101108 -0.44868394208069429 0 -0.47820614292347569 -0.42776699273468149 0 -0.47439485679867832 -0.48072581506667478 0 -0.47505511338101108 -0.44868394208069429 0 -0.5 -0.44765434486020428 0 -0.47439485679867832 -0.48072581506667478 0 -0.4597353119515426 -0.45943449384344293 0 -0.47505511338101108 -0.44868394208069429 0 -0.47505511338101108 -0.44868394208069429 0 -0.5 -0.44765434486020428 0 -0.47820614292347569 -0.42776699273468149 0 -0.5 -0.44765434486020428 0 -0.49656450065014057 -0.42151023988558672 0 -0.47820614292347569 -0.42776699273468149 0 -0.5 -0.44765434486020428 0 -0.49656450065014057 -0.42151023988558672 0 -0.50000000000000089 -0.37904661106745707 0 -0.49656450065014057 -0.42151023988558672 0 -0.48135717246594062 -0.40685004338866881 0 -0.47820614292347569 -0.42776699273468149 0 -0.49656450065014057 -0.42151023988558672 0 -0.48135717246594062 -0.40685004338866881 0 -0.48135717246594062 -0.40685004338866881 0 -0.47820614292347569 -0.42776699273468149 0 -0.48135717246594062 -0.40685004338866881 0 -0.47820614292347569 -0.42776699273468149 0 -0.45738366370351707 -0.41344381697501481 0 -0.49656450065014057 -0.42151023988558672 0 -0.48135717246594062 -0.40685004338866881 0 -0.50000000000000089 -0.37904661106745707 0 -0.50000000000000089 -0.37904661106745707 0 -0.48466894952205442 -0.38486603086372417 0 -0.48717439863114548 -0.36823452950912272 0 -0.48135717246594062 -0.40685004338866881 0 -0.50000000000000089 -0.37904661106745707 0 -0.48466894952205442 -0.38486603086372417 0 -0.48466894952205442 -0.38486603086372417 0 -0.48717439863114548 -0.36823452950912272 0 -0.50000000000000089 -0.37904661106745707 0 -0.48466894952205442 -0.38486603086372417 0 -0.48135717246594062 -0.40685004338866881 0 -0.48466894952205442 -0.38486603086372417 0 -0.46593083509403682 -0.39197871725165279 0 -0.48135717246594062 -0.40685004338866881 0 -0.48466894952205442 -0.38486603086372417 0 -0.48135717246594062 -0.40685004338866881 0 -0.46593083509403682 -0.39197871725165279 0 -0.48466894952205442 -0.38486603086372417 0 -0.47195833844942919 -0.37959069520904498 0 -0.46593083509403682 -0.39197871725165279 0 -0.48466894952205442 -0.38486603086372417 0 -0.46593083509403682 -0.39197871725165279 0 -0.48466894952205442 -0.38486603086372417 0 -0.47195833844942919 -0.37959069520904498 0 -0.48717439863114548 -0.36823452950912272 0 -0.46593083509403682 -0.39197871725165279 0 -0.44890944387521442 -0.39029302340116001 0 -0.45132291774153199 -0.37789636588759368 0 -0.47195833844942919 -0.37959069520904498 0 -0.46593083509403682 -0.39197871725165279 0 -0.45132291774153199 -0.37789636588759368 0 -0.46593083509403682 -0.39197871725165279 0 -0.45132291774153199 -0.37789636588759368 0 -0.48135717246594062 -0.40685004338866881 0 -0.46593083509403682 -0.39197871725165279 0 -0.45738366370351707 -0.41344381697501481 0 -0.46593083509403682 -0.39197871725165279 0 -0.44275815558040038 -0.40077469311046232 0 -0.45738366370351707 -0.41344381697501481 0 -0.46593083509403682 -0.39197871725165279 0 -0.44275815558040038 -0.40077469311046232 0 -0.46593083509403682 -0.39197871725165279 0 -0.44275815558040038 -0.40077469311046232 0 -0.44890944387521442 -0.39029302340116001 0 -0.44275815558040038 -0.40077469311046232 0 -0.44064580868350911 -0.39542861624611658 0 -0.44890944387521442 -0.39029302340116001 0 -0.44225344557501872 -0.38376649822575309 0 -0.45132291774153199 -0.37789636588759368 0 -0.43671500038902772 -0.36381401452353412 0 -0.44890944387521442 -0.39029302340116001 0 -0.44225344557501872 -0.38376649822575309 0 -0.45132291774153199 -0.37789636588759368 0 -0.44064580868350911 -0.39542861624611658 0 -0.44225344557501872 -0.38376649822575309 0 -0.43040194378266172 -0.3881600185019185 0 -0.44064580868350911 -0.39542861624611658 0 -0.44890944387521442 -0.39029302340116001 0 -0.44225344557501872 -0.38376649822575309 0 -0.47820614292347569 -0.42776699273468149 0 -0.46517432262153441 -0.43649963461163338 0 -0.45738366370351707 -0.41344381697501481 0 -0.45059725373546922 -0.44229587798334291 0 -0.45738366370351707 -0.41344381697501481 0 -0.45059725373546922 -0.44229587798334291 0 -0.46517432262153441 -0.43649963461163338 0 -0.45738366370351707 -0.41344381697501481 0 -0.44275815558040038 -0.40077469311046232 0 -0.45738366370351707 -0.41344381697501481 0 -0.44164244492799948 -0.42121090558557039 0 -0.45059725373546922 -0.44229587798334291 0 -0.45738366370351707 -0.41344381697501481 0 -0.44164244492799948 -0.42121090558557039 0 -0.45059725373546922 -0.44229587798334291 0 -0.44164244492799948 -0.42121090558557039 0 -0.4339166039271336 -0.43498117536117131 0 -0.4339166039271336 -0.43498117536117131 0 -0.42355654769347711 -0.414558964497861 0 -0.41671115160429401 -0.44095791049380378 0 -0.44164244492799948 -0.42121090558557039 0 -0.4339166039271336 -0.43498117536117131 0 -0.42355654769347711 -0.414558964497861 0 -0.44275815558040038 -0.40077469311046232 0 -0.44164244492799948 -0.42121090558557039 0 -0.42355654769347711 -0.414558964497861 0 -0.42355654769347711 -0.414558964497861 0 -0.41056920252370888 -0.3963363404412637 0 -0.40050668374064252 -0.41734442193795029 0 -0.42355654769347711 -0.414558964497861 0 -0.41671115160429401 -0.44095791049380378 0 -0.42355654769347711 -0.414558964497861 0 -0.40050668374064252 -0.41734442193795029 0 -0.41671115160429401 -0.44095791049380378 0 -0.44225344557501872 -0.38376649822575309 0 -0.43040194378266172 -0.3881600185019185 0 -0.43671500038902772 -0.36381401452353412 0 -0.43040194378266172 -0.3881600185019185 0 -0.43671500038902772 -0.36381401452353412 0 -0.44064580868350911 -0.39542861624611658 0 -0.42355654769347711 -0.414558964497861 0 -0.43040194378266172 -0.3881600185019185 0 -0.42355654769347711 -0.414558964497861 0 -0.43040194378266172 -0.3881600185019185 0 -0.44275815558040038 -0.40077469311046232 0 -0.44064580868350911 -0.39542861624611658 0 -0.42355654769347711 -0.414558964497861 0 -0.44064580868350911 -0.39542861624611658 0 -0.43040194378266172 -0.3881600185019185 0 -0.42355654769347711 -0.414558964497861 0 -0.43040194378266172 -0.3881600185019185 0 -0.41056920252370888 -0.3963363404412637 0 -0.43040194378266172 -0.3881600185019185 0 -0.4079689369259607 -0.37224253963894771 0 -0.43040194378266172 -0.3881600185019185 0 -0.41056920252370888 -0.3963363404412637 0 -0.4079689369259607 -0.37224253963894771 0 -0.41056920252370888 -0.3963363404412637 0 -0.39195929229331972 -0.37982250283040359 0 -0.4079689369259607 -0.37224253963894771 0 -0.41056920252370888 -0.3963363404412637 0 -0.39195929229331972 -0.37982250283040359 0 -0.39357845321732049 -0.39746174547711199 0 -0.41056920252370888 -0.3963363404412637 0 -0.39357845321732049 -0.39746174547711199 0 -0.40050668374064252 -0.41734442193795029 0 -0.39357845321732049 -0.39746174547711199 0 -0.38114412328536468 -0.40833987260765031 0 -0.36544727141479139 -0.39026932065168712 0 -0.39195929229331972 -0.37982250283040359 0 -0.37549160074202448 -0.3732971907138336 0 -0.36544727141479139 -0.39026932065168712 0 -0.39195929229331972 -0.37982250283040359 0 -0.39357845321732049 -0.39746174547711199 0 -0.36544727141479139 -0.39026932065168712 0 -0.40050668374064252 -0.41734442193795029 0 -0.3944977858259317 -0.43926335073686201 0 -0.41671115160429401 -0.44095791049380378 0 -0.40050668374064252 -0.41734442193795029 0 -0.38028594703985957 -0.42392304976487449 0 -0.3944977858259317 -0.43926335073686201 0 -0.39357845321732049 -0.39746174547711199 0 -0.40050668374064252 -0.41734442193795029 0 -0.38114412328536468 -0.40833987260765031 0 -0.40050668374064252 -0.41734442193795029 0 -0.38114412328536468 -0.40833987260765031 0 -0.38028594703985957 -0.42392304976487449 0 -0.38114412328536468 -0.40833987260765031 0 -0.38028594703985957 -0.42392304976487449 0 -0.36590226101420908 -0.41270082520662749 0 -0.38028594703985957 -0.42392304976487449 0 -0.3944977858259317 -0.43926335073686201 0 -0.3723601590800425 -0.44005613486137668 0 -0.3944977858259317 -0.43926335073686201 0 -0.38265619596279349 -0.45813348326120767 0 -0.3723601590800425 -0.44005613486137668 0 -0.40093272222703252 -0.45142790024540502 0 -0.3944977858
[...]
<PointData Scalars="" Vectors="displacement," Tensors="">
<DataArray type="Float64" Name="displacement" NumberOfComponents="3" format="ascii">
-0.034997293306824037 -1.1180949104751977e-06 0 -0.03398289466505814 -0.00016644977739700359 0 -0.034999030820080379 1.713162724780712e-08 0 -0.034997293306824037 -1.1180949104751977e-06 0 -0.03398289466505814 -0.00016644977739700359 0 -0.030598032983666323 2.0050802237065208e-06 0 -0.03398289466505814 -0.00016644977739700359 0 -0.033405697858230825 1.7780537018075488e-05 0 -0.030598032983666323 2.0050802237065208e-06 0 -0.03398289466505814 -0.00016644977739700359 0 -0.033405697858230825 1.7780537018075488e-05 0 -0.03414400599620919 -2.8826579458852539e-05 0 -0.033405697858230825 1.7780537018075488e-05 0 -0.033747773500428763 0.00055543258956785701 0 -0.03414400599620919 -2.8826579458852539e-05 0 -0.033405697858230825 1.7780537018075488e-05 0 -0.033747773500428763 0.00055543258956785701 0 -0.030598032983666323 2.0050802237065208e-06 0 -0.031894799288026333 0.00013646039258336664 0 -0.030592259382638012 9.4907345521500436e-08 0 -0.031342519567597857 -0.00057103263767127317 0 -0.031655361214599088 0.00012403127797154078 0 -0.030757479000377629 0.00011960506165418903 0 -0.033747773500428763 0.00055543258956785701 0 -0.034173791042378013 -0.00022775680897557551 0 -0.03414400599620919 -2.8826579458852539e-05 0 -0.029994502471989922 -0.00012541805255088671 0 -0.031342519567597857 -0.00057103263767127317 0 -0.030757479000377629 0.00011960506165418903 0 -0.031894799288026333 0.00013646039258336664 0 -0.032701034949888935 -0.00034284965935938138 0 -0.03414400599620919 -2.8826579458852539e-05 0 -0.034463562276053183 0.00010417238320430805 0 -0.033988963509240348 -2.7578057764125219e-05 0 -0.034173791042378013 -0.00022775680897557551 0 -0.03414400599620919 -2.8826579458852539e-05 0 -0.033988963509240348 -2.7578057764125219e-05 0 -0.034463562276053183 0.00010417238320430805 0 -0.033564868108166029 0.00043426554090069796 0 -0.033988963509240348 -2.7578057764125219e-05 0 -0.034459886078531302 0.00013535719378612326 0 -0.034172927477189204 0.00024600031091508796 0 -0.03398289466505814 -0.00016644977739700359 0 -0.034463562276053183 0.00010417238320430805 0 -0.034999030820080379 1.713162724780712e-08 0 -0.03398289466505814 -0.00016644977739700359 0 -0.03414400599620919 -2.8826579458852539e-05 0 -0.034463562276053183 0.00010417238320430805 0 -0.034463562276053183 0.00010417238320430805 0 -0.034999030820080379 1.713162724780712e-08 0 -0.034908381464174833 7.0669348696917583e-05 0 -0.034999030820080379 1.713162724780712e-08 0 -0.034993387077656209 2.8690770532324465e-06 0 -0.034908381464174833 7.0669348696917583e-05 0 -0.034999030820080379 1.713162724780712e-08 0 -0.034993387077656209 2.8690770532324465e-06 0 -0.035000406460378018 6.9867893286312958e-09 0 -0.034993387077656209 2.8690770532324465e-06 0 -0.035017401886142892 6.1397555874451851e-05 0 -0.034908381464174833 7.0669348696917583e-05 0 -0.035205132815271038 0.00012250863788784575 0 -0.034158235964414925 6.4581560602830434e-06 0 -0.034158235964414925 6.4581560602830434e-06 0 -0.034172927477189204 0.00024600031091508796 0 -0.032729247856499097 0.00038469665040267499 0 -0.033564868108166029 0.00043426554090069796 0 -0.032784860180762168 -0.00038905122684060306 0 -0.034993387077656209 2.8690770532324465e-06 0 -0.034992208650692448 3.5288490475814205e-06 0 -0.035000406460378018 6.9867893286312958e-09 0 -0.035000023001224942 -1.4659564783582528e-08 0 -0.035005048535121944 -1.1403249883692305e-05 0 -0.034998632618557846 -1.1641161620874665e-05 0 -0.034992208650692448 3.5288490475814205e-06 0 -0.035000406460378018 6.9867893286312958e-09 0 -0.034997131842109376 2.4917141556779038e-06 0 -0.034883738675301333 -0.00010481304690808889 0 -0.035038809194051654 -2.0492947022649397e-05 0 -0.034999977488735255 3.3115202459420335e-08 0 -0.034883738675301333 -0.00010481304690808889 0 -0.034115735299313749 -0.0001175715371785338 0 -0.034282031112034358 -0.00014305635453015796 0 -0.034224335550798068 -3.7537833491233153e-06 0 -0.034158235964414925 6.4581560602830434e-06 0 -0.034883738675301333 -0.00010481304690808889 0 -0.034158235964414925 6.4581560602830434e-06 0 -0.033553353554028519 -0.00014932372271704119 0 -0.035033285926300471 -2.1831873380568975e-05 0 -0.035021633142830431 -5.2101659825185742e-05 0 -0.035046283460417729 -6.8447933155953053e-05 0 -0.034883738675301333 -0.00010481304690808889 0 -0.033553353554028519 -0.00014932372271704119 0 -0.035033285926300471 -2.1831873380568975e-05 0 -0.035021633142830431 -5.2101659825185742e-05 0 -0.034998632618557846 -1.1641161620874665e-05 0 -0.032876485257699865 -0.00036325718851743378 0 -0.032877470533655272 -0.00024088468911236574 0 -0.03295269733141494 -0.00025070281547978781 0 -0.035021633142830431 -5.2101659825185742e-05 0 -0.035046283460417729 -6.8447933155953053e-05 0 -0.035017330766130922 -0.00011079908517924198 0 -0.033553353554028519 -0.00014932372271704119 0 -0.03415378253589034 -4.1539658029201688e-05 0 -0.032729247856499097 0.00038469665040267499 0 -0.032482294919885579 -0.00014316339200396596 0 -0.032784860180762168 -0.00038905122684060306 0 -0.032482294919885579 -0.00014316339200396596 0 -0.03275890069084228 -0.00020759772903845242 0 -0.032784860180762168 -0.00038905122684060306 0 -0.033553353554028519 -0.00014932372271704119 0 -0.03253979590824322 -0.0001752409955673509 0 -0.032876485257699865 -0.00036325718851743378 0 -0.03275890069084228 -0.00020759772903845242 0 -0.032877470533655272 -0.00024088468911236574 0 -0.03275890069084228 -0.00020759772903845242 0 -0.032858965084809601 -0.00016358113669478217 0 -0.032877470533655272 -0.00024088468911236574 0 -0.032911854124202507 -0.00019512161865237928 0 -0.03295269733141494 -0.00025070281547978781 0 -0.033015197113867217 -0.00017396985634649521 0 -0.032877470533655272 -0.00024088468911236574 0 -0.032911854124202507 -0.00019512161865237928 0 -0.03295269733141494 -0.00025070281547978781 0 -0.032858965084809601 -0.00016358113669478217 0 -0.032911854124202507 -0.00019512161865237928 0 -0.032876594598915183 -0.00013725862700093104 0 -0.032858965084809601 -0.00016358113669478217 0 -0.032877470533655272 -0.00024088468911236574 0 -0.032911854124202507 -0.00019512161865237928 0 -0.033564868108166029 0.00043426554090069796 0 -0.033988963509240348 -2.7578057764125219e-05 0 -0.032784860180762168 -0.00038905122684060306 0 -0.032701034949888935 -0.00034284965935938138 0 -0.032751922162607867 -0.00039585225454438392 0 -0.034173791042378013 -0.00022775680897557551 0 -0.033988963509240348 -2.7578057764125219e-05 0 -0.032784860180762168 -0.00038905122684060306 0 -0.03275890069084228 -0.00020759772903845242 0 -0.032784860180762168 -0.00038905122684060306 0 -0.032299762754187916 -0.00010692538787507444 0 -0.031342519567597857 -0.00057103263767127317 0 -0.032784860180762168 -0.00038905122684060306 0 -0.032299762754187916 -0.00010692538787507444 0 -0.031342519567597857 -0.00057103263767127317 0 -0.032299762754187916 -0.00010692538787507444 0 -0.031655361214599088 0.00012403127797154078 0 -0.031655361214599088 0.00012403127797154078 0 -0.032415193219019131 0.00041363483343195801 0 -0.031346151668115177 0.00078224267667339749 0 -0.032299762754187916 -0.00010692538787507444 0 -0.031655361214599088 0.00012403127797154078 0 -0.032415193219019131 0.00041363483343195801 0 -0.03275890069084228 -0.00020759772903845242 0 -0.032299762754187916 -0.00010692538787507444 0 -0.032415193219019131 0.00041363483343195801 0 -0.022914873210566403 -0.0021272589547021536 0 -0.023199236622618587 -0.0019277957705480229 0 -0.02281911052756028 -0.0017541730529970487 0 -0.027484029590445158 -0.00076655009726126465 0 -0.026847969840146185 -0.00066857817621387094 0 -0.022914873210566403 -0.0021272589547021536 0 -0.02281911052756028 -0.0017541730529970487 0 -0.022477663342597588 -0.0019785300724230485 0 -0.032911854124202507 -0.00019512161865237928 0 -0.032876594598915183 -0.00013725862700093104 0 -0.033015197113867217 -0.00017396985634649521 0 -0.029021854388689084 -0.0015533542061679383 0 -0.03324044733933277 -0.00075396975524826655 0 -0.032858965084809601 -0.00016358113669478217 0 -0.032415193219019131 0.00041363483343195801 0 -0.033027867085287606 0.00010523895324922121 0 -0.027484029590445158 -0.00076655009726126465 0 -0.029021854388689084 -0.0015533542061679383 0 -0.03275890069084228 -0.00020759772903845242 0 -0.032858965084809601 -0.00016358113669478217 0 -0.032415193219019131 0.00041363483343195801 0 -0.032869750772029152 0.00078417849641232332 0 -0.029021854388689084 -0.0015533542061679383 0 -0.022914873210566403 -0.0021272589547021536 0 -0.023377862948578836 -0.0022475728307030222 0 -0.023199236622618587 -0.0019277957705480229 0 -0.029021854388689084 -0.0015533542061679383 0 -0.026394969984933413 -0.0016862729191994437 0 -0.023377862948578836 -0.0022475728307030222 0 -0.023199236622618587 -0.0019277957705480229 0 -0.023604829583417569 -0.0018925270039014525 0 -0.023199236622618587 -0.0019277957705480229 0 -0.023452744633131097 -0.0016360121968449542 0 -0.023604829583417569 -0.0018925270039014525 0 -0.023199236622618587 -0.0019277957705480229 0 -0.023452744633131097 -0.0016360121968449542 0 -0.023144402418057448 -0.0016597116736362966 0 -0.023199236622618587 -0.0019277957705480229 0 -0.023144402418057448 -0.0016597116736362966 0 -0.02281911052756028 -0.0017541730529970487 0 -0.023144402418057448 -0.0016597116736362966 0 -0.022921419559726697 -0.0014667260915521708 0 -0.023220918762442914 -0.0012440753720041203 0 -0.023452744633131097 -0.0016360121968449542 0 -0.023557147870176938 -0.001369111426706082 0 -0.023220918762442914 -0.0012440753720041203 0 -0.023452744633131097 -0.0016360121968449542 0 -0.023144402418057448 -0.0016597116736362966 0 -0.023220918762442914 -0.0012440753720041203 0 -0.02281911052756028 -0.0017541730529970487 0 -0.02246202662315451 -0.0016417558230118149 0 -0.022477663342597588 -0.0019785300724230485 0 -0.02281911052756028 -0.0017541730529970487 0 -0.022655554802041067 -0.0014369173424044481 0 -0.02246202662315451 -0.0016417558230118149 0 -0.023144402418057448 -0.0016597116736362966 0 -0.02281911052756028 -0.0017541730529970487 0 -0.022921419559726697 -0.0014667260915521708 0 -0.02281911052756028 -0.0017541730529970487 0 -0.022921419559726697 -0.0014667260915521708 0 -0.022655554802041067 -0.0014369173424044481 0 -0.022921419559726697 -0.0014667260915521708 0 -0.022655554802041067 -0.0014369173424044481 0 -0.022790370029823152 -0.0012310666667046412 0 -0.022655554802041067 -0.0014369173424044481 0 -0.02246202662315451 -0.0016417558230118149 0 -0.022393712436654695 -0.0012939299271835321 0 -0.02246202662315451 -0.0016417558230118149 0 -0.022171943411368196 -0.0014565766326474392 0 -0.022393712436654695 -0.0012939299271835321 0 -0.022305640196062911 -0.001729419668795403 0 -0.02246202662315451 -0.0016417558230118149 0 -0.022171943411368196 -0.0014565766326474392 0 -0.022305640196062911 -0.001729419668795403 0 -0.02246202662315451 -0.0016417558230118149 0 -0.022477663342597588 -0.0019785300724230485 0 -0.022199817803053488 -0.00088384895104970569 0 -0.02665785348020774 7.8883602566421303e-05 0 -0.023328423970281696 -5.732009458804106e-05 0 -0.02469310085166759 0.00065151950682806339 0 -0.024278945686331609 0.0018501715159676419 0 -0.022305640196062911 -0.001729419668795403 0 -0.022171943411368196 -0.0014565766326474392 0 -0.022115865014719557 -0.0018421622328630486 0 -0.023328423970281696 -5.732009458804106e-05 0 -0.024451081446927949 -8.6084681847390528e-06 0 -0.02469310085166759 0.00065151950682806339 0 -0.024451081446927949 -8.6084681847390528e-06 0 -0.025838663501332178 9.5286878026497275e-05 0 -0.024795425695318545 -0.0001781619642559804 0 -0.024451081446927949 -8.6084681847390528e-06 0 -0.025838663501332178 9.5286878026497275e-05 0 -0.02469310085166759 0.00065151950682806339 0 -0.026249957370834423 -1.2859512781906668e-06 0 -0.025838663501332178 9.5286878026497275e-05 0 -0.028094740076314566 3.7274483422324605e-06 0 -0.026249957370834423 -1.2859512781906668e-06 0 -0.025838663501332178 9.5286878026497275e-05 0 -0.024795425695318545 -0.0001781619642559804 0 -0.025838663501332178 9.5286878026497275e-05 0 -0.028094740076314566 3.7274483422324605e-06 0 -0.025722342327939705 0.0014294923874809851 0 -0.028097903950467216 4.2890983110890521e-07 0 -0.027599425583396505 0.00066070951202175257 0 -0.025722342327939705 0.0014294923874809851 0 -0.02469310085166759 0.00065151950682806339 0 -0.024278945686331609 0.0018501715159676419 0 -0.025838663501332178 9.5286878026497275e-05 0 -0.025722342327939705 0.0014294923874809851 0 -0.02469310085166759 0.00065151950682806339 0 -0.027599425583396505 0.00066070951202175257 0 -0.02665785348020774 7.8883602566421303e-05 0 -0.03022787772586966 0.0005575968993815658 0 -0.02665785348020774 7.8883602566421303e-05 0 -0.029769739959200899 -4.3465924853891203e-05 0 -0.029873964992119941 5.4632937082808141e-05 0 -0.029772879220813994 5.1682745519631974e-05 0 -0.029520448540865645 0.0001117490160447717 0 -0.029769739959200899 -4.3465924853891203e-05 0 -0.029772879220813994 5.1682745519631974e-05 0 -0.029520448540865645 0.0001117490160447717 0 -0.029769739959200899 -4.3465924853891203e-05 0 -0.029345364276993094 -7.0074794308286553e-07 0 -0.028100256339323414 1.3333402676970728e-06 0 -0.029520448540865645 0.0001117490160447717 0 -0.029345364276993094 -7.0074794308286553e-07 0 -0.029769739959200899 -4.3465924853891203e-05 0 -0.029345364276993094 -7.0074794308286553e-07 0 -0.03058885295073259 2.2297690868428836e-07 0 -0.029769739959200899 -4.3465924853891203e-05 0 -0.03058885295073259 2.2297690868428836e-07 0 -0.029873964992119941 5.4632937082808141e-05 0 -0.029994502471989922 -0.00012541805255088671 0 -0.03058885295073259 2.2297690868428836e-07 0 -0.029873964992119941 5.4632937082808141e-05 0 -0.029873964992119941 5.4632937082808141e-05 0 -0.030533440374552998 0.00050029122989555456 0 -0.030757479000377629 0.00011960506165418903 0 -0.029994502471989922 -0.00012541805255088671 0 -0.029873964992119941 5.4632937082808141e-05 0 -0.030757479000377629 0.00011960506165418903 0 -0.031655361214599088 0.00012403127797154078 0 -0.030757479000377629 0.00011960506165418903 0 -0.031346151668115177 0.00078224267667339749 0 -0.030533440374552998 0.00050029122989555456 0 -0.030757479000377629 0.00011960506165418903 0 -0.031346151668115177 0.00078224267667339749 0 -0.030533440374552998 0.00050029122989555456 0 -0.031346151668115177 0.00078224267667339749 0 -0.030115300706307069 0.0010544668508107409 0 -0.026847969840146185 -0.00066857817621387094 0 -0.02665785348020774 7.8883602566421303e-05 0 -0.022305640196062911 -0.001729419668795403 0 -0.022477663342597588 -0.0019785300724230485 0 -0.022115865014719557 -0.0018421622328630486 0 -0.029873964992119941 5.4632937082808141e-05 0 -0.030533440374552998 0.00050029122989555456 0 -0.030115300706307069 0.0010544668508107409 0 -0.034713820270632009 0.00013901894095097624 0 -0.034753209869362534 0.0003509306729657806 0 -0.034862214215222689 0.00015701260309570266 0 -0.034541087065613298 0.00031550746997191666 0 -0.034713820270632009 0.00013901894095097624 0 -0.034753209869362534 0.0003509306729657806 0 -0.034934657672770028 0.00015181710359135202 0 -0.034924089866583991 5.3532295044282715e-05 0 -0.034991631852215321 4.6837281567895158e-05 0 -0.034712509771772322 0.00024362210384727624 0 -0.034854944790492864 9.4390672245146548e-05 0 -0.034924089866583991 5.3532295044282715e-05 0 -0.034978056260395025 2.279381297470096e-06 0 -0.034910970848451947 1.1274062606705231e-05 0 -0.034924089866583991 5.3532295044282715e-05 0 -0.034991631852215321 4.6837281567895158e-05 0 -0.034978056260395025 2.279381297470096e-06 0 -0.034854944790492864 9.4390672245146548e-05 0 -0.034938596096979475 1.7364435023023048e-05 0 -0.034991631852215321 4.6837281567895158e-05 0 -0.034978056260395025 2.279381297470096e-06 0 -0.035005454851251318 6.2360442941081873e-06 0 -0.034994235306254354 -6.5193770752996156e-07 0 -0.034978056260395025 2.279381297470096e-06 0 -0.035005454851251318 6.2360442941081873e-06 0 -0.034994235306254354 -6.5193770752996156e-07 0 -0.035000000127587694 1.1966374688415798e-08 0 -0.034999955792872114 -1.850185285208329e-08 0 -0.034994235306254354 -6.5193770752996156e-07 0 -0.035000000127587694 1.1966374688415798e-08 0 -0.034999881911235528 3.6696834250674908e-07 0 -0.034994235306254354 -6.5193770752996156e-07 0 -0.034999955792872114 -1.850185285208329e-08 0 -0.034978056260395025 2.279381297470096e-06 0 -0.034999955792872114 -1.850185285208329e-08 0 -0.034978056260395025 2.279381297470096e-06 0 -0.034960947666326757 -5.3298099696702964e-06 0 -0.034978056260395025 2.279381297470096e-06 0 -0.034910970848451947 1.1274062606705231e-05 0 -0.034960947666326757 -5.3298099696702964e-06 0 -0.034910970848451947 1.1274062606705231e-05 0 -0.034960947666326757 -5.3298099696702964e-06 0 -0.034916215239902737 -7.5363108886768207e-06 0 -0.034999955792872114 -1.850185285208329e-08 0 -0.034960947666326757 -5.3298099696702964e-06 0 -0.034999885124515587 -1.3069601585569648e-08 0 -0.034960947666326757 -5.3298099696702964e-06 0 -0.034999885124515587 -1.3069601585569648e-08 0 -0.034916215239902737 -7.5363108886768207e-06 0 -0.034999885124515587 -1.3069601585569648e-08 0 -0.034916215239902737 -7.5363108886768207e-06 0 -0.034999875415191242 8.2774576012523586e-09 0 -0.034910970848451947 1.1274062606705231e-05 0 -0.034916215239902737 -7.5363108886768207e-06 0 -0.034800822806513705 4.2758350675948281e-05 0 -0.034916215239902737 -7.5363108886768207e-06 0 -0.034800822806513705 4.2758350675948281e-05 0 -0.034880422611394665 -1.556425059359338e-05 0 -0.034924089866583991 5.3532295044282715e-05 0 -0.034910970848451947 1.1274062606705231e-05 0 -0.034800822806513705 4.2758350675948281e-05 0 -0.034924089866583991 5.3532295044282715e-05 0 -0.034800822806513705 4.2758350675948281e-05 0 -0.034764345589987325 0.00013972829420848888 0 -0.034934657672770028 0.00015181710359135202 0 -0.034924089866583991 5.3532295044282715e-05 0 -0.034764345589987325 0.00013972829420848888 0 -0.034800822806513705 4.2758350675948281e-05 0 -0.034764345589987325 0.00013972829420848888 0 -0.034626546627288445 0.00015480473152134968 0 -0.034626546627288445 0.00015480473152134968 0 -0.034663378845115125 8.482128291960889e-05 0 -0.034517854625881236 0.00023798196714455505 0 -0.034800822806513705 4.2758350675948281e-05 0 -0.034626546627288445 0.00015480473152134968 0 -0.034663378845115125 8.482128291960889e-05 0 -0.03476064287837511 -5.1829215197789804e-06 0 -0.034696069591368298 1.9285979782312631e-05 0 -0.034850122999969896 -0.00011237685752126542 0 -0.034892666187295272 -0.0001525197507711864 0 -0.034914809825449984 -7.7933432448452781e-05 0 -0.034892666187295272 -0.0001525197507711864 0 -0.034914809825449984 -7.7933432448452781e-05 0 -0.034937219111397147 -0.00011630528776796962 0 -0.034850122999969896 -0.00011237685752126542 0 -0.034892666187295272 -0.0001525197507711864 0 -0.034825744409408825 -0.00020964918278431623 0 -0.034800822806513705 4.2758350675948281e-05 0 -0.034663378845115125 8.482128291960889e-05 0 -0.034880422611394665 -1.556425059359338e-05 0 -0.034850122999969896 -0.00011237685752126542 0 -0.034914809825449984 -7.7933432448452781e-05 0 -0.034880422611394665 -1.556425059359338e-05 0 -0.03476064287837511 -5.1829215197789804e-06 0 -0.03485401350011285 -6.5419389383870504e-06 0 -0.034916215239902737 -7.5363108886768207e-06 0 -0.034880422611394665 -1.556425059359338e-05 0 -0.034999875415191242 8.2774576012523586e-09 0 -0.034880422611394665 -1.556425059359338e-05 0 -0.034999875415191242 8.2774576012523586e-09 0 -0.034956823090793974 -1.5562459477788897e-05 0 -0.034999875415191242 8.2774576012523586e-09 0 -0.034956823090793974 -1.5562459477788897e-05 0 -0.034999977338140906 -3.4146760381055428e-09 0 -0.034914809825449984 -7.7933432448452781e-05 0 -0.034956823090793974 -1.5562459477788897e-05 0 -0.034958559025359659 -6.5393202099635233e-05 0 -0.034914809825449984 -7.7933432448452781e-05 0 -