<?xml version="1.0"?>
<VTKFile type="UnstructuredGrid" version="0.1" byte_order="LittleEndian">
<UnstructuredGrid>
<Piece NumberOfPoints="30578" NumberOfCells="10723">
<Points>
<DataArray type="Float64" NumberOfComponents="3" format="ascii">
-0.5 -0.5 0 -0.47439485679867832 -0.48072581506667478 0 -0.5 -0.44765434486020428 0 -0.5 -0.5 0 -0.47439485679867832 -0.48072581506667478 0 -0.43702443379937372 -0.49999999999999922 0 -0.47439485679867832 -0.48072581506667478 0 -0.45530669598391149 -0.47718009944797551 0 -0.43702443379937372 -0.49999999999999922 0 -0.47439485679867832 -0.48072581506667478 0 -0.45530669598391149 -0.47718009944797551 0 -0.4597353119515426 -0.45943449384344293 0 -0.45530669598391149 -0.47718009944797551 0 -0.44381084376742141 -0.47114793899167112 0 -0.4597353119515426 -0.45943449384344293 0 -0.45530669598391149 -0.47718009944797551 0 -0.44381084376742141 -0.47114793899167112 0 -0.43702443379937372 -0.49999999999999922 0 -0.44381084376742141 -0.47114793899167112 0 -0.43702443379937372 -0.49999999999999922 0 -0.45059725373546922 -0.44229587798334291 0 -0.4339166039271336 -0.43498117536117131 0 -0.43309128002320102 -0.45351235807576151 0 -0.44381084376742141 -0.47114793899167112 0 -0.45059725373546922 -0.44229587798334291 0 -0.4597353119515426 -0.45943449384344293 0 -0.44381084376742141 -0.47114793899167112 0 -0.45059725373546922 -0.44229587798334291 0 -0.43309128002320102 -0.45351235807576151 0 -0.44381084376742141 -0.47114793899167112 0 -0.45059725373546922 -0.44229587798334291 0 -0.4597353119515426 -0.45943449384344293 0 -0.47505511338101108 -0.44868394208069429 0 -0.46517432262153441 -0.43649963461163338 0 -0.45059725373546922 -0.44229587798334291 0 -0.4597353119515426 -0.45943449384344293 0 -0.46517432262153441 -0.43649963461163338 0 -0.47505511338101108 -0.44868394208069429 0 -0.47820614292347569 -0.42776699273468149 0 -0.46517432262153441 -0.43649963461163338 0 -0.47505511338101108 -0.44868394208069429 0 -0.47820614292347569 -0.42776699273468149 0 -0.47439485679867832 -0.48072581506667478 0 -0.47505511338101108 -0.44868394208069429 0 -0.5 -0.44765434486020428 0 -0.47439485679867832 -0.48072581506667478 0 -0.4597353119515426 -0.45943449384344293 0 -0.47505511338101108 -0.44868394208069429 0 -0.47505511338101108 -0.44868394208069429 0 -0.5 -0.44765434486020428 0 -0.47820614292347569 -0.42776699273468149 0 -0.5 -0.44765434486020428 0 -0.49656450065014057 -0.42151023988558672 0 -0.47820614292347569 -0.42776699273468149 0 -0.5 -0.44765434486020428 0 -0.49656450065014057 -0.42151023988558672 0 -0.50000000000000089 -0.37904661106745707 0 -0.49656450065014057 -0.42151023988558672 0 -0.48135717246594062 -0.40685004338866881 0 -0.47820614292347569 -0.42776699273468149 0 -0.49656450065014057 -0.42151023988558672 0 -0.48135717246594062 -0.40685004338866881 0 -0.48135717246594062 -0.40685004338866881 0 -0.47820614292347569 -0.42776699273468149 0 -0.48135717246594062 -0.40685004338866881 0 -0.47820614292347569 -0.42776699273468149 0 -0.45738366370351707 -0.41344381697501481 0 -0.49656450065014057 -0.42151023988558672 0 -0.48135717246594062 -0.40685004338866881 0 -0.50000000000000089 -0.37904661106745707 0 -0.50000000000000089 -0.37904661106745707 0 -0.48466894952205442 -0.38486603086372417 0 -0.48717439863114548 -0.36823452950912272 0 -0.48135717246594062 -0.40685004338866881 0 -0.50000000000000089 -0.37904661106745707 0 -0.48466894952205442 -0.38486603086372417 0 -0.48466894952205442 -0.38486603086372417 0 -0.48717439863114548 -0.36823452950912272 0 -0.50000000000000089 -0.37904661106745707 0 -0.48466894952205442 -0.38486603086372417 0 -0.48135717246594062 -0.40685004338866881 0 -0.48466894952205442 -0.38486603086372417 0 -0.46593083509403682 -0.39197871725165279 0 -0.48135717246594062 -0.40685004338866881 0 -0.48466894952205442 -0.38486603086372417 0 -0.48135717246594062 -0.40685004338866881 0 -0.46593083509403682 -0.39197871725165279 0 -0.48466894952205442 -0.38486603086372417 0 -0.47195833844942919 -0.37959069520904498 0 -0.46593083509403682 -0.39197871725165279 0 -0.48466894952205442 -0.38486603086372417 0 -0.46593083509403682 -0.39197871725165279 0 -0.48466894952205442 -0.38486603086372417 0 -0.47195833844942919 -0.37959069520904498 0 -0.48717439863114548 -0.36823452950912272 0 -0.46593083509403682 -0.39197871725165279 0 -0.44890944387521442 -0.39029302340116001 0 -0.45132291774153199 -0.37789636588759368 0 -0.47195833844942919 -0.37959069520904498 0 -0.46593083509403682 -0.39197871725165279 0 -0.45132291774153199 -0.37789636588759368 0 -0.46593083509403682 -0.39197871725165279 0 -0.45132291774153199 -0.37789636588759368 0 -0.48135717246594062 -0.40685004338866881 0 -0.46593083509403682 -0.39197871725165279 0 -0.45738366370351707 -0.41344381697501481 0 -0.46593083509403682 -0.39197871725165279 0 -0.44275815558040038 -0.40077469311046232 0 -0.45738366370351707 -0.41344381697501481 0 -0.46593083509403682 -0.39197871725165279 0 -0.44275815558040038 -0.40077469311046232 0 -0.46593083509403682 -0.39197871725165279 0 -0.44275815558040038 -0.40077469311046232 0 -0.44890944387521442 -0.39029302340116001 0 -0.44275815558040038 -0.40077469311046232 0 -0.44064580868350911 -0.39542861624611658 0 -0.44890944387521442 -0.39029302340116001 0 -0.44225344557501872 -0.38376649822575309 0 -0.45132291774153199 -0.37789636588759368 0 -0.43671500038902772 -0.36381401452353412 0 -0.44890944387521442 -0.39029302340116001 0 -0.44225344557501872 -0.38376649822575309 0 -0.45132291774153199 -0.37789636588759368 0 -0.44064580868350911 -0.39542861624611658 0 -0.44225344557501872 -0.38376649822575309 0 -0.43040194378266172 -0.3881600185019185 0 -0.44064580868350911 -0.39542861624611658 0 -0.44890944387521442 -0.39029302340116001 0 -0.44225344557501872 -0.38376649822575309 0 -0.47820614292347569 -0.42776699273468149 0 -0.46517432262153441 -0.43649963461163338 0 -0.45738366370351707 -0.41344381697501481 0 -0.45059725373546922 -0.44229587798334291 0 -0.45738366370351707 -0.41344381697501481 0 -0.45059725373546922 -0.44229587798334291 0 -0.46517432262153441 -0.43649963461163338 0 -0.45738366370351707 -0.41344381697501481 0 -0.44275815558040038 -0.40077469311046232 0 -0.45738366370351707 -0.41344381697501481 0 -0.44164244492799948 -0.42121090558557039 0 -0.45059725373546922 -0.44229587798334291 0 -0.45738366370351707 -0.41344381697501481 0 -0.44164244492799948 -0.42121090558557039 0 -0.45059725373546922 -0.44229587798334291 0 -0.44164244492799948 -0.42121090558557039 0 -0.4339166039271336 -0.43498117536117131 0 -0.4339166039271336 -0.43498117536117131 0 -0.42355654769347711 -0.414558964497861 0 -0.41671115160429401 -0.44095791049380378 0 -0.44164244492799948 -0.42121090558557039 0 -0.4339166039271336 -0.43498117536117131 0 -0.42355654769347711 -0.414558964497861 0 -0.44275815558040038 -0.40077469311046232 0 -0.44164244492799948 -0.42121090558557039 0 -0.42355654769347711 -0.414558964497861 0 -0.42355654769347711 -0.414558964497861 0 -0.41056920252370888 -0.3963363404412637 0 -0.40050668374064252 -0.41734442193795029 0 -0.42355654769347711 -0.414558964497861 0 -0.41671115160429401 -0.44095791049380378 0 -0.42355654769347711 -0.414558964497861 0 -0.40050668374064252 -0.41734442193795029 0 -0.41671115160429401 -0.44095791049380378 0 -0.44225344557501872 -0.38376649822575309 0 -0.43040194378266172 -0.3881600185019185 0 -0.43671500038902772 -0.36381401452353412 0 -0.43040194378266172 -0.3881600185019185 0 -0.43671500038902772 -0.36381401452353412 0 -0.44064580868350911 -0.39542861624611658 0 -0.42355654769347711 -0.414558964497861 0 -0.43040194378266172 -0.3881600185019185 0 -0.42355654769347711 -0.414558964497861 0 -0.43040194378266172 -0.3881600185019185 0 -0.44275815558040038 -0.40077469311046232 0 -0.44064580868350911 -0.39542861624611658 0 -0.42355654769347711 -0.414558964497861 0 -0.44064580868350911 -0.39542861624611658 0 -0.43040194378266172 -0.3881600185019185 0 -0.42355654769347711 -0.414558964497861 0 -0.43040194378266172 -0.3881600185019185 0 -0.41056920252370888 -0.3963363404412637 0 -0.43040194378266172 -0.3881600185019185 0 -0.4079689369259607 -0.37224253963894771 0 -0.43040194378266172 -0.3881600185019185 0 -0.41056920252370888 -0.3963363404412637 0 -0.4079689369259607 -0.37224253963894771 0 -0.41056920252370888 -0.3963363404412637 0 -0.39195929229331972 -0.37982250283040359 0 -0.4079689369259607 -0.37224253963894771 0 -0.41056920252370888 -0.3963363404412637 0 -0.39195929229331972 -0.37982250283040359 0 -0.39357845321732049 -0.39746174547711199 0 -0.41056920252370888 -0.3963363404412637 0 -0.39357845321732049 -0.39746174547711199 0 -0.40050668374064252 -0.41734442193795029 0 -0.39357845321732049 -0.39746174547711199 0 -0.38114412328536468 -0.40833987260765031 0 -0.36544727141479139 -0.39026932065168712 0 -0.39195929229331972 -0.37982250283040359 0 -0.37549160074202448 -0.3732971907138336 0 -0.36544727141479139 -0.39026932065168712 0 -0.39195929229331972 -0.37982250283040359 0 -0.39357845321732049 -0.39746174547711199 0 -0.36544727141479139 -0.39026932065168712 0 -0.40050668374064252 -0.41734442193795029 0 -0.3944977858259317 -0.43926335073686201 0 -0.41671115160429401 -0.44095791049380378 0 -0.40050668374064252 -0.41734442193795029 0 -0.38028594703985957 -0.42392304976487449 0 -0.3944977858259317 -0.43926335073686201 0 -0.39357845321732049 -0.39746174547711199 0 -0.40050668374064252 -0.41734442193795029 0 -0.38114412328536468 -0.40833987260765031 0 -0.40050668374064252 -0.41734442193795029 0 -0.38114412328536468 -0.40833987260765031 0 -0.38028594703985957 -0.42392304976487449 0 -0.38114412328536468 -0.40833987260765031 0 -0.38028594703985957 -0.42392304976487449 0 -0.36590226101420908 -0.41270082520662749 0 -0.38028594703985957 -0.42392304976487449 0 -0.3944977858259317 -0.43926335073686201 0 -0.3723601590800425 -0.44005613486137668 0 -0.3944977858259317 -0.43926335073686201 0 -0.38265619596279349 -0.45813348326120767 0 -0.3723601590800425 -0.44005613486137668 0 -0.40093272222703252 -0.45142790024540502 0 -0.3944977858
[...]
<PointData Scalars="" Vectors="displacement," Tensors="">
<DataArray type="Float64" Name="displacement" NumberOfComponents="3" format="ascii">
4.0586151642923993e-07 0.024998471271213255 0 0.00015386247779201296 0.024458633047178418 0 -1.7630096690327463e-07 0.022384003673190638 0 4.0586151642923993e-07 0.024998471271213255 0 0.00015386247779201296 0.024458633047178418 0 2.2885169537374066e-07 0.024998899912761625 0 0.00015386247779201296 0.024458633047178418 0 0.00010325047746546291 0.024553505367301349 0 2.2885169537374066e-07 0.024998899912761625 0 0.00015386247779201296 0.024458633047178418 0 0.00010325047746546291 0.024553505367301349 0 3.3923817046077411e-06 0.024198413071844449 0 0.00010325047746546291 0.024553505367301349 0 9.865312564327674e-05 0.024592959885876252 0 3.3923817046077411e-06 0.024198413071844449 0 0.00010325047746546291 0.024553505367301349 0 9.865312564327674e-05 0.024592959885876252 0 2.2885169537374066e-07 0.024998899912761625 0 -9.8077221499256528e-06 0.024653421632308013 0 5.2582103154143006e-08 0.024999885520169685 0 -0.0005019484376598129 0.024371674056750416 0 -0.00064336127381331703 0.024652265231278336 0 -0.00033801235769334706 0.024734785017434556 0 9.865312564327674e-05 0.024592959885876252 0 -0.00034589923748516396 0.024294510784645604 0 3.3923817046077411e-06 0.024198413071844449 0 -0.00011130478850116476 0.024696223530163489 0 -0.0005019484376598129 0.024371674056750416 0 -0.00033801235769334706 0.024734785017434556 0 -9.8077221499256528e-06 0.024653421632308013 0 -0.00043926030705246648 0.02433281211084784 0 3.3923817046077411e-06 0.024198413071844449 0 -0.00010533918719017771 0.023433354739112115 0 -0.00049552970745217364 0.023863099886601669 0 -0.00034589923748516396 0.024294510784645604 0 3.3923817046077411e-06 0.024198413071844449 0 -0.00049552970745217364 0.023863099886601669 0 -0.00010533918719017771 0.023433354739112115 0 -0.00073089244134287221 0.023497051871424153 0 -0.00049552970745217364 0.023863099886601669 0 -8.0291304198525965e-06 0.023328739001041252 0 -0.00045500446100405666 0.023094822519770117 0 0.00015386247779201296 0.024458633047178418 0 -0.00010533918719017771 0.023433354739112115 0 -1.7630096690327463e-07 0.022384003673190638 0 0.00015386247779201296 0.024458633047178418 0 3.3923817046077411e-06 0.024198413071844449 0 -0.00010533918719017771 0.023433354739112115 0 -0.00010533918719017771 0.023433354739112115 0 -1.7630096690327463e-07 0.022384003673190638 0 -6.0394200108695779e-05 0.022456754306233465 0 -1.7630096690327463e-07 0.022384003673190638 0 -4.5380070036002472e-05 0.021156518412232823 0 -6.0394200108695779e-05 0.022456754306233465 0 -1.7630096690327463e-07 0.022384003673190638 0 -4.5380070036002472e-05 0.021156518412232823 0 -6.2882986998617764e-07 0.01895393596226003 0 -4.5380070036002472e-05 0.021156518412232823 0 -0.001166586099766943 0.022182435125056774 0 -6.0394200108695779e-05 0.022456754306233465 0 -3.4599978563305018e-06 0.020965653950428591 0 -0.00072189705927125196 0.02169284339843407 0 -0.00072189705927125196 0.02169284339843407 0 -0.00045500446100405666 0.023094822519770117 0 -0.0012337691825665719 0.02343817380234724 0 -0.00073089244134287221 0.023497051871424153 0 -0.0010786241082734649 0.024061361447700845 0 -4.5380070036002472e-05 0.021156518412232823 0 3.4746930435108248e-05 0.020314421081333953 0 -6.2882986998617764e-07 0.01895393596226003 0 -1.7371247151744179e-06 0.018950111883273023 0 -0.0006290671660958572 0.017830672749257762 0 -1.6667241228851844e-05 0.017686719614789247 0 3.4746930435108248e-05 0.020314421081333953 0 -6.2882986998617764e-07 0.01895393596226003 0 -0.00011269705254968326 0.019680886645576583 0 -0.00056069740664343255 0.018680881433252895 0 -0.00013171611800508263 0.017722510653747699 0 -1.4840449149432961e-07 0.01895244464755098 0 -0.00056069740664343255 0.018680881433252895 0 -0.00051729615879391084 0.020473207389882585 0 -0.0010766590847990274 0.02037652067454911 0 -0.00089697453239633495 0.02086410210335746 0 -0.00072189705927125196 0.02169284339843407 0 -0.00056069740664343255 0.018680881433252895 0 -0.00072189705927125196 0.02169284339843407 0 -0.001115253311604787 0.021329308693202646 0 -0.00060633018205752799 0.017556624827178322 0 -0.00043331601270983633 0.017119837451140835 0 -0.00076519737262922133 0.016982517840011722 0 -0.00056069740664343255 0.018680881433252895 0 -0.001115253311604787 0.021329308693202646 0 -0.00060633018205752799 0.017556624827178322 0 -0.00043331601270983633 0.017119837451140835 0 -1.6667241228851844e-05 0.017686719614789247 0 -0.0014205987990492475 0.024047339335099314 0 -0.0014475847406168487 0.024264107185362087 0 -0.0015378744301028095 0.024231321621123795 0 -0.00043331601270983633 0.017119837451140835 0 -0.00076519737262922133 0.016982517840011722 0 -0.00033268766871125989 0.016649067717670933 0 -0.001115253311604787 0.021329308693202646 0 -0.00095977033382050605 0.020430817979392751 0 -0.0012337691825665719 0.02343817380234724 0 -0.0015736426029870632 0.023830282118646573 0 -0.0010786241082734649 0.024061361447700845 0 -0.0015736426029870632 0.023830282118646573 0 -0.001335380986584435 0.024360370327631886 0 -0.0010786241082734649 0.024061361447700845 0 -0.001115253311604787 0.021329308693202646 0 -0.0012549469525412885 0.025316617656836064 0 -0.0014205987990492475 0.024047339335099314 0 -0.001335380986584435 0.024360370327631886 0 -0.0014475847406168487 0.024264107185362087 0 -0.001335380986584435 0.024360370327631886 0 -0.0014228798871209114 0.024375872512167263 0 -0.0014475847406168487 0.024264107185362087 0 -0.0014945268123265447 0.024308552483286044 0 -0.0015378744301028095 0.024231321621123795 0 -0.0015850671603280166 0.024291466663633639 0 -0.0014475847406168487 0.024264107185362087 0 -0.0014945268123265447 0.024308552483286044 0 -0.0015378744301028095 0.024231321621123795 0 -0.0014228798871209114 0.024375872512167263 0 -0.0014945268123265447 0.024308552483286044 0 -0.0014683842130395407 0.024371724027442046 0 -0.0014228798871209114 0.024375872512167263 0 -0.0014475847406168487 0.024264107185362087 0 -0.0014945268123265447 0.024308552483286044 0 -0.00073089244134287221 0.023497051871424153 0 -0.00049552970745217364 0.023863099886601669 0 -0.0010786241082734649 0.024061361447700845 0 -0.00043926030705246648 0.02433281211084784 0 -0.0010545106862902213 0.024083268704590502 0 -0.00034589923748516396 0.024294510784645604 0 -0.00049552970745217364 0.023863099886601669 0 -0.0010786241082734649 0.024061361447700845 0 -0.001335380986584435 0.024360370327631886 0 -0.0010786241082734649 0.024061361447700845 0 -0.00091228816374050838 0.024449376829567767 0 -0.0005019484376598129 0.024371674056750416 0 -0.0010786241082734649 0.024061361447700845 0 -0.00091228816374050838 0.024449376829567767 0 -0.0005019484376598129 0.024371674056750416 0 -0.00091228816374050838 0.024449376829567767 0 -0.00064336127381331703 0.024652265231278336 0 -0.00064336127381331703 0.024652265231278336 0 -0.0010364231113629092 0.024803480488618995 0 -0.0005302499101208874 0.024971040562601462 0 -0.00091228816374050838 0.024449376829567767 0 -0.00064336127381331703 0.024652265231278336 0 -0.0010364231113629092 0.024803480488618995 0 -0.001335380986584435 0.024360370327631886 0 -0.00091228816374050838 0.024449376829567767 0 -0.0010364231113629092 0.024803480488618995 0 8.1026596484833362e-05 0.023596497980346222 0 -2.1598831223494386e-06 0.023654484359121496 0 9.7318708933791709e-05 0.023716572213102204 0 -0.00040546371378886477 0.024340330333368649 0 -0.00014976338788472756 0.024252372399713597 0 8.1026596484833362e-05 0.023596497980346222 0 9.7318708933791709e-05 0.023716572213102204 0 0.00022840182107673629 0.023634832659819856 0 -0.0014945268123265447 0.024308552483286044 0 -0.0014683842130395407 0.024371724027442046 0 -0.0015850671603280166 0.024291466663633639 0 -0.0010357280889831575 0.023080795319224287 0 -0.00043313423372182803 0.019952950811315137 0 -0.0014228798871209114 0.024375872512167263 0 -0.0010364231113629092 0.024803480488618995 0 -0.0015807432961334501 0.024596763684241602 0 -0.00040546371378886477 0.024340330333368649 0 -0.0010357280889831575 0.023080795319224287 0 -0.001335380986584435 0.024360370327631886 0 -0.0014228798871209114 0.024375872512167263 0 -0.0010364231113629092 0.024803480488618995 0 -0.0016975719692570188 0.024580876859939094 0 -0.0010357280889831575 0.023080795319224287 0 8.1026596484833362e-05 0.023596497980346222 0 -4.4080260244506559e-05 0.023560473359769057 0 -2.1598831223494386e-06 0.023654484359121496 0 -0.0010357280889831575 0.023080795319224287 0 -0.00038698872241002536 0.021730371105202009 0 -4.4080260244506559e-05 0.023560473359769057 0 -2.1598831223494386e-06 0.023654484359121496 0 -9.9216065413608049e-05 0.023650280121036111 0 -2.1598831223494386e-06 0.023654484359121496 0 -6.4757834628272829e-05 0.023726071510626483 0 -9.9216065413608049e-05 0.023650280121036111 0 -2.1598831223494386e-06 0.023654484359121496 0 -6.4757834628272829e-05 0.023726071510626483 0 7.2260460834367153e-06 0.023737930118503624 0 -2.1598831223494386e-06 0.023654484359121496 0 7.2260460834367153e-06 0.023737930118503624 0 9.7318708933791709e-05 0.023716572213102204 0 7.2260460834367153e-06 0.023737930118503624 0 5.5366289318773235e-05 0.023811532984644557 0 -5.2256390226714116e-06 0.023847414232153485 0 -6.4757834628272829e-05 0.023726071510626483 0 -8.9074125190916737e-05 0.023793696404799322 0 -5.2256390226714116e-06 0.023847414232153485 0 -6.4757834628272829e-05 0.023726071510626483 0 7.2260460834367153e-06 0.023737930118503624 0 -5.2256390226714116e-06 0.023847414232153485 0 9.7318708933791709e-05 0.023716572213102204 0 0.0002193853824454805 0.023758810523336144 0 0.00022840182107673629 0.023634832659819856 0 9.7318708933791709e-05 0.023716572213102204 0 0.00012758036588132802 0.023837929278182259 0 0.0002193853824454805 0.023758810523336144 0 7.2260460834367153e-06 0.023737930118503624 0 9.7318708933791709e-05 0.023716572213102204 0 5.5366289318773235e-05 0.023811532984644557 0 9.7318708933791709e-05 0.023716572213102204 0 5.5366289318773235e-05 0.023811532984644557 0 0.00012758036588132802 0.023837929278182259 0 5.5366289318773235e-05 0.023811532984644557 0 0.00012758036588132802 0.023837929278182259 0 7.5322155687460084e-05 0.023897415725138701 0 0.00012758036588132802 0.023837929278182259 0 0.0002193853824454805 0.023758810523336144 0 0.0002159561468385432 0.02391421298529078 0 0.0002193853824454805 0.023758810523336144 0 0.00035092463204108382 0.023836322957083766 0 0.0002159561468385432 0.02391421298529078 0 0.0002956305074051278 0.023725620348516073 0 0.0002193853824454805 0.023758810523336144 0 0.00035092463204108382 0.023836322957083766 0 0.0002956305074051278 0.023725620348516073 0 0.0002193853824454805 0.023758810523336144 0 0.00022840182107673629 0.023634832659819856 0 0.00032154082165872705 0.024262994305468705 0 -6.7985443009865803e-06 0.024617095638538245 0 0.00022428261189774842 0.024825059505837951 0 1.9820813529440343e-05 0.024956134942560083 0 7.2947172972759642e-05 0.025083462091980712 0 0.0002956305074051278 0.023725620348516073 0 0.00035092463204108382 0.023836322957083766 0 0.00038535750128906865 0.023679596255333925 0 0.00022428261189774842 0.024825059505837951 0 -5.2889091613214168e-06 0.02487286715534202 0 1.9820813529440343e-05 0.024956134942560083 0 -5.2889091613214168e-06 0.02487286715534202 0 -7.7057448311838462e-06 0.02495625749590227 0 1.0989034092185207e-05 0.024972176955547494 0 -5.2889091613214168e-06 0.02487286715534202 0 -7.7057448311838462e-06 0.02495625749590227 0 1.9820813529440343e-05 0.024956134942560083 0 2.7261862138750054e-08 0.024999922170202169 0 -7.7057448311838462e-06 0.02495625749590227 0 -6.6859521205623773e-08 0.024999955964576253 0 2.7261862138750054e-08 0.024999922170202169 0 -7.7057448311838462e-06 0.02495625749590227 0 1.0989034092185207e-05 0.024972176955547494 0 -7.7057448311838462e-06 0.02495625749590227 0 -6.6859521205623773e-08 0.024999955964576253 0 -9.6395166401991756e-06 0.025009497308557505 0 -2.353026372345908e-08 0.02500000225492989 0 -5.2542215273327419e-06 0.025011635566328939 0 -9.6395166401991756e-06 0.025009497308557505 0 1.9820813529440343e-05 0.024956134942560083 0 7.2947172972759642e-05 0.025083462091980712 0 -7.7057448311838462e-06 0.02495625749590227 0 -9.6395166401991756e-06 0.025009497308557505 0 1.9820813529440343e-05 0.024956134942560083 0 -5.2542215273327419e-06 0.025011635566328939 0 -6.7985443009865803e-06 0.024617095638538245 0 -0.00014599380159824535 0.025034468095741395 0 -6.7985443009865803e-06 0.024617095638538245 0 -3.4759871414683824e-05 0.024960094947786386 0 -9.3787824411181765e-05 0.024872707122924793 0 -0.00011899610235024462 0.02499218063641373 0 -3.6710579192837191e-05 0.025006816737089953 0 -3.4759871414683824e-05 0.024960094947786386 0 -0.00011899610235024462 0.02499218063641373 0 -3.6710579192837191e-05 0.025006816737089953 0 -3.4759871414683824e-05 0.024960094947786386 0 -3.8904431354453229e-08 0.025000001310367854 0 -3.3714861780959699e-09 0.025000035336928947 0 -3.6710579192837191e-05 0.025006816737089953 0 -3.8904431354453229e-08 0.025000001310367854 0 -3.4759871414683824e-05 0.024960094947786386 0 -3.8904431354453229e-08 0.025000001310367854 0 1.0901289923706652e-07 0.024999706613055468 0 -3.4759871414683824e-05 0.024960094947786386 0 1.0901289923706652e-07 0.024999706613055468 0 -9.3787824411181765e-05 0.024872707122924793 0 -0.00011130478850116476 0.024696223530163489 0 1.0901289923706652e-07 0.024999706613055468 0 -9.3787824411181765e-05 0.024872707122924793 0 -9.3787824411181765e-05 0.024872707122924793 0 -0.00027167585697429836 0.024907650280192845 0 -0.00033801235769334706 0.024734785017434556 0 -0.00011130478850116476 0.024696223530163489 0 -9.3787824411181765e-05 0.024872707122924793 0 -0.00033801235769334706 0.024734785017434556 0 -0.00064336127381331703 0.024652265231278336 0 -0.00033801235769334706 0.024734785017434556 0 -0.0005302499101208874 0.024971040562601462 0 -0.00027167585697429836 0.024907650280192845 0 -0.00033801235769334706 0.024734785017434556 0 -0.0005302499101208874 0.024971040562601462 0 -0.00027167585697429836 0.024907650280192845 0 -0.0005302499101208874 0.024971040562601462 0 -0.00015913684460188291 0.02506431641181241 0 -0.00014976338788472756 0.024252372399713597 0 -6.7985443009865803e-06 0.024617095638538245 0 0.0002956305074051278 0.023725620348516073 0 0.00022840182107673629 0.023634832659819856 0 0.00038535750128906865 0.023679596255333925 0 -9.3787824411181765e-05 0.024872707122924793 0 -0.00027167585697429836 0.024907650280192845 0 -0.00015913684460188291 0.02506431641181241 0 -0.00018388694442839648 0.011861405956510104 0 -0.00017451549992536947 0.011740018758877221 0 -0.00011378997074672526 0.011848369710009462 0 -0.00028032326677992884 0.011771240717602759 0 -0.00018388694442839648 0.011861405956510104 0 -0.00017451549992536947 0.011740018758877221 0 0.00017245444152382897 0.014720193151352621 0 0.00018863953844552251 0.014665980106558715 0 -4.9014410844095156e-05 0.014524341184803162 0 -8.332243632485316e-05 0.013142232521550888 0 -9.9580514670112442e-05 0.013200443960479357 0 0.00018863953844552251 0.014665980106558715 0 0.00013009193331625448 0.014035800306462556 0 0.00020586923761156637 0.014718689108035272 0 0.00018863953844552251 0.014665980106558715 0 -4.9014410844095156e-05 0.014524341184803162 0 0.00013009193331625448 0.014035800306462556 0 -9.9580514670112442e-05 0.013200443960479357 0 -0.00013119505752765903 0.012716615931634593 0 -4.9014410844095156e-05 0.014524341184803162 0 0.00013009193331625448 0.014035800306462556 0 -0.00031606794399792427 0.013629679426114363 0 1.2186237680462878e-05 0.013313363264039249 0 0.00013009193331625448 0.014035800306462556 0 -0.00031606794399792427 0.013629679426114363 0 1.2186237680462878e-05 0.013313363264039249 0 -1.2593825839718064e-07 0.012503396092236451 0 3.8081285781456831e-07 0.013793312580673551 0 1.2186237680462878e-05 0.013313363264039249 0 -1.2593825839718064e-07 0.012503396092236451 0 -9.396621271807948e-05 0.012730033263591201 0 1.2186237680462878e-05 0.013313363264039249 0 3.8081285781456831e-07 0.013793312580673551 0 0.00013009193331625448 0.014035800306462556 0 3.8081285781456831e-07 0.013793312580673551 0 0.00013009193331625448 0.014035800306462556 0 0.00012522675234766988 0.014571836037855971 0 0.00013009193331625448 0.014035800306462556 0 0.00020586923761156637 0.014718689108035272 0 0.00012522675234766988 0.014571836037855971 0 0.00020586923761156637 0.014718689108035272 0 0.00012522675234766988 0.014571836037855971 0 9.5842382072318426e-05 0.015251689573883783 0 3.8081285781456831e-07 0.013793312580673551 0 0.00012522675234766988 0.014571836037855971 0 2.3936638626747958e-07 0.015082980634826205 0 0.00012522675234766988 0.014571836037855971 0 2.3936638626747958e-07 0.015082980634826205 0 9.5842382072318426e-05 0.015251689573883783 0 2.3936638626747958e-07 0.015082980634826205 0 9.5842382072318426e-05 0.015251689573883783 0 -6.6632985958731325e-08 0.016372381884830041 0 0.00020586923761156637 0.014718689108035272 0 9.5842382072318426e-05 0.015251689573883783 0 0.00015381855714089601 0.014915834897115914 0 9.5842382072318426e-05 0.015251689573883783 0 0.00015381855714089601 0.014915834897115914 0 -6.4534722818915117e-05 0.015886936041179044 0 0.00018863953844552251 0.014665980106558715 0 0.00020586923761156637 0.014718689108035272 0 0.00015381855714089601 0.014915834897115914 0 0.00018863953844552251 0.014665980106558715 0 0.00015381855714089601 0.014915834897115914 0 0.00011581470444662938 0.014719097258520863 0 0.00017245444152382897 0.014720193151352621 0 0.00018863953844552251 0.014665980106558715 0 0.00011581470444662938 0.014719097258520863 0 0.00015381855714089601 0.014915834897115914 0 0.00011581470444662938 0.014719097258520863 0 -5.3766351721632742e-05 0.014706193974711375 0 -5.3766351721632742e-05 0.014706193974711375 0 -0.00023531121448198177 0.014871161582252965 0 -0.00010647655272808967 0.014595482498132487 0 0.00015381855714089601 0.014915834897115914 0 -5.3766351721632742e-05 0.014706193974711375 0 -0.00023531121448198177 0.014871161582252965 0 -0.00013626853252423686 0.015743502169349031 0 -7.8617713045411232e-05 0.015653686216928246 0 -8.3022169419952397e-05 0.016619020960941554 0 2.3982407946643349e-05 0.016644357724567276 0 0.00011023626242843836 0.016537406120862044 0 2.3982407946643349e-05 0.016644357724567276 0 0.00011023626242843836 0.016537406120862044 0 7.1244043191091001e-05 0.016624348056555559 0 -8.3022169419952397e-05 0.016619020960941554 0 2.3982407946643349e-05 0.016644357724567276 0 -2.1744028363906513e-05 0.016666440035831707 0 0.00015381855714089601 0.014915834897115914 0 -0.00023531121448198177 0.014871161582252965 0 -6.4534722818915117e-05 0.015886936041179044 0 -8.3022169419952397e-05 0.016619020960941554 0 0.00011023626242843836 0.016537406120862044 0 -6.4534722818915117e-05 0.015886936041179044 0 -0.00013626853252423686 0.015743502169349031 0 -8.7755669478064758e-05 0.015872969022842416 0 9.5842382072318426e-05 0.015251689573883783 0 -6.4534722818915117e-05 0.015886936041179044 0 -6.6632985958731325e-08 0.016372381884830041 0 -6.4534722818915117e-05 0.015886936041179044 0 -6.6632985958731325e-08 0.016372381884830041 0 9.3915243506856143e-05 0.016644845143058869 0 -6.6632985958731325e-08 0.016372381884830041 0 9.3915243506856143e-05 0.016644845143058869 0 7.2935476542174541e-07 0.01766239084574512 0 0.00011023626242843836 0.016537406120862044 0 9.3915243506856143e-05 0.016644845143058869 0 8.1780652762432208e-05 0.016747631615724047 0 0.00011023626242843836 0.016537406120862044 0 -6.4534722818915117e-05 0.015886936041179044 0 9.3915243506856143e-05 0.016644845143058869 0 9.3915243506856143e-05 0.016644845143058869 0 4.8695627900138426e-05 0.017115625338396664 0 8.1780652762432208e-05 0.016747631615724047 0 4.8695627900138426e-05 0.017115625338396664 0 -9.9709180958374103e-05 0.016925255720776345 0 8.1780652762432208e-05 0.01674