<?xml version="1.0"?>
<VTKFile type="UnstructuredGrid" version="0.1" byte_order="LittleEndian">
<UnstructuredGrid>
<Piece NumberOfPoints="30578" NumberOfCells="10723">
<Points>
<DataArray type="Float64" NumberOfComponents="3" format="ascii">
-0.5 -0.5 0 -0.47439485679867832 -0.48072581506667478 0 -0.5 -0.44765434486020428 0 -0.5 -0.5 0 -0.47439485679867832 -0.48072581506667478 0 -0.43702443379937372 -0.49999999999999922 0 -0.47439485679867832 -0.48072581506667478 0 -0.45530669598391149 -0.47718009944797551 0 -0.43702443379937372 -0.49999999999999922 0 -0.47439485679867832 -0.48072581506667478 0 -0.45530669598391149 -0.47718009944797551 0 -0.4597353119515426 -0.45943449384344293 0 -0.45530669598391149 -0.47718009944797551 0 -0.44381084376742141 -0.47114793899167112 0 -0.4597353119515426 -0.45943449384344293 0 -0.45530669598391149 -0.47718009944797551 0 -0.44381084376742141 -0.47114793899167112 0 -0.43702443379937372 -0.49999999999999922 0 -0.44381084376742141 -0.47114793899167112 0 -0.43702443379937372 -0.49999999999999922 0 -0.45059725373546922 -0.44229587798334291 0 -0.4339166039271336 -0.43498117536117131 0 -0.43309128002320102 -0.45351235807576151 0 -0.44381084376742141 -0.47114793899167112 0 -0.45059725373546922 -0.44229587798334291 0 -0.4597353119515426 -0.45943449384344293 0 -0.44381084376742141 -0.47114793899167112 0 -0.45059725373546922 -0.44229587798334291 0 -0.43309128002320102 -0.45351235807576151 0 -0.44381084376742141 -0.47114793899167112 0 -0.45059725373546922 -0.44229587798334291 0 -0.4597353119515426 -0.45943449384344293 0 -0.47505511338101108 -0.44868394208069429 0 -0.46517432262153441 -0.43649963461163338 0 -0.45059725373546922 -0.44229587798334291 0 -0.4597353119515426 -0.45943449384344293 0 -0.46517432262153441 -0.43649963461163338 0 -0.47505511338101108 -0.44868394208069429 0 -0.47820614292347569 -0.42776699273468149 0 -0.46517432262153441 -0.43649963461163338 0 -0.47505511338101108 -0.44868394208069429 0 -0.47820614292347569 -0.42776699273468149 0 -0.47439485679867832 -0.48072581506667478 0 -0.47505511338101108 -0.44868394208069429 0 -0.5 -0.44765434486020428 0 -0.47439485679867832 -0.48072581506667478 0 -0.4597353119515426 -0.45943449384344293 0 -0.47505511338101108 -0.44868394208069429 0 -0.47505511338101108 -0.44868394208069429 0 -0.5 -0.44765434486020428 0 -0.47820614292347569 -0.42776699273468149 0 -0.5 -0.44765434486020428 0 -0.49656450065014057 -0.42151023988558672 0 -0.47820614292347569 -0.42776699273468149 0 -0.5 -0.44765434486020428 0 -0.49656450065014057 -0.42151023988558672 0 -0.50000000000000089 -0.37904661106745707 0 -0.49656450065014057 -0.42151023988558672 0 -0.48135717246594062 -0.40685004338866881 0 -0.47820614292347569 -0.42776699273468149 0 -0.49656450065014057 -0.42151023988558672 0 -0.48135717246594062 -0.40685004338866881 0 -0.48135717246594062 -0.40685004338866881 0 -0.47820614292347569 -0.42776699273468149 0 -0.48135717246594062 -0.40685004338866881 0 -0.47820614292347569 -0.42776699273468149 0 -0.45738366370351707 -0.41344381697501481 0 -0.49656450065014057 -0.42151023988558672 0 -0.48135717246594062 -0.40685004338866881 0 -0.50000000000000089 -0.37904661106745707 0 -0.50000000000000089 -0.37904661106745707 0 -0.48466894952205442 -0.38486603086372417 0 -0.48717439863114548 -0.36823452950912272 0 -0.48135717246594062 -0.40685004338866881 0 -0.50000000000000089 -0.37904661106745707 0 -0.48466894952205442 -0.38486603086372417 0 -0.48466894952205442 -0.38486603086372417 0 -0.48717439863114548 -0.36823452950912272 0 -0.50000000000000089 -0.37904661106745707 0 -0.48466894952205442 -0.38486603086372417 0 -0.48135717246594062 -0.40685004338866881 0 -0.48466894952205442 -0.38486603086372417 0 -0.46593083509403682 -0.39197871725165279 0 -0.48135717246594062 -0.40685004338866881 0 -0.48466894952205442 -0.38486603086372417 0 -0.48135717246594062 -0.40685004338866881 0 -0.46593083509403682 -0.39197871725165279 0 -0.48466894952205442 -0.38486603086372417 0 -0.47195833844942919 -0.37959069520904498 0 -0.46593083509403682 -0.39197871725165279 0 -0.48466894952205442 -0.38486603086372417 0 -0.46593083509403682 -0.39197871725165279 0 -0.48466894952205442 -0.38486603086372417 0 -0.47195833844942919 -0.37959069520904498 0 -0.48717439863114548 -0.36823452950912272 0 -0.46593083509403682 -0.39197871725165279 0 -0.44890944387521442 -0.39029302340116001 0 -0.45132291774153199 -0.37789636588759368 0 -0.47195833844942919 -0.37959069520904498 0 -0.46593083509403682 -0.39197871725165279 0 -0.45132291774153199 -0.37789636588759368 0 -0.46593083509403682 -0.39197871725165279 0 -0.45132291774153199 -0.37789636588759368 0 -0.48135717246594062 -0.40685004338866881 0 -0.46593083509403682 -0.39197871725165279 0 -0.45738366370351707 -0.41344381697501481 0 -0.46593083509403682 -0.39197871725165279 0 -0.44275815558040038 -0.40077469311046232 0 -0.45738366370351707 -0.41344381697501481 0 -0.46593083509403682 -0.39197871725165279 0 -0.44275815558040038 -0.40077469311046232 0 -0.46593083509403682 -0.39197871725165279 0 -0.44275815558040038 -0.40077469311046232 0 -0.44890944387521442 -0.39029302340116001 0 -0.44275815558040038 -0.40077469311046232 0 -0.44064580868350911 -0.39542861624611658 0 -0.44890944387521442 -0.39029302340116001 0 -0.44225344557501872 -0.38376649822575309 0 -0.45132291774153199 -0.37789636588759368 0 -0.43671500038902772 -0.36381401452353412 0 -0.44890944387521442 -0.39029302340116001 0 -0.44225344557501872 -0.38376649822575309 0 -0.45132291774153199 -0.37789636588759368 0 -0.44064580868350911 -0.39542861624611658 0 -0.44225344557501872 -0.38376649822575309 0 -0.43040194378266172 -0.3881600185019185 0 -0.44064580868350911 -0.39542861624611658 0 -0.44890944387521442 -0.39029302340116001 0 -0.44225344557501872 -0.38376649822575309 0 -0.47820614292347569 -0.42776699273468149 0 -0.46517432262153441 -0.43649963461163338 0 -0.45738366370351707 -0.41344381697501481 0 -0.45059725373546922 -0.44229587798334291 0 -0.45738366370351707 -0.41344381697501481 0 -0.45059725373546922 -0.44229587798334291 0 -0.46517432262153441 -0.43649963461163338 0 -0.45738366370351707 -0.41344381697501481 0 -0.44275815558040038 -0.40077469311046232 0 -0.45738366370351707 -0.41344381697501481 0 -0.44164244492799948 -0.42121090558557039 0 -0.45059725373546922 -0.44229587798334291 0 -0.45738366370351707 -0.41344381697501481 0 -0.44164244492799948 -0.42121090558557039 0 -0.45059725373546922 -0.44229587798334291 0 -0.44164244492799948 -0.42121090558557039 0 -0.4339166039271336 -0.43498117536117131 0 -0.4339166039271336 -0.43498117536117131 0 -0.42355654769347711 -0.414558964497861 0 -0.41671115160429401 -0.44095791049380378 0 -0.44164244492799948 -0.42121090558557039 0 -0.4339166039271336 -0.43498117536117131 0 -0.42355654769347711 -0.414558964497861 0 -0.44275815558040038 -0.40077469311046232 0 -0.44164244492799948 -0.42121090558557039 0 -0.42355654769347711 -0.414558964497861 0 -0.42355654769347711 -0.414558964497861 0 -0.41056920252370888 -0.3963363404412637 0 -0.40050668374064252 -0.41734442193795029 0 -0.42355654769347711 -0.414558964497861 0 -0.41671115160429401 -0.44095791049380378 0 -0.42355654769347711 -0.414558964497861 0 -0.40050668374064252 -0.41734442193795029 0 -0.41671115160429401 -0.44095791049380378 0 -0.44225344557501872 -0.38376649822575309 0 -0.43040194378266172 -0.3881600185019185 0 -0.43671500038902772 -0.36381401452353412 0 -0.43040194378266172 -0.3881600185019185 0 -0.43671500038902772 -0.36381401452353412 0 -0.44064580868350911 -0.39542861624611658 0 -0.42355654769347711 -0.414558964497861 0 -0.43040194378266172 -0.3881600185019185 0 -0.42355654769347711 -0.414558964497861 0 -0.43040194378266172 -0.3881600185019185 0 -0.44275815558040038 -0.40077469311046232 0 -0.44064580868350911 -0.39542861624611658 0 -0.42355654769347711 -0.414558964497861 0 -0.44064580868350911 -0.39542861624611658 0 -0.43040194378266172 -0.3881600185019185 0 -0.42355654769347711 -0.414558964497861 0 -0.43040194378266172 -0.3881600185019185 0 -0.41056920252370888 -0.3963363404412637 0 -0.43040194378266172 -0.3881600185019185 0 -0.4079689369259607 -0.37224253963894771 0 -0.43040194378266172 -0.3881600185019185 0 -0.41056920252370888 -0.3963363404412637 0 -0.4079689369259607 -0.37224253963894771 0 -0.41056920252370888 -0.3963363404412637 0 -0.39195929229331972 -0.37982250283040359 0 -0.4079689369259607 -0.37224253963894771 0 -0.41056920252370888 -0.3963363404412637 0 -0.39195929229331972 -0.37982250283040359 0 -0.39357845321732049 -0.39746174547711199 0 -0.41056920252370888 -0.3963363404412637 0 -0.39357845321732049 -0.39746174547711199 0 -0.40050668374064252 -0.41734442193795029 0 -0.39357845321732049 -0.39746174547711199 0 -0.38114412328536468 -0.40833987260765031 0 -0.36544727141479139 -0.39026932065168712 0 -0.39195929229331972 -0.37982250283040359 0 -0.37549160074202448 -0.3732971907138336 0 -0.36544727141479139 -0.39026932065168712 0 -0.39195929229331972 -0.37982250283040359 0 -0.39357845321732049 -0.39746174547711199 0 -0.36544727141479139 -0.39026932065168712 0 -0.40050668374064252 -0.41734442193795029 0 -0.3944977858259317 -0.43926335073686201 0 -0.41671115160429401 -0.44095791049380378 0 -0.40050668374064252 -0.41734442193795029 0 -0.38028594703985957 -0.42392304976487449 0 -0.3944977858259317 -0.43926335073686201 0 -0.39357845321732049 -0.39746174547711199 0 -0.40050668374064252 -0.41734442193795029 0 -0.38114412328536468 -0.40833987260765031 0 -0.40050668374064252 -0.41734442193795029 0 -0.38114412328536468 -0.40833987260765031 0 -0.38028594703985957 -0.42392304976487449 0 -0.38114412328536468 -0.40833987260765031 0 -0.38028594703985957 -0.42392304976487449 0 -0.36590226101420908 -0.41270082520662749 0 -0.38028594703985957 -0.42392304976487449 0 -0.3944977858259317 -0.43926335073686201 0 -0.3723601590800425 -0.44005613486137668 0 -0.3944977858259317 -0.43926335073686201 0 -0.38265619596279349 -0.45813348326120767 0 -0.3723601590800425 -0.44005613486137668 0 -0.40093272222703252 -0.45142790024540502 0 -0.3944977858
[...]
<PointData Scalars="" Vectors="displacement," Tensors="">
<DataArray type="Float64" Name="displacement" NumberOfComponents="3" format="ascii">
0.02499806668917685 7.9867321292665753e-07 0 0.024273525564372039 0.00011894872434957598 0 0.024999307829494687 -1.2067351256576351e-08 0 0.02499806668917685 7.9867321292665753e-07 0 0.024273525564372039 0.00011894872434957598 0 0.021855737861803903 -1.4320275734303732e-06 0 0.024273525564372039 0.00011894872434957598 0 0.023861237965530035 -1.2638367104567765e-05 0 0.021855737861803903 -1.4320275734303732e-06 0 0.024273525564372039 0.00011894872434957598 0 0.023861237965530035 -1.2638367104567765e-05 0 0.024388632568874215 2.0729068375785473e-05 0 0.023861237965530035 -1.2638367104567765e-05 0 0.024105584017308859 -0.00039668550523773482 0 0.024388632568874215 2.0729068375785473e-05 0 0.023861237965530035 -1.2638367104567765e-05 0 0.024105584017308859 -0.00039668550523773482 0 0.021855737861803903 -1.4320275734303732e-06 0 0.022782174323556347 -9.7173071411405272e-05 0 0.021851613937252885 -6.7671839836482593e-08 0 0.022387887487635091 0.00040863881006391012 0 0.022611311367774188 -8.7797045284949347e-05 0 0.021969954771236266 -8.4773449737367122e-05 0 0.024105584017308859 -0.00039668550523773482 0 0.024409988043997466 0.00016286282048335639 0 0.024388632568874215 2.0729068375785473e-05 0 0.02142492737389539 9.0141081006462324e-05 0 0.022387887487635091 0.00040863881006391012 0 0.021969954771236266 -8.4773449737367122e-05 0 0.022782174323556347 -9.7173071411405272e-05 0 0.023358126018116709 0.00024536461501454675 0 0.024388632568874215 2.0729068375785473e-05 0 0.024616888374651615 -7.4240746005601566e-05 0 0.024278003101135995 2.0008992202554633e-05 0 0.024409988043997466 0.00016286282048335639 0 0.024388632568874215 2.0729068375785473e-05 0 0.024278003101135995 2.0008992202554633e-05 0 0.024616888374651615 -7.4240746005601566e-05 0 0.023975163546237143 -0.00030977283941895821 0 0.024278003101135995 2.0008992202554633e-05 0 0.024614291693404965 -9.6490996890333567e-05 0 0.024409351252000194 -0.00017547325663626784 0 0.024273525564372039 0.00011894872434957598 0 0.024616888374651615 -7.4240746005601566e-05 0 0.024999307829494687 -1.2067351256576351e-08 0 0.024273525564372039 0.00011894872434957598 0 0.024388632568874215 2.0729068375785473e-05 0 0.024616888374651615 -7.4240746005601566e-05 0 0.024616888374651615 -7.4240746005601566e-05 0 0.024999307829494687 -1.2067351256576351e-08 0 0.0249345487736959 -5.0388532144099645e-05 0 0.024999307829494687 -1.2067351256576351e-08 0 0.024995272725765936 -2.0429256519411916e-06 0 0.0249345487736959 -5.0388532144099645e-05 0 0.024999307829494687 -1.2067351256576351e-08 0 0.024995272725765936 -2.0429256519411916e-06 0 0.025000290238992206 -5.0267678625783149e-09 0 0.024995272725765936 -2.0429256519411916e-06 0 0.025012356392364064 -4.3782546311860423e-05 0 0.0249345487736959 -5.0388532144099645e-05 0 0.025146508206912877 -8.7536872580131452e-05 0 0.024398860059705988 -4.3395269074398566e-06 0 0.024398860059705988 -4.3395269074398566e-06 0 0.024409351252000194 -0.00017547325663626784 0 0.023378250627495125 -0.0002743544700159471 0 0.023975163546237143 -0.00030977283941895821 0 0.023418081592290113 0.00027853416421627105 0 0.024995272725765936 -2.0429256519411916e-06 0 0.024994434595035937 -2.5148413295175646e-06 0 0.025000290238992206 -5.0267678625783149e-09 0 0.025000018926631517 1.139698769206642e-08 0 0.025003918948028257 8.280486518232897e-06 0 0.024999951937166406 8.8278442739659483e-06 0 0.024994434595035937 -2.5148413295175646e-06 0 0.025000290238992206 -5.0267678625783149e-09 0 0.024997952727552477 -1.7755466631768014e-06 0 0.024917637103607965 7.5278459156646928e-05 0 0.025028811563326422 1.5113044317095867e-05 0 0.024999983907145994 -2.3966939432161648e-08 0 0.024917637103607965 7.5278459156646928e-05 0 0.024368959562778281 8.4612436536853346e-05 0 0.024487696776059286 0.00010280926002329475 0 0.02444650180822118 3.3515455051892871e-06 0 0.024398860059705988 -4.3395269074398566e-06 0 0.024917637103607965 7.5278459156646928e-05 0 0.024398860059705988 -4.3395269074398566e-06 0 0.023967574859775343 0.00010788625041855268 0 0.025025776185440579 1.6181719595798587e-05 0 0.025017353007755712 3.8234241591602918e-05 0 0.025035129885829708 4.9968781917195705e-05 0 0.024917637103607965 7.5278459156646928e-05 0 0.023967574859775343 0.00010788625041855268 0 0.025025776185440579 1.6181719595798587e-05 0 0.025017353007755712 3.8234241591602918e-05 0 0.024999951937166406 8.8278442739659483e-06 0 0.023484003563530947 0.00026227499806744407 0 0.0234848439635135 0.00017365764578307664 0 0.023539474747199921 0.00018089418068716528 0 0.025017353007755712 3.8234241591602918e-05 0 0.025035129885829708 4.9968781917195705e-05 0 0.025014512566542118 8.0165230678239804e-05 0 0.023967574859775343 0.00010788625041855268 0 0.024397295818105236 3.0442543459506554e-05 0 0.023378250627495125 -0.0002743544700159471 0 0.023201717091356391 0.00010283517804285655 0 0.023418081592290113 0.00027853416421627105 0 0.023201717091356391 0.00010283517804285655 0 0.023399524720462073 0.00014933796043370079 0 0.023418081592290113 0.00027853416421627105 0 0.023967574859775343 0.00010788625041855268 0 0.023242944566427164 0.00012642404108801288 0 0.023484003563530947 0.00026227499806744407 0 0.023399524720462073 0.00014933796043370079 0 0.0234848439635135 0.00017365764578307664 0 0.023399524720462073 0.00014933796043370079 0 0.023471190087791482 0.00011790592673498772 0 0.0234848439635135 0.00017365764578307664 0 0.023509888046491831 0.0001405874090382518 0 0.023539474747199921 0.00018089418068716528 0 0.023585185082979555 0.0001252021946072277 0 0.0234848439635135 0.00017365764578307664 0 0.023509888046491831 0.0001405874090382518 0 0.023539474747199921 0.00018089418068716528 0 0.023471190087791482 0.00011790592673498772 0 0.023509888046491831 0.0001405874090382518 0 0.023484407361099795 9.8488496841600356e-05 0 0.023471190087791482 0.00011790592673498772 0 0.0234848439635135 0.00017365764578307664 0 0.023509888046491831 0.0001405874090382518 0 0.023975163546237143 -0.00030977283941895821 0 0.024278003101135995 2.0008992202554633e-05 0 0.023418081592290113 0.00027853416421627105 0 0.023358126018116709 0.00024536461501454675 0 0.023394529993364256 0.00028336199388535817 0 0.024409988043997466 0.00016286282048335639 0 0.024278003101135995 2.0008992202554633e-05 0 0.023418081592290113 0.00027853416421627105 0 0.023399524720462073 0.00014933796043370079 0 0.023418081592290113 0.00027853416421627105 0 0.023071604494222766 7.7226207324791526e-05 0 0.022387887487635091 0.00040863881006391012 0 0.023418081592290113 0.00027853416421627105 0 0.023071604494222766 7.7226207324791526e-05 0 0.022387887487635091 0.00040863881006391012 0 0.023071604494222766 7.7226207324791526e-05 0 0.022611311367774188 -8.7797045284949347e-05 0 0.022611311367774188 -8.7797045284949347e-05 0 0.023154027146761284 -0.00029448678906463226 0 0.022390406078514558 -0.0005579361875560669 0 0.023071604494222766 7.7226207324791526e-05 0 0.022611311367774188 -8.7797045284949347e-05 0 0.023154027146761284 -0.00029448678906463226 0 0.023399524720462073 0.00014933796043370079 0 0.023071604494222766 7.7226207324791526e-05 0 0.023154027146761284 -0.00029448678906463226 0 0.01636394911293183 0.0015614362035822097 0 0.016568425979394025 0.0014179613779432294 0 0.016295353108492804 0.0012931392943507354 0 0.01962770648858992 0.00056783902672998899 0 0.019173870239826498 0.00049996880801942995 0 0.01636394911293183 0.0015614362035822097 0 0.016295353108492804 0.0012931392943507354 0 0.016048894240736519 0.0014548563762330953 0 0.023509888046491831 0.0001405874090382518 0 0.023484407361099795 9.8488496841600356e-05 0 0.023585185082979555 0.0001252021946072277 0 0.020737946492389085 0.0011374034853120442 0 0.023755245923557527 0.00055052920097773154 0 0.023471190087791482 0.00011790592673498772 0 0.023154027146761284 -0.00029448678906463226 0 0.023591893551888041 -7.4028376046864265e-05 0 0.01962770648858992 0.00056783902672998899 0 0.020737946492389085 0.0011374034853120442 0 0.023399524720462073 0.00014933796043370079 0 0.023471190087791482 0.00011790592673498772 0 0.023154027146761284 -0.00029448678906463226 0 0.023485241472261071 -0.00055930407269346382 0 0.020737946492389085 0.0011374034853120442 0 0.01636394911293183 0.0015614362035822097 0 0.016696575948543752 0.0016475287299186814 0 0.016568425979394025 0.0014179613779432294 0 0.020737946492389085 0.0011374034853120442 0 0.018867423244109015 0.0012488771444599043 0 0.016696575948543752 0.0016475287299186814 0 0.016568425979394025 0.0014179613779432294 0 0.016859441906582701 0.0013927297395484382 0 0.016568425979394025 0.0014179613779432294 0 0.016750303573593629 0.0012086855101353169 0 0.016859441906582701 0.0013927297395484382 0 0.016568425979394025 0.0014179613779432294 0 0.016750303573593629 0.0012086855101353169 0 0.016529185810874227 0.0012253719176443553 0 0.016568425979394025 0.0014179613779432294 0 0.016529185810874227 0.0012253719176443553 0 0.016295353108492804 0.0012931392943507354 0 0.016529185810874227 0.0012253719176443553 0 0.016369278786401147 0.0010865484745662057 0 0.016584048188303595 0.00092809563526563912 0 0.016750303573593629 0.0012086855101353169 0 0.01682512140652009 0.0010175510810463257 0 0.016584048188303595 0.00092809563526563912 0 0.016750303573593629 0.0012086855101353169 0 0.016529185810874227 0.0012253719176443553 0 0.016584048188303595 0.00092809563526563912 0 0.016295353108492804 0.0012931392943507354 0 0.01603791402576895 0.0012121591381795897 0 0.016048894240736519 0.0014548563762330953 0 0.016295353108492804 0.0012931392943507354 0 0.016178056686111258 0.0010645314689885419 0 0.01603791402576895 0.0012121591381795897 0 0.016529185810874227 0.0012253719176443553 0 0.016295353108492804 0.0012931392943507354 0 0.016369278786401147 0.0010865484745662057 0 0.016295353108492804 0.0012931392943507354 0 0.016369278786401147 0.0010865484745662057 0 0.016178056686111258 0.0010645314689885419 0 0.016369278786401147 0.0010865484745662057 0 0.016178056686111258 0.0010645314689885419 0 0.016275369900084182 0.00091687198829587307 0 0.016178056686111258 0.0010645314689885419 0 0.01603791402576895 0.0012121591381795897 0 0.015989130929395311 0.00096064036589872269 0 0.01603791402576895 0.0012121591381795897 0 0.015827869558430491 0.0010784387068020196 0 0.015989130929395311 0.00096064036589872269 0 0.015924669270969413 0.0012753457944411275 0 0.01603791402576895 0.0012121591381795897 0 0.015827869558430491 0.0010784387068020196 0 0.015924669270969413 0.0012753457944411275 0 0.01603791402576895 0.0012121591381795897 0 0.016048894240736519 0.0014548563762330953 0 0.015848361331277962 0.00065535787004441116 0 0.019040147493955821 -4.4019191985517788e-05 0 0.016656294678394436 4.7124266730972255e-05 0 0.017637815106390783 -0.00046362623092237559 0 0.017340209548724488 -0.0013240024674043968 0 0.015924669270969413 0.0012753457944411275 0 0.015827869558430491 0.0010784387068020196 0 0.015787480761469578 0.0013566433544813397 0 0.016656294678394436 4.7124266730972255e-05 0 0.017465900137701437 1.0663506041248372e-05 0 0.017637815106390783 -0.00046362623092237559 0 0.017465900137701437 1.0663506041248372e-05 0 0.018456717561061264 -6.644973179561163e-05 0 0.017710877779738465 0.00012821067922755557 0 0.017465900137701437 1.0663506041248372e-05 0 0.018456717561061264 -6.644973179561163e-05 0 0.017637815106390783 -0.00046362623092237559 0 0.018749968780651331 9.2107888125442403e-07 0 0.018456717561061264 -6.644973179561163e-05 0 0.020067674009858004 -2.6600574937797375e-06 0 0.018749968780651331 9.2107888125442403e-07 0 0.018456717561061264 -6.644973179561163e-05 0 0.017710877779738465 0.00012821067922755557 0 0.018456717561061264 -6.644973179561163e-05 0 0.020067674009858004 -2.6600574937797375e-06 0 0.018373775214771248 -0.0010210593731367597 0 0.020069932031769898 -3.0625111608067836e-07 0 0.019713604503973612 -0.00047210842303828133 0 0.018373775214771248 -0.0010210593731367597 0 0.017637815106390783 -0.00046362623092237559 0 0.017340209548724488 -0.0013240024674043968 0 0.018456717561061264 -6.644973179561163e-05 0 0.018373775214771248 -0.0010210593731367597 0 0.017637815106390783 -0.00046362623092237559 0 0.019713604503973612 -0.00047210842303828133 0 0.019040147493955821 -4.4019191985517788e-05 0 0.021592839485036295 -0.00040194282642919555 0 0.019040147493955821 -4.4019191985517788e-05 0 0.021264205985800338 3.118840462944076e-05 0 0.021338821181283808 -3.862155954215833e-05 0 0.02126668314202558 -3.6803488960029759e-05 0 0.021086143936732235 -7.9803558850848147e-05 0 0.021264205985800338 3.118840462944076e-05 0 0.02126668314202558 -3.6803488960029759e-05 0 0.021086143936732235 -7.9803558850848147e-05 0 0.021264205985800338 3.118840462944076e-05 0 0.020960974518237328 5.0060693310957279e-07 0 0.020071611720443316 -9.524834915255394e-07 0 0.021086143936732235 -7.9803558850848147e-05 0 0.020960974518237328 5.0060693310957279e-07 0 0.021264205985800338 3.118840462944076e-05 0 0.020960974518237328 5.0060693310957279e-07 0 0.021849180668591928 -1.5853964033018893e-07 0 0.021264205985800338 3.118840462944076e-05 0 0.021849180668591928 -1.5853964033018893e-07 0 0.021338821181283808 -3.862155954215833e-05 0 0.02142492737389539 9.0141081006462324e-05 0 0.021849180668591928 -1.5853964033018893e-07 0 0.021338821181283808 -3.862155954215833e-05 0 0.021338821181283808 -3.862155954215833e-05 0 0.021809899469199739 -0.00035670131150763074 0 0.021969954771236266 -8.4773449737367122e-05 0 0.02142492737389539 9.0141081006462324e-05 0 0.021338821181283808 -3.862155954215833e-05 0 0.021969954771236266 -8.4773449737367122e-05 0 0.022611311367774188 -8.7797045284949347e-05 0 0.021969954771236266 -8.4773449737367122e-05 0 0.022390406078514558 -0.0005579361875560669 0 0.021809899469199739 -0.00035670131150763074 0 0.021969954771236266 -8.4773449737367122e-05 0 0.022390406078514558 -0.0005579361875560669 0 0.021809899469199739 -0.00035670131150763074 0 0.022390406078514558 -0.0005579361875560669 0 0.021511245855049412 -0.00075244593293332231 0 0.019173870239826498 0.00049996880801942995 0 0.019040147493955821 -4.4019191985517788e-05 0 0.015924669270969413 0.0012753457944411275 0 0.016048894240736519 0.0014548563762330953 0 0.015787480761469578 0.0013566433544813397 0 0.021338821181283808 -3.862155954215833e-05 0 0.021809899469199739 -0.00035670131150763074 0 0.021511245855049412 -0.00075244593293332231 0 0.024831332083161121 -5.7217479376493726e-05 0 0.02484962608386504 -0.00017101582451830368 0 0.024913122472506335 -6.7756628276173674e-05 0 0.024732072000757794 -0.00015147463735095876 0 0.024831332083161121 -5.7217479376493726e-05 0 0.02484962608386504 -0.00017101582451830368 0 0.024942919457700184 -7.5740247560530225e-05 0 0.024940759042901498 -2.1375957996682648e-05 0 0.024984480473559036 -1.9865535887808931e-05 0 0.02482709358146893 -0.00011617702429393473 0 0.024908552385538792 -3.9953210691703493e-05 0 0.024940759042901498 -2.1375957996682648e-05 0 0.024980672977820171 3.2718042819796028e-06 0 0.024937271456770892 1.6500004198453792e-07 0 0.024940759042901498 -2.1375957996682648e-05 0 0.024984480473559036 -1.9865535887808931e-05 0 0.024980672977820171 3.2718042819796028e-06 0 0.024908552385538792 -3.9953210691703493e-05 0 0.024961097362265441 -1.9659947161749993e-06 0 0.024984480473559036 -1.9865535887808931e-05 0 0.024980672977820171 3.2718042819796028e-06 0 0.024999264167993144 -5.3651829635448853e-07 0 0.024993373437064863 3.0297774818813849e-06 0 0.024980672977820171 3.2718042819796028e-06 0 0.024999264167993144 -5.3651829635448853e-07 0 0.024993373437064863 3.0297774818813849e-06 0 0.024999996302816872 -3.3776026906546661e-09 0 0.024999965019642384 1.3896371920194923e-08 0 0.024993373437064863 3.0297774818813849e-06 0 0.024999996302816872 -3.3776026906546661e-09 0 0.024998108101330244 1.5828221417663972e-06 0 0.024993373437064863 3.0297774818813849e-06 0 0.024999965019642384 1.3896371920194923e-08 0 0.024980672977820171 3.2718042819796028e-06 0 0.024999965019642384 1.3896371920194923e-08 0 0.024980672977820171 3.2718042819796028e-06 0 0.024972546058484309 6.0467751475284444e-06 0 0.024980672977820171 3.2718042819796028e-06 0 0.024937271456770892 1.6500004198453792e-07 0 0.024972546058484309 6.0467751475284444e-06 0 0.024937271456770892 1.6500004198453792e-07 0 0.024972546058484309 6.0467751475284444e-06 0 0.024944169331702258 8.3827613757425436e-06 0 0.024999965019642384 1.3896371920194923e-08 0 0.024972546058484309 6.0467751475284444e-06 0 0.024999922753625059 1.0873886323586821e-08 0 0.024972546058484309 6.0467751475284444e-06 0 0.024999922753625059 1.0873886323586821e-08 0 0.024944169331702258 8.3827613757425436e-06 0 0.024999922753625059 1.0873886323586821e-08 0 0.024944169331702258 8.3827613757425436e-06 0 0.02499991989674227 -3.4441990417975669e-09 0 0.024937271456770892 1.6500004198453792e-07 0 0.024944169331702258 8.3827613757425436e-06 0 0.024866601149530782 -1.5592772435982048e-05 0 0.024944169331702258 8.3827613757425436e-06 0 0.024866601149530782 -1.5592772435982048e-05 0 0.024922478505510694 1.4065069763662647e-05 0 0.024940759042901498 -2.1375957996682648e-05 0 0.024937271456770892 1.6500004198453792e-07 0 0.024866601149530782 -1.5592772435982048e-05 0 0.024940759042901498 -2.1375957996682648e-05 0 0.024866601149530782 -1.5592772435982048e-05 0 0.024835628171851133 -6.4742538029489855e-05 0 0.024942919457700184 -7.5740247560530225e-05 0 0.024940759042901498 -2.1375957996682648e-05 0 0.024835628171851133 -6.4742538029489855e-05 0 0.024866601149530782 -1.5592772435982048e-05 0 0.024835628171851133 -6.4742538029489855e-05 0 0.02475381474111317 -7.5225505841216e-05 0 0.02475381474111317 -7.5225505841216e-05 0 0.024786972432455649 -4.0143249764234073e-05 0 0.024701992836195421 -0.00011633179731135512 0 0.024866601149530782 -1.5592772435982048e-05 0 0.02475381474111317 -7.5225505841216e-05 0 0.024786972432455649 -4.0143249764234073e-05 0 0.024844995738202532 1.6263259343723763e-05 0 0.024806342062144597 1.1425368122334292e-05 0 0.024897344500663089 8.0721758963408046e-05 0 0.024927053730161949 0.00010984463839905461 0 0.024942795864789962 5.6431355202384103e-05 0 0.024927053730161949 0.00010984463839905461 0 0.024942795864789962 5.6431355202384103e-05 0 0.024958427872246711 8.3913505604106157e-05 0 0.024897344500663089 8.0721758963408046e-05 0 0.024927053730161949 0.00010984463839905461 0 0.024878323775156686 0.00015177055541071047 0 0.024866601149530782 -1.5592772435982048e-05 0 0.024786972432455649 -4.0143249764234073e-05 0 0.024922478505510694 1.4065069763662647e-05 0 0.024897344500663089 8.0721758963408046e-05 0 0.024942795864789962 5.6431355202384103e-05 0 0.024922478505510694 1.4065069763662647e-05 0 0.024844995738202532 1.6263259343723763e-05 0 0.024905243635533477 8.7880591871656797e-06 0 0.024944169331702258 8.3827613757425436e-06 0 0.024922478505510694 1.4065069763662647e-05 0 0.02499991989674227 -3.4441990417975669e-09 0 0.024922478505510694 1.4065069763662647e-05 0 0.02499991989674227 -3.4441990417975669e-09 0 0.024971589985637987 1.2900564185428033e-05 0 0.02499991989674227 -3.4441990417975669e-09 0 0.024971589985637987 1.2900564185428033e-05 0 0.02499998487750384 3.1973170351928133e-09 0 0.024942795864789962 5.6431355202384103e-05 0 0.024971589985637987 1.2900564185428033e-05 0 0.024972859365574678 4.7725232104858399e-05 0 0.024942795864789962 5.6431355202384103e-05 0 0.024922478505510694 1.4065069763662647e-05 0 0.024971589985637987 1.2900564185428033e-05 0 0.024971589985637987 1.2900564185428033e-05 0 0.024987551325741954 1.8433847869183152e-05 0 0.024972859365574678 4.7725232104858399e-05 0 0.024987551325741954 1.8433847869183152e-05 0 0.024997202499292395 4.4899767043781239e-05 0 0.024972859365574678 4.7725232104858399e-05 0 0.024987551325741954 1.8433847869183152e-05 0 0.02499998487750384 3.1973170351928133e-09 0 0.024999951937166406 8