<?xml version="1.0"?>
<VTKFile type="UnstructuredGrid" version="0.1" byte_order="LittleEndian">
<UnstructuredGrid>
<Piece NumberOfPoints="30578" NumberOfCells="10723">
<Points>
<DataArray type="Float64" NumberOfComponents="3" format="ascii">
-0.5 -0.5 0 -0.47439485679867832 -0.48072581506667478 0 -0.5 -0.44765434486020428 0 -0.5 -0.5 0 -0.47439485679867832 -0.48072581506667478 0 -0.43702443379937372 -0.49999999999999922 0 -0.47439485679867832 -0.48072581506667478 0 -0.45530669598391149 -0.47718009944797551 0 -0.43702443379937372 -0.49999999999999922 0 -0.47439485679867832 -0.48072581506667478 0 -0.45530669598391149 -0.47718009944797551 0 -0.4597353119515426 -0.45943449384344293 0 -0.45530669598391149 -0.47718009944797551 0 -0.44381084376742141 -0.47114793899167112 0 -0.4597353119515426 -0.45943449384344293 0 -0.45530669598391149 -0.47718009944797551 0 -0.44381084376742141 -0.47114793899167112 0 -0.43702443379937372 -0.49999999999999922 0 -0.44381084376742141 -0.47114793899167112 0 -0.43702443379937372 -0.49999999999999922 0 -0.45059725373546922 -0.44229587798334291 0 -0.4339166039271336 -0.43498117536117131 0 -0.43309128002320102 -0.45351235807576151 0 -0.44381084376742141 -0.47114793899167112 0 -0.45059725373546922 -0.44229587798334291 0 -0.4597353119515426 -0.45943449384344293 0 -0.44381084376742141 -0.47114793899167112 0 -0.45059725373546922 -0.44229587798334291 0 -0.43309128002320102 -0.45351235807576151 0 -0.44381084376742141 -0.47114793899167112 0 -0.45059725373546922 -0.44229587798334291 0 -0.4597353119515426 -0.45943449384344293 0 -0.47505511338101108 -0.44868394208069429 0 -0.46517432262153441 -0.43649963461163338 0 -0.45059725373546922 -0.44229587798334291 0 -0.4597353119515426 -0.45943449384344293 0 -0.46517432262153441 -0.43649963461163338 0 -0.47505511338101108 -0.44868394208069429 0 -0.47820614292347569 -0.42776699273468149 0 -0.46517432262153441 -0.43649963461163338 0 -0.47505511338101108 -0.44868394208069429 0 -0.47820614292347569 -0.42776699273468149 0 -0.47439485679867832 -0.48072581506667478 0 -0.47505511338101108 -0.44868394208069429 0 -0.5 -0.44765434486020428 0 -0.47439485679867832 -0.48072581506667478 0 -0.4597353119515426 -0.45943449384344293 0 -0.47505511338101108 -0.44868394208069429 0 -0.47505511338101108 -0.44868394208069429 0 -0.5 -0.44765434486020428 0 -0.47820614292347569 -0.42776699273468149 0 -0.5 -0.44765434486020428 0 -0.49656450065014057 -0.42151023988558672 0 -0.47820614292347569 -0.42776699273468149 0 -0.5 -0.44765434486020428 0 -0.49656450065014057 -0.42151023988558672 0 -0.50000000000000089 -0.37904661106745707 0 -0.49656450065014057 -0.42151023988558672 0 -0.48135717246594062 -0.40685004338866881 0 -0.47820614292347569 -0.42776699273468149 0 -0.49656450065014057 -0.42151023988558672 0 -0.48135717246594062 -0.40685004338866881 0 -0.48135717246594062 -0.40685004338866881 0 -0.47820614292347569 -0.42776699273468149 0 -0.48135717246594062 -0.40685004338866881 0 -0.47820614292347569 -0.42776699273468149 0 -0.45738366370351707 -0.41344381697501481 0 -0.49656450065014057 -0.42151023988558672 0 -0.48135717246594062 -0.40685004338866881 0 -0.50000000000000089 -0.37904661106745707 0 -0.50000000000000089 -0.37904661106745707 0 -0.48466894952205442 -0.38486603086372417 0 -0.48717439863114548 -0.36823452950912272 0 -0.48135717246594062 -0.40685004338866881 0 -0.50000000000000089 -0.37904661106745707 0 -0.48466894952205442 -0.38486603086372417 0 -0.48466894952205442 -0.38486603086372417 0 -0.48717439863114548 -0.36823452950912272 0 -0.50000000000000089 -0.37904661106745707 0 -0.48466894952205442 -0.38486603086372417 0 -0.48135717246594062 -0.40685004338866881 0 -0.48466894952205442 -0.38486603086372417 0 -0.46593083509403682 -0.39197871725165279 0 -0.48135717246594062 -0.40685004338866881 0 -0.48466894952205442 -0.38486603086372417 0 -0.48135717246594062 -0.40685004338866881 0 -0.46593083509403682 -0.39197871725165279 0 -0.48466894952205442 -0.38486603086372417 0 -0.47195833844942919 -0.37959069520904498 0 -0.46593083509403682 -0.39197871725165279 0 -0.48466894952205442 -0.38486603086372417 0 -0.46593083509403682 -0.39197871725165279 0 -0.48466894952205442 -0.38486603086372417 0 -0.47195833844942919 -0.37959069520904498 0 -0.48717439863114548 -0.36823452950912272 0 -0.46593083509403682 -0.39197871725165279 0 -0.44890944387521442 -0.39029302340116001 0 -0.45132291774153199 -0.37789636588759368 0 -0.47195833844942919 -0.37959069520904498 0 -0.46593083509403682 -0.39197871725165279 0 -0.45132291774153199 -0.37789636588759368 0 -0.46593083509403682 -0.39197871725165279 0 -0.45132291774153199 -0.37789636588759368 0 -0.48135717246594062 -0.40685004338866881 0 -0.46593083509403682 -0.39197871725165279 0 -0.45738366370351707 -0.41344381697501481 0 -0.46593083509403682 -0.39197871725165279 0 -0.44275815558040038 -0.40077469311046232 0 -0.45738366370351707 -0.41344381697501481 0 -0.46593083509403682 -0.39197871725165279 0 -0.44275815558040038 -0.40077469311046232 0 -0.46593083509403682 -0.39197871725165279 0 -0.44275815558040038 -0.40077469311046232 0 -0.44890944387521442 -0.39029302340116001 0 -0.44275815558040038 -0.40077469311046232 0 -0.44064580868350911 -0.39542861624611658 0 -0.44890944387521442 -0.39029302340116001 0 -0.44225344557501872 -0.38376649822575309 0 -0.45132291774153199 -0.37789636588759368 0 -0.43671500038902772 -0.36381401452353412 0 -0.44890944387521442 -0.39029302340116001 0 -0.44225344557501872 -0.38376649822575309 0 -0.45132291774153199 -0.37789636588759368 0 -0.44064580868350911 -0.39542861624611658 0 -0.44225344557501872 -0.38376649822575309 0 -0.43040194378266172 -0.3881600185019185 0 -0.44064580868350911 -0.39542861624611658 0 -0.44890944387521442 -0.39029302340116001 0 -0.44225344557501872 -0.38376649822575309 0 -0.47820614292347569 -0.42776699273468149 0 -0.46517432262153441 -0.43649963461163338 0 -0.45738366370351707 -0.41344381697501481 0 -0.45059725373546922 -0.44229587798334291 0 -0.45738366370351707 -0.41344381697501481 0 -0.45059725373546922 -0.44229587798334291 0 -0.46517432262153441 -0.43649963461163338 0 -0.45738366370351707 -0.41344381697501481 0 -0.44275815558040038 -0.40077469311046232 0 -0.45738366370351707 -0.41344381697501481 0 -0.44164244492799948 -0.42121090558557039 0 -0.45059725373546922 -0.44229587798334291 0 -0.45738366370351707 -0.41344381697501481 0 -0.44164244492799948 -0.42121090558557039 0 -0.45059725373546922 -0.44229587798334291 0 -0.44164244492799948 -0.42121090558557039 0 -0.4339166039271336 -0.43498117536117131 0 -0.4339166039271336 -0.43498117536117131 0 -0.42355654769347711 -0.414558964497861 0 -0.41671115160429401 -0.44095791049380378 0 -0.44164244492799948 -0.42121090558557039 0 -0.4339166039271336 -0.43498117536117131 0 -0.42355654769347711 -0.414558964497861 0 -0.44275815558040038 -0.40077469311046232 0 -0.44164244492799948 -0.42121090558557039 0 -0.42355654769347711 -0.414558964497861 0 -0.42355654769347711 -0.414558964497861 0 -0.41056920252370888 -0.3963363404412637 0 -0.40050668374064252 -0.41734442193795029 0 -0.42355654769347711 -0.414558964497861 0 -0.41671115160429401 -0.44095791049380378 0 -0.42355654769347711 -0.414558964497861 0 -0.40050668374064252 -0.41734442193795029 0 -0.41671115160429401 -0.44095791049380378 0 -0.44225344557501872 -0.38376649822575309 0 -0.43040194378266172 -0.3881600185019185 0 -0.43671500038902772 -0.36381401452353412 0 -0.43040194378266172 -0.3881600185019185 0 -0.43671500038902772 -0.36381401452353412 0 -0.44064580868350911 -0.39542861624611658 0 -0.42355654769347711 -0.414558964497861 0 -0.43040194378266172 -0.3881600185019185 0 -0.42355654769347711 -0.414558964497861 0 -0.43040194378266172 -0.3881600185019185 0 -0.44275815558040038 -0.40077469311046232 0 -0.44064580868350911 -0.39542861624611658 0 -0.42355654769347711 -0.414558964497861 0 -0.44064580868350911 -0.39542861624611658 0 -0.43040194378266172 -0.3881600185019185 0 -0.42355654769347711 -0.414558964497861 0 -0.43040194378266172 -0.3881600185019185 0 -0.41056920252370888 -0.3963363404412637 0 -0.43040194378266172 -0.3881600185019185 0 -0.4079689369259607 -0.37224253963894771 0 -0.43040194378266172 -0.3881600185019185 0 -0.41056920252370888 -0.3963363404412637 0 -0.4079689369259607 -0.37224253963894771 0 -0.41056920252370888 -0.3963363404412637 0 -0.39195929229331972 -0.37982250283040359 0 -0.4079689369259607 -0.37224253963894771 0 -0.41056920252370888 -0.3963363404412637 0 -0.39195929229331972 -0.37982250283040359 0 -0.39357845321732049 -0.39746174547711199 0 -0.41056920252370888 -0.3963363404412637 0 -0.39357845321732049 -0.39746174547711199 0 -0.40050668374064252 -0.41734442193795029 0 -0.39357845321732049 -0.39746174547711199 0 -0.38114412328536468 -0.40833987260765031 0 -0.36544727141479139 -0.39026932065168712 0 -0.39195929229331972 -0.37982250283040359 0 -0.37549160074202448 -0.3732971907138336 0 -0.36544727141479139 -0.39026932065168712 0 -0.39195929229331972 -0.37982250283040359 0 -0.39357845321732049 -0.39746174547711199 0 -0.36544727141479139 -0.39026932065168712 0 -0.40050668374064252 -0.41734442193795029 0 -0.3944977858259317 -0.43926335073686201 0 -0.41671115160429401 -0.44095791049380378 0 -0.40050668374064252 -0.41734442193795029 0 -0.38028594703985957 -0.42392304976487449 0 -0.3944977858259317 -0.43926335073686201 0 -0.39357845321732049 -0.39746174547711199 0 -0.40050668374064252 -0.41734442193795029 0 -0.38114412328536468 -0.40833987260765031 0 -0.40050668374064252 -0.41734442193795029 0 -0.38114412328536468 -0.40833987260765031 0 -0.38028594703985957 -0.42392304976487449 0 -0.38114412328536468 -0.40833987260765031 0 -0.38028594703985957 -0.42392304976487449 0 -0.36590226101420908 -0.41270082520662749 0 -0.38028594703985957 -0.42392304976487449 0 -0.3944977858259317 -0.43926335073686201 0 -0.3723601590800425 -0.44005613486137668 0 -0.3944977858259317 -0.43926335073686201 0 -0.38265619596279349 -0.45813348326120767 0 -0.3723601590800425 -0.44005613486137668 0 -0.40093272222703252 -0.45142790024540502 0 -0.3944977858
[...]
<PointData Scalars="" Vectors="displacement," Tensors="">
<DataArray type="Float64" Name="displacement" NumberOfComponents="3" format="ascii">
-0.034997572056692475 -0.034997549854875097 0 -0.034269186219016846 -0.033949753048032237 0 -0.031340305125615822 -0.034997733835260995 0 -0.034997572056692475 -0.034997549854875097 0 -0.034269186219016846 -0.033949753048032237 0 -0.034997318025077724 -0.030599476500965742 0 -0.034269186219016846 -0.033949753048032237 0 -0.034267816663800826 -0.032989804258869777 0 -0.034997318025077724 -0.030599476500965742 0 -0.034269186219016846 -0.033949753048032237 0 -0.034267816663800826 -0.032989804258869777 0 -0.033423863592994034 -0.033632036753776746 0 -0.034267816663800826 -0.032989804258869777 0 -0.034042570093402849 -0.033116514433418738 0 -0.033423863592994034 -0.033632036753776746 0 -0.034267816663800826 -0.032989804258869777 0 -0.034042570093402849 -0.033116514433418738 0 -0.034997318025077724 -0.030599476500965742 0 -0.034922276460903741 -0.031931224521578018 0 -0.034999513198520939 -0.030592121464269793 0 -0.035263871455453379 -0.031399562549792072 0 -0.035267545661423184 -0.031504615980033152 0 -0.035586334574135521 -0.031183428456473518 0 -0.034042570093402849 -0.033116514433418738 0 -0.033409349075015041 -0.033373098177320808 0 -0.033423863592994034 -0.033632036753776746 0 -0.036001917013115406 -0.03091613351975955 0 -0.035263871455453379 -0.031399562549792072 0 -0.035586334574135521 -0.031183428456473518 0 -0.034922276460903741 -0.031931224521578018 0 -0.034459629075432596 -0.032398196394927567 0 -0.033423863592994034 -0.033632036753776746 0 -0.032558236030121798 -0.034680324719809211 0 -0.033533111433558922 -0.033777531376487278 0 -0.033409349075015041 -0.033373098177320808 0 -0.033423863592994034 -0.033632036753776746 0 -0.033533111433558922 -0.033777531376487278 0 -0.032558236030121798 -0.034680324719809211 0 -0.03410590164968097 -0.034551687405952596 0 -0.033533111433558922 -0.033777531376487278 0 -0.03232723457446441 -0.034750228741447169 0 -0.032485694974099616 -0.034984391049581537 0 -0.034269186219016846 -0.033949753048032237 0 -0.032558236030121798 -0.034680324719809211 0 -0.031340305125615822 -0.034997733835260995 0 -0.034269186219016846 -0.033949753048032237 0 -0.033423863592994034 -0.033632036753776746 0 -0.032558236030121798 -0.034680324719809211 0 -0.032558236030121798 -0.034680324719809211 0 -0.031340305125615822 -0.034997733835260995 0 -0.030436218992629903 -0.035489252828230872 0 -0.031340305125615822 -0.034997733835260995 0 -0.029591359042694075 -0.035163496232768196 0 -0.030436218992629903 -0.035489252828230872 0 -0.031340305125615822 -0.034997733835260995 0 -0.029591359042694075 -0.035163496232768196 0 -0.026532072265675315 -0.035000620872061308 0 -0.029591359042694075 -0.035163496232768196 0 -0.029520182272613049 -0.035494129500903568 0 -0.030436218992629903 -0.035489252828230872 0 -0.028870076937358248 -0.035756541002559435 0 -0.03138529979974148 -0.035004969309809349 0 -0.03138529979974148 -0.035004969309809349 0 -0.032485694974099616 -0.034984391049581537 0 -0.03556396766968168 -0.034558545972923405 0 -0.03410590164968097 -0.034551687405952596 0 -0.035155918677266869 -0.032725538478812682 0 -0.029591359042694075 -0.035163496232768196 0 -0.028544748984962568 -0.036278595983863439 0 -0.026532072265675315 -0.035000620872061308 0 -0.026532899290393312 -0.034999825916905036 0 -0.02687243449669674 -0.035972980268493202 0 -0.025710429168968263 -0.035763727851332236 0 -0.028544748984962568 -0.036278595983863439 0 -0.026532072265675315 -0.035000620872061308 0 -0.026965640156413399 -0.036066574890059627 0 -0.027491365090267339 -0.035511687300119756 0 -0.025631570033736128 -0.03573831843609232 0 -0.026533492285837883 -0.03500048203401418 0 -0.027491365090267339 -0.035511687300119756 0 -0.03092786384839985 -0.034713744316235466 0 -0.030079712434334435 -0.034588953472823439 0 -0.030367268905845093 -0.035293796228004055 0 -0.03138529979974148 -0.035004969309809349 0 -0.027491365090267339 -0.035511687300119756 0 -0.03138529979974148 -0.035004969309809349 0 -0.032516397401206099 -0.034166512748745465 0 -0.026651462650087804 -0.035851436862796272 0 -0.026351464759446816 -0.036560955171490321 0 -0.027124320225536683 -0.036874528208589302 0 -0.027491365090267339 -0.035511687300119756 0 -0.032516397401206099 -0.034166512748745465 0 -0.026651462650087804 -0.035851436862796272 0 -0.026351464759446816 -0.036560955171490321 0 -0.025710429168968263 -0.035763727851332236 0 -0.0351810837523319 -0.030854764148314433 0 -0.035157824621490273 -0.031683322976675143 0 -0.034344131263760631 -0.031545897380797855 0 -0.026351464759446816 -0.036560955171490321 0 -0.027124320225536683 -0.036874528208589302 0 -0.026260137051107073 -0.037746239690917699 0 -0.032516397401206099 -0.034166512748745465 0 -0.030171320333750289 -0.034778875295154645 0 -0.03556396766968168 -0.034558545972923405 0 -0.036461075343722206 -0.033350576271490955 0 -0.035155918677266869 -0.032725538478812682 0 -0.036461075343722206 -0.033350576271490955 0 -0.035680065492792769 -0.031985131851261221 0 -0.035155918677266869 -0.032725538478812682 0 -0.032516397401206099 -0.034166512748745465 0 -0.036331393234777257 -0.031436584462648305 0 -0.0351810837523319 -0.030854764148314433 0 -0.035680065492792769 -0.031985131851261221 0 -0.035157824621490273 -0.031683322976675143 0 -0.035680065492792769 -0.031985131851261221 0 -0.035596550262136546 -0.032045223595573859 0 -0.035157824621490273 -0.031683322976675143 0 -0.034736769025644071 -0.032080685909960764 0 -0.034344131263760631 -0.031545897380797855 0 -0.033286073599856983 -0.032520779776002096 0 -0.035157824621490273 -0.031683322976675143 0 -0.034736769025644071 -0.032080685909960764 0 -0.034344131263760631 -0.031545897380797855 0 -0.035596550262136546 -0.032045223595573859 0 -0.034736769025644071 -0.032080685909960764 0 -0.035051627551506821 -0.032896654279190869 0 -0.035596550262136546 -0.032045223595573859 0 -0.035157824621490273 -0.031683322976675143 0 -0.034736769025644071 -0.032080685909960764 0 -0.03410590164968097 -0.034551687405952596 0 -0.033533111433558922 -0.033777531376487278 0 -0.035155918677266869 -0.032725538478812682 0 -0.034459629075432596 -0.032398196394927567 0 -0.03521098177088982 -0.032721925235673653 0 -0.033409349075015041 -0.033373098177320808 0 -0.033533111433558922 -0.033777531376487278 0 -0.035155918677266869 -0.032725538478812682 0 -0.035680065492792769 -0.031985131851261221 0 -0.035155918677266869 -0.032725538478812682 0 -0.035221120462937551 -0.031844935614687285 0 -0.035263871455453379 -0.031399562549792072 0 -0.035155918677266869 -0.032725538478812682 0 -0.035221120462937551 -0.031844935614687285 0 -0.035263871455453379 -0.031399562549792072 0 -0.035221120462937551 -0.031844935614687285 0 -0.035267545661423184 -0.031504615980033152 0 -0.035267545661423184 -0.031504615980033152 0 -0.035363224673822399 -0.031570826356334632 0 -0.035321769537980829 -0.031402394043712999 0 -0.035221120462937551 -0.031844935614687285 0 -0.035267545661423184 -0.031504615980033152 0 -0.035363224673822399 -0.031570826356334632 0 -0.035680065492792769 -0.031985131851261221 0 -0.035221120462937551 -0.031844935614687285 0 -0.035363224673822399 -0.031570826356334632 0 -0.036953958902642157 -0.026163677050770048 0 -0.037035621591305884 -0.026077471715415704 0 -0.036957780269260845 -0.026014123704237158 0 -0.036348778814046759 -0.02879381251038687 0 -0.03603137617194007 -0.028829743881437834 0 -0.036953958902642157 -0.026163677050770048 0 -0.036957780269260845 -0.026014123704237158 0 -0.036808166597612602 -0.026149647597660156 0 -0.034736769025644071 -0.032080685909960764 0 -0.035051627551506821 -0.032896654279190869 0 -0.033286073599856983 -0.032520779776002096 0 -0.035414023914847541 -0.02969784718333765 0 -0.028596711069774669 -0.034628565760275926 0 -0.035596550262136546 -0.032045223595573859 0 -0.035363224673822399 -0.031570826356334632 0 -0.03574513434462008 -0.031826705610316176 0 -0.036348778814046759 -0.02879381251038687 0 -0.035414023914847541 -0.02969784718333765 0 -0.035680065492792769 -0.031985131851261221 0 -0.035596550262136546 -0.032045223595573859 0 -0.035363224673822399 -0.031570826356334632 0 -0.035004292540305786 -0.032287597013838071 0 -0.035414023914847541 -0.02969784718333765 0 -0.036953958902642157 -0.026163677050770048 0 -0.03705946647059969 -0.026204132229742695 0 -0.037035621591305884 -0.026077471715415704 0 -0.035414023914847541 -0.02969784718333765 0 -0.033916105210852122 -0.028747136257270996 0 -0.03705946647059969 -0.026204132229742695 0 -0.037035621591305884 -0.026077471715415704 0 -0.037121595075566741 -0.026070393664968026 0 -0.037035621591305884 -0.026077471715415704 0 -0.037098719424338185 -0.02596726778416068 0 -0.037121595075566741 -0.026070393664968026 0 -0.037035621591305884 -0.026077471715415704 0 -0.037098719424338185 -0.02596726778416068 0 -0.03704002444433855 -0.025957591452169606 0 -0.037035621591305884 -0.026077471715415704 0 -0.03704002444433855 -0.025957591452169606 0 -0.036957780269260845 -0.026014123704237158 0 -0.03704002444433855 -0.025957591452169606 0 -0.037029326027285453 -0.025855894109015419 0 -0.037019007559879073 -0.025752559150580778 0 -0.037098719424338185 -0.02596726778416068 0 -0.03712316242524475 -0.025864244787284531 0 -0.037019007559879073 -0.025752559150580778 0 -0.037098719424338185 -0.02596726778416068 0 -0.03704002444433855 -0.025957591452169606 0 -0.037019007559879073 -0.025752559150580778 0 -0.036957780269260845 -0.026014123704237158 0 -0.03682911494437275 -0.025986782951257 0 -0.036808166597612602 -0.026149647597660156 0 -0.036957780269260845 -0.026014123704237158 0 -0.036959346600737748 -0.025863867738995985 0 -0.03682911494437275 -0.025986782951257 0 -0.03704002444433855 -0.025957591452169606 0 -0.036957780269260845 -0.026014123704237158 0 -0.037029326027285453 -0.025855894109015419 0 -0.036957780269260845 -0.026014123704237158 0 -0.037029326027285453 -0.025855894109015419 0 -0.036959346600737748 -0.025863867738995985 0 -0.037029326027285453 -0.025855894109015419 0 -0.036959346600737748 -0.025863867738995985 0 -0.037078397456694737 -0.02573137937912599 0 -0.036959346600737748 -0.025863867738995985 0 -0.03682911494437275 -0.025986782951257 0 -0.036840867682310013 -0.025813067503983399 0 -0.03682911494437275 -0.025986782951257 0 -0.036684230500403328 -0.025900242020247894 0 -0.036840867682310013 -0.025813067503983399 0 -0.036733796697053435 -0.026043194829885964 0 -0.03682911494437275 -0.025986782951257 0 -0.036684230500403328 -0.025900242020247894 0 -0.036733796697053435 -0.026043194829885964 0 -0.03682911494437275 -0.025986782951257 0 -0.036808166597612602 -0.026149647597660156 0 -0.036863188449621907 -0.026030106768470909 0 -0.036266466843280991 -0.028428832220787178 0 -0.036886633316698787 -0.026753611635084676 0 -0.036373645358665045 -0.027358816956050643 0 -0.036688917309881462 -0.028150312658666254 0 -0.036733796697053435 -0.026043194829885964 0 -0.036684230500403328 -0.025900242020247894 0 -0.036608354593586578 -0.026127874422046646 0 -0.036886633316698787 -0.026753611635084676 0 -0.036436506605727365 -0.026773556963814685 0 -0.036373645358665045 -0.027358816956050643 0 -0.036436506605727365 -0.026773556963814685 0 -0.035774119998565529 -0.027134965670606189 0 -0.035860956998089881 -0.025667653472789227 0 -0.036436506605727365 -0.026773556963814685 0 -0.035774119998565529 -0.027134965670606189 0 -0.036373645358665045 -0.027358816956050643 0 -0.034999815014103056 -0.026250504290596853 0 -0.035774119998565529 -0.027134965670606189 0 -0.034999927653950186 -0.028097312762353957 0 -0.034999815014103056 -0.026250504290596853 0 -0.035774119998565529 -0.027134965670606189 0 -0.035860956998089881 -0.025667653472789227 0 -0.035774119998565529 -0.027134965670606189 0 -0.034999927653950186 -0.028097312762353957 0 -0.035879429634652245 -0.02805540094397381 0 -0.035000053750360763 -0.028098136349211409 0 -0.035873486586054742 -0.028379385283034183 0 -0.035879429634652245 -0.02805540094397381 0 -0.036373645358665045 -0.027358816956050643 0 -0.036688917309881462 -0.028150312658666254 0 -0.035774119998565529 -0.027134965670606189 0 -0.035879429634652245 -0.02805540094397381 0 -0.036373645358665045 -0.027358816956050643 0 -0.035873486586054742 -0.028379385283034183 0 -0.036266466843280991 -0.028428832220787178 0 -0.036000879652815718 -0.031149968125580726 0 -0.036266466843280991 -0.028428832220787178 0 -0.035622459772752038 -0.029706294909745409 0 -0.036115350824610933 -0.030569021099575201 0 -0.036757281245797156 -0.029086342570705248 0 -0.03578790340689135 -0.028703860854467595 0 -0.035622459772752038 -0.029706294909745409 0 -0.036757281245797156 -0.029086342570705248 0 -0.03578790340689135 -0.028703860854467595 0 -0.035622459772752038 -0.029706294909745409 0 -0.034999561156600051 -0.029345490724719821 0 -0.034999997283444377 -0.02809844012871341 0 -0.03578790340689135 -0.028703860854467595 0 -0.034999561156600051 -0.029345490724719821 0 -0.035622459772752038 -0.029706294909745409 0 -0.034999561156600051 -0.029345490724719821 0 -0.035000276179409311 -0.030591340871400481 0 -0.035622459772752038 -0.029706294909745409 0 -0.035000276179409311 -0.030591340871400481 0 -0.036115350824610933 -0.030569021099575201 0 -0.036001917013115406 -0.03091613351975955 0 -0.035000276179409311 -0.030591340871400481 0 -0.036115350824610933 -0.030569021099575201 0 -0.036115350824610933 -0.030569021099575201 0 -0.03568809056580248 -0.031159885949675652 0 -0.035586334574135521 -0.031183428456473518 0 -0.036001917013115406 -0.03091613351975955 0 -0.036115350824610933 -0.030569021099575201 0 -0.035586334574135521 -0.031183428456473518 0 -0.035267545661423184 -0.031504615980033152 0 -0.035586334574135521 -0.031183428456473518 0 -0.035321769537980829 -0.031402394043712999 0 -0.03568809056580248 -0.031159885949675652 0 -0.035586334574135521 -0.031183428456473518 0 -0.035321769537980829 -0.031402394043712999 0 -0.03568809056580248 -0.031159885949675652 0 -0.035321769537980829 -0.031402394043712999 0 -0.035921580709408089 -0.031450947368426976 0 -0.03603137617194007 -0.028829743881437834 0 -0.036266466843280991 -0.028428832220787178 0 -0.036733796697053435 -0.026043194829885964 0 -0.036808166597612602 -0.026149647597660156 0 -0.036608354593586578 -0.026127874422046646 0 -0.036115350824610933 -0.030569021099575201 0 -0.03568809056580248 -0.031159885949675652 0 -0.035921580709408089 -0.031450947368426976 0 -0.017227072182860351 -0.036408785820702429 0 -0.017099450030570871 -0.036898964352212883 0 -0.016822238676396737 -0.036464233670653663 0 -0.017591983245295536 -0.036802577407105547 0 -0.017227072182860351 -0.036408785820702429 0 -0.017099450030570871 -0.036898964352212883 0 -0.020322256559347163 -0.037196507917176991 0 -0.020141134774011478 -0.0368781558246907 0 -0.019019527431751389 -0.036991632616786535 0 -0.018499949872813674 -0.036944929181852222 0 -0.018166743184062199 -0.036686122227882083 0 -0.020141134774011478 -0.0368781558246907 0 -0.019156850801240327 -0.036104667188141565 0 -0.020499939225473215 -0.036406724425186422 0 -0.020141134774011478 -0.0368781558246907 0 -0.019019527431751389 -0.036991632616786535 0 -0.019156850801240327 -0.036104667188141565 0 -0.018166743184062199 -0.036686122227882083 0 -0.017142185816310818 -0.036032716018996783 0 -0.019019527431751389 -0.036991632616786535 0 -0.019156850801240327 -0.036104667188141565 0 -0.017537584626354245 -0.036250525602239701 0 -0.018142530633177386 -0.03568866137970849 0 -0.019156850801240327 -0.036104667188141565 0 -0.017537584626354245 -0.036250525602239701 0 -0.018142530633177386 -0.03568866137970849 0 -0.017504862666102544 -0.034999694939152295 0 -0.019310613058435917 -0.034999860640962728 0 -0.018142530633177386 -0.03568866137970849 0 -0.017504862666102544 -0.034999694939152295 0 -0.017334064523854411 -0.035514340180394809 0 -0.018142530633177386 -0.03568866137970849 0 -0.019310613058435917 -0.034999860640962728 0 -0.019156850801240327 -0.036104667188141565 0 -0.019310613058435917 -0.034999860640962728 0 -0.019156850801240327 -0.036104667188141565 0 -0.020275082512044105 -0.035690182029140087 0 -0.019156850801240327 -0.036104667188141565 0 -0.020499939225473215 -0.036406724425186422 0 -0.020275082512044105 -0.035690182029140087 0 -0.020499939225473215 -0.036406724425186422 0 -0.020275082512044105 -0.035690182029140087 0 -0.021297132866392336 -0.036001670127117795 0 -0.019310613058435917 -0.034999860640962728 0 -0.020275082512044105 -0.035690182029140087 0 -0.021115995350630731 -0.034999827884668482 0 -0.020275082512044105 -0.035690182029140087 0 -0.021115995350630731 -0.034999827884668482 0 -0.021297132866392336 -0.036001670127117795 0 -0.021115995350630731 -0.034999827884668482 0 -0.021297132866392336 -0.036001670127117795 0 -0.022921473268506864 -0.034999803091041774 0 -0.020499939225473215 -0.036406724425186422 0 -0.021297132866392336 -0.036001670127117795 0 -0.021222333387213646 -0.036815955552273551 0 -0.021297132866392336 -0.036001670127117795 0 -0.021222333387213646 -0.036815955552273551 0 -0.022370909642536688 -0.036325107053539002 0 -0.020141134774011478 -0.0368781558246907 0 -0.020499939225473215 -0.036406724425186422 0 -0.021222333387213646 -0.036815955552273551 0 -0.020141134774011478 -0.0368781558246907 0 -0.021222333387213646 -0.036815955552273551 0 -0.021128025244401345 -0.036934550562073516 0 -0.020322256559347163 -0.037196507917176991 0 -0.020141134774011478 -0.0368781558246907 0 -0.021128025244401345 -0.036934550562073516 0 -0.021222333387213646 -0.036815955552273551 0 -0.021128025244401345 -0.036934550562073516 0 -0.021417193299605466 -0.036881549957237497 0 -0.021417193299605466 -0.036881549957237497 0 -0.02160668352513773 -0.036966794385626597 0 -0.0207191478068506 -0.03654520208408675 0 -0.021222333387213646 -0.036815955552273551 0 -0.021417193299605466 -0.036881549957237497 0 -0.02160668352513773 -0.036966794385626597 0 -0.022203120721700449 -0.037217936002790566 0 -0.021917119543407085 -0.038039470603400523 0 -0.022833600140664479 -0.037803134841463922 0 -0.023720745238043416 -0.038320884711441031 0 -0.023636846655570684 -0.037273204077204115 0 -0.023720745238043416 -0.038320884711441031 0 -0.023636846655570684 -0.037273204077204115 0 -0.024357030863386555 -0.037818105619643799 0 -0.022833600140664479 -0.037803134841463922 0 -0.023720745238043416 -0.038320884711441031 0 -0.02309169804444406 -0.038999316089816362 0 -0.021222333387213646 -0.036815955552273551 0 -0.02160668352513773 -0.036966794385626597 0 -0.022370909642536688 -0.036325107053539002 0 -0.022833600140664479 -0.037803134841463922 0 -0.023636846655570684 -0.037273204077204115 0 -0.022370909642536688 -0.036325107053539002 0 -0.022203120721700449 -0.037217936002790566 0 -0.022335860244082746 -0.036371495948669091 0 -0.021297132866392336 -0.036001670127117795 0 -0.022370909642536688 -0.036325107053539002 0 -0.022921473268506864 -0.034999803091041774 0 -0.022370909642536688 -0.036325107053539002 0 -0.022921473268506864 -0.034999803091041774 0 -0.023853440220985598 -0.036081085739104915 0 -0.022921473268506864 -0.034999803091041774 0 -0.023853440220985598 -0.036081085739104915 0 -0.024727532516853022 -0.034999881343112375 0 -0.023636846655570684 -0.037273204077204115 0 -0.023853440220985598 -0.036081085739104915 0 -0.024558231135608347 -0.037000464366860324 0 -0.023636846655570684 -0.037273204077204115 0 -0.022370909642536688 -0.036325107053539002 0 -0.023853440220985598 -0.036081085739104915 0 -0.023853440220985598 -0.036081085739104915 0 -0.024886857180353317 -0.0361422480851794 0 -0.024558231135608347 -0.037000464366860324 0 -0.024886857180353317 -0.0361422480851794 0 -0.025535404677897618 -0.036839516312522129 0 -0.024558231135608347 -0.037000464366860324 0 -0.024886857180353317 -0.0361422480851794 0 -0.024727532516853022 -0.034999881343112375 0 -0.025710429168968263 -0.035763727851332236 0 -0.023853440220985598 -0.036081085739104915 0 -0.024886857180353317 -0.0361422480851794 0 -0.