<?xml version="1.0"?>
<VTKFile type="UnstructuredGrid" version="0.1" byte_order="LittleEndian">
<UnstructuredGrid>
<Piece NumberOfPoints="30578" NumberOfCells="10723">
<Points>
<DataArray type="Float64" NumberOfComponents="3" format="ascii">
-0.5 -0.5 0 -0.47439485679867832 -0.48072581506667478 0 -0.5 -0.44765434486020428 0 -0.5 -0.5 0 -0.47439485679867832 -0.48072581506667478 0 -0.43702443379937372 -0.49999999999999922 0 -0.47439485679867832 -0.48072581506667478 0 -0.45530669598391149 -0.47718009944797551 0 -0.43702443379937372 -0.49999999999999922 0 -0.47439485679867832 -0.48072581506667478 0 -0.45530669598391149 -0.47718009944797551 0 -0.4597353119515426 -0.45943449384344293 0 -0.45530669598391149 -0.47718009944797551 0 -0.44381084376742141 -0.47114793899167112 0 -0.4597353119515426 -0.45943449384344293 0 -0.45530669598391149 -0.47718009944797551 0 -0.44381084376742141 -0.47114793899167112 0 -0.43702443379937372 -0.49999999999999922 0 -0.44381084376742141 -0.47114793899167112 0 -0.43702443379937372 -0.49999999999999922 0 -0.45059725373546922 -0.44229587798334291 0 -0.4339166039271336 -0.43498117536117131 0 -0.43309128002320102 -0.45351235807576151 0 -0.44381084376742141 -0.47114793899167112 0 -0.45059725373546922 -0.44229587798334291 0 -0.4597353119515426 -0.45943449384344293 0 -0.44381084376742141 -0.47114793899167112 0 -0.45059725373546922 -0.44229587798334291 0 -0.43309128002320102 -0.45351235807576151 0 -0.44381084376742141 -0.47114793899167112 0 -0.45059725373546922 -0.44229587798334291 0 -0.4597353119515426 -0.45943449384344293 0 -0.47505511338101108 -0.44868394208069429 0 -0.46517432262153441 -0.43649963461163338 0 -0.45059725373546922 -0.44229587798334291 0 -0.4597353119515426 -0.45943449384344293 0 -0.46517432262153441 -0.43649963461163338 0 -0.47505511338101108 -0.44868394208069429 0 -0.47820614292347569 -0.42776699273468149 0 -0.46517432262153441 -0.43649963461163338 0 -0.47505511338101108 -0.44868394208069429 0 -0.47820614292347569 -0.42776699273468149 0 -0.47439485679867832 -0.48072581506667478 0 -0.47505511338101108 -0.44868394208069429 0 -0.5 -0.44765434486020428 0 -0.47439485679867832 -0.48072581506667478 0 -0.4597353119515426 -0.45943449384344293 0 -0.47505511338101108 -0.44868394208069429 0 -0.47505511338101108 -0.44868394208069429 0 -0.5 -0.44765434486020428 0 -0.47820614292347569 -0.42776699273468149 0 -0.5 -0.44765434486020428 0 -0.49656450065014057 -0.42151023988558672 0 -0.47820614292347569 -0.42776699273468149 0 -0.5 -0.44765434486020428 0 -0.49656450065014057 -0.42151023988558672 0 -0.50000000000000089 -0.37904661106745707 0 -0.49656450065014057 -0.42151023988558672 0 -0.48135717246594062 -0.40685004338866881 0 -0.47820614292347569 -0.42776699273468149 0 -0.49656450065014057 -0.42151023988558672 0 -0.48135717246594062 -0.40685004338866881 0 -0.48135717246594062 -0.40685004338866881 0 -0.47820614292347569 -0.42776699273468149 0 -0.48135717246594062 -0.40685004338866881 0 -0.47820614292347569 -0.42776699273468149 0 -0.45738366370351707 -0.41344381697501481 0 -0.49656450065014057 -0.42151023988558672 0 -0.48135717246594062 -0.40685004338866881 0 -0.50000000000000089 -0.37904661106745707 0 -0.50000000000000089 -0.37904661106745707 0 -0.48466894952205442 -0.38486603086372417 0 -0.48717439863114548 -0.36823452950912272 0 -0.48135717246594062 -0.40685004338866881 0 -0.50000000000000089 -0.37904661106745707 0 -0.48466894952205442 -0.38486603086372417 0 -0.48466894952205442 -0.38486603086372417 0 -0.48717439863114548 -0.36823452950912272 0 -0.50000000000000089 -0.37904661106745707 0 -0.48466894952205442 -0.38486603086372417 0 -0.48135717246594062 -0.40685004338866881 0 -0.48466894952205442 -0.38486603086372417 0 -0.46593083509403682 -0.39197871725165279 0 -0.48135717246594062 -0.40685004338866881 0 -0.48466894952205442 -0.38486603086372417 0 -0.48135717246594062 -0.40685004338866881 0 -0.46593083509403682 -0.39197871725165279 0 -0.48466894952205442 -0.38486603086372417 0 -0.47195833844942919 -0.37959069520904498 0 -0.46593083509403682 -0.39197871725165279 0 -0.48466894952205442 -0.38486603086372417 0 -0.46593083509403682 -0.39197871725165279 0 -0.48466894952205442 -0.38486603086372417 0 -0.47195833844942919 -0.37959069520904498 0 -0.48717439863114548 -0.36823452950912272 0 -0.46593083509403682 -0.39197871725165279 0 -0.44890944387521442 -0.39029302340116001 0 -0.45132291774153199 -0.37789636588759368 0 -0.47195833844942919 -0.37959069520904498 0 -0.46593083509403682 -0.39197871725165279 0 -0.45132291774153199 -0.37789636588759368 0 -0.46593083509403682 -0.39197871725165279 0 -0.45132291774153199 -0.37789636588759368 0 -0.48135717246594062 -0.40685004338866881 0 -0.46593083509403682 -0.39197871725165279 0 -0.45738366370351707 -0.41344381697501481 0 -0.46593083509403682 -0.39197871725165279 0 -0.44275815558040038 -0.40077469311046232 0 -0.45738366370351707 -0.41344381697501481 0 -0.46593083509403682 -0.39197871725165279 0 -0.44275815558040038 -0.40077469311046232 0 -0.46593083509403682 -0.39197871725165279 0 -0.44275815558040038 -0.40077469311046232 0 -0.44890944387521442 -0.39029302340116001 0 -0.44275815558040038 -0.40077469311046232 0 -0.44064580868350911 -0.39542861624611658 0 -0.44890944387521442 -0.39029302340116001 0 -0.44225344557501872 -0.38376649822575309 0 -0.45132291774153199 -0.37789636588759368 0 -0.43671500038902772 -0.36381401452353412 0 -0.44890944387521442 -0.39029302340116001 0 -0.44225344557501872 -0.38376649822575309 0 -0.45132291774153199 -0.37789636588759368 0 -0.44064580868350911 -0.39542861624611658 0 -0.44225344557501872 -0.38376649822575309 0 -0.43040194378266172 -0.3881600185019185 0 -0.44064580868350911 -0.39542861624611658 0 -0.44890944387521442 -0.39029302340116001 0 -0.44225344557501872 -0.38376649822575309 0 -0.47820614292347569 -0.42776699273468149 0 -0.46517432262153441 -0.43649963461163338 0 -0.45738366370351707 -0.41344381697501481 0 -0.45059725373546922 -0.44229587798334291 0 -0.45738366370351707 -0.41344381697501481 0 -0.45059725373546922 -0.44229587798334291 0 -0.46517432262153441 -0.43649963461163338 0 -0.45738366370351707 -0.41344381697501481 0 -0.44275815558040038 -0.40077469311046232 0 -0.45738366370351707 -0.41344381697501481 0 -0.44164244492799948 -0.42121090558557039 0 -0.45059725373546922 -0.44229587798334291 0 -0.45738366370351707 -0.41344381697501481 0 -0.44164244492799948 -0.42121090558557039 0 -0.45059725373546922 -0.44229587798334291 0 -0.44164244492799948 -0.42121090558557039 0 -0.4339166039271336 -0.43498117536117131 0 -0.4339166039271336 -0.43498117536117131 0 -0.42355654769347711 -0.414558964497861 0 -0.41671115160429401 -0.44095791049380378 0 -0.44164244492799948 -0.42121090558557039 0 -0.4339166039271336 -0.43498117536117131 0 -0.42355654769347711 -0.414558964497861 0 -0.44275815558040038 -0.40077469311046232 0 -0.44164244492799948 -0.42121090558557039 0 -0.42355654769347711 -0.414558964497861 0 -0.42355654769347711 -0.414558964497861 0 -0.41056920252370888 -0.3963363404412637 0 -0.40050668374064252 -0.41734442193795029 0 -0.42355654769347711 -0.414558964497861 0 -0.41671115160429401 -0.44095791049380378 0 -0.42355654769347711 -0.414558964497861 0 -0.40050668374064252 -0.41734442193795029 0 -0.41671115160429401 -0.44095791049380378 0 -0.44225344557501872 -0.38376649822575309 0 -0.43040194378266172 -0.3881600185019185 0 -0.43671500038902772 -0.36381401452353412 0 -0.43040194378266172 -0.3881600185019185 0 -0.43671500038902772 -0.36381401452353412 0 -0.44064580868350911 -0.39542861624611658 0 -0.42355654769347711 -0.414558964497861 0 -0.43040194378266172 -0.3881600185019185 0 -0.42355654769347711 -0.414558964497861 0 -0.43040194378266172 -0.3881600185019185 0 -0.44275815558040038 -0.40077469311046232 0 -0.44064580868350911 -0.39542861624611658 0 -0.42355654769347711 -0.414558964497861 0 -0.44064580868350911 -0.39542861624611658 0 -0.43040194378266172 -0.3881600185019185 0 -0.42355654769347711 -0.414558964497861 0 -0.43040194378266172 -0.3881600185019185 0 -0.41056920252370888 -0.3963363404412637 0 -0.43040194378266172 -0.3881600185019185 0 -0.4079689369259607 -0.37224253963894771 0 -0.43040194378266172 -0.3881600185019185 0 -0.41056920252370888 -0.3963363404412637 0 -0.4079689369259607 -0.37224253963894771 0 -0.41056920252370888 -0.3963363404412637 0 -0.39195929229331972 -0.37982250283040359 0 -0.4079689369259607 -0.37224253963894771 0 -0.41056920252370888 -0.3963363404412637 0 -0.39195929229331972 -0.37982250283040359 0 -0.39357845321732049 -0.39746174547711199 0 -0.41056920252370888 -0.3963363404412637 0 -0.39357845321732049 -0.39746174547711199 0 -0.40050668374064252 -0.41734442193795029 0 -0.39357845321732049 -0.39746174547711199 0 -0.38114412328536468 -0.40833987260765031 0 -0.36544727141479139 -0.39026932065168712 0 -0.39195929229331972 -0.37982250283040359 0 -0.37549160074202448 -0.3732971907138336 0 -0.36544727141479139 -0.39026932065168712 0 -0.39195929229331972 -0.37982250283040359 0 -0.39357845321732049 -0.39746174547711199 0 -0.36544727141479139 -0.39026932065168712 0 -0.40050668374064252 -0.41734442193795029 0 -0.3944977858259317 -0.43926335073686201 0 -0.41671115160429401 -0.44095791049380378 0 -0.40050668374064252 -0.41734442193795029 0 -0.38028594703985957 -0.42392304976487449 0 -0.3944977858259317 -0.43926335073686201 0 -0.39357845321732049 -0.39746174547711199 0 -0.40050668374064252 -0.41734442193795029 0 -0.38114412328536468 -0.40833987260765031 0 -0.40050668374064252 -0.41734442193795029 0 -0.38114412328536468 -0.40833987260765031 0 -0.38028594703985957 -0.42392304976487449 0 -0.38114412328536468 -0.40833987260765031 0 -0.38028594703985957 -0.42392304976487449 0 -0.36590226101420908 -0.41270082520662749 0 -0.38028594703985957 -0.42392304976487449 0 -0.3944977858259317 -0.43926335073686201 0 -0.3723601590800425 -0.44005613486137668 0 -0.3944977858259317 -0.43926335073686201 0 -0.38265619596279349 -0.45813348326120767 0 -0.3723601590800425 -0.44005613486137668 0 -0.40093272222703252 -0.45142790024540502 0 -0.3944977858
[...]
<PointData Scalars="" Vectors="displacement," Tensors="">
<DataArray type="Float64" Name="displacement" NumberOfComponents="3" format="ascii">
-0.014998839988638869 -4.7918353306080043e-07 0 -0.014564097713596343 -7.1335618884430527e-05 0 -0.014999584637177295 7.3421259633495611e-09 0 -0.014998839988638869 -4.7918353306080043e-07 0 -0.014564097713596343 -7.1335618884430527e-05 0 -0.013113442707285566 8.5932009587422156e-07 0 -0.014564097713596343 -7.1335618884430527e-05 0 -0.014316727653527497 7.6202301506054547e-06 0 -0.013113442707285566 8.5932009587422156e-07 0 -0.014564097713596343 -7.1335618884430527e-05 0 -0.014316727653527497 7.6202301506054547e-06 0 -0.014633145426946787 -1.2354248339507941e-05 0 -0.014316727653527497 7.6202301506054547e-06 0 -0.014463331500183751 0.00023804253838622492 0 -0.014633145426946787 -1.2354248339507941e-05 0 -0.014316727653527497 7.6202301506054547e-06 0 -0.014463331500183751 0.00023804253838622492 0 -0.013113442707285566 8.5932009587422156e-07 0 -0.013669199694868427 5.8483025392871564e-05 0 -0.013110968306844866 4.067457665207356e-08 0 -0.013432508386113366 -0.00024472827328768772 0 -0.013566583377685321 5.3156261987801974e-05 0 -0.013181776714447554 5.1259312137509191e-05 0 -0.014463331500183751 0.00023804253838622492 0 -0.014645910446733431 -9.7610060989531617e-05 0 -0.014633145426946787 -1.2354248339507941e-05 0 -0.012854786773709966 -5.3750593950380658e-05 0 -0.013432508386113366 -0.00024472827328768772 0 -0.013181776714447554 5.1259312137509191e-05 0 -0.013669199694868427 5.8483025392871564e-05 0 -0.014014729264238114 -0.00014693556829687706 0 -0.014633145426946787 -1.2354248339507941e-05 0 -0.014770098118308496 4.4645307087560686e-05 0 -0.014566698646817287 -1.1819167613195567e-05 0 -0.014645910446733431 -9.7610060989531617e-05 0 -0.014633145426946787 -1.2354248339507941e-05 0 -0.014566698646817287 -1.1819167613195567e-05 0 -0.014770098118308496 4.4645307087560686e-05 0 -0.014384943474928292 0.00018611380324315519 0 -0.014566698646817287 -1.1819167613195567e-05 0 -0.014768522605084836 5.8010225908338086e-05 0 -0.014645540347366788 0.00010542870467789397 0 -0.014564097713596343 -7.1335618884430527e-05 0 -0.014770098118308496 4.4645307087560686e-05 0 -0.014999584637177295 7.3421259633495611e-09 0 -0.014564097713596343 -7.1335618884430527e-05 0 -0.014633145426946787 -1.2354248339507941e-05 0 -0.014770098118308496 4.4645307087560686e-05 0 -0.014770098118308496 4.4645307087560686e-05 0 -0.014999584637177295 7.3421259633495611e-09 0 -0.014960734913217774 3.0286863727247244e-05 0 -0.014999584637177295 7.3421259633495611e-09 0 -0.014997165890424075 1.229604451384917e-06 0 -0.014960734913217774 3.0286863727247244e-05 0 -0.014999584637177295 7.3421259633495611e-09 0 -0.014997165890424075 1.229604451384917e-06 0 -0.015000174197304846 2.9943382836977736e-09 0 -0.014997165890424075 1.229604451384917e-06 0 -0.015007457951204079 2.6313238231904636e-05 0 -0.014960734913217774 3.0286863727247244e-05 0 -0.015087914063687573 5.2503701951930639e-05 0 -0.014639243984749244 2.76778116869154e-06 0 -0.014639243984749244 2.76778116869154e-06 0 -0.014645540347366788 0.00010542870467789397 0 -0.01402682050992818 0.00016486999302971846 0 -0.014384943474928292 0.00018611380324315519 0 -0.014050654363183783 -0.00016673624007454248 0 -0.014997165890424075 1.229604451384917e-06 0 -0.014996660850296748 1.5123638775308254e-06 0 -0.015000174197304846 2.9943382836977736e-09 0 -0.015000009857667831 -6.2826706215359921e-09 0 -0.015002163657909399 -4.8871070930097633e-06 0 -0.014999413979381929 -4.9890692660883289e-06 0 -0.014996660850296748 1.5123638775308254e-06 0 -0.015000174197304846 2.9943382836977736e-09 0 -0.014998770789475429 1.0678774952871039e-06 0 -0.014950173717986275 -4.491987724632309e-05 0 -0.015016632511736428 -8.7826915811353496e-06 0 -0.014999990352315116 1.4192229625462165e-08 0 -0.014950173717986275 -4.491987724632309e-05 0 -0.014621029413991592 -5.0387801647942781e-05 0 -0.014692299048014718 -6.1309866227210382e-05 0 -0.014667572378913449 -1.6087642924762886e-06 0 -0.014639243984749244 2.76778116869154e-06 0 -0.014950173717986275 -4.491987724632309e-05 0 -0.014639243984749244 2.76778116869154e-06 0 -0.014380008666012224 -6.3995881164444335e-05 0 -0.015014265396985912 -9.3565171631013414e-06 0 -0.015009271346927328 -2.2329282782221246e-05 0 -0.015019835768750454 -2.9334828495406575e-05 0 -0.014950173717986275 -4.491987724632309e-05 0 -0.014380008666012224 -6.3995881164444335e-05 0 -0.015014265396985912 -9.3565171631013414e-06 0 -0.015009271346927328 -2.2329282782221246e-05 0 -0.014999413979381929 -4.9890692660883289e-06 0 -0.014089922253299934 -0.00015568165222175972 0 -0.014090344514423682 -0.00010323629533387224 0 -0.014122584570606399 -0.00010744406377705308 0 -0.015009271346927328 -2.2329282782221246e-05 0 -0.015019835768750454 -2.9334828495406575e-05 0 -0.015007427471198969 -4.7485322219673148e-05 0 -0.014380008666012224 -6.3995881164444335e-05 0 -0.014637335372524426 -1.780271058394393e-05 0 -0.01402682050992818 0.00016486999302971846 0 -0.013920983537093812 -6.1355739430269643e-05 0 -0.014050654363183783 -0.00016673624007454248 0 -0.013920983537093812 -6.1355739430269643e-05 0 -0.014039528867503828 -8.8970455302194638e-05 0 -0.014050654363183783 -0.00016673624007454248 0 -0.014380008666012224 -6.3995881164444335e-05 0 -0.013945626817818513 -7.5103283814580157e-05 0 -0.014089922253299934 -0.00015568165222175972 0 -0.014039528867503828 -8.8970455302194638e-05 0 -0.014090344514423682 -0.00010323629533387224 0 -0.014039528867503828 -8.8970455302194638e-05 0 -0.014082413607775538 -7.0106201440620934e-05 0 -0.014090344514423682 -0.00010323629533387224 0 -0.014105080338943931 -8.3623550851019864e-05 0 -0.014122584570606399 -0.00010744406377705308 0 -0.014149370191657374 -7.45585098627841e-05 0 -0.014090344514423682 -0.00010323629533387224 0 -0.014105080338943931 -8.3623550851019864e-05 0 -0.014122584570606399 -0.00010744406377705308 0 -0.014082413607775538 -7.0106201440620934e-05 0 -0.014105080338943931 -8.3623550851019864e-05 0 -0.014089969113820792 -5.8825125857542101e-05 0 -0.014082413607775538 -7.0106201440620934e-05 0 -0.014090344514423682 -0.00010323629533387224 0 -0.014105080338943931 -8.3623550851019864e-05 0 -0.014384943474928292 0.00018611380324315519 0 -0.014566698646817287 -1.1819167613195567e-05 0 -0.014050654363183783 -0.00016673624007454248 0 -0.014014729264238114 -0.00014693556829687706 0 -0.014036538069689077 -0.00016965096623330572 0 -0.014645910446733431 -9.7610060989531617e-05 0 -0.014566698646817287 -1.1819167613195567e-05 0 -0.014050654363183783 -0.00016673624007454248 0 -0.014039528867503828 -8.8970455302194638e-05 0 -0.014050654363183783 -0.00016673624007454248 0 -0.013842755466080532 -4.5825166232175285e-05 0 -0.013432508386113366 -0.00024472827328768772 0 -0.014050654363183783 -0.00016673624007454248 0 -0.013842755466080532 -4.5825166232175285e-05 0 -0.013432508386113366 -0.00024472827328768772 0 -0.013842755466080532 -4.5825166232175285e-05 0 -0.013566583377685321 5.3156261987801974e-05 0 -0.013566583377685321 5.3156261987801974e-05 0 -0.013892225665293906 0.00017727207147083415 0 -0.013434065000620785 0.00033524686143145246 0 -0.013842755466080532 -4.5825166232175285e-05 0 -0.013566583377685321 5.3156261987801974e-05 0 -0.013892225665293906 0.00017727207147083415 0 -0.014039528867503828 -8.8970455302194638e-05 0 -0.013842755466080532 -4.5825166232175285e-05 0 -0.013892225665293906 0.00017727207147083415 0 -0.0098206599473856012 -0.00091168240915807507 0 -0.0099425299811222532 -0.00082619818737773225 0 -0.0097796187975258322 -0.00075178845128445564 0 -0.011778869824476491 -0.00032852147025482902 0 -0.01150627278863409 -0.00028653350409165899 0 -0.0098206599473856012 -0.00091168240915807507 0 -0.0097796187975258322 -0.00075178845128445564 0 -0.0096332842896846762 -0.00084794145960988504 0 -0.014105080338943931 -8.3623550851019864e-05 0 -0.014089969113820792 -5.8825125857542101e-05 0 -0.014149370191657374 -7.45585098627841e-05 0 -0.012437937595152469 -0.00066572323121483136 0 -0.014245906002571194 -0.00032312989510639874 0 -0.014082413607775538 -7.0106201440620934e-05 0 -0.013892225665293906 0.00017727207147083415 0 -0.014154800179408962 4.5102408535378645e-05 0 -0.011778869824476491 -0.00032852147025482902 0 -0.012437937595152469 -0.00066572323121483136 0 -0.014039528867503828 -8.8970455302194638e-05 0 -0.014082413607775538 -7.0106201440620934e-05 0 -0.013892225665293906 0.00017727207147083415 0 -0.014087036045155349 0.00033607649846242166 0 -0.012437937595152469 -0.00066572323121483136 0 -0.0098206599473856012 -0.00091168240915807507 0 -0.010019084120819505 -0.00096324549887273592 0 -0.0099425299811222532 -0.00082619818737773225 0 -0.012437937595152469 -0.00066572323121483136 0 -0.011312129993542891 -0.00072268839394261874 0 -0.010019084120819505 -0.00096324549887273592 0 -0.0099425299811222532 -0.00082619818737773225 0 -0.010116355535750392 -0.0008110830016720595 0 -0.0099425299811222532 -0.00082619818737773225 0 -0.010051176271341902 -0.00070114808436212846 0 -0.010116355535750392 -0.0008110830016720595 0 -0.0099425299811222532 -0.00082619818737773225 0 -0.010051176271341902 -0.00070114808436212846 0 -0.0099190296077389072 -0.00071130500298698996 0 -0.0099425299811222532 -0.00082619818737773225 0 -0.0099190296077389072 -0.00071130500298698996 0 -0.0097796187975258322 -0.00075178845128445564 0 -0.0099190296077389072 -0.00071130500298698996 0 -0.0098234655255971543 -0.00062859689637950701 0 -0.009951822326761256 -0.00053317515943034056 0 -0.010051176271341902 -0.00070114808436212846 0 -0.010095920515790124 -0.0005867620400168967 0 -0.009951822326761256 -0.00053317515943034056 0 -0.010051176271341902 -0.00070114808436212846 0 -0.0099190296077389072 -0.00071130500298698996 0 -0.009951822326761256 -0.00053317515943034056 0 -0.0097796187975258322 -0.00075178845128445564 0 -0.0096265828384947891 -0.00070360963843364049 0 -0.0096332842896846762 -0.00084794145960988504 0 -0.0097796187975258322 -0.00075178845128445564 0 -0.0097095234865890289 -0.00061582171817333971 0 -0.0096265828384947891 -0.00070360963843364049 0 -0.0099190296077389072 -0.00071130500298698996 0 -0.0097796187975258322 -0.00075178845128445564 0 -0.0098234655255971543 -0.00062859689637950701 0 -0.0097796187975258322 -0.00075178845128445564 0 -0.0098234655255971543 -0.00062859689637950701 0 -0.0097095234865890289 -0.00061582171817333971 0 -0.0098234655255971543 -0.00062859689637950701 0 -0.0097095234865890289 -0.00061582171817333971 0 -0.009767301441352778 -0.00052760000001627857 0 -0.0097095234865890289 -0.00061582171817333971 0 -0.0096265828384947891 -0.00070360963843364049 0 -0.0095973053299948704 -0.00055454139736437478 0 -0.0096265828384947891 -0.00070360963843364049 0 -0.0095022614620149364 -0.000624247128277479 0 -0.0095973053299948704 -0.00055454139736437478 0 -0.0095595600840269555 -0.00074117985805517901 0 -0.0096265828384947891 -0.00070360963843364049 0 -0.0095022614620149364 -0.000624247128277479 0 -0.0095595600840269555 -0.00074117985805517901 0 -0.0096265828384947891 -0.00070360963843364049 0 -0.0096332842896846762 -0.00084794145960988504 0 -0.0095142076298800702 -0.00037879240759273466 0 -0.011424794348660445 3.3807258242752489e-05 0 -0.0099978959872635883 -2.4565754823447395e-05 0 -0.010582757507857544 0.00027922264578345528 0 -0.010405262436999267 0.00079293064970041799 0 -0.0095595600840269555 -0.00074117985805517901 0 -0.0095022614620149364 -0.000624247128277479 0 -0.0094782278634512346 -0.00078949809979845587 0 -0.0099978959872635883 -2.4565754823447395e-05 0 -0.010479034905826268 -3.689343507746225e-06 0 -0.010582757507857544 0.00027922264578345528 0 -0.010479034905826268 -3.689343507746225e-06 0 -0.011073712929142367 4.0837233439926354e-05 0 -0.010626611012279375 -7.6355127538276811e-05 0 -0.010479034905826268 -3.689343507746225e-06 0 -0.011073712929142367 4.0837233439926354e-05 0 -0.010582757507857544 0.00027922264578345528 0 -0.011249981730357607 -5.5112197636743304e-07 0 -0.011073712929142367 4.0837233439926354e-05 0 -0.012040602889849098 1.5974778609567628e-06 0 -0.011249981730357607 -5.5112197636743304e-07 0 -0.011073712929142367 4.0837233439926354e-05 0 -0.010626611012279375 -7.6355127538276811e-05 0 -0.011073712929142367 4.0837233439926354e-05 0 -0.012040602889849098 1.5974778609567628e-06 0 -0.011023860997688449 0.0006126395946347079 0 -0.012041958835914518 1.8381849904667286e-07 0 -0.011828325250027071 0.00028316121943789281 0 -0.011023860997688449 0.0006126395946347079 0 -0.010582757507857544 0.00027922264578345528 0 -0.010405262436999267 0.00079293064970041799 0 -0.011073712929142367 4.0837233439926354e-05 0 -0.011023860997688449 0.0006126395946347079 0 -0.010582757507857544 0.00027922264578345528 0 -0.011828325250027071 0.00028316121943789281 0 -0.011424794348660445 3.3807258242752489e-05 0 -0.01295480473965843 0.00023897009973495762 0 -0.011424794348660445 3.3807258242752489e-05 0 -0.012758459982514667 -1.8628253508809443e-05 0 -0.012803127853765688 2.3414115892632621e-05 0 -0.012759805380348852 2.2149748079843606e-05 0 -0.012651620803228129 4.7892435447758954e-05 0 -0.012758459982514667 -1.8628253508809443e-05 0 -0.012759805380348852 2.2149748079843606e-05 0 -0.012651620803228129 4.7892435447758954e-05 0 -0.012758459982514667 -1.8628253508809443e-05 0 -0.0125765846901399 -3.0032054703551334e-07 0 -0.012042967002567172 5.7143154329874758e-07 0 -0.012651620803228129 4.7892435447758954e-05 0 -0.0125765846901399 -3.0032054703551334e-07 0 -0.012758459982514667 -1.8628253508809443e-05 0 -0.0125765846901399 -3.0032054703551334e-07 0 -0.013109508407456815 9.5561532293264408e-08 0 -0.012758459982514667 -1.8628253508809443e-05 0 -0.013109508407456815 9.5561532293264408e-08 0 -0.012803127853765688 2.3414115892632621e-05 0 -0.012854786773709966 -5.3750593950380658e-05 0 -0.013109508407456815 9.5561532293264408e-08 0 -0.012803127853765688 2.3414115892632621e-05 0 -0.012803127853765688 2.3414115892632621e-05 0 -0.013085760160522713 0.00021441052709809307 0 -0.013181776714447554 5.1259312137509191e-05 0 -0.012854786773709966 -5.3750593950380658e-05 0 -0.012803127853765688 2.3414115892632621e-05 0 -0.013181776714447554 5.1259312137509191e-05 0 -0.013566583377685321 5.3156261987801974e-05 0 -0.013181776714447554 5.1259312137509191e-05 0 -0.013434065000620785 0.00033524686143145246 0 -0.013085760160522713 0.00021441052709809307 0 -0.013181776714447554 5.1259312137509191e-05 0 -0.013434065000620785 0.00033524686143145246 0 -0.013085760160522713 0.00021441052709809307 0 -0.013434065000620785 0.00033524686143145246 0 -0.012906557445560171 0.00045191436463317173 0 -0.01150627278863409 -0.00028653350409165899 0 -0.011424794348660445 3.3807258242752489e-05 0 -0.0095595600840269555 -0.00074117985805517901 0 -0.0096332842896846762 -0.00084794145960988504 0 -0.0094782278634512346 -0.00078949809979845587 0 -0.012803127853765688 2.3414115892632621e-05 0 -0.013085760160522713 0.00021441052709809307 0 -0.012906557445560171 0.00045191436463317173 0 -0.014877351544556586 5.9579546121854553e-05 0 -0.014894232801155382 0.00015039885984248074 0 -0.01494094894938116 6.7291115612451256e-05 0 -0.01480332302812 0.00013521748713082548 0 -0.014877351544556586 5.9579546121854553e-05 0 -0.014894232801155382 0.00015039885984248074 0 -0.014971996145472875 6.506447296772717e-05 0 -0.014967467085678849 2.2942412161838111e-05 0 -0.014996413650949418 2.00731206719559e-05 0 -0.014876789902188142 0.00010440947307740949 0 -0.0149378334816398 4.0453145247924223e-05 0 -0.014967467085678849 2.2942412161838111e-05 0 -0.014990595540169297 9.768776989175422e-07 0 -0.014961844649336547 4.8317411171620508e-06 0 -0.014967467085678849 2.2942412161838111e-05 0 -0.014996413650949418 2.00731206719559e-05 0 -0.014990595540169297 9.768776989175422e-07 0 -0.0149378334816398 4.0453145247924223e-05 0 -0.014973684041562645 7.4419007241591053e-06 0 -0.014996413650949418 2.00731206719559e-05 0 -0.014990595540169297 9.768776989175422e-07 0 -0.015002337793393411 2.6725904117642877e-06 0 -0.014997529416966145 -2.79401874653682e-07 0 -0.014990595540169297 9.768776989175422e-07 0 -0.015002337793393411 2.6725904117642877e-06 0 -0.014997529416966145 -2.79401874653682e-07 0 -0.015000000054680428 5.128446295036595e-09 0 -0.014999981054088046 -7.9293655080323639e-09 0 -0.014997529416966145 -2.79401874653682e-07 0 -0.015000000054680428 5.128446295036595e-09 0 -0.014999949390529503 1.5727214679052866e-07 0 -0.014997529416966145 -2.79401874653682e-07 0 -0.014999981054088046 -7.9293655080323639e-09 0 -0.014990595540169297 9.768776989175422e-07 0 -0.014999981054088046 -7.9293655080323639e-09 0 -0.014990595540169297 9.768776989175422e-07 0 -0.014983263285568612 -2.2842042727147877e-06 0 -0.014990595540169297 9.768776989175422e-07 0 -0.014961844649336547 4.8317411171620508e-06 0 -0.014983263285568612 -2.2842042727147877e-06 0 -0.014961844649336547 4.8317411171620508e-06 0 -0.014983263285568612 -2.2842042727147877e-06 0 -0.014964092245672597 -3.2298475237160818e-06 0 -0.014999981054088046 -7.9293655080323639e-09 0 -0.014983263285568612 -2.2842042727147877e-06 0 -0.014999950767649534 -5.6012578223890746e-09 0 -0.014983263285568612 -2.2842042727147877e-06 0 -0.014999950767649534 -5.6012578223890746e-09 0 -0.014964092245672597 -3.2298475237160818e-06 0 -0.014999950767649534 -5.6012578223890746e-09 0 -0.014964092245672597 -3.2298475237160818e-06 0 -0.014999946606510529 3.5474818291086425e-09 0 -0.014961844649336547 4.8317411171620508e-06 0 -0.014964092245672597 -3.2298475237160818e-06 0 -0.014914638345648729 1.8325007432552463e-05 0 -0.014964092245672597 -3.2298475237160818e-06 0 -0.014914638345648729 1.8325007432552463e-05 0 -0.014948752547740573 -6.6703931115379547e-06 0 -0.014967467085678849 2.2942412161838111e-05 0 -0.014961844649336547 4.8317411171620508e-06 0 -0.014914638345648729 1.8325007432552463e-05 0 -0.014967467085678849 2.2942412161838111e-05 0 -0.014914638345648729 1.8325007432552463e-05 0 -0.014899005252851715 5.9883554660786921e-05 0 -0.014971996145472875 6.506447296772717e-05 0 -0.014967467085678849 2.2942412161838111e-05 0 -0.014899005252851715 5.9883554660786921e-05 0 -0.014914638345648729 1.8325007432552463e-05 0 -0.014899005252851715 5.9883554660786921e-05 0 -0.014839948554552193 6.63448849377258e-05 0 -0.014839948554552193 6.63448849377258e-05 0 -0.014855733790763626 3.6351978394120785e-05 0 -0.014793366268234815 0.00010199227163338592 0 -0.014914638345648729 1.8325007432552463e-05 0 -0.014839948554552193 6.63448849377258e-05 0 -0.014855733790763626 3.6351978394120785e-05 0 -0.014897418376446475 -2.2212520799024553e-06 0 -0.014869744110586411 8.2654199067087215e-06 0 -0.014935766999987098 -4.8161510366254129e-05 0 -0.014953999794555112 -6.5365607473364128e-05 0 -0.014963489925192846 -3.3400042477905794e-05 0 -0.014953999794555112 -6.5365607473364128e-05 0 -0.014963489925192846 -3.3400042477905794e-05 0 -0.014973093904884488 -4.984512332912726e-05 0 -0.014935766999987098 -4.8161510366254129e-05 0 -0.014953999794555112 -6.5365607473364128e-05 0 -0.014925319032603785 -8.9849649764704687e-05 0 -0.014914638345648729 1.8325007432552463e-05 0 -0.014855733790763626 3.6351978394120785e-05 0 -0.014948752547740573 -6.6703931115379547e-06 0 -0.014935766999987098 -4.8161510366254129e-05 0 -0.014963489925192846 -3.3400042477905794e-05 0 -0.014948752547740573 -6.6703931115379547e-06 0 -0.014897418376446475 -2.2212520799024553e-06 0 -0.014937434357191222 -2.8036881164499079e-06 0 -0.014964092245672597 -3.2298475237160818e-06 0 -0.014948752547740573 -6.6703931115379547e-06 0 -0.014999946606510529 3.5474818291086425e-09 0 -0.014948752547740573 -6.6703931115379547e-06 0 -0.014999946606510529 3.5474818291086425e-09 0 -0.014981495610340271 -6.6696254904793626e-06 0 -0.014999946606510529 3.5474818291086425e-09 0 -0.014981495610340271 -6.6696254904793626e-06 0 -0.014999990287774668 -1.4634325877574413e-09 0 -0.014963489925192846 -3.3400042477905794e-05 0 -0.014981