<?xml version="1.0"?>
<VTKFile type="UnstructuredGrid" version="0.1" byte_order="LittleEndian">
<UnstructuredGrid>
<Piece NumberOfPoints="30578" NumberOfCells="10723">
<Points>
<DataArray type="Float64" NumberOfComponents="3" format="ascii">
-0.5 -0.5 0 -0.47439485679867832 -0.48072581506667478 0 -0.5 -0.44765434486020428 0 -0.5 -0.5 0 -0.47439485679867832 -0.48072581506667478 0 -0.43702443379937372 -0.49999999999999922 0 -0.47439485679867832 -0.48072581506667478 0 -0.45530669598391149 -0.47718009944797551 0 -0.43702443379937372 -0.49999999999999922 0 -0.47439485679867832 -0.48072581506667478 0 -0.45530669598391149 -0.47718009944797551 0 -0.4597353119515426 -0.45943449384344293 0 -0.45530669598391149 -0.47718009944797551 0 -0.44381084376742141 -0.47114793899167112 0 -0.4597353119515426 -0.45943449384344293 0 -0.45530669598391149 -0.47718009944797551 0 -0.44381084376742141 -0.47114793899167112 0 -0.43702443379937372 -0.49999999999999922 0 -0.44381084376742141 -0.47114793899167112 0 -0.43702443379937372 -0.49999999999999922 0 -0.45059725373546922 -0.44229587798334291 0 -0.4339166039271336 -0.43498117536117131 0 -0.43309128002320102 -0.45351235807576151 0 -0.44381084376742141 -0.47114793899167112 0 -0.45059725373546922 -0.44229587798334291 0 -0.4597353119515426 -0.45943449384344293 0 -0.44381084376742141 -0.47114793899167112 0 -0.45059725373546922 -0.44229587798334291 0 -0.43309128002320102 -0.45351235807576151 0 -0.44381084376742141 -0.47114793899167112 0 -0.45059725373546922 -0.44229587798334291 0 -0.4597353119515426 -0.45943449384344293 0 -0.47505511338101108 -0.44868394208069429 0 -0.46517432262153441 -0.43649963461163338 0 -0.45059725373546922 -0.44229587798334291 0 -0.4597353119515426 -0.45943449384344293 0 -0.46517432262153441 -0.43649963461163338 0 -0.47505511338101108 -0.44868394208069429 0 -0.47820614292347569 -0.42776699273468149 0 -0.46517432262153441 -0.43649963461163338 0 -0.47505511338101108 -0.44868394208069429 0 -0.47820614292347569 -0.42776699273468149 0 -0.47439485679867832 -0.48072581506667478 0 -0.47505511338101108 -0.44868394208069429 0 -0.5 -0.44765434486020428 0 -0.47439485679867832 -0.48072581506667478 0 -0.4597353119515426 -0.45943449384344293 0 -0.47505511338101108 -0.44868394208069429 0 -0.47505511338101108 -0.44868394208069429 0 -0.5 -0.44765434486020428 0 -0.47820614292347569 -0.42776699273468149 0 -0.5 -0.44765434486020428 0 -0.49656450065014057 -0.42151023988558672 0 -0.47820614292347569 -0.42776699273468149 0 -0.5 -0.44765434486020428 0 -0.49656450065014057 -0.42151023988558672 0 -0.50000000000000089 -0.37904661106745707 0 -0.49656450065014057 -0.42151023988558672 0 -0.48135717246594062 -0.40685004338866881 0 -0.47820614292347569 -0.42776699273468149 0 -0.49656450065014057 -0.42151023988558672 0 -0.48135717246594062 -0.40685004338866881 0 -0.48135717246594062 -0.40685004338866881 0 -0.47820614292347569 -0.42776699273468149 0 -0.48135717246594062 -0.40685004338866881 0 -0.47820614292347569 -0.42776699273468149 0 -0.45738366370351707 -0.41344381697501481 0 -0.49656450065014057 -0.42151023988558672 0 -0.48135717246594062 -0.40685004338866881 0 -0.50000000000000089 -0.37904661106745707 0 -0.50000000000000089 -0.37904661106745707 0 -0.48466894952205442 -0.38486603086372417 0 -0.48717439863114548 -0.36823452950912272 0 -0.48135717246594062 -0.40685004338866881 0 -0.50000000000000089 -0.37904661106745707 0 -0.48466894952205442 -0.38486603086372417 0 -0.48466894952205442 -0.38486603086372417 0 -0.48717439863114548 -0.36823452950912272 0 -0.50000000000000089 -0.37904661106745707 0 -0.48466894952205442 -0.38486603086372417 0 -0.48135717246594062 -0.40685004338866881 0 -0.48466894952205442 -0.38486603086372417 0 -0.46593083509403682 -0.39197871725165279 0 -0.48135717246594062 -0.40685004338866881 0 -0.48466894952205442 -0.38486603086372417 0 -0.48135717246594062 -0.40685004338866881 0 -0.46593083509403682 -0.39197871725165279 0 -0.48466894952205442 -0.38486603086372417 0 -0.47195833844942919 -0.37959069520904498 0 -0.46593083509403682 -0.39197871725165279 0 -0.48466894952205442 -0.38486603086372417 0 -0.46593083509403682 -0.39197871725165279 0 -0.48466894952205442 -0.38486603086372417 0 -0.47195833844942919 -0.37959069520904498 0 -0.48717439863114548 -0.36823452950912272 0 -0.46593083509403682 -0.39197871725165279 0 -0.44890944387521442 -0.39029302340116001 0 -0.45132291774153199 -0.37789636588759368 0 -0.47195833844942919 -0.37959069520904498 0 -0.46593083509403682 -0.39197871725165279 0 -0.45132291774153199 -0.37789636588759368 0 -0.46593083509403682 -0.39197871725165279 0 -0.45132291774153199 -0.37789636588759368 0 -0.48135717246594062 -0.40685004338866881 0 -0.46593083509403682 -0.39197871725165279 0 -0.45738366370351707 -0.41344381697501481 0 -0.46593083509403682 -0.39197871725165279 0 -0.44275815558040038 -0.40077469311046232 0 -0.45738366370351707 -0.41344381697501481 0 -0.46593083509403682 -0.39197871725165279 0 -0.44275815558040038 -0.40077469311046232 0 -0.46593083509403682 -0.39197871725165279 0 -0.44275815558040038 -0.40077469311046232 0 -0.44890944387521442 -0.39029302340116001 0 -0.44275815558040038 -0.40077469311046232 0 -0.44064580868350911 -0.39542861624611658 0 -0.44890944387521442 -0.39029302340116001 0 -0.44225344557501872 -0.38376649822575309 0 -0.45132291774153199 -0.37789636588759368 0 -0.43671500038902772 -0.36381401452353412 0 -0.44890944387521442 -0.39029302340116001 0 -0.44225344557501872 -0.38376649822575309 0 -0.45132291774153199 -0.37789636588759368 0 -0.44064580868350911 -0.39542861624611658 0 -0.44225344557501872 -0.38376649822575309 0 -0.43040194378266172 -0.3881600185019185 0 -0.44064580868350911 -0.39542861624611658 0 -0.44890944387521442 -0.39029302340116001 0 -0.44225344557501872 -0.38376649822575309 0 -0.47820614292347569 -0.42776699273468149 0 -0.46517432262153441 -0.43649963461163338 0 -0.45738366370351707 -0.41344381697501481 0 -0.45059725373546922 -0.44229587798334291 0 -0.45738366370351707 -0.41344381697501481 0 -0.45059725373546922 -0.44229587798334291 0 -0.46517432262153441 -0.43649963461163338 0 -0.45738366370351707 -0.41344381697501481 0 -0.44275815558040038 -0.40077469311046232 0 -0.45738366370351707 -0.41344381697501481 0 -0.44164244492799948 -0.42121090558557039 0 -0.45059725373546922 -0.44229587798334291 0 -0.45738366370351707 -0.41344381697501481 0 -0.44164244492799948 -0.42121090558557039 0 -0.45059725373546922 -0.44229587798334291 0 -0.44164244492799948 -0.42121090558557039 0 -0.4339166039271336 -0.43498117536117131 0 -0.4339166039271336 -0.43498117536117131 0 -0.42355654769347711 -0.414558964497861 0 -0.41671115160429401 -0.44095791049380378 0 -0.44164244492799948 -0.42121090558557039 0 -0.4339166039271336 -0.43498117536117131 0 -0.42355654769347711 -0.414558964497861 0 -0.44275815558040038 -0.40077469311046232 0 -0.44164244492799948 -0.42121090558557039 0 -0.42355654769347711 -0.414558964497861 0 -0.42355654769347711 -0.414558964497861 0 -0.41056920252370888 -0.3963363404412637 0 -0.40050668374064252 -0.41734442193795029 0 -0.42355654769347711 -0.414558964497861 0 -0.41671115160429401 -0.44095791049380378 0 -0.42355654769347711 -0.414558964497861 0 -0.40050668374064252 -0.41734442193795029 0 -0.41671115160429401 -0.44095791049380378 0 -0.44225344557501872 -0.38376649822575309 0 -0.43040194378266172 -0.3881600185019185 0 -0.43671500038902772 -0.36381401452353412 0 -0.43040194378266172 -0.3881600185019185 0 -0.43671500038902772 -0.36381401452353412 0 -0.44064580868350911 -0.39542861624611658 0 -0.42355654769347711 -0.414558964497861 0 -0.43040194378266172 -0.3881600185019185 0 -0.42355654769347711 -0.414558964497861 0 -0.43040194378266172 -0.3881600185019185 0 -0.44275815558040038 -0.40077469311046232 0 -0.44064580868350911 -0.39542861624611658 0 -0.42355654769347711 -0.414558964497861 0 -0.44064580868350911 -0.39542861624611658 0 -0.43040194378266172 -0.3881600185019185 0 -0.42355654769347711 -0.414558964497861 0 -0.43040194378266172 -0.3881600185019185 0 -0.41056920252370888 -0.3963363404412637 0 -0.43040194378266172 -0.3881600185019185 0 -0.4079689369259607 -0.37224253963894771 0 -0.43040194378266172 -0.3881600185019185 0 -0.41056920252370888 -0.3963363404412637 0 -0.4079689369259607 -0.37224253963894771 0 -0.41056920252370888 -0.3963363404412637 0 -0.39195929229331972 -0.37982250283040359 0 -0.4079689369259607 -0.37224253963894771 0 -0.41056920252370888 -0.3963363404412637 0 -0.39195929229331972 -0.37982250283040359 0 -0.39357845321732049 -0.39746174547711199 0 -0.41056920252370888 -0.3963363404412637 0 -0.39357845321732049 -0.39746174547711199 0 -0.40050668374064252 -0.41734442193795029 0 -0.39357845321732049 -0.39746174547711199 0 -0.38114412328536468 -0.40833987260765031 0 -0.36544727141479139 -0.39026932065168712 0 -0.39195929229331972 -0.37982250283040359 0 -0.37549160074202448 -0.3732971907138336 0 -0.36544727141479139 -0.39026932065168712 0 -0.39195929229331972 -0.37982250283040359 0 -0.39357845321732049 -0.39746174547711199 0 -0.36544727141479139 -0.39026932065168712 0 -0.40050668374064252 -0.41734442193795029 0 -0.3944977858259317 -0.43926335073686201 0 -0.41671115160429401 -0.44095791049380378 0 -0.40050668374064252 -0.41734442193795029 0 -0.38028594703985957 -0.42392304976487449 0 -0.3944977858259317 -0.43926335073686201 0 -0.39357845321732049 -0.39746174547711199 0 -0.40050668374064252 -0.41734442193795029 0 -0.38114412328536468 -0.40833987260765031 0 -0.40050668374064252 -0.41734442193795029 0 -0.38114412328536468 -0.40833987260765031 0 -0.38028594703985957 -0.42392304976487449 0 -0.38114412328536468 -0.40833987260765031 0 -0.38028594703985957 -0.42392304976487449 0 -0.36590226101420908 -0.41270082520662749 0 -0.38028594703985957 -0.42392304976487449 0 -0.3944977858259317 -0.43926335073686201 0 -0.3723601590800425 -0.44005613486137668 0 -0.3944977858259317 -0.43926335073686201 0 -0.38265619596279349 -0.45813348326120767 0 -0.3723601590800425 -0.44005613486137668 0 -0.40093272222703252 -0.45142790024540502 0 -0.3944977858
[...]
<PointData Scalars="" Vectors="displacement," Tensors="">
<DataArray type="Float64" Name="displacement" NumberOfComponents="3" format="ascii">
-0.014998953278220673 -0.014998954966788523 0 -0.014689088528983754 -0.014552534362207648 0 -0.013431604601773785 -0.014999053101032063 0 -0.014998953278220673 -0.014998954966788523 0 -0.014689088528983754 -0.014552534362207648 0 -0.014998849506276085 -0.013114040919985109 0 -0.014689088528983754 -0.014552534362207648 0 -0.014688418784074378 -0.014133434734110007 0 -0.014998849506276085 -0.013114040919985109 0 -0.014689088528983754 -0.014552534362207648 0 -0.014688418784074378 -0.014133434734110007 0 -0.014338021643779291 -0.014407715212732644 0 -0.014688418784074378 -0.014133434734110007 0 -0.01459124206376847 -0.014178333564531572 0 -0.014338021643779291 -0.014407715212732644 0 -0.014688418784074378 -0.014133434734110007 0 -0.01459124206376847 -0.014178333564531572 0 -0.014998849506276085 -0.013114040919985109 0 -0.014980957452776099 -0.013665965967524131 0 -0.01499978963945179 -0.013110902618755716 0 -0.015255576181811904 -0.013434582312263597 0 -0.015288209206885662 -0.013410770463539931 0 -0.015346720816449805 -0.013293561846342795 0 -0.01459124206376847 -0.014178333564531572 0 -0.014378181579104796 -0.014255087291608419 0 -0.014338021643779291 -0.014407715212732644 0 -0.015453933959105864 -0.013228690118447298 0 -0.015255576181811904 -0.013434582312263597 0 -0.015346720816449805 -0.013293561846342795 0 -0.014980957452776099 -0.013665965967524131 0 -0.014872696658794014 -0.013851405018677619 0 -0.014338021643779291 -0.014407715212732644 0 -0.013974871766631522 -0.014885587064867582 0 -0.014460447729409772 -0.01448650489303685 0 -0.014378181579104796 -0.014255087291608419 0 -0.014338021643779291 -0.014407715212732644 0 -0.014460447729409772 -0.01448650489303685 0 -0.013974871766631522 -0.014885587064867582 0 -0.014765200482196946 -0.014901973397967004 0 -0.014460447729409772 -0.01448650489303685 0 -0.013881099763851407 -0.014922095366108442 0 -0.014005726516851979 -0.015046807567229953 0 -0.014689088528983754 -0.014552534362207648 0 -0.013974871766631522 -0.014885587064867582 0 -0.013431604601773785 -0.014999053101032063 0 -0.014689088528983754 -0.014552534362207648 0 -0.014338021643779291 -0.014407715212732644 0 -0.013974871766631522 -0.014885587064867582 0 -0.013974871766631522 -0.014885587064867582 0 -0.013431604601773785 -0.014999053101032063 0 -0.013045804465575185 -0.015221927405056603 0 -0.013431604601773785 -0.014999053101032063 0 -0.012681830569906065 -0.015070921709356058 0 -0.013045804465575185 -0.015221927405056603 0 -0.013431604601773785 -0.014999053101032063 0 -0.012681830569906065 -0.015070921709356058 0 -0.011370863979047583 -0.01500025950956191 0 -0.012681830569906065 -0.015070921709356058 0 -0.012644113549436708 -0.015221581365128935 0 -0.013045804465575185 -0.015221927405056603 0 -0.01234665249826547 -0.015334886232255995 0 -0.013563332026881173 -0.015029386855452329 0 -0.013563332026881173 -0.015029386855452329 0 -0.014005726516851979 -0.015046807567229953 0 -0.015530163419030279 -0.014930400540398509 0 -0.014765200482196946 -0.014901973397967004 0 -0.01532142469674825 -0.014002382285132873 0 -0.012681830569906065 -0.015070921709356058 0 -0.012233887819562099 -0.015548528293068211 0 -0.011370863979047583 -0.01500025950956191 0 -0.011371302080076489 -0.014999952751189382 0 -0.011530184955528804 -0.015437380273541195 0 -0.011026327061052964 -0.015353055402986333 0 -0.012233887819562099 -0.015548528293068211 0 -0.011370863979047583 -0.01500025950956191 0 -0.011556979175355794 -0.015457445015384465 0 -0.011814938111353304 -0.015231079855347572 0 -0.010990461723102666 -0.015342492693843572 0 -0.011371498500153466 -0.015000202381682617 0 -0.011814938111353304 -0.015231079855347572 0 -0.013402130238029417 -0.014901459111855116 0 -0.013013766035603459 -0.014844145909347722 0 -0.013145777927259784 -0.015167341544172038 0 -0.013563332026881173 -0.015029386855452329 0 -0.011814938111353304 -0.015231079855347572 0 -0.013563332026881173 -0.015029386855452329 0 -0.014198115672930542 -0.014691321286930117 0 -0.011455428680832724 -0.015406829186608493 0 -0.011315468886845856 -0.015736508676152668 0 -0.011654058485571292 -0.015888807663471199 0 -0.011814938111353304 -0.015231079855347572 0 -0.014198115672930542 -0.014691321286930117 0 -0.011455428680832724 -0.015406829186608493 0 -0.011315468886845856 -0.015736508676152668 0 -0.011026327061052964 -0.015353055402986333 0 -0.015527706183961418 -0.01326185143909 0 -0.015509210659440312 -0.013509917202281421 0 -0.015271965862743766 -0.013462361257844569 0 -0.011315468886845856 -0.015736508676152668 0 -0.011654058485571292 -0.015888807663471199 0 -0.011266842672483903 -0.016276791017507276 0 -0.014198115672930542 -0.014691321286930117 0 -0.013215739978720322 -0.014920438914662399 0 -0.015530163419030279 -0.014930400540398509 0 -0.016007260670373495 -0.014321901449282854 0 -0.01532142469674825 -0.014002382285132873 0 -0.016007260670373495 -0.014321901449282854 0 -0.015634214142054272 -0.013608127053002605 0 -0.01532142469674825 -0.014002382285132873 0 -0.014198115672930542 -0.014691321286930117 0 -0.015953147547167028 -0.013380390306817851 0 -0.015527706183961418 -0.01326185143909 0 -0.015634214142054272 -0.013608127053002605 0 -0.015509210659440312 -0.013509917202281421 0 -0.015634214142054272 -0.013608127053002605 0 -0.015636283327710814 -0.013613716636972277 0 -0.015509210659440312 -0.013509917202281421 0 -0.015386616714938383 -0.01362270245421416 0 -0.015271965862743766 -0.013462361257844569 0 -0.014951228173452857 -0.013752056606757466 0 -0.015509210659440312 -0.013509917202281421 0 -0.015386616714938383 -0.01362270245421416 0 -0.015271965862743766 -0.013462361257844569 0 -0.015636283327710814 -0.013613716636972277 0 -0.015386616714938383 -0.01362270245421416 0 -0.015479565902665469 -0.013863608151765631 0 -0.015636283327710814 -0.013613716636972277 0 -0.015509210659440312 -0.013509917202281421 0 -0.015386616714938383 -0.01362270245421416 0 -0.014765200482196946 -0.014901973397967004 0 -0.014460447729409772 -0.01448650489303685 0 -0.01532142469674825 -0.014002382285132873 0 -0.014872696658794014 -0.013851405018677619 0 -0.01533646196429256 -0.014002094719446061 0 -0.014378181579104796 -0.014255087291608419 0 -0.014460447729409772 -0.01448650489303685 0 -0.01532142469674825 -0.014002382285132873 0 -0.015634214142054272 -0.013608127053002605 0 -0.01532142469674825 -0.014002382285132873 0 -0.015324997258366045 -0.013569531499401145 0 -0.015255576181811904 -0.013434582312263597 0 -0.01532142469674825 -0.014002382285132873 0 -0.015324997258366045 -0.013569531499401145 0 -0.015255576181811904 -0.013434582312263597 0 -0.015324997258366045 -0.013569531499401145 0 -0.015288209206885662 -0.013410770463539931 0 -0.015288209206885662 -0.013410770463539931 0 -0.015422912904027929 -0.013367248528606298 0 -0.015288768623309607 -0.01331191526811485 0 -0.015324997258366045 -0.013569531499401145 0 -0.015288209206885662 -0.013410770463539931 0 -0.015422912904027929 -0.013367248528606298 0 -0.015634214142054272 -0.013608127053002605 0 -0.015324997258366045 -0.013569531499401145 0 -0.015422912904027929 -0.013367248528606298 0 -0.016484764599272703 -0.011259638057530654 0 -0.016686574330146815 -0.011112754239113096 0 -0.016460777020466815 -0.010992315227036911 0 -0.016021801173339931 -0.012280621674082406 0 -0.015741718950112983 -0.012260373274773939 0 -0.016484764599272703 -0.011259638057530654 0 -0.016460777020466815 -0.010992315227036911 0 -0.016202915071955606 -0.011182067556701382 0 -0.015386616714938383 -0.01362270245421416 0 -0.015479565902665469 -0.013863608151765631 0 -0.014951228173452857 -0.013752056606757466 0 -0.015901788758076948 -0.012721344685296726 0 -0.012610125185988943 -0.014866120653080473 0 -0.015636283327710814 -0.013613716636972277 0 -0.015422912904027929 -0.013367248528606298 0 -0.015732557949680325 -0.013476947891062886 0 -0.016021801173339931 -0.012280621674082406 0 -0.015901788758076948 -0.012721344685296726 0 -0.015634214142054272 -0.013608127053002605 0 -0.015636283327710814 -0.013613716636972277 0 -0.015422912904027929 -0.013367248528606298 0 -0.015457275498750355 -0.01374984263419834 0 -0.015901788758076948 -0.012721344685296726 0 -0.016484764599272703 -0.011259638057530654 0 -0.016771860248761331 -0.011349924599187412 0 -0.016686574330146815 -0.011112754239113096 0 -0.015901788758076948 -0.012721344685296726 0 -0.015489129031019021 -0.012479067381976605 0 -0.016771860248761331 -0.011349924599187412 0 -0.016686574330146815 -0.011112754239113096 0 -0.016955955471384194 -0.011089283997695964 0 -0.016686574330146815 -0.011112754239113096 0 -0.016877734774090943 -0.010891467646530248 0 -0.016955955471384194 -0.011089283997695964 0 -0.016686574330146815 -0.011112754239113096 0 -0.016877734774090943 -0.010891467646530248 0 -0.016677730130342801 -0.010906838555049567 0 -0.016686574330146815 -0.011112754239113096 0 -0.016677730130342801 -0.010906838555049567 0 -0.016460777020466815 -0.010992315227036911 0 -0.016677730130342801 -0.010906838555049567 0 -0.016566252866243542 -0.010749633573496051 0 -0.016750968906365432 -0.010512283416153005 0 -0.016877734774090943 -0.010891467646530248 0 -0.016955317519478957 -0.010677689189493529 0 -0.016750968906365432 -0.010512283416153005 0 -0.016877734774090943 -0.010891467646530248 0 -0.016677730130342801 -0.010906838555049567 0 -0.016750968906365432 -0.010512283416153005 0 -0.016460777020466815 -0.010992315227036911 0 -0.016226881337050792 -0.010928669640984212 0 -0.016202915071955606 -0.011182067556701382 0 -0.016460777020466815 -0.010992315227036911 0 -0.016401599734002816 -0.010757790315058332 0 -0.016226881337050792 -0.010928669640984212 0 -0.016677730130342801 -0.010906838555049567 0 -0.016460777020466815 -0.010992315227036911 0 -0.016566252866243542 -0.010749633573496051 0 -0.016460777020466815 -0.010992315227036911 0 -0.016566252866243542 -0.010749633573496051 0 -0.016401599734002816 -0.010757790315058332 0 -0.016566252866243542 -0.010749633573496051 0 -0.016401599734002816 -0.010757790315058332 0 -0.016543138711053458 -0.010570916344152467 0 -0.016401599734002816 -0.010757790315058332 0 -0.016226881337050792 -0.010928669640984212 0 -0.016226471573914155 -0.010687685191969363 0 -0.016226881337050792 -0.010928669640984212 0 -0.016027391396487799 -0.010798920563376509 0 -0.016226471573914155 -0.010687685191969363 0 -0.01609186260661593 -0.011005248320311304 0 -0.016226881337050792 -0.010928669640984212 0 -0.016027391396487799 -0.010798920563376509 0 -0.01609186260661593 -0.011005248320311304 0 -0.016226881337050792 -0.010928669640984212 0 -0.016202915071955606 -0.011182067556701382 0 -0.016083935083614078 -0.010977069332762757 0 -0.015642461415295846 -0.012147052203604682 0 -0.016053974274574289 -0.011403172141691837 0 -0.015669172370725015 -0.011740867101247023 0 -0.015842315223040863 -0.012179012737850894 0 -0.01609186260661593 -0.011005248320311304 0 -0.016027391396487799 -0.010798920563376509 0 -0.015909846922279865 -0.011113015032514217 0 -0.016053974274574289 -0.011403172141691837 0 -0.015689141876515669 -0.011427946514844488 0 -0.015669172370725015 -0.011740867101247023 0 -0.015689141876515669 -0.011427946514844488 0 -0.015358585421813804 -0.011622576221890734 0 -0.015404379717724608 -0.010987740820021975 0 -0.015689141876515669 -0.011427946514844488 0 -0.015358585421813804 -0.011622576221890734 0 -0.015669172370725015 -0.011740867101247023 0 -0.014999959088544609 -0.011250160652793448 0 -0.015358585421813804 -0.011622576221890734 0 -0.01499995443235393 -0.012041805891543847 0 -0.014999959088544609 -0.011250160652793448 0 -0.015358585421813804 -0.011622576221890734 0 -0.015404379717724608 -0.010987740820021975 0 -0.015358585421813804 -0.011622576221890734 0 -0.01499995443235393 -0.012041805891543847 0 -0.015413186415487525 -0.012078983087461666 0 -0.015000039951736335 -0.012042072434553587 0 -0.015399777028667218 -0.01218464162072508 0 -0.015413186415487525 -0.012078983087461666 0 -0.015669172370725015 -0.011740867101247023 0 -0.015842315223040863 -0.012179012737850894 0 -0.015358585421813804 -0.011622576221890734 0 -0.015413186415487525 -0.012078983087461666 0 -0.015669172370725015 -0.011740867101247023 0 -0.015399777028667218 -0.01218464162072508 0 -0.015642461415295846 -0.012147052203604682 0 -0.015439107085842459 -0.013289781891574974 0 -0.015642461415295846 -0.012147052203604682 0 -0.015276793716527726 -0.012712126504586653 0 -0.015492062025016287 -0.013055008216085627 0 -0.015754797726107831 -0.012448374447981055 0 -0.015346054928533798 -0.012290360667944549 0 -0.015276793716527726 -0.012712126504586653 0 -0.015754797726107831 -0.012448374447981055 0 -0.015346054928533798 -0.012290360667944549 0 -0.015276793716527726 -0.012712126504586653 0 -0.014999828989791908 -0.012576612126161868 0 -0.014999995629654933 -0.012042181735939095 0 -0.015346054928533798 -0.012290360667944549 0 -0.014999828989791908 -0.012576612126161868 0 -0.015276793716527726 -0.012712126504586653 0 -0.014999828989791908 -0.012576612126161868 0 -0.015000105283156494 -0.013110550660293329 0 -0.015276793716527726 -0.012712126504586653 0 -0.015000105283156494 -0.013110550660293329 0 -0.015492062025016287 -0.013055008216085627 0 -0.015453933959105864 -0.013228690118447298 0 -0.015000105283156494 -0.013110550660293329 0 -0.015492062025016287 -0.013055008216085627 0 -0.015492062025016287 -0.013055008216085627 0 -0.015371038916284942 -0.013249842973104935 0 -0.015346720816449805 -0.013293561846342795 0 -0.015453933959105864 -0.013228690118447298 0 -0.015492062025016287 -0.013055008216085627 0 -0.015346720816449805 -0.013293561846342795 0 -0.015288209206885662 -0.013410770463539931 0 -0.015346720816449805 -0.013293561846342795 0 -0.015288768623309607 -0.01331191526811485 0 -0.015371038916284942 -0.013249842973104935 0 -0.015346720816449805 -0.013293561846342795 0 -0.015288768623309607 -0.01331191526811485 0 -0.015371038916284942 -0.013249842973104935 0 -0.015288768623309607 -0.01331191526811485 0 -0.015433493928971375 -0.013323863855995146 0 -0.015741718950112983 -0.012260373274773939 0 -0.015642461415295846 -0.012147052203604682 0 -0.01609186260661593 -0.011005248320311304 0 -0.016202915071955606 -0.011182067556701382 0 -0.015909846922279865 -0.011113015032514217 0 -0.015492062025016287 -0.013055008216085627 0 -0.015371038916284942 -0.013249842973104935 0 -0.015433493928971375 -0.013323863855995146 0 -0.0073638766214597848 -0.015684960398748622 0 -0.0072913059222251041 -0.015934743698670682 0 -0.007171802663524152 -0.015707869673637048 0 -0.0075297872340716904 -0.015891137459111113 0 -0.0073638766214597848 -0.015684960398748622 0 -0.0072913059222251041 -0.015934743698670682 0 -0.0084707929845508709 -0.016348031310317084 0 -0.0084745394906991442 -0.016039161859583827 0 -0.0079799082423058654 -0.016037402875250018 0 -0.0078590014947001394 -0.016074608369659547 0 -0.0076895795844049734 -0.015865925758199752 0 -0.0084745394906991442 -0.016039161859583827 0 -0.0081266364616547088 -0.015553550326638492 0 -0.0087151634831808544 -0.015732487985843938 0 -0.0084745394906991442 -0.016039161859583827 0 -0.0079799082423058654 -0.016037402875250018 0 -0.0081266364616547088 -0.015553550326638492 0 -0.0076895795844049734 -0.015865925758199752 0 -0.0073010439948895996 -0.015498610834872794 0 -0.0079799082423058654 -0.016037402875250018 0 -0.0081266364616547088 -0.015553550326638492 0 -0.0074411627326722261 -0.015595986684062608 0 -0.0077267011145551448 -0.015337786515100279 0 -0.0081266364616547088 -0.015553550326638492 0 -0.0074411627326722261 -0.015595986684062608 0 -0.0077267011145551448 -0.015337786515100279 0 -0.0075019795268726451 -0.014999919623474864 0 -0.0082758873230083588 -0.014999974833063156 0 -0.0077267011145551448 -0.015337786515100279 0 -0.0075019795268726451 -0.014999919623474864 0 -0.0073967401885219955 -0.015247837273375009 0 -0.0077267011145551448 -0.015337786515100279 0 -0.0082758873230083588 -0.014999974833063156 0 -0.0081266364616547088 -0.015553550326638492 0 -0.0082758873230083588 -0.014999974833063156 0 -0.0081266364616547088 -0.015553550326638492 0 -0.0086596817981230301 -0.015338248362090801 0 -0.0081266364616547088 -0.015553550326638492 0 -0.0087151634831808544 -0.015732487985843938 0 -0.0086596817981230301 -0.015338248362090801 0 -0.0087151634831808544 -0.015732487985843938 0 -0.0086596817981230301 -0.015338248362090801 0 -0.009118491178465523 -0.01548612712696064 0 -0.0082758873230083588 -0.014999974833063156 0 -0.0086596817981230301 -0.015338248362090801 0 -0.009049680824249633 -0.014999962676639918 0 -0.0086596817981230301 -0.015338248362090801 0 -0.009049680824249633 -0.014999962676639918 0 -0.009118491178465523 -0.01548612712696064 0 -0.009049680824249633 -0.014999962676639918 0 -0.009118491178465523 -0.01548612712696064 0 -0.0098235416896566147 -0.014999945133790783 0 -0.0087151634831808544 -0.015732487985843938 0 -0.009118491178465523 -0.01548612712696064 0 -0.0090558006463183783 -0.01599658253629576 0 -0.009118491178465523 -0.01548612712696064 0 -0.0090558006463183783 -0.01599658253629576 0 -0.0096204277949089451 -0.015632108648788508 0 -0.0084745394906991442 -0.016039161859583827 0 -0.0087151634831808544 -0.015732487985843938 0 -0.0090558006463183783 -0.01599658253629576 0 -0.0084745394906991442 -0.016039161859583827 0 -0.0090558006463183783 -0.01599658253629576 0 -0.0089005922430090284 -0.01628964059284492 0 -0.0084707929845508709 -0.016348031310317084 0 -0.0084745394906991442 -0.016039161859583827 0 -0.0089005922430090284 -0.01628964059284492 0 -0.0090558006463183783 -0.01599658253629576 0 -0.0089005922430090284 -0.01628964059284492 0 -0.0091682969182148664 -0.016265183321261135 0 -0.0091682969182148664 -0.016265183321261135 0 -0.0094006163650943927 -0.016119906502860874 0 -0.0091524620161182423 -0.016343920865081917 0 -0.0090558006463183783 -0.01599658253629576 0 -0.0091682969182148664 -0.016265183321261135 0 -0.0094006163650943927 -0.016119906502860874 0 -0.009582782059985296 -0.016148710962508264 0 -0.0095157308047966929 -0.016661718708965528 0 -0.0097761560321807262 -0.01627786526725495 0 -0.010167766537347122 -0.016518814035159667 0 -0.010135438948495858 -0.016041228602458164 0 -0.010167766537347122 -0.016518814035159667 0 -0.010135438948495858 -0.016041228602458164 0 -0.010450464208677351 -0.016291557848793055 0 -0.0097761560321807262 -0.01627786526725495 0 -0.010167766537347122 -0.016518814035159667 0 -0.0098641914424717706 -0.01684180647508856 0 -0.0090558006463183783 -0.01599658253629576 0 -0.0094006163650943927 -0.016119906502860874 0 -0.0096204277949089451 -0.015632108648788508 0 -0.0097761560321807262 -0.01627786526725495 0 -0.010135438948495858 -0.016041228602458164 0 -0.0096204277949089451 -0.015632108648788508 0 -0.009582782059985296 -0.016148710962508264 0 -0.0096113416968276136 -0.015660252599548747 0 -0.009118491178465523 -0.01548612712696064 0 -0.0096204277949089451 -0.015632108648788508 0 -0.0098235416896566147 -0.014999945133790783 0 -0.0096204277949089451 -0.015632108648788508 0 -0.0098235416896566147 -0.014999945133790783 0 -0.010230864308430152 -0.015507764978650069 0 -0.0098235416896566147 -0.014999945133790783 0 -0.010230864308430152 -0.015507764978650069 0 -0.010597503807552169 -0.014999976126324886 0 -0.010135438948495858 -0.016041228602458164 0 -0.010230864308430152 -0.015507764978650069 0 -0.01053341553024429 -0.015922908981266398 0 -0.010135438948495858 -0.016041228602458164 0 -0.0096204277949089451 -0.015632108648788508 0 -0.010230864308430152 -0.015507764978650069 0 -0.010230864308430152 -0.015507764978650069 0 -0.010671821626755168 -0.015531612442109754 0 -0.01053341553024429 -0.015922908981266398 0 -0.010671821626755168 -0.015531612442109754 0 -0.010956127535493165 -0.015857845097791534 0 -0.01053341553024429 -0.015922908981266398 0 -0.010671821626755168 -0.015531612442109754 0 -0.010597503807552169 -0.014999976126324886 0 -0.011026327061052