<?xml version="1.0"?>
<VTKFile type="UnstructuredGrid" version="0.1" byte_order="LittleEndian">
<UnstructuredGrid>
<Piece NumberOfPoints="30578" NumberOfCells="10723">
<Points>
<DataArray type="Float64" NumberOfComponents="3" format="ascii">
-0.5 -0.5 0 -0.47439485679867832 -0.48072581506667478 0 -0.5 -0.44765434486020428 0 -0.5 -0.5 0 -0.47439485679867832 -0.48072581506667478 0 -0.43702443379937372 -0.49999999999999922 0 -0.47439485679867832 -0.48072581506667478 0 -0.45530669598391149 -0.47718009944797551 0 -0.43702443379937372 -0.49999999999999922 0 -0.47439485679867832 -0.48072581506667478 0 -0.45530669598391149 -0.47718009944797551 0 -0.4597353119515426 -0.45943449384344293 0 -0.45530669598391149 -0.47718009944797551 0 -0.44381084376742141 -0.47114793899167112 0 -0.4597353119515426 -0.45943449384344293 0 -0.45530669598391149 -0.47718009944797551 0 -0.44381084376742141 -0.47114793899167112 0 -0.43702443379937372 -0.49999999999999922 0 -0.44381084376742141 -0.47114793899167112 0 -0.43702443379937372 -0.49999999999999922 0 -0.45059725373546922 -0.44229587798334291 0 -0.4339166039271336 -0.43498117536117131 0 -0.43309128002320102 -0.45351235807576151 0 -0.44381084376742141 -0.47114793899167112 0 -0.45059725373546922 -0.44229587798334291 0 -0.4597353119515426 -0.45943449384344293 0 -0.44381084376742141 -0.47114793899167112 0 -0.45059725373546922 -0.44229587798334291 0 -0.43309128002320102 -0.45351235807576151 0 -0.44381084376742141 -0.47114793899167112 0 -0.45059725373546922 -0.44229587798334291 0 -0.4597353119515426 -0.45943449384344293 0 -0.47505511338101108 -0.44868394208069429 0 -0.46517432262153441 -0.43649963461163338 0 -0.45059725373546922 -0.44229587798334291 0 -0.4597353119515426 -0.45943449384344293 0 -0.46517432262153441 -0.43649963461163338 0 -0.47505511338101108 -0.44868394208069429 0 -0.47820614292347569 -0.42776699273468149 0 -0.46517432262153441 -0.43649963461163338 0 -0.47505511338101108 -0.44868394208069429 0 -0.47820614292347569 -0.42776699273468149 0 -0.47439485679867832 -0.48072581506667478 0 -0.47505511338101108 -0.44868394208069429 0 -0.5 -0.44765434486020428 0 -0.47439485679867832 -0.48072581506667478 0 -0.4597353119515426 -0.45943449384344293 0 -0.47505511338101108 -0.44868394208069429 0 -0.47505511338101108 -0.44868394208069429 0 -0.5 -0.44765434486020428 0 -0.47820614292347569 -0.42776699273468149 0 -0.5 -0.44765434486020428 0 -0.49656450065014057 -0.42151023988558672 0 -0.47820614292347569 -0.42776699273468149 0 -0.5 -0.44765434486020428 0 -0.49656450065014057 -0.42151023988558672 0 -0.50000000000000089 -0.37904661106745707 0 -0.49656450065014057 -0.42151023988558672 0 -0.48135717246594062 -0.40685004338866881 0 -0.47820614292347569 -0.42776699273468149 0 -0.49656450065014057 -0.42151023988558672 0 -0.48135717246594062 -0.40685004338866881 0 -0.48135717246594062 -0.40685004338866881 0 -0.47820614292347569 -0.42776699273468149 0 -0.48135717246594062 -0.40685004338866881 0 -0.47820614292347569 -0.42776699273468149 0 -0.45738366370351707 -0.41344381697501481 0 -0.49656450065014057 -0.42151023988558672 0 -0.48135717246594062 -0.40685004338866881 0 -0.50000000000000089 -0.37904661106745707 0 -0.50000000000000089 -0.37904661106745707 0 -0.48466894952205442 -0.38486603086372417 0 -0.48717439863114548 -0.36823452950912272 0 -0.48135717246594062 -0.40685004338866881 0 -0.50000000000000089 -0.37904661106745707 0 -0.48466894952205442 -0.38486603086372417 0 -0.48466894952205442 -0.38486603086372417 0 -0.48717439863114548 -0.36823452950912272 0 -0.50000000000000089 -0.37904661106745707 0 -0.48466894952205442 -0.38486603086372417 0 -0.48135717246594062 -0.40685004338866881 0 -0.48466894952205442 -0.38486603086372417 0 -0.46593083509403682 -0.39197871725165279 0 -0.48135717246594062 -0.40685004338866881 0 -0.48466894952205442 -0.38486603086372417 0 -0.48135717246594062 -0.40685004338866881 0 -0.46593083509403682 -0.39197871725165279 0 -0.48466894952205442 -0.38486603086372417 0 -0.47195833844942919 -0.37959069520904498 0 -0.46593083509403682 -0.39197871725165279 0 -0.48466894952205442 -0.38486603086372417 0 -0.46593083509403682 -0.39197871725165279 0 -0.48466894952205442 -0.38486603086372417 0 -0.47195833844942919 -0.37959069520904498 0 -0.48717439863114548 -0.36823452950912272 0 -0.46593083509403682 -0.39197871725165279 0 -0.44890944387521442 -0.39029302340116001 0 -0.45132291774153199 -0.37789636588759368 0 -0.47195833844942919 -0.37959069520904498 0 -0.46593083509403682 -0.39197871725165279 0 -0.45132291774153199 -0.37789636588759368 0 -0.46593083509403682 -0.39197871725165279 0 -0.45132291774153199 -0.37789636588759368 0 -0.48135717246594062 -0.40685004338866881 0 -0.46593083509403682 -0.39197871725165279 0 -0.45738366370351707 -0.41344381697501481 0 -0.46593083509403682 -0.39197871725165279 0 -0.44275815558040038 -0.40077469311046232 0 -0.45738366370351707 -0.41344381697501481 0 -0.46593083509403682 -0.39197871725165279 0 -0.44275815558040038 -0.40077469311046232 0 -0.46593083509403682 -0.39197871725165279 0 -0.44275815558040038 -0.40077469311046232 0 -0.44890944387521442 -0.39029302340116001 0 -0.44275815558040038 -0.40077469311046232 0 -0.44064580868350911 -0.39542861624611658 0 -0.44890944387521442 -0.39029302340116001 0 -0.44225344557501872 -0.38376649822575309 0 -0.45132291774153199 -0.37789636588759368 0 -0.43671500038902772 -0.36381401452353412 0 -0.44890944387521442 -0.39029302340116001 0 -0.44225344557501872 -0.38376649822575309 0 -0.45132291774153199 -0.37789636588759368 0 -0.44064580868350911 -0.39542861624611658 0 -0.44225344557501872 -0.38376649822575309 0 -0.43040194378266172 -0.3881600185019185 0 -0.44064580868350911 -0.39542861624611658 0 -0.44890944387521442 -0.39029302340116001 0 -0.44225344557501872 -0.38376649822575309 0 -0.47820614292347569 -0.42776699273468149 0 -0.46517432262153441 -0.43649963461163338 0 -0.45738366370351707 -0.41344381697501481 0 -0.45059725373546922 -0.44229587798334291 0 -0.45738366370351707 -0.41344381697501481 0 -0.45059725373546922 -0.44229587798334291 0 -0.46517432262153441 -0.43649963461163338 0 -0.45738366370351707 -0.41344381697501481 0 -0.44275815558040038 -0.40077469311046232 0 -0.45738366370351707 -0.41344381697501481 0 -0.44164244492799948 -0.42121090558557039 0 -0.45059725373546922 -0.44229587798334291 0 -0.45738366370351707 -0.41344381697501481 0 -0.44164244492799948 -0.42121090558557039 0 -0.45059725373546922 -0.44229587798334291 0 -0.44164244492799948 -0.42121090558557039 0 -0.4339166039271336 -0.43498117536117131 0 -0.4339166039271336 -0.43498117536117131 0 -0.42355654769347711 -0.414558964497861 0 -0.41671115160429401 -0.44095791049380378 0 -0.44164244492799948 -0.42121090558557039 0 -0.4339166039271336 -0.43498117536117131 0 -0.42355654769347711 -0.414558964497861 0 -0.44275815558040038 -0.40077469311046232 0 -0.44164244492799948 -0.42121090558557039 0 -0.42355654769347711 -0.414558964497861 0 -0.42355654769347711 -0.414558964497861 0 -0.41056920252370888 -0.3963363404412637 0 -0.40050668374064252 -0.41734442193795029 0 -0.42355654769347711 -0.414558964497861 0 -0.41671115160429401 -0.44095791049380378 0 -0.42355654769347711 -0.414558964497861 0 -0.40050668374064252 -0.41734442193795029 0 -0.41671115160429401 -0.44095791049380378 0 -0.44225344557501872 -0.38376649822575309 0 -0.43040194378266172 -0.3881600185019185 0 -0.43671500038902772 -0.36381401452353412 0 -0.43040194378266172 -0.3881600185019185 0 -0.43671500038902772 -0.36381401452353412 0 -0.44064580868350911 -0.39542861624611658 0 -0.42355654769347711 -0.414558964497861 0 -0.43040194378266172 -0.3881600185019185 0 -0.42355654769347711 -0.414558964497861 0 -0.43040194378266172 -0.3881600185019185 0 -0.44275815558040038 -0.40077469311046232 0 -0.44064580868350911 -0.39542861624611658 0 -0.42355654769347711 -0.414558964497861 0 -0.44064580868350911 -0.39542861624611658 0 -0.43040194378266172 -0.3881600185019185 0 -0.42355654769347711 -0.414558964497861 0 -0.43040194378266172 -0.3881600185019185 0 -0.41056920252370888 -0.3963363404412637 0 -0.43040194378266172 -0.3881600185019185 0 -0.4079689369259607 -0.37224253963894771 0 -0.43040194378266172 -0.3881600185019185 0 -0.41056920252370888 -0.3963363404412637 0 -0.4079689369259607 -0.37224253963894771 0 -0.41056920252370888 -0.3963363404412637 0 -0.39195929229331972 -0.37982250283040359 0 -0.4079689369259607 -0.37224253963894771 0 -0.41056920252370888 -0.3963363404412637 0 -0.39195929229331972 -0.37982250283040359 0 -0.39357845321732049 -0.39746174547711199 0 -0.41056920252370888 -0.3963363404412637 0 -0.39357845321732049 -0.39746174547711199 0 -0.40050668374064252 -0.41734442193795029 0 -0.39357845321732049 -0.39746174547711199 0 -0.38114412328536468 -0.40833987260765031 0 -0.36544727141479139 -0.39026932065168712 0 -0.39195929229331972 -0.37982250283040359 0 -0.37549160074202448 -0.3732971907138336 0 -0.36544727141479139 -0.39026932065168712 0 -0.39195929229331972 -0.37982250283040359 0 -0.39357845321732049 -0.39746174547711199 0 -0.36544727141479139 -0.39026932065168712 0 -0.40050668374064252 -0.41734442193795029 0 -0.3944977858259317 -0.43926335073686201 0 -0.41671115160429401 -0.44095791049380378 0 -0.40050668374064252 -0.41734442193795029 0 -0.38028594703985957 -0.42392304976487449 0 -0.3944977858259317 -0.43926335073686201 0 -0.39357845321732049 -0.39746174547711199 0 -0.40050668374064252 -0.41734442193795029 0 -0.38114412328536468 -0.40833987260765031 0 -0.40050668374064252 -0.41734442193795029 0 -0.38114412328536468 -0.40833987260765031 0 -0.38028594703985957 -0.42392304976487449 0 -0.38114412328536468 -0.40833987260765031 0 -0.38028594703985957 -0.42392304976487449 0 -0.36590226101420908 -0.41270082520662749 0 -0.38028594703985957 -0.42392304976487449 0 -0.3944977858259317 -0.43926335073686201 0 -0.3723601590800425 -0.44005613486137668 0 -0.3944977858259317 -0.43926335073686201 0 -0.38265619596279349 -0.45813348326120767 0 -0.3723601590800425 -0.44005613486137668 0 -0.40093272222703252 -0.45142790024540502 0 -0.3944977858
[...]
<PointData Scalars="" Vectors="displacement," Tensors="">
<DataArray type="Float64" Name="displacement" NumberOfComponents="3" format="ascii">
0.044996539167972395 1.4057796676823767e-06 0 0.043674489221145543 0.00019074728785365943 0 0.044998525283819091 -1.5940002050292354e-07 0 0.044996539167972395 1.4057796676823767e-06 0 0.043674489221145543 0.00019074728785365943 0 0.03934032451867097 -2.5208170770242087e-06 0 0.043674489221145543 0.00019074728785365943 0 0.042932490750402903 -1.3658701001247869e-05 0 0.03934032451867097 -2.5208170770242087e-06 0 0.043674489221145543 0.00019074728785365943 0 0.042932490750402903 -1.3658701001247869e-05 0 0.043822951356153814 3.3824743086429479e-05 0 0.042932490750402903 -1.3658701001247869e-05 0 0.043372406627927448 -0.00066108777433785749 0 0.043822951356153814 3.3824743086429479e-05 0 0.042932490750402903 -1.3658701001247869e-05 0 0.043372406627927448 -0.00066108777433785749 0 0.03934032451867097 -2.5208170770242087e-06 0 0.040848179356855405 -0.00021178088895258511 0 0.039332869132132783 -1.419286374444869e-07 0 0.039410754514792291 0.00055447052795072962 0 0.039707542378075757 -9.1796946399190556e-05 0 0.038896353897291049 -9.9719128002544828e-05 0 0.043372406627927448 -0.00066108777433785749 0 0.043640696733787315 0.00045710095623822304 0 0.043822951356153814 3.3824743086429479e-05 0 0.03828916955078341 1.7929247257380197e-05 0 0.039410754514792291 0.00055447052795072962 0 0.038896353897291049 -9.9719128002544828e-05 0 0.040848179356855405 -0.00021178088895258511 0 0.041449256356481973 0.00042710557417013082 0 0.043822951356153814 3.3824743086429479e-05 0 0.044200328004399082 -0.00026426449287681982 0 0.043271645238317058 -7.1351311607942074e-05 0 0.043640696733787315 0.00045710095623822304 0 0.043822951356153814 3.3824743086429479e-05 0 0.043271645238317058 -7.1351311607942074e-05 0 0.044200328004399082 -0.00026426449287681982 0 0.042457815320063548 -0.0010192522440239141 0 0.043271645238317058 -7.1351311607942074e-05 0 0.044170325612669953 -0.00033362387686972284 0 0.043548389945097195 -0.00058244924986720328 0 0.043674489221145543 0.00019074728785365943 0 0.044200328004399082 -0.00026426449287681982 0 0.044998525283819091 -1.5940002050292354e-07 0 0.043674489221145543 0.00019074728785365943 0 0.043822951356153814 3.3824743086429479e-05 0 0.044200328004399082 -0.00026426449287681982 0 0.044200328004399082 -0.00026426449287681982 0 0.044998525283819091 -1.5940002050292354e-07 0 0.04487562740799244 -0.00016132776829329515 0 0.044998525283819091 -1.5940002050292354e-07 0 0.044993031273172314 -8.4541419934168235e-06 0 0.04487562740799244 -0.00016132776829329515 0 0.044998525283819091 -1.5940002050292354e-07 0 0.044993031273172314 -8.4541419934168235e-06 0 0.04500065421302768 2.9896622083406062e-08 0 0.044993031273172314 -8.4541419934168235e-06 0 0.045069441295211753 -0.00013533370081791687 0 0.04487562740799244 -0.00016132776829329515 0 0.045373448512515714 -0.00020503950610524591 0 0.043467997563480971 -0.00011856829421935765 0 0.043467997563480971 -0.00011856829421935765 0 0.043548389945097195 -0.00058244924986720328 0 0.040860123686287879 -0.0010240623523329793 0 0.042457815320063548 -0.0010192522440239141 0 0.041004779987930416 0.00043660003440532753 0 0.044993031273172314 -8.4541419934168235e-06 0 0.044988973675063312 -6.9605239646307039e-06 0 0.04500065421302768 2.9896622083406062e-08 0 0.045000026116578121 1.886860343001235e-08 0 0.045007710194257353 2.0298254106689203e-05 0 0.04499296566883864 1.9057412995182175e-05 0 0.044988973675063312 -6.9605239646307039e-06 0 0.04500065421302768 2.9896622083406062e-08 0 0.044995584008524013 -4.2721927113092143e-06 0 0.044775709415364226 0.00017718356659834474 0 0.045061553745502143 3.4936516164853974e-05 0 0.044999962973462093 -4.8029332171030827e-08 0 0.044775709415364226 0.00017718356659834474 0 0.043335673039958757 0.00012385911778213865 0 0.043665512788090978 0.00017475844930620968 0 0.043551312525329275 -0.00010260904172030463 0 0.043467997563480971 -0.00011856829421935765 0 0.044775709415364226 0.00017718356659834474 0 0.043467997563480971 -0.00011856829421935765 0 0.042251169794483366 0.00010776425447096125 0 0.045018640638619586 3.4761455316809343e-05 0 0.045007230632493539 6.476867413333203e-05 0 0.045026420161633662 8.204050761112633e-05 0 0.044775709415364226 0.00017718356659834474 0 0.042251169794483366 0.00010776425447096125 0 0.045018640638619586 3.4761455316809343e-05 0 0.045007230632493539 6.476867413333203e-05 0 0.04499296566883864 1.9057412995182175e-05 0 0.040862040575802498 0.00051818784678101209 0 0.040863522395861128 0.00035716771107509852 0 0.040986755499721278 0.00037785968995578893 0 0.045007230632493539 6.476867413333203e-05 0 0.045026420161633662 8.204050761112633e-05 0 0.044999493903093567 0.00013016922854311395 0 0.042251169794483366 0.00010776425447096125 0 0.043205274721383032 8.2809170632065212e-05 0 0.040860123686287879 -0.0010240623523329793 0 0.040277183465547768 -4.2915322378437759e-05 0 0.041004779987930416 0.00043660003440532753 0 0.040277183465547768 -4.2915322378437759e-05 0 0.04073501786136853 0.0003091201377229702 0 0.041004779987930416 0.00043660003440532753 0 0.042251169794483366 0.00010776425447096125 0 0.040319063962811041 0.00022243569620442969 0 0.040862040575802498 0.00051818784678101209 0 0.04073501786136853 0.0003091201377229702 0 0.040863522395861128 0.00035716771107509852 0 0.04073501786136853 0.0003091201377229702 0 0.040813053306321526 0.00025801187600096599 0 0.040863522395861128 0.00035716771107509852 0 0.040921540352370021 0.00028964920688916867 0 0.040986755499721278 0.00037785968995578893 0 0.041120405760992879 0.00024467024580247018 0 0.040863522395861128 0.00035716771107509852 0 0.040921540352370021 0.00028964920688916867 0 0.040986755499721278 0.00037785968995578893 0 0.040813053306321526 0.00025801187600096599 0 0.040921540352370021 0.00028964920688916867 0 0.040864178726191989 0.00018086820172997256 0 0.040813053306321526 0.00025801187600096599 0 0.040863522395861128 0.00035716771107509852 0 0.040921540352370021 0.00028964920688916867 0 0.042457815320063548 -0.0010192522440239141 0 0.043271645238317058 -7.1351311607942074e-05 0 0.041004779987930416 0.00043660003440532753 0 0.041449256356481973 0.00042710557417013082 0 0.041000224991532962 0.0004448172402331247 0 0.043640696733787315 0.00045710095623822304 0 0.043271645238317058 -7.1351311607942074e-05 0 0.041004779987930416 0.00043660003440532753 0 0.04073501786136853 0.0003091201377229702 0 0.041004779987930416 0.00043660003440532753 0 0.040380886724688432 0.00014561665779104738 0 0.039410754514792291 0.00055447052795072962 0 0.041004779987930416 0.00043660003440532753 0 0.040380886724688432 0.00014561665779104738 0 0.039410754514792291 0.00055447052795072962 0 0.040380886724688432 0.00014561665779104738 0 0.039707542378075757 -9.1796946399190556e-05 0 0.039707542378075757 -9.1796946399190556e-05 0 0.04035725074976973 -0.00033095607110484709 0 0.039379987155418385 -0.00066824463436019178 0 0.040380886724688432 0.00014561665779104738 0 0.039707542378075757 -9.1796946399190556e-05 0 0.04035725074976973 -0.00033095607110484709 0 0.04073501786136853 0.0003091201377229702 0 0.040380886724688432 0.00014561665779104738 0 0.04035725074976973 -0.00033095607110484709 0 0.028960194096466881 0.0034088619181833106 0 0.02937823212996608 0.0030460677692467019 0 0.028727583475975673 0.0027291679720561342 0 0.03444469251048788 0.0014410626520633199 0 0.033645630174580859 0.0013647867476602109 0 0.028960194096466881 0.0034088619181833106 0 0.028727583475975673 0.0027291679720561342 0 0.028155710855175292 0.0031501064060616563 0 0.040921540352370021 0.00028964920688916867 0 0.040864178726191989 0.00018086820172997256 0 0.041120405760992879 0.00024467024580247018 0 0.036327356669788986 0.0022604182788186519 0 0.042239758068532453 0.00099902896193738056 0 0.040813053306321526 0.00025801187600096599 0 0.04035725074976973 -0.00033095607110484709 0 0.040887571703272271 -5.1218166095903416e-06 0 0.03444469251048788 0.0014410626520633199 0 0.036327356669788986 0.0022604182788186519 0 0.04073501786136853 0.0003091201377229702 0 0.040813053306321526 0.00025801187600096599 0 0.04035725074976973 -0.00033095607110484709 0 0.040885542346495475 -0.00086314238220796375 0 0.036327356669788986 0.0022604182788186519 0 0.028960194096466881 0.0034088619181833106 0 0.029720056019164696 0.0035943283304303089 0 0.02937823212996608 0.0030460677692467019 0 0.036327356669788986 0.0022604182788186519 0 0.03359768924950611 0.0025227234340783533 0 0.029720056019164696 0.0035943283304303089 0 0.02937823212996608 0.0030460677692467019 0 0.030007911680706687 0.0029809578308353751 0 0.02937823212996608 0.0030460677692467019 0 0.029739484796753861 0.0025461565170927665 0 0.030007911680706687 0.0029809578308353751 0 0.02937823212996608 0.0030460677692467019 0 0.029739484796753861 0.0025461565170927665 0 0.029232394715121627 0.0025732341050152059 0 0.02937823212996608 0.0030460677692467019 0 0.029232394715121627 0.0025732341050152059 0 0.028727583475975673 0.0027291679720561342 0 0.029232394715121627 0.0025732341050152059 0 0.028828909580595977 0.0022265622136330748 0 0.029236772085218389 0.0018532195314108597 0 0.029739484796753861 0.0025461565170927665 0 0.029900349087941636 0.002076601597560452 0 0.029236772085218389 0.0018532195314108597 0 0.029739484796753861 0.0025461565170927665 0 0.029232394715121627 0.0025732341050152059 0 0.029236772085218389 0.0018532195314108597 0 0.028727583475975673 0.0027291679720561342 0 0.028107855923984751 0.0025234554448851747 0 0.028155710855175292 0.0031501064060616563 0 0.028727583475975673 0.0027291679720561342 0 0.028410454384518693 0.0021612933622578339 0 0.028107855923984751 0.0025234554448851747 0 0.029232394715121627 0.0025732341050152059 0 0.028727583475975673 0.0027291679720561342 0 0.028828909580595977 0.0022265622136330748 0 0.028727583475975673 0.0027291679720561342 0 0.028828909580595977 0.0022265622136330748 0 0.028410454384518693 0.0021612933622578339 0 0.028828909580595977 0.0022265622136330748 0 0.028410454384518693 0.0021612933622578339 0 0.028567960924201167 0.0018247189340989771 0 0.028410454384518693 0.0021612933622578339 0 0.028107855923984751 0.0025234554448851747 0 0.027997641824930107 0.001904629348479691 0 0.028107855923984751 0.0025234554448851747 0 0.027601075856362654 0.0021842799280570699 0 0.027997641824930107 0.001904629348479691 0 0.027825585376316065 0.0026864769683186888 0 0.028107855923984751 0.0025234554448851747 0 0.027601075856362654 0.0021842799280570699 0 0.027825585376316065 0.0026864769683186888 0 0.028107855923984751 0.0025234554448851747 0 0.028155710855175292 0.0031501064060616563 0 0.02782218370580786 0.0012790044417214791 0 0.033825771379292081 0.00010709071963169651 0 0.029528747696929911 4.4728469237934556e-05 0 0.031505099213525081 -0.00093790727768323641 0 0.03092578253504916 -0.0026111219015745946 0 0.027825585376316065 0.0026864769683186888 0 0.027601075856362654 0.0021842799280570699 0 0.027445759068846633 0.0029064868730167065 0 0.029528747696929911 4.4728469237934556e-05 0 0.031174591612795149 -1.1680653834709444e-05 0 0.031505099213525081 -0.00093790727768323641 0 0.031174591612795149 -1.1680653834709444e-05 0 0.033117320814023507 -0.00015788299384321769 0 0.031781821950013861 0.00023659369012741187 0 0.031174591612795149 -1.1680653834709444e-05 0 0.033117320814023507 -0.00015788299384321769 0 0.031505099213525081 -0.00093790727768323641 0 0.033749862792276555 1.7356092626401001e-06 0 0.033117320814023507 -0.00015788299384321769 0 0.036121747384515769 -5.1725361541593181e-06 0 0.033749862792276555 1.7356092626401001e-06 0 0.033117320814023507 -0.00015788299384321769 0 0.031781821950013861 0.00023659369012741187 0 0.033117320814023507 -0.00015788299384321769 0 0.036121747384515769 -5.1725361541593181e-06 0 0.032932566055633335 -0.0019948943611455879 0 0.036125784816682424 -5.8261414103015754e-07 0 0.035374085628234707 -0.00088571435714839258 0 0.032932566055633335 -0.0019948943611455879 0 0.031505099213525081 -0.00093790727768323641 0 0.03092578253504916 -0.0026111219015745946 0 0.033117320814023507 -0.00015788299384321769 0 0.032932566055633335 -0.0019948943611455879 0 0.031505099213525081 -0.00093790727768323641 0 0.035374085628234707 -0.00088571435714839258 0 0.033825771379292081 0.00010709071963169651 0 0.038663625480320978 -0.00062811900264458324 0 0.033825771379292081 0.00010709071963169651 0 0.038172641756995647 9.9020457401597091e-05 0 0.038199048134867762 -1.4058326946938618e-05 0 0.038097959712395033 1.6532252469322751e-05 0 0.037858101981461049 -7.2807985090942123e-05 0 0.038172641756995647 9.9020457401597091e-05 0 0.038097959712395033 1.6532252469322751e-05 0 0.037858101981461049 -7.2807985090942123e-05 0 0.038172641756995647 9.9020457401597091e-05 0 0.037729652616990281 1.0210744218677066e-06 0 0.03612889119248059 -1.6138457219805138e-06 0 0.037858101981461049 -7.2807985090942123e-05 0 0.037729652616990281 1.0210744218677066e-06 0 0.038172641756995647 9.9020457401597091e-05 0 0.037729652616990281 1.0210744218677066e-06 0 0.039328597359900228 -5.0500513224480556e-07 0 0.038172641756995647 9.9020457401597091e-05 0 0.039328597359900228 -5.0500513224480556e-07 0 0.038199048134867762 -1.4058326946938618e-05 0 0.03828916955078341 1.7929247257380197e-05 0 0.039328597359900228 -5.0500513224480556e-07 0 0.038199048134867762 -1.4058326946938618e-05 0 0.038199048134867762 -1.4058326946938618e-05 0 0.038714772503350245 -0.00040425069641939024 0 0.038896353897291049 -9.9719128002544828e-05 0 0.03828916955078341 1.7929247257380197e-05 0 0.038199048134867762 -1.4058326946938618e-05 0 0.038896353897291049 -9.9719128002544828e-05 0 0.039707542378075757 -9.1796946399190556e-05 0 0.038896353897291049 -9.9719128002544828e-05 0 0.039379987155418385 -0.00066824463436019178 0 0.038714772503350245 -0.00040425069641939024 0 0.038896353897291049 -9.9719128002544828e-05 0 0.039379987155418385 -0.00066824463436019178 0 0.038714772503350245 -0.00040425069641939024 0 0.039379987155418385 -0.00066824463436019178 0 0.038364410362653346 -0.00085228866290772457 0 0.033645630174580859 0.0013647867476602109 0 0.033825771379292081 0.00010709071963169651 0 0.027825585376316065 0.0026864769683186888 0 0.028155710855175292 0.0031501064060616563 0 0.027445759068846633 0.0029064868730167065 0 0.038199048134867762 -1.4058326946938618e-05 0 0.038714772503350245 -0.00040425069641939024 0 0.038364410362653346 -0.00085228866290772457 0 0.044627339787611332 -0.00020812630820450724 0 0.044680264174742849 -0.00048217721588011465 0 0.044819250299155282 -0.00023057876040402526 0 0.0444128838785392 -0.00043657919285842154 0 0.044627339787611332 -0.00020812630820450724 0 0.044680264174742849 -0.00048217721588011465 0 0.044911026204256584 -0.00014145040173357506 0 0.044904732362061564 -4.3417545945740955e-05 0 0.04497876435563955 -3.9508470781591515e-05 0 0.044630294495007772 -0.00031180649382525047 0 0.044807247861734283 -0.00012247617534076556 0 0.044904732362061564 -4.3417545945740955e-05 0 0.044969737868014129 3.2457791839884509e-06 0 0.044895559943037032 -2.9828098839707349e-06 0 0.044904732362061564 -4.3417545945740955e-05 0 0.04497876435563955 -3.9508470781591515e-05 0 0.044969737868014129 3.2457791839884509e-06 0 0.044807247861734283 -0.00012247617534076556 0 0.044915488319644044 -2.7873623972382141e-05 0 0.04497876435563955 -3.9508470781591515e-05 0 0.044969737868014129 3.2457791839884509e-06 0 0.045000621490665998 -2.5316948766013221e-06 0 0.044990105530543785 3.7013839878904992e-06 0 0.044969737868014129 3.2457791839884509e-06 0 0.045000621490665998 -2.5316948766013221e-06 0 0.044990105530543785 3.7013839878904992e-06 0 0.044999988237706796 -1.331031314959387e-08 0 0.044999945346463073 2.4359720850453648e-08 0 0.044990105530543785 3.7013839878904992e-06 0 0.044999988237706796 -1.331031314959387e-08 0 0.044997333414857558 1.2383725112730584e-06 0 0.044990105530543785 3.7013839878904992e-06 0 0.044999945346463073 2.4359720850453648e-08 0 0.044969737868014129 3.2457791839884509e-06 0 0.044999945346463073 2.4359720850453648e-08 0 0.044969737868014129 3.2457791839884509e-06 0 0.044954156724823877 9.3698029734309629e-06 0 0.044969737868014129 3.2457791839884509e-06 0 0.044895559943037032 -2.9828098839707349e-06 0 0.044954156724823877 9.3698029734309629e-06 0 0.044895559943037032 -2.9828098839707349e-06 0 0.044954156724823877 9.3698029734309629e-06 0 0.044904889378209703 1.3415561636710269e-05 0 0.044999945346463073 2.4359720850453648e-08 0 0.044954156724823877 9.3698029734309629e-06 0 0.044999868789293067 1.7414304019647403e-08 0 0.044954156724823877 9.3698029734309629e-06 0 0.044999868789293067 1.7414304019647403e-08 0 0.044904889378209703 1.3415561636710269e-05 0 0.044999868789293067 1.7414304019647403e-08 0 0.044904889378209703 1.3415561636710269e-05 0 0.044999860202188526 -5.1862787744925148e-09 0 0.044895559943037032 -2.9828098839707349e-06 0 0.044904889378209703 1.3415561636710269e-05 0 0.044774543664254644 -3.1511504987057979e-05 0 0.044904889378209703 1.3415561636710269e-05 0 0.044774543664254644 -3.1511504987057979e-05 0 0.044865296085141046 2.3233484063891082e-05 0 0.044904732362061564 -4.3417545945740955e-05 0 0.044895559943037032 -2.9828098839707349e-06 0 0.044774543664254644 -3.1511504987057979e-05 0 0.044904732362061564 -4.3417545945740955e-05 0 0.044774543664254644 -3.1511504987057979e-05 0 0.044727874664111079 -0.00012418704820174828 0 0.044911026204256584 -0.00014145040173357506 0 0.044904732362061564 -4.3417545945740955e-05 0 0.044727874664111079 -0.00012418704820174828 0 0.044774543664254644 -3.1511504987057979e-05 0 0.044727874664111079 -0.00012418704820174828 0 0.044582689206563456 -0.00013935495294761725 0 0.044582689206563456 -0.00013935495294761725 0 0.044631978610741946 -7.3060053732446168e-05 0 0.044470292387192877 -0.00021811550178481894 0 0.044774543664254644 -3.1511504987057979e-05 0 0.044582689206563456 -0.00013935495294761725 0 0.044631978610741946 -7.3060053732446168e-05 0 0.044729268356755718 2.2434594531937105e-05 0 0.044656818717214337 5.1786754414500127e-06 0 0.04481866007307455 0.00013331321008984795 0 0.044864269234067361 0.0001806601921851854 0 0.044894614956159686 9.3597409780290516e-05 0 0.044864269234067361 0.0001806601921851854 0 0.044894614956159686 9.3597409780290516e-05 0 0.044915977054717032 0.00013833745841075411 0 0.04481866007307455 0.00013331321008984795 0 0.044864269234067361 0.0001806601921851854 0 0.044783358100097828 0.00024854743672143094 0 0.044774543664254644 -3.1511504987057979e-05 0 0.044631978610741946 -7.3060053732446168e-05 0 0.044865296085141046 2.3233484063891082e-05 0 0.04481866007307455 0.00013331321008984795 0 0.044894614956159686 9.3597409780290516e-05 0 0.044865296085141046 2.3233484063891082e-05 0 0.044729268356755718 2.2434594531937105e-05 0 0.044835494652223785 1.4483301239467847e-05 0 0.044904889378209703 1.3415561636710269e-05 0 0.044865296085141046 2.3233484063891082e-05 0 0.044999860202188526 -5.1862787744925148e-09 0 0.044865296085141046 2.3233484063891082e-05 0 0.044999860202188526 -5.1862787744925148e-09 0 0.044947064571099357 2.246006999860002e-05 0 0.044999860202188526 -5.1862787744925148e-09 0 0.044947064571099357 2.246006999860002e-05 0 0.044999961344634541 1.0152192098405792e-08 0 0.044894614956159686 9.3597409780290516e-05 0 0.044947064571099357 2.246006999860002e-05 0 0.044943422393586188 7.9593289702573151e-05 0 0.044894614956159686 9.3597409780290516e-05 0 0.044865296085141046 2.3233484063891082e-05 0 0.044947064571099357 2.246006999860002e-05 0 0.044947064571099357 2.246006999860002e-05 0 0.044971911210633014 3.2787526877342383e-05 0 0.044943422393586188 7.9593289702573151e-05 0 0.044971911210633014 3.2787526877342383e-05 0 0.044980064208951197 7.4930413214297037e-05 0 0.044943422393586188 7.9593289702573151e-05 0 0.044971911210633014 3.2787526877342383e-05 0 0.044999961344634541 1.0152192098405792e-08 0 0.044992965668