<?xml version="1.0"?>
<VTKFile type="UnstructuredGrid" version="0.1" byte_order="LittleEndian">
<UnstructuredGrid>
<Piece NumberOfPoints="28800" NumberOfCells="10071">
<Points>
<DataArray type="Float64" NumberOfComponents="3" format="ascii">
-0.48845978519967392 -0.49999999999999878 0 -0.5 -0.5 0 -0.48847524721005109 -0.48113855282930679 0 -0.5 -0.5 0 -0.48847524721005109 -0.48113855282930679 0 -0.5 -0.44533905111250399 0 -0.47399116852550238 -0.47906591784546038 0 -0.47399889953069058 -0.4696351942601148 0 -0.45952255185133017 -0.45813183569092247 0 -0.48847524721005109 -0.48113855282930679 0 -0.47399889953069058 -0.4696351942601148 0 -0.48847524721005109 -0.48113855282930679 0 -0.47399116852550238 -0.47906591784546038 0 -0.47399889953069058 -0.4696351942601148 0 -0.48845978519967392 -0.49999999999999878 0 -0.48847524721005109 -0.48113855282930679 0 -0.47399116852550238 -0.47906591784546038 0 -0.48845978519967392 -0.49999999999999878 0 -0.47399116852550238 -0.47906591784546038 0 -0.48845978519967392 -0.49999999999999878 0 -0.47399116852550238 -0.47906591784546038 0 -0.47240354374103682 -0.5 0 -0.47240354374103682 -0.5 0 -0.4563473022823995 -0.49999999999999889 0 -0.45859955168969169 -0.48399583434959709 0 -0.47399116852550238 -0.47906591784546038 0 -0.47240354374103682 -0.5 0 -0.45859955168969169 -0.48399583434959709 0 -0.47399116852550238 -0.47906591784546038 0 -0.4595840785933013 -0.47021189552928999 0 -0.45859955168969169 -0.48399583434959709 0 -0.47399116852550238 -0.47906591784546038 0 -0.4595840785933013 -0.47021189552928999 0 -0.45952255185133017 -0.45813183569092247 0 -0.4595840785933013 -0.47021189552928999 0 -0.45859955168969169 -0.48399583434959709 0 -0.4472434753811072 -0.47249603102815779 0 -0.4472434753811072 -0.47249603102815779 0 -0.43592330524333922 -0.48762220332400369 0 -0.43274165805303699 -0.47110944383739001 0 -0.45859955168969169 -0.48399583434959709 0 -0.4472434753811072 -0.47249603102815779 0 -0.43592330524333922 -0.48762220332400369 0 -0.4472434753811072 -0.47249603102815779 0 -0.43592330524333922 -0.48762220332400369 0 -0.4563473022823995 -0.49999999999999889 0 -0.43592330524333922 -0.48762220332400369 0 -0.4563473022823995 -0.49999999999999889 0 -0.42665997268554218 -0.49999999999999939 0 -0.43592330524333922 -0.48762220332400369 0 -0.4563473022823995 -0.49999999999999889 0 -0.45859955168969169 -0.48399583434959709 0 -0.43592330524333922 -0.48762220332400369 0 -0.44947514693095081 -0.44359463391277298 0 -0.45952255185133017 -0.45813183569092247 0 -0.43566714521728023 -0.43917558357516279 0 -0.43926643517818781 -0.45814775152321707 0 -0.45952255185133017 -0.45813183569092247 0 -0.43566714521728023 -0.43917558357516279 0 -0.45952255185133017 -0.45813183569092247 0 -0.43566714521728023 -0.43917558357516279 0 -0.4472434753811072 -0.47249603102815779 0 -0.43926643517818781 -0.45814775152321707 0 -0.45952255185133017 -0.45813183569092247 0 -0.4472434753811072 -0.47249603102815779 0 -0.43926643517818781 -0.45814775152321707 0 -0.43274165805303699 -0.47110944383739001 0 -0.47399116852550238 -0.47906591784546038 0 -0.45952255185133017 -0.45813183569092247 0 -0.4472434753811072 -0.47249603102815779 0 -0.45952255185133017 -0.45813183569092247 0 -0.4595840785933013 -0.47021189552928999 0 -0.4472434753811072 -0.47249603102815779 0 -0.45952255185133017 -0.45813183569092247 0 -0.47399889953069058 -0.4696351942601148 0 -0.45952255185133017 -0.45813183569092247 0 -0.47399889953069058 -0.4696351942601148 0 -0.45952255185133017 -0.45813183569092247 0 -0.47256434925375629 -0.4543160115402386 0 -0.45952255185133017 -0.45813183569092247 0 -0.4705119240481388 -0.44140439907288298 0 -0.45952255185133017 -0.45813183569092247 0 -0.4705119240481388 -0.44140439907288298 0 -0.47256434925375629 -0.4543160115402386 0 -0.45952255185133017 -0.45813183569092247 0 -0.46020884415810842 -0.44270473187900439 0 -0.4705119240481388 -0.44140439907288298 0 -0.44947514693095081 -0.44359463391277298 0 -0.45952255185133017 -0.45813183569092247 0 -0.46020884415810842 -0.44270473187900439 0 -0.44947514693095081 -0.44359463391277298 0 -0.45952255185133017 -0.45813183569092247 0 -0.44947514693095081 -0.44359463391277298 0 -0.46020884415810842 -0.44270473187900439 0 -0.46152098141980358 -0.43010050424306501 0 -0.46020884415810842 -0.44270473187900439 0 -0.4705119240481388 -0.44140439907288298 0 -0.46152098141980358 -0.43010050424306501 0 -0.4705119240481388 -0.44140439907288298 0 -0.5 -0.44533905111250399 0 -0.4792605511723772 -0.42821039908633651 0 -0.4705119240481388 -0.44140439907288298 0 -0.47256434925375629 -0.4543160115402386 0 -0.5 -0.44533905111250399 0 -0.48847524721005109 -0.48113855282930679 0 -0.47399889953069058 -0.4696351942601148 0 -0.5 -0.44533905111250399 0 -0.47399889953069058 -0.4696351942601148 0 -0.47256434925375629 -0.4543160115402386 0 -0.5 -0.44533905111250399 0 -0.5 -0.44533905111250399 0 -0.49309399373994639 -0.41203070099268269 0 -0.50000000000000111 -0.37443756057980321 0 -0.5 -0.44533905111250399 0 -0.49309399373994639 -0.41203070099268269 0 -0.4792605511723772 -0.42821039908633651 0 -0.49309399373994639 -0.41203070099268269 0 -0.47117585665399719 -0.41217734001054768 0 -0.4792605511723772 -0.42821039908633651 0 -0.49309399373994639 -0.41203070099268269 0 -0.47117585665399719 -0.41217734001054768 0 -0.47977652772236101 -0.39824576647622578 0 -0.4705119240481388 -0.44140439907288298 0 -0.4792605511723772 -0.42821039908633651 0 -0.46152098141980358 -0.43010050424306501 0 -0.47117585665399719 -0.41217734001054768 0 -0.4792605511723772 -0.42821039908633651 0 -0.46152098141980358 -0.43010050424306501 0 -0.49309399373994639 -0.41203070099268269 0 -0.48974847569938162 -0.38740747336048043 0 -0.50000000000000111 -0.37443756057980321 0 -0.48974847569938162 -0.38740747336048043 0 -0.48642312672438037 -0.36278150539002052 0 -0.49309399373994639 -0.41203070099268269 0 -0.48974847569938162 -0.38740747336048043 0 -0.49309399373994639 -0.41203070099268269 0 -0.48974847569938162 -0.38740747336048043 0 -0.47977652772236101 -0.39824576647622578 0 -0.47117585665399719 -0.41217734001054768 0 -0.46888544292523088 -0.39635475194215308 0 -0.47977652772236101 -0.39824576647622578 0 -0.46888544292523088 -0.39635475194215308 0 -0.47977652772236101 -0.39824576647622578 0 -0.47597886959324831 -0.38325856607526532 0 -0.48974847569938162 -0.38740747336048043 0 -0.47597886959324831 -0.38325856607526532 0 -0.48642312672438037 -0.36278150539002052 0 -0.48974847569938162 -0.38740747336048043 0 -0.47977652772236101 -0.39824576647622578 0 -0.47597886959324831 -0.38325856607526532 0 -0.46047226212004638 -0.38263127002788261 0 -0.45901914900730112 -0.37110511580400812 0 -0.44873199880990072 -0.37273943711263691 0 -0.46047226212004638 -0.38263127002788261 0 -0.46822743030822173 -0.37194584080839632 0 -0.45901914900730112 -0.37110511580400812 0 -0.47597886959324831 -0.38325856607526532 0 -0.46047226212004638 -0.38263127002788261 0 -0.46822743030822173 -0.37194584080839632 0 -0.46888544292523088 -0.39635475194215308 0 -0.47597886959324831 -0.38325856607526532 0 -0.46047226212004638 -0.38263127002788261 0 -0.46047226212004638 -0.38263127002788261 0 -0.45468813848504092 -0.39440257360107378 0 -0.44847238099986392 -0.38642364760353781 0 -0.47117585665399719 -0.41217734001054768 0 -0.46888544292523088 -0.39635475194215308 0 -0.45833632796015239 -0.40493197539091069 0 -0.46888544292523088 -0.39635475194215308 0 -0.46047226212004638 -0.38263127002788261 0 -0.45468813848504092 -0.39440257360107378 0 -0.46888544292523088 -0.39635475194215308 0 -0.45468813848504092 -0.39440257360107378 0 -0.45833632796015239 -0.40493197539091069 0 -0.45468813848504092 -0.39440257360107378 0 -0.45833632796015239 -0.40493197539091069 0 -0.44886706629917839 -0.40168544137085299 0 -0.45833632796015239 -0.40493197539091069 0 -0.44886706629917839 -0.40168544137085299 0 -0.44725281353906732 -0.41125260250332968 0 -0.44886706629917839 -0.40168544137085299 0 -0.43925595896224251 -0.40336051013321089 0 -0.44353535399930538 -0.395049807548084 0 -0.44886706629917839 -0.40168544137085299 0 -0.43925595896224251 -0.40336051013321089 0 -0.44725281353906732 -0.41125260250332968 0 -0.44353535399930538 -0.395049807548084 0 -0.4388190928287643 -0.38837495895815549 0 -0.43548642635465801 -0.39363153856849992 0 -0.43925595896224251 -0.40336051013321089 0 -0.44353535399930538 -0.395049807548084 0 -0.43548642635465801 -0.39363153856849992 0 -0.45468813848504092 -0.39440257360107378 0 -0.44886706629917839 -0.40168544137085299 0 -0.44353535399930538 -0.395049807548084 0 -0.45468813848504092 -0.39440257360107378 0 -0.44353535399930538 -0.395049807548084 0 -0.44847238099986392 -0.38642364760353781 0 -0.4388190928287643 -0.38837495895815549 0 -0.44873199880990072 -0.37273943711263691 0 -0.4388190928287643 -0.38837495895815549 0 -0.43442955601071059 -0.38033021618326229 0 -0.44873199880990072 -0.37273943711263691 0 -0.44847238099986392 -0.38642364760353781 0 -0.4388190928287643 -0.38837495895815549 0 -0.44873199880990072 -0.37273943711263691 0 -0.44847238099986392 -0.38642364760353781 0 -0.4388190928287643 -0.38837495895815549 0 -0.44353535399930538 -0.395049807548084 0 -0.44847238099986392 -0.38642364760353781 0 -0.4388190928287643 -0.38837495895815549 0 -0.46047226212004638 -0.38263127002788261 0 -0.44847238099986392 -0.38642364760353781 0 -0.44873199880990072 -0.37273943711263691 0 -0.46152098141980358 -0.43010050424306501 0 -0.45713073400600129 -0.41668745731737777 0 -0.44582116554119428 -0.42576176157496959 0 -0.47117585665399719 -0.41217734001054768 0 -0.46152098141980358 -0.43010050424306501 0 -0.45713073400600129 -0.41668745731737777 0 -0.47117585665399719 -0.41217734001054768 0 -0.45833632796015239 -0.40493197539091069 0 -0.45713073400600129 -0.41668745731737777 0 -0.45833632796015239 -0.40493197539091069 0 -0.45713073400600129 -0.41668745731737777 0 -0.44725281353906732 -0.41125260250332968 0 -0.45713073400600129 -0.41668745731737777 0 -0.44725281353906732 -0.41125260250332968 0 -0.4458
[...]
<PointData Scalars="" Vectors="displacement," Tensors="">
<DataArray type="Float64" Name="displacement" NumberOfComponents="3" format="ascii">
-0.034195604225515291 8.0271124047017355e-07 0 -0.03499792288311359 -5.1882312200942994e-07 0 -0.034929238071305962 -5.8676308420914518e-06 0 -0.03499792288311359 -5.1882312200942994e-07 0 -0.034929238071305962 -5.8676308420914518e-06 0 -0.035000317506486259 1.49039971930407e-07 0 -0.034972166819251208 0.00045665265527065462 0 -0.035175563038397049 0.00045386124407667186 0 -0.035382363188798671 0.00074021869238038746 0 -0.034884618899037684 -3.5110047044049707e-05 0 -0.035224765455526337 0.00034998313720231852 0 -0.034929238071305962 -5.8676308420914518e-06 0 -0.034972166819251208 0.00045665265527065462 0 -0.035175563038397049 0.00045386124407667186 0 -0.034195604225515291 8.0271124047017355e-07 0 -0.034929238071305962 -5.8676308420914518e-06 0 -0.034972166819251208 0.00045665265527065462 0 -0.034191624118907159 -9.4656333672805947e-08 0 -0.034075121369243837 0.00018061475382281496 0 -0.034189947862688558 6.9444774329571661e-07 0 -0.032690059653369401 1.5825643062458899e-05 0 -0.03306829180890223 -6.4967411723828733e-07 0 -0.03306829180890223 -6.4967411723828733e-07 0 -0.031946392964414101 6.7040185035162287e-07 0 -0.032553162971857862 -2.9658357512991708e-05 0 -0.032690059653369401 1.5825643062458899e-05 0 -0.03306829180890223 -6.4967411723828733e-07 0 -0.032553162971857862 -2.9658357512991708e-05 0 -0.032690059653369401 1.5825643062458899e-05 0 -0.032732155887855101 4.4246672470509199e-05 0 -0.032553162971857862 -2.9658357512991708e-05 0 -0.032690059653369401 1.5825643062458899e-05 0 -0.032732155887855101 4.4246672470509199e-05 0 -0.032816095754344354 3.6367742345472819e-05 0 -0.032732155887855101 4.4246672470509199e-05 0 -0.032553162971857862 -2.9658357512991708e-05 0 -0.03273560093729113 0.00024690919547649352 0 -0.026115708626104923 0.0044422368882920628 0 -0.027352550014734946 0.0035257020370427663 0 -0.025989186237373819 0.0032810692603255989 0 -0.032553162971857862 -2.9658357512991708e-05 0 -0.03273560093729113 0.00024690919547649352 0 -0.032375925713594149 0.00061262158695826339 0 -0.028836612076455652 0.0028314835483730402 0 -0.029868960808081983 0.0013175747465671583 0 -0.031944504908062832 -5.6400529724635209e-07 0 -0.029868960808081983 0.0013175747465671583 0 -0.031941719003094678 7.6160874487282039e-09 0 -0.029868784770881569 9.6693743580485284e-09 0 -0.030512440273638197 4.7215916794282808e-06 0 -0.031946392964414101 6.7040185035162287e-07 0 -0.032553162971857862 -2.9658357512991708e-05 0 -0.032375925713594149 0.00061262158695826339 0 -0.034842450077467016 1.8333845382169435e-05 0 -0.03479257548574597 1.940272716106585e-05 0 -0.034833443267024117 3.2358846695845486e-05 0 -0.024891438665657316 0.0037848736029524746 0 -0.024953612877280037 0.0054428696694748101 0 -0.023291712403348257 0.003441655482536189 0 -0.032611670505168118 0.00097102299054574535 0 -0.028591372398179417 0.0019659447555798659 0 -0.026115708626104923 0.0044422368882920628 0 -0.024891438665657316 0.0037848736029524746 0 -0.024953612877280037 0.0054428696694748101 0 -0.026115708626104923 0.0044422368882920628 0 -0.024891438665657316 0.0037848736029524746 0 -0.025989186237373819 0.0032810692603255989 0 -0.034075121369243837 0.00018061475382281496 0 -0.032611670505168118 0.00097102299054574535 0 -0.028836612076455652 0.0028314835483730402 0 -0.032611670505168118 0.00097102299054574535 0 -0.032732155887855101 4.4246672470509199e-05 0 -0.03273560093729113 0.00024690919547649352 0 -0.032816095754344354 3.6367742345472819e-05 0 -0.035224765455526337 0.00034998313720231852 0 -0.032611670505168118 0.00097102299054574535 0 -0.034942037207769575 1.1418840368879309e-05 0 -0.034937194128070122 5.3496760042665987e-07 0 -0.034943266785681923 5.8279442656491225e-06 0 -0.032611670505168118 0.00097102299054574535 0 -0.035686927803422502 -0.00046184092811659528 0 -0.034937194128070122 5.3496760042665987e-07 0 -0.03491803791799783 -9.2721897925868187e-07 0 -0.034943266785681923 5.8279442656491225e-06 0 -0.034831257949439157 1.2365474415271127e-05 0 -0.03487746694038265 8.0087717394250864e-06 0 -0.03491803791799783 -9.2721897925868187e-07 0 -0.034842450077467016 1.8333845382169435e-05 0 -0.034831257949439157 1.2365474415271127e-05 0 -0.03487746694038265 8.0087717394250864e-06 0 -0.035208337909845414 0.00024438467289382426 0 -0.032611670505168118 0.00097102299054574535 0 -0.034842450077467016 1.8333845382169435e-05 0 -0.03487746694038265 8.0087717394250864e-06 0 -0.034898554979460018 2.2348285799704107e-06 0 -0.03487746694038265 8.0087717394250864e-06 0 -0.03491803791799783 -9.2721897925868187e-07 0 -0.034898554979460018 2.2348285799704107e-06 0 -0.03491803791799783 -9.2721897925868187e-07 0 -0.035000317506486259 1.49039971930407e-07 0 -0.034945680644652193 5.8952971224278127e-07 0 -0.03491803791799783 -9.2721897925868187e-07 0 -0.034943266785681923 5.8279442656491225e-06 0 -0.035000317506486259 1.49039971930407e-07 0 -0.034929238071305962 -5.8676308420914518e-06 0 -0.034942037207769575 1.1418840368879309e-05 0 -0.035000317506486259 1.49039971930407e-07 0 -0.034942037207769575 1.1418840368879309e-05 0 -0.034943266785681923 5.8279442656491225e-06 0 -0.035000317506486259 1.49039971930407e-07 0 -0.035000317506486259 1.49039971930407e-07 0 -0.03498419868256248 5.5203109161732654e-06 0 -0.034999727938421987 -5.2607294624460446e-08 0 -0.035000317506486259 1.49039971930407e-07 0 -0.03498419868256248 5.5203109161732654e-06 0 -0.034945680644652193 5.8952971224278127e-07 0 -0.03498419868256248 5.5203109161732654e-06 0 -0.034924616706374111 -2.9166650256407591e-07 0 -0.034945680644652193 5.8952971224278127e-07 0 -0.03498419868256248 5.5203109161732654e-06 0 -0.034924616706374111 -2.9166650256407591e-07 0 -0.034920376053783328 5.0573746275136582e-06 0 -0.03491803791799783 -9.2721897925868187e-07 0 -0.034945680644652193 5.8952971224278127e-07 0 -0.034898554979460018 2.2348285799704107e-06 0 -0.034924616706374111 -2.9166650256407591e-07 0 -0.034945680644652193 5.8952971224278127e-07 0 -0.034898554979460018 2.2348285799704107e-06 0 -0.03498419868256248 5.5203109161732654e-06 0 -0.034994185978873209 5.0340528577770759e-06 0 -0.034999727938421987 -5.2607294624460446e-08 0 -0.034951261493358823 1.1734305357932389e-05 0 -0.034896863580584546 6.3419419604135777e-05 0 -0.034976026794049542 9.5137615295218409e-06 0 -0.034951261493358823 1.1734305357932389e-05 0 -0.03498419868256248 5.5203109161732654e-06 0 -0.034894077809201757 3.1485079045364269e-05 0 -0.034920376053783328 5.0573746275136582e-06 0 -0.034924616706374111 -2.9166650256407591e-07 0 -0.034904031127538225 3.517846781974713e-07 0 -0.034920376053783328 5.0573746275136582e-06 0 -0.034904031127538225 3.517846781974713e-07 0 -0.034920376053783328 5.0573746275136582e-06 0 -0.034886129769873313 1.0140991615873633e-05 0 -0.034894077809201757 3.1485079045364269e-05 0 -0.034886129769873313 1.0140991615873633e-05 0 -0.034855704058737925 2.802910787850229e-05 0 -0.034894077809201757 3.1485079045364269e-05 0 -0.034920376053783328 5.0573746275136582e-06 0 -0.034886129769873313 1.0140991615873633e-05 0 -0.034881156627381109 -1.7185477573124919e-06 0 -0.034865824903070067 -2.5458593144179155e-06 0 -0.034866602679118598 -8.8032263510979198e-06 0 -0.034881156627381109 -1.7185477573124919e-06 0 -0.03486856879633693 5.2388073442197907e-06 0 -0.034865824903070067 -2.5458593144179155e-06 0 -0.034886129769873313 1.0140991615873633e-05 0 -0.034881156627381109 -1.7185477573124919e-06 0 -0.03486856879633693 5.2388073442197907e-06 0 -0.034904031127538225 3.517846781974713e-07 0 -0.034886129769873313 1.0140991615873633e-05 0 -0.034881156627381109 -1.7185477573124919e-06 0 -0.034881156627381109 -1.7185477573124919e-06 0 -0.034887858971006845 -2.0388643049167639e-06 0 -0.034880980659592699 -4.0431228238679925e-06 0 -0.034924616706374111 -2.9166650256407591e-07 0 -0.034904031127538225 3.517846781974713e-07 0 -0.034896356333251173 -3.9106267107395266e-07 0 -0.034904031127538225 3.517846781974713e-07 0 -0.034881156627381109 -1.7185477573124919e-06 0 -0.034887858971006845 -2.0388643049167639e-06 0 -0.034904031127538225 3.517846781974713e-07 0 -0.034887858971006845 -2.0388643049167639e-06 0 -0.034896356333251173 -3.9106267107395266e-07 0 -0.034887858971006845 -2.0388643049167639e-06 0 -0.034896356333251173 -3.9106267107395266e-07 0 -0.034881569136244392 3.1855256600323979e-06 0 -0.034896356333251173 -3.9106267107395266e-07 0 -0.034881569136244392 3.1855256600323979e-06 0 -0.03487666578438714 7.8323994629112953e-06 0 -0.034881569136244392 3.1855256600323979e-06 0 -0.034867108668186091 1.1502658327372906e-05 0 -0.034876238347919142 4.3001939075920082e-06 0 -0.034881569136244392 3.1855256600323979e-06 0 -0.034867108668186091 1.1502658327372906e-05 0 -0.03487666578438714 7.8323994629112953e-06 0 -0.034876238347919142 4.3001939075920082e-06 0 -0.034878771675657616 9.0300677747205196e-06 0 -0.034868129640106958 1.4463221029232521e-05 0 -0.034867108668186091 1.1502658327372906e-05 0 -0.034876238347919142 4.3001939075920082e-06 0 -0.034868129640106958 1.4463221029232521e-05 0 -0.034887858971006845 -2.0388643049167639e-06 0 -0.034881569136244392 3.1855256600323979e-06 0 -0.034876238347919142 4.3001939075920082e-06 0 -0.034887858971006845 -2.0388643049167639e-06 0 -0.034876238347919142 4.3001939075920082e-06 0 -0.034880980659592699 -4.0431228238679925e-06 0 -0.034377482272223939 8.7800546883224612e-05 0 -0.033934355785950346 1.6456800757354599e-05 0 -0.033165203861220321 -5.1693027322115688e-05 0 -0.033108697136283879 -8.0408211888995749e-05 0 -0.033062734936315133 1.4363911432960677e-05 0 -0.034880980659592699 -4.0431228238679925e-06 0 -0.034879776532642133 -1.0453152959834375e-05 0 -0.034866602679118598 -8.8032263510979198e-06 0 -0.034692062211323142 -5.6333811918139076e-05 0 -0.034377482272223939 8.7800546883224612e-05 0 -0.034876238347919142 4.3001939075920082e-06 0 -0.034880980659592699 -4.0431228238679925e-06 0 -0.034878771675657616 9.0300677747205196e-06 0 -0.034881156627381109 -1.7185477573124919e-06 0 -0.034880980659592699 -4.0431228238679925e-06 0 -0.034866602679118598 -8.8032263510979198e-06 0 -0.034898554979460018 2.2348285799704107e-06 0 -0.034894403684027221 3.4674662406785223e-06 0 -0.034866110984287692 1.5855286645028544e-05 0 -0.034924616706374111 -2.9166650256407591e-07 0 -0.034898554979460018 2.2348285799704107e-06 0 -0.034894403684027221 3.4674662406785223e-06 0 -0.034924616706374111 -2.9166650256407591e-07 0 -0.034896356333251173 -3.9106267107395266e-07 0 -0.034894403684027221 3.4674662406785223e-06 0 -0.034896356333251173 -3.9106267107395266e-07 0 -0.034894403684027221 3.4674662406785223e-06 0 -0.03487666578438714 7.8323994629112953e-06 0 -0.034894403684027221 3.4674662406785223e-06 0 -0.03487666578438714 7.8323994629112953e-06 0 -0.034866110984287692 1.5855286645028544e-05 0 -0.034867108668186091 1.1502658327372906e-05 0 -0.03487666578438714 7.8323994629112953e-06 0 -0.034854647414121656 1.7911426071945746e-05 0 -0.03487666578438714 7.8323994629112953e-06 0 -0.034866110984287692 1.5855286645028544e-05 0 -0.034854647414121656 1.7911426071945746e-05 0 -0.034866110984287692 1.5855286645028544e-05 0 -0.034838285073191727 2.6514960607230906e-05 0 -0.034854647414121656 1.7911426071945746e-05 0 -0.034842450077467016 1.8333845382169435e-05 0 -0.034898554979460018 2.2348285799704107e-06 0 -0.034866110984287692 1.5855286645028544e-05 0 -0.034842450077467016 1.8333845382169435e-05 0 -0.034866110984287692 1.5855286645028544e-05 0 -0.034833443267024117 3.2358846695845486e-05 0 -0.034866110984287692 1.5855286645028544e-05 0 -0.034838285073191727 2.6514960607230906e-05 0 -0.034833443267024117 3.2358846695845486e-05 0 -0.034838285073191727 2.6514960607230906e-05 0 -0.034798834425924366 3.7950895341488261e-05 0 -0.034833443267024117 3.2358846695845486e-05 0 -0.022110887552997571 0.001589033900650631 0 -0.023291712403348257 0.003441655482536189 0 -0.023223258154711494 0.0022273493166638323 0 -0.028831845490994244 0.00080388366229126331 0 -0.028591372398179417 0.0019659447555798659 0 -0.034838285073191727 2.6514960607230906e-05 0 -0.034854647414121656 1.7911426071945746e-05 0 -0.034835850462492497 2.6532736759353073e-05 0 -0.034838285073191727 2.6514960607230906e-05 0 -0.034835850462492497 2.6532736759353073e-05 0 -0.034798834425924366 3.7950895341488261e-05 0 -0.034867108668186091 1.1502658327372906e-05 0 -0.034854647414121656 1.7911426071945746e-05 0 -0.034853326061838157 2.0827551884817948e-05 0 -0.034854647414121656 1.7911426071945746e-05 0 -0.034835850462492497 2.6532736759353073e-05 0 -0.034853326061838157 2.0827551884817948e-05 0 -0.034835850462492497 2.6532736759353073e-05 0 -0.034853326061838157 2.0827551884817948e-05 0 -0.034838199543037768 3.4690243966162175e-05 0 -0.028831845490994244 0.00080388366229126331 0 -0.033144836884722639 -0.00047452269139950927 0 -0.034835850462492497 2.6532736759353073e-05 0 -0.034798834425924366 3.7950895341488261e-05 0 -0.034838199543037768 3.4690243966162175e-05 0 -0.028378414229122823 0.00019884054963419275 0 -0.028934339126936829 0.00090303547149787867 0 -0.030356284702026677 -0.00052686661415278578 0 -0.022077251744249182 0.0012802237346124258 0 -0.022215071648599913 0.001553774418826542 0 -0.022346383274111089 0.0011118435883709706 0 -0.022170470454879718 0.0015630195546688659 0 -0.022077251744249182 0.0012802237346124258 0 -0.022215071648599913 0.001553774418826542 0 -0.028831845490994244 0.00080388366229126331 0 -0.02822175220018068 0.0009840248600590767 0 -0.028831845490994244 0.00080388366229126331 0 -0.026815104240533225 -0.00012172013906689684 0 -0.022215071648599913 0.001553774418826542 0 -0.022493059039598664 0.0013397400899793608 0 -0.022796925666604871 0.00158843715445614 0 -0.022215071648599913 0.001553774418826542 0 -0.022493059039598664 0.0013397400899793608 0 -0.022346383274111089 0.0011118435883709706 0 -0.022110887552997571 0.001589033900650631 0 -0.022215071648599913 0.001553774418826542 0 -0.023223258154711494 0.0022273493166638323 0 -0.022215071648599913 0.001553774418826542 0 -0.022796925666604871 0.00158843715445614 0 -0.023223258154711494 0.0022273493166638323 0 -0.022796925666604871 0.00158843715445614 0 -0.023223258154711494 0.0022273493166638323 0 -0.023190811256739274 0.0014036261908616011 0 -0.022493059039598664 0.0013397400899793608 0 -0.022863723915819201 0.0012867445635105072 0 -0.022796925666604871 0.00158843715445614 0 -0.022863723915819201 0.0012867445635105072 0 -0.022796925666604871 0.00158843715445614 0 -0.023190811256739274 0.0014036261908616011 0 -0.03119055595104438 -0.00084620917384208353 0 -0.031116996014806421 -0.00012093703672125888 0 -0.031710914110375236 -0.001030270513349999 0 -0.032166168459798652 -0.00053870734409059838 0 -0.032148357018916968 -0.00022611772181775492 0 -0.032166168459798652 -0.00053870734409059838 0 -0.032581557757585214 -0.00022820091433366457 0 -0.032254806923866793 -0.00032370014212733931 0 -0.032303856479770535 -0.00033985697519854662 0 -0.032314331178163257 -0.00035529940019773509 0 -0.033108697136283879 -8.0408211888995749e-05 0 -0.033132893780283071 -0.00013832217592553116 0 -0.033046740726988807 -8.2733579978865792e-05 0 -0.034377482272223939 8.7800546883224612e-05 0 -0.032409005649224033 -0.00066759853114965078 0 -0.033165203861220321 -5.1693027322115688e-05 0 -0.033108697136283879 -8.0408211888995749e-05 0 -0.033132893780283071 -0.00013832217592553116 0 -0.033165203861220321 -5.1693027322115688e-05 0 -0.033132893780283071 -0.00013832217592553116 0 -0.033179981058056557 -0.00015723843415576109 0 -0.032166168459798652 -0.00053870734409059838 0 -0.031615091265034624 -0.00080320604489033634 0 -0.032054671965576736 -0.00080847594023791391 0 -0.03197552220522934 -0.00078021831896574461 0 -0.031971523458944447 -0.00076158558308195116 0 -0.032166168459798652 -0.00053870734409059838 0 -0.032409005649224033 -0.00066759853114965078 0 -0.034859777260700914 2.4451630974394902e-05 0 -0.034868129640106958 1.4463221029232521e-05 0 -0.034853326061838157 2.0827551884817948e-05 0 -0.032409005649224033 -0.00066759853114965078 0 -0.031615091265034624 -0.00080320604489033634 0 -0.03486967015646527 1.2004602253999948e-05 0 -0.034859777260700914 2.4451630974394902e-05 0 -0.034868129640106958 1.4463221029232521e-05 0 -0.034377482272223939 8.7800546883224612e-05 0 -0.034704461228595003 -4.6320940634931467e-05 0 -0.034867108668186091 1.1502658327372906e-05 0 -0.034868129640106958 1.4463221029232521e-05 0 -0.034853326061838157 2.0827551884817948e-05 0 -0.034859777260700914 2.4451630974394902e-05 0 -0.034853326061838157 2.0827551884817948e-05 0 -0.034838199543037768 3.4690243966162175e-05 0 -0.028934339126936829 0.00090303547149787867 0 -0.030356284702026677 -0.00052686661415278578 0 -0.03228625717790895 -0.0010237146843998959 0 -0.026815104240533225 -0.00012172013906689684 0 -0.031615091265034624 -0.00080320604489033634 0 -0.027530392061747535 -0.00047091177600400494 0 -0.028945989152721306 -0.00041977609577562491 0 -0.029158083031960474 -0.001393236581355037 0 -0.032409005649224033 -0.00066759853114965078 0 -0.033144836884722639 -0.00047452269139950927 0 -0.030672475635688572 7.2600219173668082e-05 0 -0.030832754507914308 -0.00064470505574308731 0 -0.031116996014806421 -0.00012093703672125888 0 -0.029824339713677005 -9.8044000435244748e-05 0 -0.031615091265034624 -0.00080320604489033634 0 -0.032332736684790198 -0.0012508563762747063 0 -0.030356284702026677 -0.00052686661415278578 0 -0.03228625717790895 -0.0010237146843998959 0 -0.031674122816682616 0.00051515165836871842 0 -0.032028995311371336 7.0846921721004296e-05 0 -0.032055850520763082 0.00041352337433633412 0 -0.031608757486001719 0.00014529806518742773 0 -0.032148357018916968 -0.00022611772181775492 0 -0.03119055595104438 -0.00084620917384208353 0 -0.030832754507914308 -0.00064470505574308731 0 -0.031116996014806421 -0.00012093703672125888 0 -0.031674122816682616 0.00051515165836871842 0 -0.031769039161204958 0.00067500757402781946 0 -0.032055850520763082 0.00041352337433633412 0 -0.031674122816682616 0.00051515165836871842 0 -0.031769039161204958 0.00067500757402781946 0 -0.031673746843956345 0.00064520300636771387 0 -0.031674122816682616 0.00051515165836871842 0 -0.031673746843956345 0.00064520300636771387 0 -0.031624177065101282 0.00064379993593267914 0 -0.031769039161204958 0.00067500757402781946 0 -0.031673746843956345 0.00064520300636771387 0 -0.0316084324151822 0.00060136909665591876 0 -0.031608757486001719 0.00014529806518742773 0 -0.028874542092914179 0.00014090398242180016 0 -0.030672475635688572 7.2600219173668082e-05 0 -0.031116996014806421 -0.00012093703672125888 0 -0.03050634336665679 0.00078628377419877533 0 -0.027530392061747535 -0.00047091177600400494 0 -0.028945989152721306 -0.00041977609577562491 0 -0.028734297237953524 0.00054817271349014173 0 -0.027530392061747535 -0.00047091177600400494 0 -0.028734297237953524 0.00054817271349014173 0 -0.02855647592759911 0.00082110587893060606 0 -0.031673746843956345 0.00064520300636771387 0 -0.031624177065101282 0.00064379993593267914 0 -0.031629345733065022 0.00062261179312721551 0 -0.029824339713677005 -9.8044000435244748e-05 0 -0.028874542092914179 0.00014090398242180016 0 -0.027550258622862485 0.00010275813873249727 0 -0.030751450565306711 -6.4144189344969324e-05 0 -0.031654484054737662 0.00061579139871145402 0 -0.03159088693575423 0.00057275520544378383 0 -0.031550844948079221 0.000489932429105842 0 -0.028874542092914179 0.00014090398242180016 0 -0.027550258622862485 0.00010275813873249727 0 -0.028125763198749112 0.00041920720245569799 0 -0.028288946281517641 0.00015567806911703926 0 -0.02819792946616273 4.1529547015566675e-05 0 -0.028874542092914179 0.00014090398242180016 0 -0.025946997274022075 0.00027973791063805423 0 -0.025946997274022075 0.00027973791063805423 0 -0.027550258622862485 0.00010275813873249727 0 -0.025946997274022075 0.00027973791063805423 0 -0.02180380862681976 0.0004429212078955147