<?xml version="1.0"?>
<VTKFile type="UnstructuredGrid" version="0.1" byte_order="LittleEndian">
<UnstructuredGrid>
<Piece NumberOfPoints="28800" NumberOfCells="10071">
<Points>
<DataArray type="Float64" NumberOfComponents="3" format="ascii">
-0.48845978519967392 -0.49999999999999878 0 -0.5 -0.5 0 -0.48847524721005109 -0.48113855282930679 0 -0.5 -0.5 0 -0.48847524721005109 -0.48113855282930679 0 -0.5 -0.44533905111250399 0 -0.47399116852550238 -0.47906591784546038 0 -0.47399889953069058 -0.4696351942601148 0 -0.45952255185133017 -0.45813183569092247 0 -0.48847524721005109 -0.48113855282930679 0 -0.47399889953069058 -0.4696351942601148 0 -0.48847524721005109 -0.48113855282930679 0 -0.47399116852550238 -0.47906591784546038 0 -0.47399889953069058 -0.4696351942601148 0 -0.48845978519967392 -0.49999999999999878 0 -0.48847524721005109 -0.48113855282930679 0 -0.47399116852550238 -0.47906591784546038 0 -0.48845978519967392 -0.49999999999999878 0 -0.47399116852550238 -0.47906591784546038 0 -0.48845978519967392 -0.49999999999999878 0 -0.47399116852550238 -0.47906591784546038 0 -0.47240354374103682 -0.5 0 -0.47240354374103682 -0.5 0 -0.4563473022823995 -0.49999999999999889 0 -0.45859955168969169 -0.48399583434959709 0 -0.47399116852550238 -0.47906591784546038 0 -0.47240354374103682 -0.5 0 -0.45859955168969169 -0.48399583434959709 0 -0.47399116852550238 -0.47906591784546038 0 -0.4595840785933013 -0.47021189552928999 0 -0.45859955168969169 -0.48399583434959709 0 -0.47399116852550238 -0.47906591784546038 0 -0.4595840785933013 -0.47021189552928999 0 -0.45952255185133017 -0.45813183569092247 0 -0.4595840785933013 -0.47021189552928999 0 -0.45859955168969169 -0.48399583434959709 0 -0.4472434753811072 -0.47249603102815779 0 -0.4472434753811072 -0.47249603102815779 0 -0.43592330524333922 -0.48762220332400369 0 -0.43274165805303699 -0.47110944383739001 0 -0.45859955168969169 -0.48399583434959709 0 -0.4472434753811072 -0.47249603102815779 0 -0.43592330524333922 -0.48762220332400369 0 -0.4472434753811072 -0.47249603102815779 0 -0.43592330524333922 -0.48762220332400369 0 -0.4563473022823995 -0.49999999999999889 0 -0.43592330524333922 -0.48762220332400369 0 -0.4563473022823995 -0.49999999999999889 0 -0.42665997268554218 -0.49999999999999939 0 -0.43592330524333922 -0.48762220332400369 0 -0.4563473022823995 -0.49999999999999889 0 -0.45859955168969169 -0.48399583434959709 0 -0.43592330524333922 -0.48762220332400369 0 -0.44947514693095081 -0.44359463391277298 0 -0.45952255185133017 -0.45813183569092247 0 -0.43566714521728023 -0.43917558357516279 0 -0.43926643517818781 -0.45814775152321707 0 -0.45952255185133017 -0.45813183569092247 0 -0.43566714521728023 -0.43917558357516279 0 -0.45952255185133017 -0.45813183569092247 0 -0.43566714521728023 -0.43917558357516279 0 -0.4472434753811072 -0.47249603102815779 0 -0.43926643517818781 -0.45814775152321707 0 -0.45952255185133017 -0.45813183569092247 0 -0.4472434753811072 -0.47249603102815779 0 -0.43926643517818781 -0.45814775152321707 0 -0.43274165805303699 -0.47110944383739001 0 -0.47399116852550238 -0.47906591784546038 0 -0.45952255185133017 -0.45813183569092247 0 -0.4472434753811072 -0.47249603102815779 0 -0.45952255185133017 -0.45813183569092247 0 -0.4595840785933013 -0.47021189552928999 0 -0.4472434753811072 -0.47249603102815779 0 -0.45952255185133017 -0.45813183569092247 0 -0.47399889953069058 -0.4696351942601148 0 -0.45952255185133017 -0.45813183569092247 0 -0.47399889953069058 -0.4696351942601148 0 -0.45952255185133017 -0.45813183569092247 0 -0.47256434925375629 -0.4543160115402386 0 -0.45952255185133017 -0.45813183569092247 0 -0.4705119240481388 -0.44140439907288298 0 -0.45952255185133017 -0.45813183569092247 0 -0.4705119240481388 -0.44140439907288298 0 -0.47256434925375629 -0.4543160115402386 0 -0.45952255185133017 -0.45813183569092247 0 -0.46020884415810842 -0.44270473187900439 0 -0.4705119240481388 -0.44140439907288298 0 -0.44947514693095081 -0.44359463391277298 0 -0.45952255185133017 -0.45813183569092247 0 -0.46020884415810842 -0.44270473187900439 0 -0.44947514693095081 -0.44359463391277298 0 -0.45952255185133017 -0.45813183569092247 0 -0.44947514693095081 -0.44359463391277298 0 -0.46020884415810842 -0.44270473187900439 0 -0.46152098141980358 -0.43010050424306501 0 -0.46020884415810842 -0.44270473187900439 0 -0.4705119240481388 -0.44140439907288298 0 -0.46152098141980358 -0.43010050424306501 0 -0.4705119240481388 -0.44140439907288298 0 -0.5 -0.44533905111250399 0 -0.4792605511723772 -0.42821039908633651 0 -0.4705119240481388 -0.44140439907288298 0 -0.47256434925375629 -0.4543160115402386 0 -0.5 -0.44533905111250399 0 -0.48847524721005109 -0.48113855282930679 0 -0.47399889953069058 -0.4696351942601148 0 -0.5 -0.44533905111250399 0 -0.47399889953069058 -0.4696351942601148 0 -0.47256434925375629 -0.4543160115402386 0 -0.5 -0.44533905111250399 0 -0.5 -0.44533905111250399 0 -0.49309399373994639 -0.41203070099268269 0 -0.50000000000000111 -0.37443756057980321 0 -0.5 -0.44533905111250399 0 -0.49309399373994639 -0.41203070099268269 0 -0.4792605511723772 -0.42821039908633651 0 -0.49309399373994639 -0.41203070099268269 0 -0.47117585665399719 -0.41217734001054768 0 -0.4792605511723772 -0.42821039908633651 0 -0.49309399373994639 -0.41203070099268269 0 -0.47117585665399719 -0.41217734001054768 0 -0.47977652772236101 -0.39824576647622578 0 -0.4705119240481388 -0.44140439907288298 0 -0.4792605511723772 -0.42821039908633651 0 -0.46152098141980358 -0.43010050424306501 0 -0.47117585665399719 -0.41217734001054768 0 -0.4792605511723772 -0.42821039908633651 0 -0.46152098141980358 -0.43010050424306501 0 -0.49309399373994639 -0.41203070099268269 0 -0.48974847569938162 -0.38740747336048043 0 -0.50000000000000111 -0.37443756057980321 0 -0.48974847569938162 -0.38740747336048043 0 -0.48642312672438037 -0.36278150539002052 0 -0.49309399373994639 -0.41203070099268269 0 -0.48974847569938162 -0.38740747336048043 0 -0.49309399373994639 -0.41203070099268269 0 -0.48974847569938162 -0.38740747336048043 0 -0.47977652772236101 -0.39824576647622578 0 -0.47117585665399719 -0.41217734001054768 0 -0.46888544292523088 -0.39635475194215308 0 -0.47977652772236101 -0.39824576647622578 0 -0.46888544292523088 -0.39635475194215308 0 -0.47977652772236101 -0.39824576647622578 0 -0.47597886959324831 -0.38325856607526532 0 -0.48974847569938162 -0.38740747336048043 0 -0.47597886959324831 -0.38325856607526532 0 -0.48642312672438037 -0.36278150539002052 0 -0.48974847569938162 -0.38740747336048043 0 -0.47977652772236101 -0.39824576647622578 0 -0.47597886959324831 -0.38325856607526532 0 -0.46047226212004638 -0.38263127002788261 0 -0.45901914900730112 -0.37110511580400812 0 -0.44873199880990072 -0.37273943711263691 0 -0.46047226212004638 -0.38263127002788261 0 -0.46822743030822173 -0.37194584080839632 0 -0.45901914900730112 -0.37110511580400812 0 -0.47597886959324831 -0.38325856607526532 0 -0.46047226212004638 -0.38263127002788261 0 -0.46822743030822173 -0.37194584080839632 0 -0.46888544292523088 -0.39635475194215308 0 -0.47597886959324831 -0.38325856607526532 0 -0.46047226212004638 -0.38263127002788261 0 -0.46047226212004638 -0.38263127002788261 0 -0.45468813848504092 -0.39440257360107378 0 -0.44847238099986392 -0.38642364760353781 0 -0.47117585665399719 -0.41217734001054768 0 -0.46888544292523088 -0.39635475194215308 0 -0.45833632796015239 -0.40493197539091069 0 -0.46888544292523088 -0.39635475194215308 0 -0.46047226212004638 -0.38263127002788261 0 -0.45468813848504092 -0.39440257360107378 0 -0.46888544292523088 -0.39635475194215308 0 -0.45468813848504092 -0.39440257360107378 0 -0.45833632796015239 -0.40493197539091069 0 -0.45468813848504092 -0.39440257360107378 0 -0.45833632796015239 -0.40493197539091069 0 -0.44886706629917839 -0.40168544137085299 0 -0.45833632796015239 -0.40493197539091069 0 -0.44886706629917839 -0.40168544137085299 0 -0.44725281353906732 -0.41125260250332968 0 -0.44886706629917839 -0.40168544137085299 0 -0.43925595896224251 -0.40336051013321089 0 -0.44353535399930538 -0.395049807548084 0 -0.44886706629917839 -0.40168544137085299 0 -0.43925595896224251 -0.40336051013321089 0 -0.44725281353906732 -0.41125260250332968 0 -0.44353535399930538 -0.395049807548084 0 -0.4388190928287643 -0.38837495895815549 0 -0.43548642635465801 -0.39363153856849992 0 -0.43925595896224251 -0.40336051013321089 0 -0.44353535399930538 -0.395049807548084 0 -0.43548642635465801 -0.39363153856849992 0 -0.45468813848504092 -0.39440257360107378 0 -0.44886706629917839 -0.40168544137085299 0 -0.44353535399930538 -0.395049807548084 0 -0.45468813848504092 -0.39440257360107378 0 -0.44353535399930538 -0.395049807548084 0 -0.44847238099986392 -0.38642364760353781 0 -0.4388190928287643 -0.38837495895815549 0 -0.44873199880990072 -0.37273943711263691 0 -0.4388190928287643 -0.38837495895815549 0 -0.43442955601071059 -0.38033021618326229 0 -0.44873199880990072 -0.37273943711263691 0 -0.44847238099986392 -0.38642364760353781 0 -0.4388190928287643 -0.38837495895815549 0 -0.44873199880990072 -0.37273943711263691 0 -0.44847238099986392 -0.38642364760353781 0 -0.4388190928287643 -0.38837495895815549 0 -0.44353535399930538 -0.395049807548084 0 -0.44847238099986392 -0.38642364760353781 0 -0.4388190928287643 -0.38837495895815549 0 -0.46047226212004638 -0.38263127002788261 0 -0.44847238099986392 -0.38642364760353781 0 -0.44873199880990072 -0.37273943711263691 0 -0.46152098141980358 -0.43010050424306501 0 -0.45713073400600129 -0.41668745731737777 0 -0.44582116554119428 -0.42576176157496959 0 -0.47117585665399719 -0.41217734001054768 0 -0.46152098141980358 -0.43010050424306501 0 -0.45713073400600129 -0.41668745731737777 0 -0.47117585665399719 -0.41217734001054768 0 -0.45833632796015239 -0.40493197539091069 0 -0.45713073400600129 -0.41668745731737777 0 -0.45833632796015239 -0.40493197539091069 0 -0.45713073400600129 -0.41668745731737777 0 -0.44725281353906732 -0.41125260250332968 0 -0.45713073400600129 -0.41668745731737777 0 -0.44725281353906732 -0.41125260250332968 0 -0.4458
[...]
<PointData Scalars="" Vectors="displacement," Tensors="">
<DataArray type="Float64" Name="displacement" NumberOfComponents="3" format="ascii">
-2.1744435704230334e-07 -0.034997001793285465 0 5.3128627190961689e-07 -0.034999929659652124 0 7.5377403078266355e-05 -0.033499009372855125 0 5.3128627190961689e-07 -0.034999929659652124 0 7.5377403078266355e-05 -0.033499009372855125 0 -9.3861414801392847e-07 -0.03117362858399389 0 7.325837447161471e-05 -0.033383842585946975 0 -1.2449289405699464e-05 -0.033379873112770506 0 -0.0001203058257795428 -0.033235113049722577 0 0.0001027659268079382 -0.033320900253955871 0 -8.4539771186432975e-05 -0.032660626667743595 0 7.5377403078266355e-05 -0.033499009372855125 0 7.325837447161471e-05 -0.033383842585946975 0 -1.2449289405699464e-05 -0.033379873112770506 0 -2.1744435704230334e-07 -0.034997001793285465 0 7.5377403078266355e-05 -0.033499009372855125 0 7.325837447161471e-05 -0.033383842585946975 0 -3.2248986534374303e-07 -0.034999347619855646 0 3.9599565073905221e-05 -0.034417484529309296 0 1.5565911428050309e-09 -0.035000004460545318 0 -1.2000843806492212e-05 -0.034994726018457795 0 -4.9372849382079262e-09 -0.03500000336031163 0 -4.9372849382079262e-09 -0.03500000336031163 0 -7.6997225992788072e-10 -0.03499995172116277 0 -9.8487081232205405e-06 -0.034989806199176812 0 -1.2000843806492212e-05 -0.034994726018457795 0 -4.9372849382079262e-09 -0.03500000336031163 0 -9.8487081232205405e-06 -0.034989806199176812 0 -1.2000843806492212e-05 -0.034994726018457795 0 -1.9876461864416003e-05 -0.034980535199501984 0 -9.8487081232205405e-06 -0.034989806199176812 0 -1.2000843806492212e-05 -0.034994726018457795 0 -1.9876461864416003e-05 -0.034980535199501984 0 -2.8892374985175466e-05 -0.034971195815807196 0 -1.9876461864416003e-05 -0.034980535199501984 0 -9.8487081232205405e-06 -0.034989806199176812 0 -1.9089215208584053e-05 -0.034977514779687198 0 -0.00022272953992269806 -0.03484598341242718 0 -0.00023705548553904616 -0.034862092624067045 0 -0.00021768796841418466 -0.034865404128064666 0 -9.8487081232205405e-06 -0.034989806199176812 0 -1.9089215208584053e-05 -0.034977514779687198 0 -8.1786339201207676e-06 -0.034973934839516566 0 -0.00028779955601539159 -0.035114333624507596 0 -3.08520842351979e-05 -0.034947981967134251 0 3.3326578240301701e-08 -0.035000050409016471 0 -3.08520842351979e-05 -0.034947981967134251 0 -5.0203021552577921e-11 -0.034999999954445839 0 -2.2832224827703051e-10 -0.034999999307273266 0 -1.6863602729537634e-07 -0.03499979930067789 0 -7.6997225992788072e-10 -0.03499995172116277 0 -9.8487081232205405e-06 -0.034989806199176812 0 -8.1786339201207676e-06 -0.034973934839516566 0 -0.00016655177036719462 -0.030900451171726958 0 -0.00030425240709087487 -0.030792827304696537 0 -0.00013938567909528078 -0.031069890805823515 0 -0.0002086244936058408 -0.034857077151934833 0 -0.0002059866670959429 -0.034820401441613219 0 -0.00021012019502159886 -0.034865758742607035 0 -0.00014715440925938686 -0.032719560958547757 0 -0.00018798634738240879 -0.033232921893409373 0 -0.00022272953992269806 -0.03484598341242718 0 -0.0002086244936058408 -0.034857077151934833 0 -0.0002059866670959429 -0.034820401441613219 0 -0.00022272953992269806 -0.03484598341242718 0 -0.0002086244936058408 -0.034857077151934833 0 -0.00021768796841418466 -0.034865404128064666 0 3.9599565073905221e-05 -0.034417484529309296 0 -0.00014715440925938686 -0.032719560958547757 0 -0.00028779955601539159 -0.035114333624507596 0 -0.00014715440925938686 -0.032719560958547757 0 -1.9876461864416003e-05 -0.034980535199501984 0 -1.9089215208584053e-05 -0.034977514779687198 0 -2.8892374985175466e-05 -0.034971195815807196 0 -8.4539771186432975e-05 -0.032660626667743595 0 -0.00014715440925938686 -0.032719560958547757 0 -2.3212777930651677e-05 -0.032004051428451204 0 -4.0273399991289662e-05 -0.031381270314422283 0 -6.2530760371696948e-05 -0.031405364790929424 0 -0.00014715440925938686 -0.032719560958547757 0 7.0561120529863723e-05 -0.030706987142187628 0 -4.0273399991289662e-05 -0.031381270314422283 0 -0.00014314442323984866 -0.030926087846123707 0 -6.2530760371696948e-05 -0.031405364790929424 0 -0.00012993656481927247 -0.030861211431093237 0 -0.00014471482828347447 -0.030853415091577772 0 -0.00014314442323984866 -0.030926087846123707 0 -0.00016655177036719462 -0.030900451171726958 0 -0.00012993656481927247 -0.030861211431093237 0 -0.00014471482828347447 -0.030853415091577772 0 -0.00046955731238280339 -0.030654040569560278 0 -0.00014715440925938686 -0.032719560958547757 0 -0.00016655177036719462 -0.030900451171726958 0 -0.00014471482828347447 -0.030853415091577772 0 -8.820609990179566e-05 -0.030752574658713443 0 -0.00014471482828347447 -0.030853415091577772 0 -0.00014314442323984866 -0.030926087846123707 0 -8.820609990179566e-05 -0.030752574658713443 0 -0.00014314442323984866 -0.030926087846123707 0 -9.3861414801392847e-07 -0.03117362858399389 0 -0.00014211649616369581 -0.030415542551224504 0 -0.00014314442323984866 -0.030926087846123707 0 -6.2530760371696948e-05 -0.031405364790929424 0 -9.3861414801392847e-07 -0.03117362858399389 0 7.5377403078266355e-05 -0.033499009372855125 0 -2.3212777930651677e-05 -0.032004051428451204 0 -9.3861414801392847e-07 -0.03117362858399389 0 -2.3212777930651677e-05 -0.032004051428451204 0 -6.2530760371696948e-05 -0.031405364790929424 0 -9.3861414801392847e-07 -0.03117362858399389 0 -9.3861414801392847e-07 -0.03117362858399389 0 2.0937429953347383e-05 -0.029124846103603642 0 1.0808043865052004e-06 -0.026213663474561982 0 -9.3861414801392847e-07 -0.03117362858399389 0 2.0937429953347383e-05 -0.029124846103603642 0 -0.00014211649616369581 -0.030415542551224504 0 2.0937429953347383e-05 -0.029124846103603642 0 0.00020218455156764217 -0.030352809248724917 0 -0.00014211649616369581 -0.030415542551224504 0 2.0937429953347383e-05 -0.029124846103603642 0 0.00020218455156764217 -0.030352809248724917 0 0.00066498689531194102 -0.029854011500978883 0 -0.00014314442323984866 -0.030926087846123707 0 -0.00014211649616369581 -0.030415542551224504 0 -8.820609990179566e-05 -0.030752574658713443 0 0.00020218455156764217 -0.030352809248724917 0 -0.00014211649616369581 -0.030415542551224504 0 -8.820609990179566e-05 -0.030752574658713443 0 2.0937429953347383e-05 -0.029124846103603642 0 -9.0608349799655872e-05 -0.027178316636415407 0 1.0808043865052004e-06 -0.026213663474561982 0 0.00048439285564837382 -0.028591913375419446 0 0.00089704633166280646 -0.026339584260980226 0 -9.4035566509274851e-05 -0.028884887304420855 0 0.00048439285564837382 -0.028591913375419446 0 2.0937429953347383e-05 -0.029124846103603642 0 0.0010554597825058456 -0.02946866149655886 0 0.00066498689531194102 -0.029854011500978883 0 0.00020218455156764217 -0.030352809248724917 0 0.00071307713316323717 -0.03024584848211602 0 0.00066498689531194102 -0.029854011500978883 0 0.00071307713316323717 -0.03024584848211602 0 0.00066498689531194102 -0.029854011500978883 0 0.0011517865145206584 -0.029934109279484304 0 0.0010554597825058456 -0.02946866149655886 0 0.0011517865145206584 -0.029934109279484304 0 0.0017568211141231929 -0.029569882485757239 0 0.0010554597825058456 -0.02946866149655886 0 0.00066498689531194102 -0.029854011500978883 0 0.0011517865145206584 -0.029934109279484304 0 0.0011286775546700235 -0.030417705978877212 0 0.0014872330819140124 -0.030419520523430846 0 0.0014264549020997185 -0.030729107581838545 0 0.0011286775546700235 -0.030417705978877212 0 0.0014733035282907018 -0.030139615784532992 0 0.0014872330819140124 -0.030419520523430846 0 0.0011517865145206584 -0.029934109279484304 0 0.0011286775546700235 -0.030417705978877212 0 0.0014733035282907018 -0.030139615784532992 0 0.00071307713316323717 -0.03024584848211602 0 0.0011517865145206584 -0.029934109279484304 0 0.0011286775546700235 -0.030417705978877212 0 0.0011286775546700235 -0.030417705978877212 0 0.00075416908154439868 -0.030633352387496857 0 0.00098929494200192649 -0.030763159890416007 0 0.00020218455156764217 -0.030352809248724917 0 0.00071307713316323717 -0.03024584848211602 0 0.00044625471184665068 -0.030603766614244479 0 0.00071307713316323717 -0.03024584848211602 0 0.0011286775546700235 -0.030417705978877212 0 0.00075416908154439868 -0.030633352387496857 0 0.00071307713316323717 -0.03024584848211602 0 0.00075416908154439868 -0.030633352387496857 0 0.00044625471184665068 -0.030603766614244479 0 0.00075416908154439868 -0.030633352387496857 0 0.00044625471184665068 -0.030603766614244479 0 0.00054384129593583734 -0.030799937410745225 0 0.00044625471184665068 -0.030603766614244479 0 0.00054384129593583734 -0.030799937410745225 0 0.0003107458937300989 -0.030861873438748025 0 0.00054384129593583734 -0.030799937410745225 0 0.00050677192034560804 -0.031001224324469508 0 0.00071532204456306668 -0.030903284546081013 0 0.00054384129593583734 -0.030799937410745225 0 0.00050677192034560804 -0.031001224324469508 0 0.0003107458937300989 -0.030861873438748025 0 0.00071532204456306668 -0.030903284546081013 0 0.00088579566818716444 -0.031001872611453332 0 0.0007328055486480724 -0.031059961035128848 0 0.00050677192034560804 -0.031001224324469508 0 0.00071532204456306668 -0.030903284546081013 0 0.0007328055486480724 -0.031059961035128848 0 0.00075416908154439868 -0.030633352387496857 0 0.00054384129593583734 -0.030799937410745225 0 0.00071532204456306668 -0.030903284546081013 0 0.00075416908154439868 -0.030633352387496857 0 0.00071532204456306668 -0.030903284546081013 0 0.00098929494200192649 -0.030763159890416007 0 0.0011678871289122989 -0.026796586232003695 0 0.000925555912086651 -0.023466293904052572 0 -0.00067266560149402063 -0.017060794457914485 0 -0.00015914066068480303 -0.017309000147156594 0 0.00029198727218983069 -0.016430082932802324 0 0.00098929494200192649 -0.030763159890416007 0 0.00092980821182000388 -0.031023171893786929 0 0.0014264549020997185 -0.030729107581838545 0 0.0006564878357086997 -0.031112385863503633 0 0.0011678871289122989 -0.026796586232003695 0 0.00071532204456306668 -0.030903284546081013 0 0.00098929494200192649 -0.030763159890416007 0 0.00088579566818716444 -0.031001872611453332 0 0.0011286775546700235 -0.030417705978877212 0 0.00098929494200192649 -0.030763159890416007 0 0.0014264549020997185 -0.030729107581838545 0 -8.820609990179566e-05 -0.030752574658713443 0 0.00016386840151530921 -0.030703276004385341 0 2.9192590895360871e-05 -0.030915777213412206 0 0.00020218455156764217 -0.030352809248724917 0 -8.820609990179566e-05 -0.030752574658713443 0 0.00016386840151530921 -0.030703276004385341 0 0.00020218455156764217 -0.030352809248724917 0 0.00044625471184665068 -0.030603766614244479 0 0.00016386840151530921 -0.030703276004385341 0 0.00044625471184665068 -0.030603766614244479 0 0.00016386840151530921 -0.030703276004385341 0 0.0003107458937300989 -0.030861873438748025 0 0.00016386840151530921 -0.030703276004385341 0 0.0003107458937300989 -0.030861873438748025 0 2.9192590895360871e-05 -0.030915777213412206 0 0.00050677192034560804 -0.031001224324469508 0 0.0003107458937300989 -0.030861873438748025 0 0.00026248802679367731 -0.031065582191221311 0 0.0003107458937300989 -0.030861873438748025 0 2.9192590895360871e-05 -0.030915777213412206 0 0.00026248802679367731 -0.031065582191221311 0 2.9192590895360871e-05 -0.030915777213412206 0 8.0621948858785691e-05 -0.031136821482015312 0 0.00026248802679367731 -0.031065582191221311 0 -0.00016655177036719462 -0.030900451171726958 0 -8.820609990179566e-05 -0.030752574658713443 0 2.9192590895360871e-05 -0.030915777213412206 0 -0.00016655177036719462 -0.030900451171726958 0 2.9192590895360871e-05 -0.030915777213412206 0 -0.00013938567909528078 -0.031069890805823515 0 2.9192590895360871e-05 -0.030915777213412206 0 8.0621948858785691e-05 -0.031136821482015312 0 -0.00013938567909528078 -0.031069890805823515 0 8.0621948858785691e-05 -0.031136821482015312 0 0.00014783113725446887 -0.031495833229950913 0 -0.00013938567909528078 -0.031069890805823515 0 -0.00027831897203864662 -0.034851211704353811 0 -0.00021012019502159886 -0.034865758742607035 0 -0.00022532557696280261 -0.034865487693241555 0 0.00024912052786629741 -0.031746245278536186 0 -0.00018798634738240879 -0.033232921893409373 0 8.0621948858785691e-05 -0.031136821482015312 0 0.00026248802679367731 -0.031065582191221311 0 0.00028047218591674395 -0.031256287104358633 0 8.0621948858785691e-05 -0.031136821482015312 0 0.00028047218591674395 -0.031256287104358633 0 0.00014783113725446887 -0.031495833229950913 0 0.00050677192034560804 -0.031001224324469508 0 0.00026248802679367731 -0.031065582191221311 0 0.00048514507413547589 -0.031185246097537651 0 0.00026248802679367731 -0.031065582191221311 0 0.00028047218591674395 -0.031256287104358633 0 0.00048514507413547589 -0.031185246097537651 0 0.00028047218591674395 -0.031256287104358633 0 0.00048514507413547589 -0.031185246097537651 0 0.00044386473659077273 -0.031401911643876915 0 0.00024912052786629741 -0.031746245278536186 0 0.00025645034475043282 -0.029645213057737752 0 0.00028047218591674395 -0.031256287104358633 0 0.00014783113725446887 -0.031495833229950913 0 0.00044386473659077273 -0.031401911643876915 0 -0.00089570316383939851 -0.028524685610492546 0 -0.00055586966050925207 -0.028950351107753788 0 0.00029419271806537407 -0.028046515087634685 0 -0.00031078628933460566 -0.034829499122173715 0 -0.00027536000494551019 -0.034850997657230452 0 -0.00028399913668279475 -0.034829764831939884 0 -0.00028324411279699732 -0.034851756279144948 0 -0.00031078628933460566 -0.034829499122173715 0 -0.00027536000494551019 -0.034850997657230452 0 0.00024912052786629741 -0.031746245278536186 0 0.00013007320453520228 -0.031864605600888975 0 0.00024912052786629741 -0.031746245278536186 0 0.00026860488919721172 -0.030154313067333949 0 -0.00027536000494551019 -0.034850997657230452 0 -0.00026641288500164239 -0.034845709890565332 0 -0.00024848706009536481 -0.034856258329800292 0 -0.00027536000494551019 -0.034850997657230452 0 -0.00026641288500164239 -0.034845709890565332 0 -0.00028399913668279475 -0.034829764831939884 0 -0.00027831897203864662 -0.034851211704353811 0 -0.00027536000494551019 -0.034850997657230452 0 -0.00022532557696280261 -0.034865487693241555 0 -0.00027536000494551019 -0.034850997657230452 0 -0.00024848706009536481 -0.034856258329800292 0 -0.00022532557696280261 -0.034865487693241555 0 -0.00024848706009536481 -0.034856258329800292 0 -0.00022532557696280261 -0.034865487693241555 0 -0.00023284032144393405 -0.03486273392959293 0 -0.00026641288500164239 -0.034845709890565332 0 -0.00024816851223347937 -0.034852581495314831 0 -0.00024848706009536481 -0.034856258329800292 0 -0.00024816851223347937 -0.034852581495314831 0 -0.00024848706009536481 -0.034856258329800292 0 -0.00023284032144393405 -0.03486273392959293 0 0.00084307731477880992 -0.019629221729567489 0 0.00072462671223302486 -0.020930322599475228 0 0.0017652881617286399 -0.019280164619844026 0 0.00068560999430530942 -0.020456368834063467 0 0.0014207450793683048 -0.01733316844800387 0 0.00068560999430530942 -0.020456368834063467 0 0.0014763294713594998 -0.017068394687173964 0 0.00017318424190999266 -0.019105207962061346 0 0.0017594267321541705 -0.018507468636879607 0 0.0020898752687220292 -0.017978659740781312 0 -0.00015914066068480303 -0.017309000147156594 0 -0.00041384431056338156 -0.017893594293568283 0 0.00041809744027418016 -0.01728832106731196 0 0.0011678871289122989 -0.026796586232003695 0 -0.00011496114499575783 -0.024374104112159501 0 -0.00067266560149402063 -0.017060794457914485 0 -0.00015914066068480303 -0.017309000147156594 0 -0.00041384431056338156 -0.017893594293568283 0 -0.00067266560149402063 -0.017060794457914485 0 -0.00041384431056338156 -0.017893594293568283 0 -0.00089540331557151653 -0.018097310327692889 0 0.00068560999430530942 -0.020456368834063467 0 0.00021968651398400585 -0.023771987102781188 0 0.0012684291289379718 -0.021940050224506621 0 -0.00065224247487066518 -0.022652322122354403 0 -0.00074439077288356525 -0.023109910918890815 0 0.00068560999430530942 -0.020456368834063467 0 -0.00011496114499575783 -0.024374104112159501 0 0.00076376336092513926 -0.031280394201943604 0 0.0007328055486480724 -0.031059961035128848 0 0.00048514507413547589 -0.031185246097537651 0 -0.00011496114499575783 -0.024374104112159501 0 0.00021968651398400585 -0.023771987102781188 0 0.0008413792929040354 -0.030980783229625858 0 0.00076376336092513926 -0.031280394201943604 0 0.0007328055486480724 -0.031059961035128848 0 0.0011678871289122989 -0.026796586232003695 0 5.4663712774565446e-05 -0.028731488820358746 0 0.00050677192034560804 -0.031001224324469508 0 0.0007328055486480724 -0.031059961035128848 0 0.00048514507413547589 -0.031185246097537651 0 0.00076376336092513926 -0.031280394201943604 0 0.00048514507413547589 -0.031185246097537651 0 0.00044386473659077273 -0.031401911643876915 0 -0.00055586966050925207 -0.028950351107753788 0 0.00029419271806537407 -0.028046515087634685 0 0.0014565547942859151 -0.027705460263173481 0 0.00026860488919721172 -0.030154313067333949 0 0.00021968651398400585 -0.023771987102781188 0 7.4545098232966356e-05 -0.026111949966401916 0 0.00062126322244785944 -0.026102854048741721 0 0.00069706359107817343 -0.025709711245573065 0 -0.00011496114499575783 -0.024374104112159501 0 0.00025645034475043282 -0.029645213057737752 0 -4.5704207932462171e-05 -0.02128441187593309 0 0.00020900061285736158 -0.020005817475073628 0 0.00072462671223302486 -0.020930322599475228 0 0.0002467850045435473 -0.023834851968855236 0 0.00021968651398400585 -0.023771987102781188 0 0.0014833685158198858 -0.027564227103962391 0 0.00029419271806537407 -0.028046515087634685 0 0.0014565547942859151 -0.027705460263173481 0 -3.8339184012017253e-05 -0.015859156199840723 0 0.0005069104100650588 -0.015401735526222931 0 0.00045904266356273628 -0.015731579341748902 0 0.00043340081169585107 -0.017904666685256788 0 0.0014207450793683048 -0.01733316844800387 0 0.00084307731477880992 -0.019629221729567489 0 0.00020900061285736158 -0.020005817475073628 0 0.00072462671223302486 -0.020930322599475228 0 -3.8339184012017253e-05 -0.015859156199840723 0 6.3727444363118657e-05 -0.016047840838634187 0 0.00045904266356273628 -0.015731579341748902 0 -3.8339184012017253e-05 -0.015859156199840723 0 6.3727444363118657e-05 -0.016047840838634187 0 -8.2964666876735529e-05 -0.016060380648125712 0 -3.8339184012017253e-05 -0.015859156199840723 0 -8.2964666876735529e-05 -0.016060380648125712 0 -0.00016896680444972289 -0.01610475111792211 0 6.3727444363118657e-05 -0.016047840838634187 0 -8.2964666876735529e-05 -0.016060380648125712 0 -0.0001905975643481667 -0.016034942348868653 0 0.00043340081169585107 -0.017904666685256788 0 0.00026504023708889157 -0.022576702445308985 0 -4.5704207932462171e-05 -0.02128441187593309 0 0.00072462671223302486 -0.020930322599475228 0 -0.00030477638077970913 -0.022555625308079506 0 7.4545098232966356e-05 -0.026111949966401916 0 0.00062126322244785944 -0.026102854048741721 0 0.00054223852840454159 -0.026481518516319986 0 7.4545098232966356e-05 -0.026111949966401916 0 0.00054223852840454159 -0.026481518516319986 0 0.00047484125748052604 -0.026590468965482377 0 -8.2964666876735529e-05 -0.016060380648125712 0 -0.00016896680444972289 -0.01610475111792211 0 -0.00015715879181020198 -0.016073518670218143 0 0.0002467850045435473 -0.023834851968855236 0 0.00026504023708889157 -0.022576702445308985 0 -0.0015347206550635447 -0.02298969695151042 0 -0.0019697640734639811 -0.014475533699209477 0 -0.00011914924986386059 -0.016088515311800524 0 -0.00021663653679485933 -0.016005587713204508 0 -0.00027373387705487471 -0.015882886066320327 0 0.00026504023708889157 -0.022576702445308985 0 -0.0015347206550635447 -0.02298969695151042 0 0.00024311856568712714 -0.023324672364399283 0 -0.0014762159080128352 -0.026023942683551838 0 -0.00055308202682422534 -0.02718850948419909 0 0.00026504023708889157 -0.022576702445308985 0 -2.9113032945263997e-05 -0.028283277748401742 0 -2.9113032945263997e-05 -0.028283277748401742 0 -0.0015347206550635447 -0.02298969695151042 0 -