<?xml version="1.0"?>
<VTKFile type="UnstructuredGrid" version="0.1" byte_order="LittleEndian">
<UnstructuredGrid>
<Piece NumberOfPoints="28800" NumberOfCells="10071">
<Points>
<DataArray type="Float64" NumberOfComponents="3" format="ascii">
-0.48845978519967392 -0.49999999999999878 0 -0.5 -0.5 0 -0.48847524721005109 -0.48113855282930679 0 -0.5 -0.5 0 -0.48847524721005109 -0.48113855282930679 0 -0.5 -0.44533905111250399 0 -0.47399116852550238 -0.47906591784546038 0 -0.47399889953069058 -0.4696351942601148 0 -0.45952255185133017 -0.45813183569092247 0 -0.48847524721005109 -0.48113855282930679 0 -0.47399889953069058 -0.4696351942601148 0 -0.48847524721005109 -0.48113855282930679 0 -0.47399116852550238 -0.47906591784546038 0 -0.47399889953069058 -0.4696351942601148 0 -0.48845978519967392 -0.49999999999999878 0 -0.48847524721005109 -0.48113855282930679 0 -0.47399116852550238 -0.47906591784546038 0 -0.48845978519967392 -0.49999999999999878 0 -0.47399116852550238 -0.47906591784546038 0 -0.48845978519967392 -0.49999999999999878 0 -0.47399116852550238 -0.47906591784546038 0 -0.47240354374103682 -0.5 0 -0.47240354374103682 -0.5 0 -0.4563473022823995 -0.49999999999999889 0 -0.45859955168969169 -0.48399583434959709 0 -0.47399116852550238 -0.47906591784546038 0 -0.47240354374103682 -0.5 0 -0.45859955168969169 -0.48399583434959709 0 -0.47399116852550238 -0.47906591784546038 0 -0.4595840785933013 -0.47021189552928999 0 -0.45859955168969169 -0.48399583434959709 0 -0.47399116852550238 -0.47906591784546038 0 -0.4595840785933013 -0.47021189552928999 0 -0.45952255185133017 -0.45813183569092247 0 -0.4595840785933013 -0.47021189552928999 0 -0.45859955168969169 -0.48399583434959709 0 -0.4472434753811072 -0.47249603102815779 0 -0.4472434753811072 -0.47249603102815779 0 -0.43592330524333922 -0.48762220332400369 0 -0.43274165805303699 -0.47110944383739001 0 -0.45859955168969169 -0.48399583434959709 0 -0.4472434753811072 -0.47249603102815779 0 -0.43592330524333922 -0.48762220332400369 0 -0.4472434753811072 -0.47249603102815779 0 -0.43592330524333922 -0.48762220332400369 0 -0.4563473022823995 -0.49999999999999889 0 -0.43592330524333922 -0.48762220332400369 0 -0.4563473022823995 -0.49999999999999889 0 -0.42665997268554218 -0.49999999999999939 0 -0.43592330524333922 -0.48762220332400369 0 -0.4563473022823995 -0.49999999999999889 0 -0.45859955168969169 -0.48399583434959709 0 -0.43592330524333922 -0.48762220332400369 0 -0.44947514693095081 -0.44359463391277298 0 -0.45952255185133017 -0.45813183569092247 0 -0.43566714521728023 -0.43917558357516279 0 -0.43926643517818781 -0.45814775152321707 0 -0.45952255185133017 -0.45813183569092247 0 -0.43566714521728023 -0.43917558357516279 0 -0.45952255185133017 -0.45813183569092247 0 -0.43566714521728023 -0.43917558357516279 0 -0.4472434753811072 -0.47249603102815779 0 -0.43926643517818781 -0.45814775152321707 0 -0.45952255185133017 -0.45813183569092247 0 -0.4472434753811072 -0.47249603102815779 0 -0.43926643517818781 -0.45814775152321707 0 -0.43274165805303699 -0.47110944383739001 0 -0.47399116852550238 -0.47906591784546038 0 -0.45952255185133017 -0.45813183569092247 0 -0.4472434753811072 -0.47249603102815779 0 -0.45952255185133017 -0.45813183569092247 0 -0.4595840785933013 -0.47021189552928999 0 -0.4472434753811072 -0.47249603102815779 0 -0.45952255185133017 -0.45813183569092247 0 -0.47399889953069058 -0.4696351942601148 0 -0.45952255185133017 -0.45813183569092247 0 -0.47399889953069058 -0.4696351942601148 0 -0.45952255185133017 -0.45813183569092247 0 -0.47256434925375629 -0.4543160115402386 0 -0.45952255185133017 -0.45813183569092247 0 -0.4705119240481388 -0.44140439907288298 0 -0.45952255185133017 -0.45813183569092247 0 -0.4705119240481388 -0.44140439907288298 0 -0.47256434925375629 -0.4543160115402386 0 -0.45952255185133017 -0.45813183569092247 0 -0.46020884415810842 -0.44270473187900439 0 -0.4705119240481388 -0.44140439907288298 0 -0.44947514693095081 -0.44359463391277298 0 -0.45952255185133017 -0.45813183569092247 0 -0.46020884415810842 -0.44270473187900439 0 -0.44947514693095081 -0.44359463391277298 0 -0.45952255185133017 -0.45813183569092247 0 -0.44947514693095081 -0.44359463391277298 0 -0.46020884415810842 -0.44270473187900439 0 -0.46152098141980358 -0.43010050424306501 0 -0.46020884415810842 -0.44270473187900439 0 -0.4705119240481388 -0.44140439907288298 0 -0.46152098141980358 -0.43010050424306501 0 -0.4705119240481388 -0.44140439907288298 0 -0.5 -0.44533905111250399 0 -0.4792605511723772 -0.42821039908633651 0 -0.4705119240481388 -0.44140439907288298 0 -0.47256434925375629 -0.4543160115402386 0 -0.5 -0.44533905111250399 0 -0.48847524721005109 -0.48113855282930679 0 -0.47399889953069058 -0.4696351942601148 0 -0.5 -0.44533905111250399 0 -0.47399889953069058 -0.4696351942601148 0 -0.47256434925375629 -0.4543160115402386 0 -0.5 -0.44533905111250399 0 -0.5 -0.44533905111250399 0 -0.49309399373994639 -0.41203070099268269 0 -0.50000000000000111 -0.37443756057980321 0 -0.5 -0.44533905111250399 0 -0.49309399373994639 -0.41203070099268269 0 -0.4792605511723772 -0.42821039908633651 0 -0.49309399373994639 -0.41203070099268269 0 -0.47117585665399719 -0.41217734001054768 0 -0.4792605511723772 -0.42821039908633651 0 -0.49309399373994639 -0.41203070099268269 0 -0.47117585665399719 -0.41217734001054768 0 -0.47977652772236101 -0.39824576647622578 0 -0.4705119240481388 -0.44140439907288298 0 -0.4792605511723772 -0.42821039908633651 0 -0.46152098141980358 -0.43010050424306501 0 -0.47117585665399719 -0.41217734001054768 0 -0.4792605511723772 -0.42821039908633651 0 -0.46152098141980358 -0.43010050424306501 0 -0.49309399373994639 -0.41203070099268269 0 -0.48974847569938162 -0.38740747336048043 0 -0.50000000000000111 -0.37443756057980321 0 -0.48974847569938162 -0.38740747336048043 0 -0.48642312672438037 -0.36278150539002052 0 -0.49309399373994639 -0.41203070099268269 0 -0.48974847569938162 -0.38740747336048043 0 -0.49309399373994639 -0.41203070099268269 0 -0.48974847569938162 -0.38740747336048043 0 -0.47977652772236101 -0.39824576647622578 0 -0.47117585665399719 -0.41217734001054768 0 -0.46888544292523088 -0.39635475194215308 0 -0.47977652772236101 -0.39824576647622578 0 -0.46888544292523088 -0.39635475194215308 0 -0.47977652772236101 -0.39824576647622578 0 -0.47597886959324831 -0.38325856607526532 0 -0.48974847569938162 -0.38740747336048043 0 -0.47597886959324831 -0.38325856607526532 0 -0.48642312672438037 -0.36278150539002052 0 -0.48974847569938162 -0.38740747336048043 0 -0.47977652772236101 -0.39824576647622578 0 -0.47597886959324831 -0.38325856607526532 0 -0.46047226212004638 -0.38263127002788261 0 -0.45901914900730112 -0.37110511580400812 0 -0.44873199880990072 -0.37273943711263691 0 -0.46047226212004638 -0.38263127002788261 0 -0.46822743030822173 -0.37194584080839632 0 -0.45901914900730112 -0.37110511580400812 0 -0.47597886959324831 -0.38325856607526532 0 -0.46047226212004638 -0.38263127002788261 0 -0.46822743030822173 -0.37194584080839632 0 -0.46888544292523088 -0.39635475194215308 0 -0.47597886959324831 -0.38325856607526532 0 -0.46047226212004638 -0.38263127002788261 0 -0.46047226212004638 -0.38263127002788261 0 -0.45468813848504092 -0.39440257360107378 0 -0.44847238099986392 -0.38642364760353781 0 -0.47117585665399719 -0.41217734001054768 0 -0.46888544292523088 -0.39635475194215308 0 -0.45833632796015239 -0.40493197539091069 0 -0.46888544292523088 -0.39635475194215308 0 -0.46047226212004638 -0.38263127002788261 0 -0.45468813848504092 -0.39440257360107378 0 -0.46888544292523088 -0.39635475194215308 0 -0.45468813848504092 -0.39440257360107378 0 -0.45833632796015239 -0.40493197539091069 0 -0.45468813848504092 -0.39440257360107378 0 -0.45833632796015239 -0.40493197539091069 0 -0.44886706629917839 -0.40168544137085299 0 -0.45833632796015239 -0.40493197539091069 0 -0.44886706629917839 -0.40168544137085299 0 -0.44725281353906732 -0.41125260250332968 0 -0.44886706629917839 -0.40168544137085299 0 -0.43925595896224251 -0.40336051013321089 0 -0.44353535399930538 -0.395049807548084 0 -0.44886706629917839 -0.40168544137085299 0 -0.43925595896224251 -0.40336051013321089 0 -0.44725281353906732 -0.41125260250332968 0 -0.44353535399930538 -0.395049807548084 0 -0.4388190928287643 -0.38837495895815549 0 -0.43548642635465801 -0.39363153856849992 0 -0.43925595896224251 -0.40336051013321089 0 -0.44353535399930538 -0.395049807548084 0 -0.43548642635465801 -0.39363153856849992 0 -0.45468813848504092 -0.39440257360107378 0 -0.44886706629917839 -0.40168544137085299 0 -0.44353535399930538 -0.395049807548084 0 -0.45468813848504092 -0.39440257360107378 0 -0.44353535399930538 -0.395049807548084 0 -0.44847238099986392 -0.38642364760353781 0 -0.4388190928287643 -0.38837495895815549 0 -0.44873199880990072 -0.37273943711263691 0 -0.4388190928287643 -0.38837495895815549 0 -0.43442955601071059 -0.38033021618326229 0 -0.44873199880990072 -0.37273943711263691 0 -0.44847238099986392 -0.38642364760353781 0 -0.4388190928287643 -0.38837495895815549 0 -0.44873199880990072 -0.37273943711263691 0 -0.44847238099986392 -0.38642364760353781 0 -0.4388190928287643 -0.38837495895815549 0 -0.44353535399930538 -0.395049807548084 0 -0.44847238099986392 -0.38642364760353781 0 -0.4388190928287643 -0.38837495895815549 0 -0.46047226212004638 -0.38263127002788261 0 -0.44847238099986392 -0.38642364760353781 0 -0.44873199880990072 -0.37273943711263691 0 -0.46152098141980358 -0.43010050424306501 0 -0.45713073400600129 -0.41668745731737777 0 -0.44582116554119428 -0.42576176157496959 0 -0.47117585665399719 -0.41217734001054768 0 -0.46152098141980358 -0.43010050424306501 0 -0.45713073400600129 -0.41668745731737777 0 -0.47117585665399719 -0.41217734001054768 0 -0.45833632796015239 -0.40493197539091069 0 -0.45713073400600129 -0.41668745731737777 0 -0.45833632796015239 -0.40493197539091069 0 -0.45713073400600129 -0.41668745731737777 0 -0.44725281353906732 -0.41125260250332968 0 -0.45713073400600129 -0.41668745731737777 0 -0.44725281353906732 -0.41125260250332968 0 -0.4458
[...]
<PointData Scalars="" Vectors="displacement," Tensors="">
<DataArray type="Float64" Name="displacement" NumberOfComponents="3" format="ascii">
-0.034998580510503641 -0.034197678288660285 0 -0.035000318045211823 -0.034997101312128097 0 -0.033781205381379228 -0.035233556685486105 0 -0.035000318045211823 -0.034997101312128097 0 -0.033781205381379228 -0.035233556685486105 0 -0.031173955772930365 -0.034999658248948289 0 -0.033676305800011651 -0.036134486998326588 0 -0.033178538281359062 -0.036120112574303503 0 -0.03259480106949382 -0.036794088561641285 0 -0.033795941984795221 -0.035197707952108408 0 -0.03274756687882107 -0.03649460636560245 0 -0.033781205381379228 -0.035233556685486105 0 -0.033676305800011651 -0.036134486998326588 0 -0.033178538281359062 -0.036120112574303503 0 -0.034998580510503641 -0.034197678288660285 0 -0.033781205381379228 -0.035233556685486105 0 -0.033676305800011651 -0.036134486998326588 0 -0.034999440435885085 -0.034192747159005096 0 -0.035294256341909191 -0.034468656361286092 0 -0.035000009952376822 -0.034192137875242203 0 -0.036352786055806767 -0.033150475701809866 0 -0.034999954741358322 -0.033068177990331744 0 -0.034999954741358322 -0.033068177990331744 0 -0.034999991155101655 -0.031944562796488364 0 -0.036030313213236791 -0.032134367635151921 0 -0.036352786055806767 -0.033150475701809866 0 -0.034999954741358322 -0.033068177990331744 0 -0.036030313213236791 -0.032134367635151921 0 -0.036352786055806767 -0.033150475701809866 0 -0.036885007930525099 -0.032218297604501539 0 -0.036030313213236791 -0.032134367635151921 0 -0.036352786055806767 -0.033150475701809866 0 -0.036885007930525099 -0.032218297604501539 0 -0.037618967494710852 -0.032220579909587141 0 -0.036885007930525099 -0.032218297604501539 0 -0.036030313213236791 -0.032134367635151921 0 -0.036744230481575407 -0.031432640882551696 0 -0.035771705410385247 -0.031652261681323193 0 -0.034684583633996582 -0.030845932027430471 0 -0.035869604771735772 -0.030620823334527543 0 -0.036030313213236791 -0.032134367635151921 0 -0.036744230481575407 -0.031432640882551696 0 -0.035793877831197328 -0.030698704941538164 0 -0.036449164972394761 -0.031579572809034777 0 -0.035556650372420694 -0.030584904470709676 0 -0.035000336582852849 -0.03194394543455472 0 -0.035556650372420694 -0.030584904470709676 0 -0.034999997450946438 -0.031944304690808167 0 -0.034999995567363253 -0.0298662055207429 0 -0.035863044284183326 -0.030514909698760615 0 -0.034999991155101655 -0.031944562796488364 0 -0.036030313213236791 -0.032134367635151921 0 -0.035793877831197328 -0.030698704941538164 0 -0.030506111692735548 -0.036237824546615324 0 -0.030625335441391933 -0.036220269875353026 0 -0.03046211948210328 -0.036249067484965695 0 -0.036753965964851781 -0.031115291052700739 0 -0.036729006506254325 -0.032473288754999441 0 -0.03796425921942001 -0.030939900209067072 0 -0.033433134849051527 -0.035030278806542275 0 -0.034405103622565304 -0.033471177636086119 0 -0.035771705410385247 -0.031652261681323193 0 -0.036753965964851781 -0.031115291052700739 0 -0.036729006506254325 -0.032473288754999441 0 -0.035771705410385247 -0.031652261681323193 0 -0.036753965964851781 -0.031115291052700739 0 -0.035869604771735772 -0.030620823334527543 0 -0.035294256341909191 -0.034468656361286092 0 -0.033433134849051527 -0.035030278806542275 0 -0.036449164972394761 -0.031579572809034777 0 -0.033433134849051527 -0.035030278806542275 0 -0.036885007930525099 -0.032218297604501539 0 -0.036744230481575407 -0.031432640882551696 0 -0.037618967494710852 -0.032220579909587141 0 -0.03274756687882107 -0.03649460636560245 0 -0.033433134849051527 -0.035030278806542275 0 -0.032792483636201929 -0.036240360197218255 0 -0.031958262775045425 -0.037278727924618005 0 -0.031667875861861712 -0.036311371515891457 0 -0.033433134849051527 -0.035030278806542275 0 -0.030295463200894133 -0.036382933976696993 0 -0.031958262775045425 -0.037278727924618005 0 -0.03066488127913938 -0.036311195738371986 0 -0.031667875861861712 -0.036311371515891457 0 -0.030478796730751309 -0.036243391409609443 0 -0.030535794389577108 -0.03625221160007501 0 -0.03066488127913938 -0.036311195738371986 0 -0.030506111692735548 -0.036237824546615324 0 -0.030478796730751309 -0.036243391409609443 0 -0.030535794389577108 -0.03625221160007501 0 -0.029651807777949322 -0.036826149448464587 0 -0.033433134849051527 -0.035030278806542275 0 -0.030506111692735548 -0.036237824546615324 0 -0.030535794389577108 -0.03625221160007501 0 -0.030252229699225627 -0.036236146067607104 0 -0.030535794389577108 -0.03625221160007501 0 -0.03066488127913938 -0.036311195738371986 0 -0.030252229699225627 -0.036236146067607104 0 -0.03066488127913938 -0.036311195738371986 0 -0.031173955772930365 -0.034999658248948289 0 -0.030053276230396823 -0.035925085263657758 0 -0.03066488127913938 -0.036311195738371986 0 -0.031667875861861712 -0.036311371515891457 0 -0.031173955772930365 -0.034999658248948289 0 -0.033781205381379228 -0.035233556685486105 0 -0.032792483636201929 -0.036240360197218255 0 -0.031173955772930365 -0.034999658248948289 0 -0.032792483636201929 -0.036240360197218255 0 -0.031667875861861712 -0.036311371515891457 0 -0.031173955772930365 -0.034999658248948289 0 -0.031173955772930365 -0.034999658248948289 0 -0.028978538290040663 -0.035440755717741287 0 -0.026211580175192328 -0.034999976609867568 0 -0.031173955772930365 -0.034999658248948289 0 -0.028978538290040663 -0.035440755717741287 0 -0.030053276230396823 -0.035925085263657758 0 -0.028978538290040663 -0.035440755717741287 0 -0.029557084640629634 -0.035947908385565254 0 -0.030053276230396823 -0.035925085263657758 0 -0.028978538290040663 -0.035440755717741287 0 -0.029557084640629634 -0.035947908385565254 0 -0.029170593585696503 -0.035680923820445368 0 -0.03066488127913938 -0.036311195738371986 0 -0.030053276230396823 -0.035925085263657758 0 -0.030252229699225627 -0.036236146067607104 0 -0.029557084640629634 -0.035947908385565254 0 -0.030053276230396823 -0.035925085263657758 0 -0.030252229699225627 -0.036236146067607104 0 -0.028978538290040663 -0.035440755717741287 0 -0.027165210408234327 -0.035728353975729724 0 -0.026211580175192328 -0.034999976609867568 0 -0.028383181679201171 -0.035646175071670026 0 -0.025868655620955212 -0.0355627613505545 0 -0.02883446016240573 -0.035475622264400215 0 -0.028383181679201171 -0.035646175071670026 0 -0.028978538290040663 -0.035440755717741287 0 -0.029087798723829921 -0.035588765089560603 0 -0.029170593585696503 -0.035680923820445368 0 -0.029557084640629634 -0.035947908385565254 0 -0.029266506309139462 -0.035888661903141147 0 -0.029170593585696503 -0.035680923820445368 0 -0.029266506309139462 -0.035888661903141147 0 -0.029170593585696503 -0.035680923820445368 0 -0.029030507912190244 -0.035754157826098538 0 -0.029087798723829921 -0.035588765089560603 0 -0.029030507912190244 -0.035754157826098538 0 -0.028660296515546954 -0.035569630138808657 0 -0.029087798723829921 -0.035588765089560603 0 -0.029170593585696503 -0.035680923820445368 0 -0.029030507912190244 -0.035754157826098538 0 -0.02906641180930283 -0.036011463894891294 0 -0.028808424928027123 -0.036047787027633969 0 -0.028838654380653393 -0.036249378366664219 0 -0.02906641180930283 -0.036011463894891294 0 -0.028826974567651199 -0.035879262688130048 0 -0.028808424928027123 -0.036047787027633969 0 -0.029030507912190244 -0.035754157826098538 0 -0.02906641180930283 -0.036011463894891294 0 -0.028826974567651199 -0.035879262688130048 0 -0.029266506309139462 -0.035888661903141147 0 -0.029030507912190244 -0.035754157826098538 0 -0.02906641180930283 -0.036011463894891294 0 -0.02906641180930283 -0.036011463894891294 0 -0.029355134725546111 -0.036128074602006004 0 -0.029202166498482181 -0.036242318284564118 0 -0.029557084640629634 -0.035947908385565254 0 -0.029266506309139462 -0.035888661903141147 0 -0.029561478400922648 -0.036099371310786957 0 -0.029266506309139462 -0.035888661903141147 0 -0.02906641180930283 -0.036011463894891294 0 -0.029355134725546111 -0.036128074602006004 0 -0.029266506309139462 -0.035888661903141147 0 -0.029355134725546111 -0.036128074602006004 0 -0.029561478400922648 -0.036099371310786957 0 -0.029355134725546111 -0.036128074602006004 0 -0.029561478400922648 -0.036099371310786957 0 -0.029572058785717271 -0.036219570834716719 0 -0.029561478400922648 -0.036099371310786957 0 -0.029572058785717271 -0.036219570834716719 0 -0.029819250211373605 -0.03624958430674266 0 -0.029572058785717271 -0.036219570834716719 0 -0.02968311946419026 -0.036332181929769759 0 -0.029459964570281352 -0.036296250269322643 0 -0.029572058785717271 -0.036219570834716719 0 -0.02968311946419026 -0.036332181929769759 0 -0.029819250211373605 -0.03624958430674266 0 -0.029459964570281352 -0.036296250269322643 0 -0.029343140893249204 -0.036369582195189244 0 -0.029493008297645097 -0.036386516725844559 0 -0.02968311946419026 -0.036332181929769759 0 -0.029459964570281352 -0.036296250269322643 0 -0.029493008297645097 -0.036386516725844559 0 -0.029355134725546111 -0.036128074602006004 0 -0.029572058785717271 -0.036219570834716719 0 -0.029459964570281352 -0.036296250269322643 0 -0.029355134725546111 -0.036128074602006004 0 -0.029459964570281352 -0.036296250269322643 0 -0.029202166498482181 -0.036242318284564118 0 -0.027412075952775811 -0.036250888939080315 0 -0.024640498404901554 -0.03584816089232408 0 -0.022252939823806432 -0.036499711353649981 0 -0.021419622831699965 -0.036945315486197103 0 -0.020640669908137281 -0.035563899388421367 0 -0.029202166498482181 -0.036242318284564118 0 -0.02924126384918975 -0.036484166912911439 0 -0.028838654380653393 -0.036249378366664219 0 -0.028521136081642525 -0.036464810543275807 0 -0.027412075952775811 -0.036250888939080315 0 -0.029459964570281352 -0.036296250269322643 0 -0.029202166498482181 -0.036242318284564118 0 -0.029343140893249204 -0.036369582195189244 0 -0.02906641180930283 -0.036011463894891294 0 -0.029202166498482181 -0.036242318284564118 0 -0.028838654380653393 -0.036249378366664219 0 -0.030252229699225627 -0.036236146067607104 0 -0.029872265151228258 -0.036181378517322282 0 -0.030185255838079034 -0.036267923989999985 0 -0.029557084640629634 -0.035947908385565254 0 -0.030252229699225627 -0.036236146067607104 0 -0.029872265151228258 -0.036181378517322282 0 -0.029557084640629634 -0.035947908385565254 0 -0.029561478400922648 -0.036099371310786957 0 -0.029872265151228258 -0.036181378517322282 0 -0.029561478400922648 -0.036099371310786957 0 -0.029872265151228258 -0.036181378517322282 0 -0.029819250211373605 -0.03624958430674266 0 -0.029872265151228258 -0.036181378517322282 0 -0.029819250211373605 -0.03624958430674266 0 -0.030185255838079034 -0.036267923989999985 0 -0.02968311946419026 -0.036332181929769759 0 -0.029819250211373605 -0.03624958430674266 0 -0.029972466420425319 -0.036339408406108178 0 -0.029819250211373605 -0.03624958430674266 0 -0.030185255838079034 -0.036267923989999985 0 -0.029972466420425319 -0.036339408406108178 0 -0.030185255838079034 -0.036267923989999985 0 -0.030217159015302256 -0.036332372369709001 0 -0.029972466420425319 -0.036339408406108178 0 -0.030506111692735548 -0.036237824546615324 0 -0.030252229699225627 -0.036236146067607104 0 -0.030185255838079034 -0.036267923989999985 0 -0.030506111692735548 -0.036237824546615324 0 -0.030185255838079034 -0.036267923989999985 0 -0.03046211948210328 -0.036249067484965695 0 -0.030185255838079034 -0.036267923989999985 0 -0.030217159015302256 -0.036332372369709001 0 -0.03046211948210328 -0.036249067484965695 0 -0.030217159015302256 -0.036332372369709001 0 -0.030256578706210402 -0.036451812514293878 0 -0.03046211948210328 -0.036249067484965695 0 -0.0392548437931498 -0.029327166443447218 0 -0.03796425921942001 -0.030939900209067072 0 -0.038068301668427083 -0.029782248825632254 0 -0.033983888146674399 -0.032611534020113138 0 -0.034405103622565304 -0.033471177636086119 0 -0.030217159015302256 -0.036332372369709001 0 -0.029972466420425319 -0.036339408406108178 0 -0.03002516942404666 -0.036426079180862936 0 -0.030217159015302256 -0.036332372369709001 0 -0.03002516942404666 -0.036426079180862936 0 -0.030256578706210402 -0.036451812514293878 0 -0.02968311946419026 -0.036332181929769759 0 -0.029972466420425319 -0.036339408406108178 0 -0.029765216071083879 -0.036431006389054221 0 -0.029972466420425319 -0.036339408406108178 0 -0.03002516942404666 -0.036426079180862936 0 -0.029765216071083879 -0.036431006389054221 0 -0.03002516942404666 -0.036426079180862936 0 -0.029765216071083879 -0.036431006389054221 0 -0.029850428501546705 -0.036579516643836754 0 -0.033983888146674399 -0.032611534020113138 0 -0.030456094776197075 -0.034484959523922068 0 -0.03002516942404666 -0.036426079180862936 0 -0.030256578706210402 -0.036451812514293878 0 -0.029850428501546705 -0.036579516643836754 0 -0.033751317363179406 -0.033446163925954842 0 -0.032960122171053881 -0.03444409184872433 0 -0.030936554250401638 -0.032454214376516688 0 -0.039679993359849744 -0.028801820369013059 0 -0.03916369652385799 -0.029261736028006941 0 -0.039144896952560591 -0.028445950042602277 0 -0.03930008479093431 -0.029312610798277836 0 -0.039679993359849744 -0.028801820369013059 0 -0.03916369652385799 -0.029261736028006941 0 -0.033983888146674399 -0.032611534020113138 0 -0.034370110015122961 -0.032618166967673674 0 -0.033983888146674399 -0.032611534020113138 0 -0.034859681243946103 -0.030345014715934881 0 -0.03916369652385799 -0.029261736028006941 0 -0.038870763611529628 -0.02885151333852734 0 -0.038510645920502004 -0.029144162071409949 0 -0.03916369652385799 -0.029261736028006941 0 -0.038870763611529628 -0.02885151333852734 0 -0.039144896952560591 -0.028445950042602277 0 -0.0392548437931498 -0.029327166443447218 0 -0.03916369652385799 -0.029261736028006941 0 -0.038068301668427083 -0.029782248825632254 0 -0.03916369652385799 -0.029261736028006941 0 -0.038510645920502004 -0.029144162071409949 0 -0.038068301668427083 -0.029782248825632254 0 -0.038510645920502004 -0.029144162071409949 0 -0.038068301668427083 -0.029782248825632254 0 -0.03806356594266521 -0.028885390876553091 0 -0.038870763611529628 -0.02885151333852734 0 -0.038419798769432724 -0.028736342277123721 0 -0.038510645920502004 -0.029144162071409949 0 -0.038419798769432724 -0.028736342277123721 0 -0.038510645920502004 -0.029144162071409949 0 -0.03806356594266521 -0.028885390876553091 0 -0.022972020166560244 -0.033125122356067689 0 -0.023018624706234097 -0.033407391975726744 0 -0.022729758061602191 -0.033060522467332591 0 -0.023233664879894873 -0.034752842670231564 0 -0.019608831664273785 -0.034628341869754255 0 -0.023233664879894873 -0.034752842670231564 0 -0.019824509439708596 -0.03543514078265738 0 -0.022472430190802431 -0.035533215195756696 0 -0.020465972576759826 -0.034821485703161667 0 -0.020046126731246384 -0.034171055611045005 0 -0.021419622831699965 -0.036945315486197103 0 -0.021845575149051714 -0.037783160507092295 0 -0.020463363107494009 -0.037013400240151539 0 -0.027412075952775811 -0.036250888939080315 0 -0.02681008291461429 -0.035179838575006561 0 -0.022252939823806432 -0.036499711353649981 0 -0.021419622831699965 -0.036945315486197103 0 -0.021845575149051714 -0.037783160507092295 0 -0.022252939823806432 -0.036499711353649981 0 -0.021845575149051714 -0.037783160507092295 0 -0.022593213636141529 -0.038041808044365598 0 -0.023233664879894873 -0.034752842670231564 0 -0.026644332856657647 -0.033222414391165647 0 -0.023854022628642006 -0.033757376331838743 0 -0.026605534863240975 -0.034744682761617157 0 -0.026738769998816053 -0.035392925415916293 0 -0.023233664879894873 -0.034752842670231564 0 -0.02681008291461429 -0.035179838575006561 0 -0.029491957898596138 -0.036546933397321679 0 -0.029493008297645097 -0.036386516725844559 0 -0.029765216071083879 -0.036431006389054221 0 -0.02681008291461429 -0.035179838575006561 0 -0.026644332856657647 -0.033222414391165647 0 -0.029406946403668612 -0.036339106730397669 0 -0.029491957898596138 -0.036546933397321679 0 -0.029493008297645097 -0.036386516725844559 0 -0.027412075952775811 -0.036250888939080315 0 -0.028720141774254113 -0.036720151355440843 0 -0.02968311946419026 -0.036332181929769759 0 -0.029493008297645097 -0.036386516725844559 0 -0.029765216071083879 -0.036431006389054221 0 -0.029491957898596138 -0.036546933397321679 0 -0.029765216071083879 -0.036431006389054221 0 -0.029850428501546705 -0.036579516643836754 0 -0.032960122171053881 -0.03444409184872433 0 -0.030936554250401638 -0.032454214376516688 0 -0.028183906806777612 -0.031785437398622281 0 -0.034859681243946103 -0.030345014715934881 0 -0.026644332856657647 -0.033222414391165647 0 -0.031015219523018136 -0.031053250283769256 0 -0.03004219085706256 -0.031098936875134122 0 -0.029893910169372484 -0.030461279533519143 0 -0.02681008291461429 -0.035179838575006561 0 -0.030456094776197075 -0.034484959523922068 0 -0.023194656016058222 -0.033464339451866956 0 -0.023132708885934824 -0.033205099153035378 0 -0.023018624706234097 -0.033407391975726744 0 -0.026572746154659665 -0.032225199004520151 0 -0.026644332856657647 -0.033222414391165647 0 -0.028117087667082482 -0.031467533948141051 0 -0.030936554250401638 -0.032454214376516688 0 -0.028183906806777612 -0.031785437398622281 0 -0.017112483440052343 -0.035106132026572243 0 -0.017439058220085221 -0.035497157680869307 0 -0.017452028510164291 -0.035199256464662411 0 -0.019565556354142439 -0.03429557128404908 0 -0.019608831664273785 -0.034628341869754255 0 -0.022972020166560244 -0.033125122356067689 0 -0.023132708885934824 -0.033205099153035378 0 -0.023018624706234097 -0.033407391975726744 0 -0.017112483440052343 -0.035106132026572243 0 -0.017243342975046681 -0.034909279150423501 0 -0.017452028510164291 -0.035199256464662411 0 -0.017112483440052343 -0.035106132026572243 0 -0.017243342975046681 -0.034909279150423501 0 -0.017094422849138039 -0.034805545050817545 0 -0.017112483440052343 -0.035106132026572243 0 -0.017094422849138039 -0.034805545050817545 0 -0.016920607229934541 -0.034734958465946687 0 -0.017243342975046681 -0.034909279150423501 0 -0.017094422849138039 -0.034805545050817545 0 -0.017093965554356192 -0.034663479626535987 0 -0.019565556354142439 -0.03429557128404908 0 -0.025766750652541932 -0.031929445789563658 0 -0.023194656016058222 -0.033464339451866956 0 -0.023018624706234097 -0.033407391975726744 0 -0.023280868046557872 -0.033686700736467491 0 -0.031015219523018136 -0.031053250283769256 0 -0.03004219085706256 -0.031098936875134122 0 -0.030183231894623127 -0.031733597637525493 0 -0.031015219523018136 -0.031053250283769256 0 -0.030183231894623127 -0.031733597637525493 0 -0.03030392049711552 -0.031912932263265005 0 -0.017094422849138039 -0.034805545050817545 0 -0.016920607229934541 -0.034734958465946687 0 -0.01700526529609557 -0.034678585624520787 0 -0.026572746154659665 -0.032225199004520151 0 -0.025766750652541932 -0.031929445789563658 0 -0.025621752504685364 -0.031686007743911948 0 -0.015898216220240919 -0.03505868192729255 0 -0.016924294839626285 -0.034649304061936781 0 -0.017026637170843708 -0.034595062490270868 0 -0.016999420932801317 -0.034484206094659041 0 -0.025766750652541932 -0.031929445789563658 0 -0.025621752504685364 -0.031686007743911948 0 -0.027527792314059045 -0.032542228217186157 0 -0.025258336361242476 -0.028949666730845022 0 -0.026490702707351148 -0.027397598803791858 0 -0.025766750652541932 -0.031929445789563658 0 -0.031732365138833672 -0.029243429470634019 0 -0.031732365138833672 -0.029243429470634019 0 -0.025621752504685364 -0.031686007743911948 0 -0.031732365138833672 -0.029243429470634019 0 -0.040188502940497743 -0.026474804540782607 0 -0.040195657004089419 -0.026874757461228114 0 -0.040289943405617534 -0.0267619201718916 0 -0.039802276312949428 -0.025961648314655209 0 -0.016924294839626285 -0.034649304061936781 0 -0.01700526529609557 -0.034678585624520787 0 -0.017026637170843708 -0.034595062490270868 0 -0.016920607229934541 -0.034734958465946687 0 -0.016924294839626285 -0.034649304061936781 0 -0.01700526529609557 -0.034678585624520787 0 -0.017094422849138039 -0.034805545050817545 0 -0.01700526529609557 -0.03