<?xml version="1.0"?>
<VTKFile type="UnstructuredGrid" version="0.1" byte_order="LittleEndian">
<UnstructuredGrid>
<Piece NumberOfPoints="29346" NumberOfCells="10297">
<Points>
<DataArray type="Float64" NumberOfComponents="3" format="ascii">
-0.49149400313416031 -0.48922218324784073 0 -0.5 -0.5 0 -0.49999999999999728 -0.47844709049625161 0 -0.49149400313416031 -0.48922218324784073 0 -0.5 -0.5 0 -0.47580933344589621 -0.50000000000000211 0 -0.49999999999999728 -0.47844709049625161 0 -0.48408627088471667 -0.47842616145507122 0 -0.49149400313416031 -0.48922218324784073 0 -0.49999999999999728 -0.47844709049625161 0 -0.48408627088471667 -0.47842616145507122 0 -0.50000000000000222 -0.47393551675040141 0 -0.48408627088471667 -0.47842616145507122 0 -0.47800594129127388 -0.46368145799461019 0 -0.49999999999999728 -0.47844709049625161 0 -0.50000000000000222 -0.47393551675040141 0 -0.48408627088471667 -0.47842616145507122 0 -0.48408627088471667 -0.47842616145507122 0 -0.46817254176943612 -0.47840523241389288 0 -0.48408627088471667 -0.47842616145507122 0 -0.46817254176943612 -0.47840523241389288 0 -0.47800594129127388 -0.46368145799461019 0 -0.48408627088471667 -0.47842616145507122 0 -0.47580933344589621 -0.50000000000000211 0 -0.46817254176943612 -0.47840523241389288 0 -0.47580933344589621 -0.50000000000000211 0 -0.46817254176943612 -0.47840523241389288 0 -0.49149400313416031 -0.48922218324784073 0 -0.48408627088471667 -0.47842616145507122 0 -0.47580933344589621 -0.50000000000000211 0 -0.47580933344589621 -0.50000000000000211 0 -0.45612285069986169 -0.500000000000001 0 -0.46817254176943612 -0.47840523241389288 0 -0.45612285069986169 -0.500000000000001 0 -0.46817254176943612 -0.47840523241389288 0 -0.45545663569531808 -0.47838850900984509 0 -0.45612285069986169 -0.500000000000001 0 -0.45545663569531808 -0.47838850900984509 0 -0.46817254176943612 -0.47840523241389288 0 -0.45545663569531808 -0.47838850900984509 0 -0.46078604710099469 -0.4575182366179108 0 -0.46817254176943612 -0.47840523241389288 0 -0.45545663569531808 -0.47838850900984509 0 -0.43787427813621649 -0.47836538546144469 0 -0.44012353263776011 -0.4593840062173114 0 -0.45545663569531808 -0.47838850900984509 0 -0.43787427813621649 -0.47836538546144469 0 -0.44665085995570042 -0.48947597783179941 0 -0.45545663569531808 -0.47838850900984509 0 -0.43787427813621649 -0.47836538546144469 0 -0.43787427813621649 -0.47836538546144469 0 -0.44012353263776011 -0.4593840062173114 0 -0.44798739616323752 -0.46872706348927579 0 -0.45545663569531808 -0.47838850900984509 0 -0.43787427813621649 -0.47836538546144469 0 -0.44798739616323752 -0.46872706348927579 0 -0.45612285069986169 -0.500000000000001 0 -0.45545663569531808 -0.47838850900984509 0 -0.44665085995570042 -0.48947597783179941 0 -0.43787427813621649 -0.47836538546144469 0 -0.44665085995570042 -0.48947597783179941 0 -0.43531062069519888 -0.49999999999999711 0 -0.45612285069986169 -0.500000000000001 0 -0.44665085995570042 -0.48947597783179941 0 -0.43531062069519888 -0.49999999999999711 0 -0.44237278713930378 -0.44040262697317811 0 -0.44012353263776011 -0.4593840062173114 0 -0.44737584699447119 -0.45525730566946471 0 -0.44237278713930378 -0.44040262697317811 0 -0.44012353263776011 -0.4593840062173114 0 -0.44070468280835029 -0.4428969576274982 0 -0.44012353263776011 -0.4593840062173114 0 -0.43492790089541522 -0.45094709921861709 0 -0.44237278713930378 -0.44040262697317811 0 -0.44070468280835029 -0.4428969576274982 0 -0.44012353263776011 -0.4593840062173114 0 -0.45154816492120148 -0.44914893825957258 0 -0.44237278713930378 -0.44040262697317811 0 -0.44737584699447119 -0.45525730566946471 0 -0.45154816492120148 -0.44914893825957258 0 -0.44237278713930378 -0.44040262697317811 0 -0.45339955243255392 -0.4366312408219285 0 -0.44237278713930378 -0.44040262697317811 0 -0.45339955243255392 -0.4366312408219285 0 -0.44070468280835029 -0.4428969576274982 0 -0.4385303738150893 -0.44171681332002799 0 -0.43492790089541522 -0.45094709921861709 0 -0.44237278713930378 -0.44040262697317811 0 -0.4385303738150893 -0.44171681332002799 0 -0.43863723719630249 -0.43575494977372131 0 -0.44237278713930378 -0.44040262697317811 0 -0.4385303738150893 -0.44171681332002799 0 -0.44237278713930378 -0.44040262697317811 0 -0.44070468280835029 -0.4428969576274982 0 -0.4385303738150893 -0.44171681332002799 0 -0.44070468280835029 -0.4428969576274982 0 -0.4385303738150893 -0.44171681332002799 0 -0.45545663569531808 -0.47838850900984509 0 -0.44798739616323752 -0.46872706348927579 0 -0.45484735411085281 -0.45862389340798521 0 -0.44012353263776011 -0.4593840062173114 0 -0.44798739616323752 -0.46872706348927579 0 -0.44737584699447119 -0.45525730566946471 0 -0.45154816492120148 -0.44914893825957258 0 -0.44737584699447119 -0.45525730566946471 0 -0.45484735411085281 -0.45862389340798521 0 -0.44798739616323752 -0.46872706348927579 0 -0.44737584699447119 -0.45525730566946471 0 -0.45484735411085281 -0.45862389340798521 0 -0.46817254176943612 -0.47840523241389288 0 -0.46078604710099469 -0.4575182366179108 0 -0.45545663569531808 -0.47838850900984509 0 -0.45484735411085281 -0.45862389340798521 0 -0.46078604710099469 -0.4575182366179108 0 -0.45154816492120148 -0.44914893825957258 0 -0.45484735411085281 -0.45862389340798521 0 -0.46078604710099469 -0.4575182366179108 0 -0.45545663569531808 -0.47838850900984509 0 -0.45484735411085281 -0.45862389340798521 0 -0.46078604710099469 -0.4575182366179108 0 -0.45339955243255392 -0.4366312408219285 0 -0.45154816492120148 -0.44914893825957258 0 -0.46078604710099469 -0.4575182366179108 0 -0.45339955243255392 -0.4366312408219285 0 -0.46078604710099469 -0.4575182366179108 0 -0.47104649052614422 -0.44498149116372732 0 -0.45339955243255392 -0.4366312408219285 0 -0.47104649052614422 -0.44498149116372732 0 -0.48960471803939221 -0.45086961667369851 0 -0.47920943607878008 -0.42780371659699679 0 -0.46817254176943612 -0.47840523241389288 0 -0.46078604710099469 -0.4575182366179108 0 -0.47800594129127388 -0.46368145799461019 0 -0.47104649052614422 -0.44498149116372732 0 -0.47800594129127388 -0.46368145799461019 0 -0.48960471803939221 -0.45086961667369851 0 -0.46078604710099469 -0.4575182366179108 0 -0.47104649052614422 -0.44498149116372732 0 -0.47800594129127388 -0.46368145799461019 0 -0.50000000000000222 -0.47393551675040141 0 -0.48960471803939221 -0.45086961667369851 0 -0.5 -0.44731421113254749 0 -0.50000000000000222 -0.47393551675040141 0 -0.47800594129127388 -0.46368145799461019 0 -0.48960471803939221 -0.45086961667369851 0 -0.50000000000000222 -0.47393551675040141 0 -0.48960471803939221 -0.45086961667369851 0 -0.48960471803939221 -0.45086961667369851 0 -0.47920943607878008 -0.42780371659699679 0 -0.48960471803939221 -0.45086961667369851 0 -0.5 -0.44731421113254749 0 -0.47920943607878008 -0.42780371659699679 0 -0.50000000000000089 -0.42069290551469368 0 -0.47920943607878008 -0.42780371659699679 0 -0.5 -0.44731421113254749 0 -0.50000000000000089 -0.42069290551469368 0 -0.47920943607878008 -0.42780371659699679 0 -0.50000000000000089 -0.42069290551469368 0 -0.48577505626071088 -0.4084374490138008 0 -0.5 -0.39241331783667832 0 -0.50000000000000089 -0.42069290551469368 0 -0.48577505626071088 -0.4084374490138008 0 -0.47920943607878008 -0.42780371659699679 0 -0.471562591628087 -0.41083627399466088 0 -0.47920943607878008 -0.42780371659699679 0 -0.46409900797870041 -0.41807861267254259 0 -0.48577505626071088 -0.4084374490138008 0 -0.471562591628087 -0.41083627399466088 0 -0.47920943607878008 -0.42780371659699679 0 -0.471562591628087 -0.41083627399466088 0 -0.47920943607878008 -0.42780371659699679 0 -0.5 -0.39241331783667832 0 -0.47810325359668721 -0.39044103112597411 0 -0.5 -0.36413373015866302 0 -0.48577505626071088 -0.4084374490138008 0 -0.5 -0.39241331783667832 0 -0.47810325359668721 -0.39044103112597411 0 -0.471562591628087 -0.41083627399466088 0 -0.47810325359668721 -0.39044103112597411 0 -0.45841353685069047 -0.40476836940879962 0 -0.48577505626071088 -0.4084374490138008 0 -0.471562591628087 -0.41083627399466088 0 -0.47810325359668721 -0.39044103112597411 0 -0.47810325359668721 -0.39044103112597411 0 -0.45999120044492869 -0.38709552594033542 0 -0.4677813790025066 -0.36728688886699618 0 -0.45999120044492869 -0.38709552594033542 0 -0.44779395219887802 -0.37725075776117512 0 -0.4677813790025066 -0.36728688886699618 0 -0.45999120044492869 -0.38709552594033542 0 -0.45841353685069047 -0.40476836940879962 0 -0.4470358455029968 -0.39378854083036902 0 -0.47810325359668721 -0.39044103112597411 0 -0.45999120044492869 -0.38709552594033542 0 -0.45841353685069047 -0.40476836940879962 0 -0.45841353685069047 -0.40476836940879962 0 -0.4470358455029968 -0.39378854083036902 0 -0.44000832700652143 -0.40996485540405952 0 -0.4470358455029968 -0.39378854083036902 0 -0.44000832700652143 -0.40996485540405952 0 -0.42897221101396521 -0.38986319563747579 0 -0.45999120044492869 -0.38709552594033542 0 -0.4470358455029968 -0.39378854083036902 0 -0.44779395219887802 -0.37725075776117512 0 -0.4470358455029968 -0.39378854083036902 0 -0.44779395219887802 -0.37725075776117512 0 -0.42897221101396521 -0.38986319563747579 0 -0.47920943607878008 -0.42780371659699679 0 -0.45989393361717079 -0.42616670866288409 0 -0.45339955243255392 -0.4366312408219285 0 -0.47920943607878008 -0.42780371659699679 0 -0.45339955243255392 -0.4366312408219285 0 -0.47104649052614422 -0.44498149116372732 0 -0.47920943607878008 -0.42780371659699679 0 -0.45339955243255392 -0.4366312408219285 0 -0.47920943607878008 -0.42780371659699679 0 -0.45989393361717079 -0.42616670866288409 0 -0.46409900797870041 -0.41807861267254259 0 -0.45989393361717079 -0.42616670866288409 0 -0.45453027083015962 -0.42908602753275032 0 -0.45141554171877341 -0.42081799469937131 0 -0.45989393361717079 -0.42616670866288409 0 -0.45453027083015962 -0.42908602753275032 0 -0.45339955243255392 -0.4366312408219285 0 -0.45453027083015962 -0.42908602753275032 0 -0.45339955243255392 -0.4366312408219285 0 -0.45246052932352032 -0.43397593913809801 0 -0.45841353685
[...]
<PointData Scalars="" Vectors="displacement," Tensors="">
<DataArray type="Float64" Name="displacement" NumberOfComponents="3" format="ascii">
0.054363489583786069 0.054434855690179175 0 0.054997943781180066 0.054998015144752554 0 0.05263514857755841 0.054998553335549795 0 0.054363489583786069 0.054434855690179175 0 0.054997943781180066 0.054998015144752554 0 0.054998125874997104 0.052344460653454612 0 0.052629757726699346 0.054999341288632347 0 0.053422532155153635 0.055156038160640047 0 0.054363489583786069 0.054434855690179175 0 0.05263514857755841 0.054998553335549795 0 0.054654093115902358 0.053880472999522692 0 0.052133961423119574 0.055000116132405207 0 0.052480227581882977 0.056123667816606215 0 0.051451033456837388 0.056519417518915677 0 0.052628127887836364 0.054999809419313296 0 0.052133961423119574 0.055000116132405207 0 0.052480227581882977 0.056123667816606215 0 0.053422532155153635 0.055156038160640047 0 0.054257678087801728 0.053611794015059604 0 0.052480227581882977 0.056123667816606215 0 0.052471666295284068 0.057175917825218886 0 0.051451033456837388 0.056519417518915677 0 0.054654093115902358 0.053880472999522692 0 0.054998125874997104 0.052344460653454612 0 0.054785064289218435 0.053371732183466428 0 0.055002522089788335 0.052338164306768527 0 0.054257678087801728 0.053611794015059604 0 0.054363489583786069 0.054434855690179175 0 0.054654093115902358 0.053880472999522692 0 0.054998125874997104 0.052344460653454612 0 0.054999960786598322 0.052338882007883884 0 0.054999976621210228 0.050173702516673593 0 0.057286864859516007 0.0515070828479922 0 0.054999976621210228 0.050173702516673593 0 0.057286864859516007 0.0515070828479922 0 0.057281101450592703 0.050150341470039099 0 0.0550029896458442 0.050173005657843807 0 0.055258235841388739 0.051816148292131124 0 0.053417748798915018 0.052412236519194057 0 0.053413352699863088 0.053756917281232851 0 0.051179438281237187 0.053204033847999835 0 0.054257678087801728 0.053611794015059604 0 0.055258235841388739 0.051816148292131124 0 0.05301513525188848 0.051735281786662937 0 0.049883693557877216 0.054113813569162013 0 0.057270466508183661 0.050083151805338427 0 0.057269187776332317 0.048233998702512812 0 0.056111979098515487 0.049143848473217934 0 0.055258235841388739 0.051816148292131124 0 0.05301513525188848 0.051735281786662937 0 0.053210781307575339 0.055425906960838753 0 0.051358131934440054 0.055246640030164079 0 0.052276131174594176 0.05446554023287653 0 0.053219799713966585 0.053729588488518089 0 0.053210781307575339 0.055425906960838753 0 0.052276131174594176 0.05446554023287653 0 0.05499996143059583 0.050173370336812191 0 0.057270466508183661 0.050083151805338427 0 0.056111979098515487 0.049143848473217934 0 0.057269187776332317 0.048233998702512812 0 0.056111979098515487 0.049143848473217934 0 0.054999973502542411 0.047884365776990387 0 0.05499996143059583 0.050173370336812191 0 0.056111979098515487 0.049143848473217934 0 0.054999973502542411 0.047884365776990387 0 0.049473385348229072 0.055066959729260283 0 0.051358131934440054 0.055246640030164079 0 0.050953657731761727 0.054547174856760423 0 0.048343224107689535 0.0571564411216006 0 0.049883693557877216 0.054113813569162013 0 0.048403125173646096 0.053084966726607091 0 0.048841805029800567 0.053057603832987583 0 0.048612663515959532 0.053209955657365263 0 0.048336875857695756 0.053049283383476198 0 0.048403125173646096 0.053084966726607091 0 0.048841805029800567 0.053057603832987583 0 0.050344590314724713 0.054145801769921176 0 0.049473385348229072 0.055066959729260283 0 0.050953657731761727 0.054547174856760423 0 0.050344590314724713 0.054145801769921176 0 0.049473385348229072 0.055066959729260283 0 0.049094922405187882 0.053981914040247221 0 0.048343224107689535 0.0571564411216006 0 0.049095118181535252 0.057631495885259162 0 0.048403125173646096 0.053084966726607091 0 0.048375028456325554 0.053134246599312582 0 0.048612663515959532 0.053209955657365263 0 0.047729214795740341 0.060814405890668374 0 0.047840954377223827 0.061155221845135853 0 0.047316047152544324 0.061156417381145169 0 0.048343224107689535 0.0571564411216006 0 0.047409573080828334 0.056714126149961824 0 0.048336875857695756 0.053049283383476198 0 0.048403125173646096 0.053084966726607091 0 0.048368327683798625 0.053151558819435063 0 0.047730719288565149 0.056016676237441908 0 0.047409573080828334 0.056714126149961824 0 0.053219799713966585 0.053729588488518089 0 0.052276131174594176 0.05446554023287653 0 0.051295018416633156 0.053815294485543598 0 0.051358131934440054 0.055246640030164079 0 0.052276131174594176 0.05446554023287653 0 0.050953657731761727 0.054547174856760423 0 0.050344590314724713 0.054145801769921176 0 0.050953657731761727 0.054547174856760423 0 0.051295018416633156 0.053815294485543598 0 0.052276131174594176 0.05446554023287653 0 0.050953657731761727 0.054547174856760423 0 0.051295018416633156 0.053815294485543598 0 0.054257678087801728 0.053611794015059604 0 0.050925134379937793 0.055455174472077901 0 0.053413352699863088 0.053756917281232851 0 0.051295018416633156 0.053815294485543598 0 0.051179438281237187 0.053204033847999835 0 0.050344590314724713 0.054145801769921176 0 0.051295018416633156 0.053815294485543598 0 0.051179438281237187 0.053204033847999835 0 0.055258235841388739 0.051816148292131124 0 0.050742432077519953 0.053986691519450972 0 0.050925134379937793 0.055455174472077901 0 0.049095118181535252 0.057631495885259162 0 0.050344590314724713 0.054145801769921176 0 0.051179438281237187 0.053204033847999835 0 0.049094922405187882 0.053981914040247221 0 0.051025322420581463 0.0576862942370358 0 0.050158284437543874 0.056989842741273354 0 0.04958189746890164 0.058195169018345157 0 0.050158284437543874 0.056989842741273354 0 0.050562856235931014 0.055720047791412958 0 0.048969261301916971 0.056432899475115678 0 0.052471666295284068 0.057175917825218886 0 0.051025322420581463 0.0576862942370358 0 0.051451033456837388 0.056519417518915677 0 0.050158284437543874 0.056989842741273354 0 0.051451033456837388 0.056519417518915677 0 0.050562856235931014 0.055720047791412958 0 0.051025322420581463 0.0576862942370358 0 0.050158284437543874 0.056989842741273354 0 0.051451033456837388 0.056519417518915677 0 0.052132905596732844 0.054999997356829061 0 0.049596361727214648 0.056138763447390987 0 0.049204562901849165 0.054999994382877754 0 0.052133961423119574 0.055000116132405207 0 0.051451033456837388 0.056519417518915677 0 0.050562856235931014 0.055720047791412958 0 0.052132321470508565 0.055000263335466669 0 0.050206821885948029 0.055877806159154823 0 0.050206821885948029 0.055877806159154823 0 0.047396501543150699 0.057075059271556566 0 0.049596361727214648 0.056138763447390987 0 0.049204562901849165 0.054999994382877754 0 0.047064106069889658 0.057277591950151932 0 0.046276260386542374 0.055000549631569098 0 0.047396501543150699 0.057075059271556566 0 0.049204562901849165 0.054999994382877754 0 0.046276238751905605 0.054999994484211667 0 0.047064106069889658 0.057277591950151932 0 0.046275866427172609 0.054999908287205808 0 0.044852386668627904 0.056494946388554741 0 0.043165418971408673 0.054999952444990938 0 0.046275866427172609 0.054999908287205808 0 0.044852386668627904 0.056494946388554741 0 0.046926152068937396 0.057193006587023157 0 0.045032980973682024 0.057977794322891366 0 0.046626880438935731 0.05725843233308707 0 0.045695312980782193 0.058701687372775237 0 0.044852386668627904 0.056494946388554741 0 0.045032980973682024 0.057977794322891366 0 0.046926152068937396 0.057193006587023157 0 0.045006787020942046 0.057993768730707863 0 0.047396501543150699 0.057075059271556566 0 0.043165418971408673 0.054999952444990938 0 0.042890844861808851 0.05727257871632048 0 0.040054637019611379 0.054999865966852954 0 0.044852386668627904 0.056494946388554741 0 0.043165418971408673 0.054999952444990938 0 0.042890844861808851 0.05727257871632048 0 0.045032980973682024 0.057977794322891366 0 0.042890844861808851 0.05727257871632048 0 0.044357397455586388 0.059281163617774274 0 0.044852386668627904 0.056494946388554741 0 0.045032980973682024 0.057977794322891366 0 0.042890844861808851 0.05727257871632048 0 0.042890844861808851 0.05727257871632048 0 0.04250626670402502 0.059118324711231338 0 0.040356542838613507 0.058287176262432433 0 0.04250626670402502 0.059118324711231338 0 0.041444009328713019 0.060384702195193797 0 0.040356542838613507 0.058287176262432433 0 0.04250626670402502 0.059118324711231338 0 0.044357397455586388 0.059281163617774274 0 0.043199093524429931 0.060432755978004973 0 0.042890844861808851 0.05727257871632048 0 0.04250626670402502 0.059118324711231338 0 0.044357397455586388 0.059281163617774274 0 0.044357397455586388 0.059281163617774274 0 0.043199093524429931 0.060432755978004973 0 0.044837140018241302 0.061090990098938106 0 0.043199093524429931 0.060432755978004973 0 0.044837140018241302 0.061090990098938106 0 0.042787744689478872 0.062270676915681805 0 0.04250626670402502 0.059118324711231338 0 0.043199093524429931 0.060432755978004973 0 0.041444009328713019 0.060384702195193797 0 0.043199093524429931 0.060432755978004973 0 0.041444009328713019 0.060384702195193797 0 0.042787744689478872 0.062270676915681805 0 0.046626880438935731 0.05725843233308707 0 0.046461657680111325 0.059108740971902315 0 0.04746332846319095 0.05972857577786999 0 0.047396501543150699 0.057075059271556566 0 0.049095118181535252 0.057631495885259162 0 0.050158284437543874 0.056989842741273354 0 0.048969261301916971 0.056432899475115678 0 0.04958189746890164 0.058195169018345157 0 0.046626880438935731 0.05725843233308707 0 0.046461657680111325 0.059108740971902315 0 0.045695312980782193 0.058701687372775237 0 0.046461657680111325 0.059108740971902315 0 0.046735618368034325 0.05962819949054031 0 0.045929633890633433 0.059945612510211313 0 0.046461657680111325 0.059108740971902315 0 0.046735618368034325 0.05962819949054031 0 0.04746332846319095 0.05972857577786999 0 0.046735618368034325 0.05962819949054031 0 0.04746332846319095 0.05972857577786999 0 0.04720644349511368 0.059822157759656262 0 0.044357397455586388 0.059281163617774274 0 0.045695312980782193 0.058701687372775237 0 0.045929633890633433 0.059945612510211313 0 0.045032980973682024 0.057977794322891366 0 0.044357397455586388 0.059281163617774274 0 0.045695312980782193 0.058701687372775237 0 0.046461657680111325 0.059108740971902315 0 0.045695312980782193 0.058701687372775237 0 0.045929633890633433 0.059945612510211313 0 0.044357397455586388 0.059281163617774274 0 0.045929633890633433 0.059945612510211313 0 0.044837140018241302 0.061090990098938106 0 0.045929633890633433 0.059945612510211313 0 0.044837140018241302 0.061090990098938106 0 0.04605479560913843 0.060953991588728058 0 0.044837140018241302 0.061090990098938106 0 0.04605479560913843 0.060953991588728058 0 0.045741330644624482 0.061852585022235257 0 0.04605479560913843 0.060953991588728058 0 0.04693207391199667 0.060712641366059951 0 0.046825547670711357 0.061396921551544879 0 0.04605479560913843 0.060953991588728058 0 0.046564125753684793 0.060191035535292502 0 0.04693207391199667 0.060712641366059951 0 0.045929633890633433 0.059945612510211313 0 0.04605479560913843 0.060953991588728058 0 0.046564125753684793 0.060191035535292502 0 0.046735618368034325 0.05962819949054031 0 0.045929633890633433 0.059945612510211313 0 0.046564125753684793 0.060191035535292502 0 0.047836151720068013 0.060801135735194391 0 0.047467072747151305 0.059725926552357603 0 0.047120985133523162 0.060145233651481819 0 0.047467072747151305 0.059725926552357603 0 0.04720644349511368 0.059822157759656262 0 0.047120985133523162 0.060145233651481819 0 0.049095118181535252 0.057631495885259162 0 0.048533978649901839 0.057944575925832506 0 0.046735618368034325 0.05962819949054031 0 0.046564125753684793 0.060191035535292502 0 0.047120985133523162 0.060145233651481819 0 0.046735618368034325 0.05962819949054031 0 0.04720644349511368 0.059822157759656262 0 0.047120985133523162 0.060145233651481819 0 0.046564125753684793 0.060191035535292502 0 0.047120985133523162 0.060145233651481819 0 0.04693207391199667 0.060712641366059951 0 0.047836151720068013 0.060801135735194391 0 0.047120985133523162 0.060145233651481819 0 0.04693207391199667 0.060712641366059951 0 0.047729214795740341 0.060814405890668374 0 0.04693207391199667 0.060712641366059951 0 0.047316047152544324 0.061156417381145169 0 0.048343224107689535 0.0571564411216006 0 0.047390258803625754 0.059036339451809056 0 0.04693207391199667 0.060712641366059951 0 0.047316047152544324 0.061156417381145169 0 0.046825547670711357 0.061396921551544879 0 0.046825547670711357 0.061396921551544879 0 0.047228225101048342 0.062428154273031014 0 0.04642994107600857 0.062126004494970598 0 0.047316047152544324 0.061156417381145169 0 0.046825547670711357 0.061396921551544879 0 0.047208733027796573 0.062288309653177526 0 0.047840954377223827 0.061155221845135853 0 0.047316047152544324 0.061156417381145169 0 0.047208733027796573 0.062288309653177526 0 0.046963553949907477 0.062137922498986732 0 0.045551237165668168 0.059685247424121388 0 0.047228225101048342 0.062428154273031014 0 0.046570259193758026 0.062585031920144127 0 0.04642994107600857 0.062126004494970598 0 0.047228225101048342 0.062428154273031014 0 0.046570259193758026 0.062585031920144127 0 0.046839113658488134 0.063115570760948925 0 0.045551237165668168 0.059685247424121388 0 0.043492898022835604 0.057809886986009723 0 0.046570259193758026 0.062585031920144127 0 0.045781293387942318 0.062670516654241143 0 0.046839113658488134 0.063115570760948925 0 0.046570259193758026 0.062585031920144127 0 0.04642994107600857 0.062126004494970598 0 0.045781293387942318 0.062670516654241143 0 0.04605479560913843 0.060953991588728058 0 0.046825547670711357 0.061396921551544879 0 0.046262245702075461 0.061581656417146212 0 0.04605479560913843 0.060953991588728058 0 0.046262245702075461 0.061581656417146212 0 0.045741330644624482 0.061852585022235257 0 0.04642994107600857 0.062126004494970598 0 0.046262245702075461 0.061581656417146212 0 0.045741330644624482 0.061852585022235257 0 0.046825547670711357 0.061396921551544879 0 0.04642994107600857 0.062126004494970598 0 0.046262245702075461 0.061581656417146212 0 0.044837140018241302 0.061090990098938106 0 0.045741330644624482 0.061852585022235257 0 0.045293474525672256 0.062774660122944984 0 0.04642994107600857 0.062126004494970598 0 0.045741330644624482 0.061852585022235257 0 0.045781293387942318 0.062670516654241143 0 0.045741330644624482 0.061852585022235257 0 0.045293474525672256 0.062774660122944984 0 0.045781293387942318 0.062670516654241143 0 0.04343834035565701 0.060296934205558914 0 0.044614228925701653 0.060725050511195248 0 0.041007180706117724 0.057094862186090611 0 0.04125139561400272 0.05694801497016605 0 0.041033428525746748 0.057266312961236979 0 0.041017553091755268 0.056890183458073264 0 0.041007180706117724 0.057094862186090611 0 0.04125139561400272 0.05694801497016605 0 0.041017553091755268 0.056890183458073264 0 0.041007180706117724 0.057094862186090611 0 0.040801682458743563 0.05712396532886467 0 0.045292299415920681 0.062750104851500524 0 0.045781293387942318 0.062670516654241143 0 0.046839113658488134 0.063115570760948925 0 0.04343834035565701 0.060296934205558914 0 0.043492898022835604 0.057809886986009723 0 0.045551237165668168 0.059685247424121388 0 0.043585799787632995 0.055971383877050328 0 0.04446562663927351 0.058430272337345428 0 0.044974138148209108 0.057481849078194043 0 0.043956568225300197 0.057215548638614125 0 0.043492898022835604 0.057809886986009723 0 0.043585799787632995 0.055971383877050328 0 0.041614470833999204 0.06074890163123145 0 0.039186829669927502 0.06006663600425334 0 0.040257619458207737 0.0589984516130296 0 0.040137738330693555 0.059609657665686759 0 0.038187859600045761 0.058497523394785519 0 0.041444009328713019 0.060384702195193797 0 0.042787744689478872 0.062270676915681805 0 0.040111418813969305 0.061722933450739002 0 0.040257619458207737 0.0589984516130296 0 0.040322268146597624 0.059862336653740134 0 0.040137738330693555 0.059609657665686759 0 0.042433516214136359 0.059547609450344326 0 0.040257619458207737 0.0589984516130296 0 0.040322268146597624 0.059862336653740134 0 0.04343834035565701 0.060296934205558914 0 0.041614470833999204 0.06074890163123145 0 0.044837140018241302 0.061090990098938106 0 0.045293474525672256 0.062774660122944984 0 0.042787744689478872 0.062270676915681805 0 0.04343834035565701 0.060296934205558914 0 0.039110754746321919 0.057508707137553759 0 0.041017553091755268 0.056890183458073264 0 0.040654941592369521 0.056940105356367766 0 0.040801682458743563 0.05712396532886467 0 0.039110754746321919 0.057508707137553759 0 0.039137075570574983 0.056540505291493119 0 0.03708414623811556 0.055409188393454316 0 0.037034488899952617 0.055809385466291141 0 0.037408103303121679 0.055853115743934263 0 0.040311943681508006 0.059846198246536579 0 0.040137738330693555 0.059609657665686759 0 0.03854905389228231 0.060114748715369717 0 0.039110754746321919 0.057508707137553759 0 0.037483104233110555 0.057858087430994583 0 0.03708414623811556 0.055409188393454316 0 0.036775231221602769 0.055675091458317345 0 0.036359908616588277 0.055507021966699439 0 0.039110754746321919 0.057508707137553759 0 0.039617133318842326 0.058283325578854621 0 0.03708414623811556 0.055409188393454316 0 0.037034488899952617 0.055809385466291141 0 0.036775231221602769 0.055675091458317345 0 0.036560003988286079 0.055779535500777425 0 0.036775231221602769 0.055675091458317345 0 0.036359908616588277 0.055507021966699439 0 0.036662614908387389 0.056298197142943832 0 0.036810525294895279 0.056002110057163698 0 0.03648779363169679 0.05600883364378785 0 0.036662614908387389 0.056298197142943832 0 0.036810525294895279 0.056002110057163698 0 0.036935132027692247 0.056252363090536356 0 0.036560003988286079 0.055779535500777425 0 0.036775231221602769 0.055675091458317345 0 0.036810525294895279 0.056002110057163698 0 0.036560003988286079 0.055779535500777425 0 0.036810525294895279 0.056002110057163698 0 0.03648779363169679 0.05600883364378785 0 0.037034488899952617 0.055809385466291141 0 0.036810525294895279 0.056002110057163698 0 0.037084171775329057 0.056034203958514127 0 0.037034488899952617 0.055809385466291141 0 0.036775231221602769 0.055675091458317345 0 0.036810525294895279 0.056002110057163698 0 0.036810525294895279 0.056002110057163698 0 0.036935132027692247 0.056252363090536356 0 0.037084171775329057 0.056034203958514127 0 0.036935132027692247 0.056252363090536356 0 0.03722996070335647 0.05625507203718786 0 0.037084171775329057 0.056034203958514127 0 0.037034488899952617 0.055809385466291141 0 0.037084171775329057 0.056034203958514127 0 0.037408103303121679 0.055853115743934263 0 0.03722996070335647 0.05625507203718786 0 0.037084171775329057 0.056034203958514127 0 0.037408103303121679 0.055853115743934263 0 0.039137075570574983 0.056540505291493119 0 0.038358041496224862 0.055535227147494239 0 0.03722996070335647 0.05625507203718786 0 0.037408103303121679 0.055853115743934263 0 0.037740645023791382 0.056296881465803639 0 0.035586008309492323 0.054929555598853631 0 0.038358041496224862 0.055535227147494239 0 0.03722996070335647 0.05625507203718786 0 0.036880540376487775 0.056598373826890758 0 0.037740645023791382 0.056296881465803639 0 0.036056375785977438 0.053597816681460214 0 0.03657635487672474 0.053365822730071885 0 0.035866285689026327 0.054655473456226435 0 0.036056375785977438 0.053597816681460214 0 0.035009292761250525 0.053588609000598607 0 0.036425492076364453 0.053133554490420482 0 0.036056375785977438 0.053597816681460214 0 0.035735044267443623 0.053810852909120736 0 0.035009292761250525 0.053588609000598607 0 0.035735044267443623 0.053810852909120736 0 0.035009292761250525 0.053588609000598607 0 0.035341503184075085 0.054056324463697777 0 0.036935132027692247 0.056252363090536356 0 0.03722996070335647 0.05625507203718786 0 0.036880540376487775 0.056598373826890758 0 0