<?xml version="1.0"?>
<VTKFile type="UnstructuredGrid" version="0.1" byte_order="LittleEndian">
<UnstructuredGrid>
<Piece NumberOfPoints="29346" NumberOfCells="10297">
<Points>
<DataArray type="Float64" NumberOfComponents="3" format="ascii">
-0.49149400313416031 -0.48922218324784073 0 -0.5 -0.5 0 -0.49999999999999728 -0.47844709049625161 0 -0.49149400313416031 -0.48922218324784073 0 -0.5 -0.5 0 -0.47580933344589621 -0.50000000000000211 0 -0.49999999999999728 -0.47844709049625161 0 -0.48408627088471667 -0.47842616145507122 0 -0.49149400313416031 -0.48922218324784073 0 -0.49999999999999728 -0.47844709049625161 0 -0.48408627088471667 -0.47842616145507122 0 -0.50000000000000222 -0.47393551675040141 0 -0.48408627088471667 -0.47842616145507122 0 -0.47800594129127388 -0.46368145799461019 0 -0.49999999999999728 -0.47844709049625161 0 -0.50000000000000222 -0.47393551675040141 0 -0.48408627088471667 -0.47842616145507122 0 -0.48408627088471667 -0.47842616145507122 0 -0.46817254176943612 -0.47840523241389288 0 -0.48408627088471667 -0.47842616145507122 0 -0.46817254176943612 -0.47840523241389288 0 -0.47800594129127388 -0.46368145799461019 0 -0.48408627088471667 -0.47842616145507122 0 -0.47580933344589621 -0.50000000000000211 0 -0.46817254176943612 -0.47840523241389288 0 -0.47580933344589621 -0.50000000000000211 0 -0.46817254176943612 -0.47840523241389288 0 -0.49149400313416031 -0.48922218324784073 0 -0.48408627088471667 -0.47842616145507122 0 -0.47580933344589621 -0.50000000000000211 0 -0.47580933344589621 -0.50000000000000211 0 -0.45612285069986169 -0.500000000000001 0 -0.46817254176943612 -0.47840523241389288 0 -0.45612285069986169 -0.500000000000001 0 -0.46817254176943612 -0.47840523241389288 0 -0.45545663569531808 -0.47838850900984509 0 -0.45612285069986169 -0.500000000000001 0 -0.45545663569531808 -0.47838850900984509 0 -0.46817254176943612 -0.47840523241389288 0 -0.45545663569531808 -0.47838850900984509 0 -0.46078604710099469 -0.4575182366179108 0 -0.46817254176943612 -0.47840523241389288 0 -0.45545663569531808 -0.47838850900984509 0 -0.43787427813621649 -0.47836538546144469 0 -0.44012353263776011 -0.4593840062173114 0 -0.45545663569531808 -0.47838850900984509 0 -0.43787427813621649 -0.47836538546144469 0 -0.44665085995570042 -0.48947597783179941 0 -0.45545663569531808 -0.47838850900984509 0 -0.43787427813621649 -0.47836538546144469 0 -0.43787427813621649 -0.47836538546144469 0 -0.44012353263776011 -0.4593840062173114 0 -0.44798739616323752 -0.46872706348927579 0 -0.45545663569531808 -0.47838850900984509 0 -0.43787427813621649 -0.47836538546144469 0 -0.44798739616323752 -0.46872706348927579 0 -0.45612285069986169 -0.500000000000001 0 -0.45545663569531808 -0.47838850900984509 0 -0.44665085995570042 -0.48947597783179941 0 -0.43787427813621649 -0.47836538546144469 0 -0.44665085995570042 -0.48947597783179941 0 -0.43531062069519888 -0.49999999999999711 0 -0.45612285069986169 -0.500000000000001 0 -0.44665085995570042 -0.48947597783179941 0 -0.43531062069519888 -0.49999999999999711 0 -0.44237278713930378 -0.44040262697317811 0 -0.44012353263776011 -0.4593840062173114 0 -0.44737584699447119 -0.45525730566946471 0 -0.44237278713930378 -0.44040262697317811 0 -0.44012353263776011 -0.4593840062173114 0 -0.44070468280835029 -0.4428969576274982 0 -0.44012353263776011 -0.4593840062173114 0 -0.43492790089541522 -0.45094709921861709 0 -0.44237278713930378 -0.44040262697317811 0 -0.44070468280835029 -0.4428969576274982 0 -0.44012353263776011 -0.4593840062173114 0 -0.45154816492120148 -0.44914893825957258 0 -0.44237278713930378 -0.44040262697317811 0 -0.44737584699447119 -0.45525730566946471 0 -0.45154816492120148 -0.44914893825957258 0 -0.44237278713930378 -0.44040262697317811 0 -0.45339955243255392 -0.4366312408219285 0 -0.44237278713930378 -0.44040262697317811 0 -0.45339955243255392 -0.4366312408219285 0 -0.44070468280835029 -0.4428969576274982 0 -0.4385303738150893 -0.44171681332002799 0 -0.43492790089541522 -0.45094709921861709 0 -0.44237278713930378 -0.44040262697317811 0 -0.4385303738150893 -0.44171681332002799 0 -0.43863723719630249 -0.43575494977372131 0 -0.44237278713930378 -0.44040262697317811 0 -0.4385303738150893 -0.44171681332002799 0 -0.44237278713930378 -0.44040262697317811 0 -0.44070468280835029 -0.4428969576274982 0 -0.4385303738150893 -0.44171681332002799 0 -0.44070468280835029 -0.4428969576274982 0 -0.4385303738150893 -0.44171681332002799 0 -0.45545663569531808 -0.47838850900984509 0 -0.44798739616323752 -0.46872706348927579 0 -0.45484735411085281 -0.45862389340798521 0 -0.44012353263776011 -0.4593840062173114 0 -0.44798739616323752 -0.46872706348927579 0 -0.44737584699447119 -0.45525730566946471 0 -0.45154816492120148 -0.44914893825957258 0 -0.44737584699447119 -0.45525730566946471 0 -0.45484735411085281 -0.45862389340798521 0 -0.44798739616323752 -0.46872706348927579 0 -0.44737584699447119 -0.45525730566946471 0 -0.45484735411085281 -0.45862389340798521 0 -0.46817254176943612 -0.47840523241389288 0 -0.46078604710099469 -0.4575182366179108 0 -0.45545663569531808 -0.47838850900984509 0 -0.45484735411085281 -0.45862389340798521 0 -0.46078604710099469 -0.4575182366179108 0 -0.45154816492120148 -0.44914893825957258 0 -0.45484735411085281 -0.45862389340798521 0 -0.46078604710099469 -0.4575182366179108 0 -0.45545663569531808 -0.47838850900984509 0 -0.45484735411085281 -0.45862389340798521 0 -0.46078604710099469 -0.4575182366179108 0 -0.45339955243255392 -0.4366312408219285 0 -0.45154816492120148 -0.44914893825957258 0 -0.46078604710099469 -0.4575182366179108 0 -0.45339955243255392 -0.4366312408219285 0 -0.46078604710099469 -0.4575182366179108 0 -0.47104649052614422 -0.44498149116372732 0 -0.45339955243255392 -0.4366312408219285 0 -0.47104649052614422 -0.44498149116372732 0 -0.48960471803939221 -0.45086961667369851 0 -0.47920943607878008 -0.42780371659699679 0 -0.46817254176943612 -0.47840523241389288 0 -0.46078604710099469 -0.4575182366179108 0 -0.47800594129127388 -0.46368145799461019 0 -0.47104649052614422 -0.44498149116372732 0 -0.47800594129127388 -0.46368145799461019 0 -0.48960471803939221 -0.45086961667369851 0 -0.46078604710099469 -0.4575182366179108 0 -0.47104649052614422 -0.44498149116372732 0 -0.47800594129127388 -0.46368145799461019 0 -0.50000000000000222 -0.47393551675040141 0 -0.48960471803939221 -0.45086961667369851 0 -0.5 -0.44731421113254749 0 -0.50000000000000222 -0.47393551675040141 0 -0.47800594129127388 -0.46368145799461019 0 -0.48960471803939221 -0.45086961667369851 0 -0.50000000000000222 -0.47393551675040141 0 -0.48960471803939221 -0.45086961667369851 0 -0.48960471803939221 -0.45086961667369851 0 -0.47920943607878008 -0.42780371659699679 0 -0.48960471803939221 -0.45086961667369851 0 -0.5 -0.44731421113254749 0 -0.47920943607878008 -0.42780371659699679 0 -0.50000000000000089 -0.42069290551469368 0 -0.47920943607878008 -0.42780371659699679 0 -0.5 -0.44731421113254749 0 -0.50000000000000089 -0.42069290551469368 0 -0.47920943607878008 -0.42780371659699679 0 -0.50000000000000089 -0.42069290551469368 0 -0.48577505626071088 -0.4084374490138008 0 -0.5 -0.39241331783667832 0 -0.50000000000000089 -0.42069290551469368 0 -0.48577505626071088 -0.4084374490138008 0 -0.47920943607878008 -0.42780371659699679 0 -0.471562591628087 -0.41083627399466088 0 -0.47920943607878008 -0.42780371659699679 0 -0.46409900797870041 -0.41807861267254259 0 -0.48577505626071088 -0.4084374490138008 0 -0.471562591628087 -0.41083627399466088 0 -0.47920943607878008 -0.42780371659699679 0 -0.471562591628087 -0.41083627399466088 0 -0.47920943607878008 -0.42780371659699679 0 -0.5 -0.39241331783667832 0 -0.47810325359668721 -0.39044103112597411 0 -0.5 -0.36413373015866302 0 -0.48577505626071088 -0.4084374490138008 0 -0.5 -0.39241331783667832 0 -0.47810325359668721 -0.39044103112597411 0 -0.471562591628087 -0.41083627399466088 0 -0.47810325359668721 -0.39044103112597411 0 -0.45841353685069047 -0.40476836940879962 0 -0.48577505626071088 -0.4084374490138008 0 -0.471562591628087 -0.41083627399466088 0 -0.47810325359668721 -0.39044103112597411 0 -0.47810325359668721 -0.39044103112597411 0 -0.45999120044492869 -0.38709552594033542 0 -0.4677813790025066 -0.36728688886699618 0 -0.45999120044492869 -0.38709552594033542 0 -0.44779395219887802 -0.37725075776117512 0 -0.4677813790025066 -0.36728688886699618 0 -0.45999120044492869 -0.38709552594033542 0 -0.45841353685069047 -0.40476836940879962 0 -0.4470358455029968 -0.39378854083036902 0 -0.47810325359668721 -0.39044103112597411 0 -0.45999120044492869 -0.38709552594033542 0 -0.45841353685069047 -0.40476836940879962 0 -0.45841353685069047 -0.40476836940879962 0 -0.4470358455029968 -0.39378854083036902 0 -0.44000832700652143 -0.40996485540405952 0 -0.4470358455029968 -0.39378854083036902 0 -0.44000832700652143 -0.40996485540405952 0 -0.42897221101396521 -0.38986319563747579 0 -0.45999120044492869 -0.38709552594033542 0 -0.4470358455029968 -0.39378854083036902 0 -0.44779395219887802 -0.37725075776117512 0 -0.4470358455029968 -0.39378854083036902 0 -0.44779395219887802 -0.37725075776117512 0 -0.42897221101396521 -0.38986319563747579 0 -0.47920943607878008 -0.42780371659699679 0 -0.45989393361717079 -0.42616670866288409 0 -0.45339955243255392 -0.4366312408219285 0 -0.47920943607878008 -0.42780371659699679 0 -0.45339955243255392 -0.4366312408219285 0 -0.47104649052614422 -0.44498149116372732 0 -0.47920943607878008 -0.42780371659699679 0 -0.45339955243255392 -0.4366312408219285 0 -0.47920943607878008 -0.42780371659699679 0 -0.45989393361717079 -0.42616670866288409 0 -0.46409900797870041 -0.41807861267254259 0 -0.45989393361717079 -0.42616670866288409 0 -0.45453027083015962 -0.42908602753275032 0 -0.45141554171877341 -0.42081799469937131 0 -0.45989393361717079 -0.42616670866288409 0 -0.45453027083015962 -0.42908602753275032 0 -0.45339955243255392 -0.4366312408219285 0 -0.45453027083015962 -0.42908602753275032 0 -0.45339955243255392 -0.4366312408219285 0 -0.45246052932352032 -0.43397593913809801 0 -0.45841353685
[...]
<PointData Scalars="" Vectors="displacement," Tensors="">
<DataArray type="Float64" Name="displacement" NumberOfComponents="3" format="ascii">
8.1052205242412905e-05 0.054341048579180776 0 6.3504501906039863e-07 0.054997753094259985 0 -1.5166596651552897e-06 0.052633644725158316 0 8.1052205242412905e-05 0.054341048579180776 0 6.3504501906039863e-07 0.054997753094259985 0 2.5063550988924217e-07 0.054999972582237683 0 -2.4983879674996963e-07 0.052629233392483661 0 -0.00033575205363630653 0.052717847050483414 0 8.1052205242412905e-05 0.054341048579180776 0 -1.5166596651552897e-06 0.052633644725158316 0 -0.00041129554080622624 0.054636723288892644 0 2.5412090493705049e-06 0.052138015009253878 0 -0.00039982839143485303 0.050847185364355486 0 0.00073584441092312922 0.050225968667883654 0 -2.7553927433796846e-06 0.052623690616863554 0 2.5412090493705049e-06 0.052138015009253878 0 -0.00039982839143485303 0.050847185364355486 0 -0.00033575205363630653 0.052717847050483414 0 -0.0004171228207626734 0.052116540951271516 0 -0.00039982839143485303 0.050847185364355486 0 -0.00045115843743421971 0.049462683993687556 0 0.00073584441092312922 0.050225968667883654 0 -0.00041129554080622624 0.054636723288892644 0 2.5063550988924217e-07 0.054999972582237683 0 -0.00042133963568327068 0.055003621128414913 0 -6.6289502079210262e-07 0.055001156223216219 0 -0.0004171228207626734 0.052116540951271516 0 8.1052205242412905e-05 0.054341048579180776 0 -0.00041129554080622624 0.054636723288892644 0 2.5063550988924217e-07 0.054999972582237683 0 2.5867137156209208e-09 0.054999988736562831 0 -6.6192019778959443e-09 0.054999953594002164 0 -1.5679297552102676e-06 0.054969505863164243 0 -6.6192019778959443e-09 0.054999953594002164 0 -1.5679297552102676e-06 0.054969505863164243 0 -1.549010143321629e-06 0.054965278129191199 0 2.5679691860811525e-07 0.055000734642918013 0 -0.00029598044229470921 0.052011977580028589 0 -0.00072418937057584375 0.049124881911437296 0 -0.00072309107828120382 0.04863789952784256 0 5.9014590839247544e-05 0.048785698027925622 0 -0.0004171228207626734 0.052116540951271516 0 -0.00029598044229470921 0.052011977580028589 0 -4.7229208781491341e-05 0.049765981150236401 0 0.00032633506132486166 0.046723631514212896 0 -1.2753115397562165e-05 0.054952204344823626 0 -1.3513298207579104e-05 0.054954254192160448 0 -6.2137372278609717e-06 0.054977148143087969 0 -0.00029598044229470921 0.052011977580028589 0 -4.7229208781491341e-05 0.049765981150236401 0 -0.00061086737444724943 0.048041104156888136 0 -5.4708058740376169e-06 0.048081595845377856 0 -0.00030579216396075837 0.048353663200173952 0 -0.00061386131296192878 0.048608545800157943 0 -0.00061086737444724943 0.048041104156888136 0 -0.00030579216396075837 0.048353663200173952 0 -3.5060942456866679e-09 0.054999936391136386 0 -1.2753115397562165e-05 0.054952204344823626 0 -6.2137372278609717e-06 0.054977148143087969 0 -1.3513298207579104e-05 0.054954254192160448 0 -6.2137372278609717e-06 0.054977148143087969 0 -1.2183323870171159e-08 0.054999964780612719 0 -3.5060942456866679e-09 0.054999936391136386 0 -6.2137372278609717e-06 0.054977148143087969 0 -1.2183323870171159e-08 0.054999964780612719 0 0.00060729305499520323 0.048104427829567163 0 -5.4708058740376169e-06 0.048081595845377856 0 0.00012766599489291399 0.0483095415296938 0 -0.00053404922968548524 0.042854878329461658 0 0.00032633506132486166 0.046723631514212896 0 0.00047177640176730869 0.045255898025654162 0 0.00031907533792791974 0.045287995938970205 0 0.00039987785765527631 0.045217586777437868 0 0.0004942418694349165 0.045265136456366623 0 0.00047177640176730869 0.045255898025654162 0 0.00031907533792791974 0.045287995938970205 0 0.00032838741398889571 0.048435554757921009 0 0.00060729305499520323 0.048104427829567163 0 0.00012766599489291399 0.0483095415296938 0 0.00032838741398889571 0.048435554757921009 0 0.00060729305499520323 0.048104427829567163 0 0.00073680396556373212 0.048462554313333454 0 -0.00053404922968548524 0.042854878329461658 0 0.00013530107113946395 0.044796567982019309 0 0.00047177640176730869 0.045255898025654162 0 0.00048295792905611574 0.045238849994882438 0 0.00039987785765527631 0.045217586777437868 0 -0.0028424896320982241 0.03849690253227301 0 -0.0029201770506132887 0.038267488598608637 0 -0.0025722665128442026 0.038264645232169721 0 -0.00053404922968548524 0.042854878329461658 0 -0.00028957556944976754 0.042331975784187389 0 0.0004942418694349165 0.045265136456366623 0 0.00047177640176730869 0.045255898025654162 0 0.00048187761660856962 0.045230694621852197 0 -0.0004034212630210277 0.04279612143049584 0 -0.00028957556944976754 0.042331975784187389 0 -0.00061386131296192878 0.048608545800157943 0 -0.00030579216396075837 0.048353663200173952 0 1.677667005337699e-05 0.048568544674951232 0 -5.4708058740376169e-06 0.048081595845377856 0 -0.00030579216396075837 0.048353663200173952 0 0.00012766599489291399 0.0483095415296938 0 0.00032838741398889571 0.048435554757921009 0 0.00012766599489291399 0.0483095415296938 0 1.677667005337699e-05 0.048568544674951232 0 -0.00030579216396075837 0.048353663200173952 0 0.00012766599489291399 0.0483095415296938 0 1.677667005337699e-05 0.048568544674951232 0 -0.0004171228207626734 0.052116540951271516 0 0.00086151177685319844 0.048773934573575442 0 -0.00072309107828120382 0.04863789952784256 0 1.677667005337699e-05 0.048568544674951232 0 5.9014590839247544e-05 0.048785698027925622 0 0.00032838741398889571 0.048435554757921009 0 1.677667005337699e-05 0.048568544674951232 0 5.9014590839247544e-05 0.048785698027925622 0 -0.00029598044229470921 0.052011977580028589 0 -0.00014829480630097191 0.048296935028983405 0 0.00086151177685319844 0.048773934573575442 0 0.00013530107113946395 0.044796567982019309 0 0.00032838741398889571 0.048435554757921009 0 5.9014590839247544e-05 0.048785698027925622 0 0.00073680396556373212 0.048462554313333454 0 0.0011853330274133082 0.048770422254630248 0 0.0021432165839420699 0.049525858806122383 0 0.0027477638341996645 0.048046891414520718 0 0.0021432165839420699 0.049525858806122383 0 0.0017230458153221664 0.051085101967219999 0 0.0034365666932772766 0.050063568745446145 0 -0.00045115843743421971 0.049462683993687556 0 0.0011853330274133082 0.048770422254630248 0 0.00073584441092312922 0.050225968667883654 0 0.0021432165839420699 0.049525858806122383 0 0.00073584441092312922 0.050225968667883654 0 0.0017230458153221664 0.051085101967219999 0 0.0011853330274133082 0.048770422254630248 0 0.0021432165839420699 0.049525858806122383 0 0.00073584441092312922 0.050225968667883654 0 -8.4833100551626501e-07 0.052132104253984443 0 -5.59903784227462e-05 0.049060663273144546 0 8.5151801103139128e-07 0.049202474175791037 0 2.5412090493705049e-06 0.052138015009253878 0 0.00073584441092312922 0.050225968667883654 0 0.0017230458153221664 0.051085101967219999 0 2.5376112224607409e-07 0.05213186939187979 0 0.001239326175396092 0.050478117814441788 0 0.001239326175396092 0.050478117814441788 0 -0.00036373575360599305 0.045262392421696211 0 -5.59903784227462e-05 0.049060663273144546 0 8.5151801103139128e-07 0.049202474175791037 0 9.0469096211427799e-05 0.047781334672399263 0 -9.1787284496557001e-07 0.046275219329435659 0 -0.00036373575360599305 0.045262392421696211 0 8.5151801103139128e-07 0.049202474175791037 0 -8.4108952965563305e-07 0.046281181705079534 0 9.0469096211427799e-05 0.047781334672399263 0 -6.0004412165666826e-06 0.046270434558370689 0 -0.00019665130791333987 0.04284008209516825 0 1.7313206503997e-06 0.043164689761430106 0 -6.0004412165666826e-06 0.046270434558370689 0 -0.00019665130791333987 0.04284008209516825 0 -0.0025623982777926392 0.042148489091746656 0 -0.00077425449566890625 0.040756087220720515 0 -0.0021624103831030229 0.041437764252788722 0 -0.0014164844438380563 0.040072552148925265 0 -0.00019665130791333987 0.04284008209516825 0 -0.00077425449566890625 0.040756087220720515 0 -0.0025623982777926392 0.042148489091746656 0 -0.0010690095941578242 0.040781907616872309 0 -0.00036373575360599305 0.045262392421696211 0 1.7313206503997e-06 0.043164689761430106 0 0.00019226657084732716 0.040726184651017613 0 4.1890614902152098e-07 0.040053710736097314 0 -0.00019665130791333987 0.04284008209516825 0 1.7313206503997e-06 0.043164689761430106 0 0.00019226657084732716 0.040726184651017613 0 -0.00077425449566890625 0.040756087220720515 0 0.00019226657084732716 0.040726184651017613 0 -0.00059172677113474915 0.039389592278865154 0 -0.00019665130791333987 0.04284008209516825 0 -0.00077425449566890625 0.040756087220720515 0 0.00019226657084732716 0.040726184651017613 0 0.00019226657084732716 0.040726184651017613 0 0.00017998451737851742 0.038991531408240146 0 0.0003863451910519121 0.03830605925272812 0 0.00017998451737851742 0.038991531408240146 0 0.00036301763658099125 0.038069761805419551 0 0.0003863451910519121 0.03830605925272812 0 0.00017998451737851742 0.038991531408240146 0 -0.00059172677113474915 0.039389592278865154 0 -0.0001215396187932223 0.038427786350923199 0 0.00019226657084732716 0.040726184651017613 0 0.00017998451737851742 0.038991531408240146 0 -0.00059172677113474915 0.039389592278865154 0 -0.00059172677113474915 0.039389592278865154 0 -0.0001215396187932223 0.038427786350923199 0 -0.00095103914387494959 0.038221162326379093 0 -0.0001215396187932223 0.038427786350923199 0 -0.00095103914387494959 0.038221162326379093 0 3.5242444987925338e-05 0.037621574460680464 0 0.00017998451737851742 0.038991531408240146 0 -0.0001215396187932223 0.038427786350923199 0 0.00036301763658099125 0.038069761805419551 0 -0.0001215396187932223 0.038427786350923199 0 0.00036301763658099125 0.038069761805419551 0 3.5242444987925338e-05 0.037621574460680464 0 -0.0021624103831030229 0.041437764252788722 0 -0.0020009438618511502 0.039797723801860245 0 -0.0027615229115815344 0.039334516084807064 0 -0.00036373575360599305 0.045262392421696211 0 0.00013530107113946395 0.044796567982019309 0 0.0021432165839420699 0.049525858806122383 0 0.0034365666932772766 0.050063568745446145 0 0.0027477638341996645 0.048046891414520718 0 -0.0021624103831030229 0.041437764252788722 0 -0.0020009438618511502 0.039797723801860245 0 -0.0014164844438380563 0.040072552148925265 0 -0.0020009438618511502 0.039797723801860245 0 -0.0022037465087274507 0.039383000729873802 0 -0.0016182173292182704 0.039082011685211332 0 -0.0020009438618511502 0.039797723801860245 0 -0.0022037465087274507 0.039383000729873802 0 -0.0027615229115815344 0.039334516084807064 0 -0.0022037465087274507 0.039383000729873802 0 -0.0027615229115815344 0.039334516084807064 0 -0.0025546292555409687 0.03924413396405204 0 -0.00059172677113474915 0.039389592278865154 0 -0.0014164844438380563 0.040072552148925265 0 -0.0016182173292182704 0.039082011685211332 0 -0.00077425449566890625 0.040756087220720515 0 -0.00059172677113474915 0.039389592278865154 0 -0.0014164844438380563 0.040072552148925265 0 -0.0020009438618511502 0.039797723801860245 0 -0.0014164844438380563 0.040072552148925265 0 -0.0016182173292182704 0.039082011685211332 0 -0.00059172677113474915 0.039389592278865154 0 -0.0016182173292182704 0.039082011685211332 0 -0.00095103914387494959 0.038221162326379093 0 -0.0016182173292182704 0.039082011685211332 0 -0.00095103914387494959 0.038221162326379093 0 -0.00172006735740439 0.038375880003928824 0 -0.00095103914387494959 0.038221162326379093 0 -0.00172006735740439 0.038375880003928824 0 -0.0015140165198573789 0.037787856861354496 0 -0.00172006735740439 0.038375880003928824 0 -0.0023269291631101059 0.03856735683575685 0 -0.0022405688342018279 0.038096102280181732 0 -0.00172006735740439 0.038375880003928824 0 -0.0020722833381028377 0.038937342912621471 0 -0.0023269291631101059 0.03856735683575685 0 -0.0016182173292182704 0.039082011685211332 0 -0.00172006735740439 0.038375880003928824 0 -0.0020722833381028377 0.038937342912621471 0 -0.0022037465087274507 0.039383000729873802 0 -0.0016182173292182704 0.039082011685211332 0 -0.0020722833381028377 0.038937342912621471 0 -0.0029810922473249403 0.038525934318474279 0 -0.0027339829968349499 0.0393179936876379 0 -0.0024808105547942734 0.038995543514416094 0 -0.0027339829968349499 0.0393179936876379 0 -0.0025546292555409687 0.03924413396405204 0 -0.0024808105547942734 0.038995543514416094 0 0.00013530107113946395 0.044796567982019309 0 -0.00020423140464679467 0.044427000322789255 0 -0.0022037465087274507 0.039383000729873802 0 -0.0020722833381028377 0.038937342912621471 0 -0.0024808105547942734 0.038995543514416094 0 -0.0022037465087274507 0.039383000729873802 0 -0.0025546292555409687 0.03924413396405204 0 -0.0024808105547942734 0.038995543514416094 0 -0.0020722833381028377 0.038937342912621471 0 -0.0024808105547942734 0.038995543514416094 0 -0.0023269291631101059 0.03856735683575685 0 -0.0029810922473249403 0.038525934318474279 0 -0.0024808105547942734 0.038995543514416094 0 -0.0023269291631101059 0.03856735683575685 0 -0.0028424896320982241 0.03849690253227301 0 -0.0023269291631101059 0.03856735683575685 0 -0.0025722665128442026 0.038264645232169721 0 -0.00053404922968548524 0.042854878329461658 0 -0.0028209147028862612 0.040404137830246274 0 -0.0023269291631101059 0.03856735683575685 0 -0.0025722665128442026 0.038264645232169721 0 -0.0022405688342018279 0.038096102280181732 0 -0.0022405688342018279 0.038096102280181732 0 -0.0025059049893956316 0.037406400122973242 0 -0.0019717020128432448 0.037610335130792337 0 -0.0025722665128442026 0.038264645232169721 0 -0.0022405688342018279 0.038096102280181732 0 -0.0024974053603661487 0.037490341984508777 0 -0.0029201770506132887 0.038267488598608637 0 -0.0025722665128442026 0.038264645232169721 0 -0.0024974053603661487 0.037490341984508777 0 -0.0020963255479066107 0.037676678731494238 0 -0.0012034177880680284 0.03808320893257524 0 -0.0025059049893956316 0.037406400122973242 0 -0.0020672942778210907 0.037307072708761359 0 -0.0019717020128432448 0.037610335130792337 0 -0.0025059049893956316 0.037406400122973242 0 -0.0020672942778210907 0.037307072708761359 0 -0.0022495504347978569 0.036940760085624309 0 -0.0012034177880680284 0.03808320893257524 0 -0.00093940091082211506 0.035321574608137694 0 -0.0020672942778210907 0.037307072708761359 0 -0.0015458037811304844 0.037271453450798804 0 -0.0022495504347978569 0.036940760085624309 0 -0.0020672942778210907 0.037307072708761359 0 -0.0019717020128432448 0.037610335130792337 0 -0.0015458037811304844 0.037271453450798804 0 -0.00172006735740439 0.038375880003928824 0 -0.0022405688342018279 0.038096102280181732 0 -0.0018603508270061768 0.0379682731456688 0 -0.00172006735740439 0.038375880003928824 0 -0.0018603508270061768 0.0379682731456688 0 -0.0015140165198573789 0.037787856861354496 0 -0.0019717020128432448 0.037610335130792337 0 -0.0018603508270061768 0.0379682731456688 0 -0.0015140165198573789 0.037787856861354496 0 -0.0022405688342018279 0.038096102280181732 0 -0.0019717020128432448 0.037610335130792337 0 -0.0018603508270061768 0.0379682731456688 0 -0.00095103914387494959 0.038221162326379093 0 -0.0015140165198573789 0.037787856861354496 0 -0.0012381279705847039 0.037249060494801138 0 -0.0019717020128432448 0.037610335130792337 0 -0.0015140165198573789 0.037787856861354496 0 -0.0015458037811304844 0.037271453450798804 0 -0.0015140165198573789 0.037787856861354496 0 -0.0012381279705847039 0.037249060494801138 0 -0.0015458037811304844 0.037271453450798804 0 -0.0010118479764036619 0.034572935057487084 0 -0.0014379281155331896 0.035223915734249572 0 -0.00092837346017217773 0.03250725442637132 0 -0.0012277637552440459 0.032735782698174232 0 -0.00097648072948643562 0.032251891995639471 0 -0.00092809548188183964 0.032798067668827098 0 -0.00092837346017217773 0.03250725442637132 0 -0.0012277637552440459 0.032735782698174232 0 -0.00092809548188183964 0.032798067668827098 0 -0.00092837346017217773 0.03250725442637132 0 -0.0006715256600881306 0.03246077986918406 0 -0.0012204029560666271 0.037220064899086247 0 -0.0015458037811304844 0.037271453450798804 0 -0.0022495504347978569 0.036940760085624309 0 -0.0010118479764036619 0.034572935057487084 0 -0.00093940091082211506 0.035321574608137694 0 -0.0012034177880680284 0.03808320893257524 0 0.00039137504010025576 0.037411595439214462 0 -0.0006958179029464207 0.036861621105402621 0 -0.00066259555776330926 0.03679881626582452 0 -0.00072165667619851492 0.036785441746170579 0 -0.00093940091082211506 0.035321574608137694 0 0.00039137504010025576 0.037411595439214462 0 -0.0006541043935185826 0.034978500092802456 0 -0.00031300441971140102 0.035022315226086502 0 -0.0012309870502169814 0.032336336720009649 0 -0.0012576852406664804 0.032462127434288765 0 -0.0016876790033721826 0.032193165942696417 0 0.00036301763658099125 0.038069761805419551 0 3.5242444987925338e-05 0.037621574460680464 0 0.00054064965383341605 0.037558129030039786 0 -0.0012309870502169814 0.032336336720009649 0 -0.001219223309650976 0.032516791664252392 0 -0.0012576852406664804 0.032462127434288765 0 -0.00079179875143385895 0.032491688298076714 0 -0.0012309870502169814 0.032336336720009649 0 -0.001219223309650976 0.032516791664252392 0 -0.0010118479764036619 0.034572935057487084 0 -0.0006541043935185826 0.034978500092802456 0 -0.00095103914387494959 0.038221162326379093 0 -0.0012381279705847039 0.037249060494801138 0 3.5242444987925338e-05 0.037621574460680464 0 -0.0010118479764036619 0.034572935057487084 0 -0.0013591461031455909 0.031507283869425459 0 -0.00092809548188183964 0.032798067668827098 0 -0.00049751164300758258 0.03270684699081363 0 -0.0006715256600881306 0.03246077986918406 0 -0.0013591461031455909 0.031507283869425459 0 -0.0011608620895503894 0.030828953127041061 0 -0.0019477257569012797 0.028827158253134037 0 -0.001992056331438276 0.029247304918624723 0 -0.0015965140879744195 0.029296037787037588 0 -0.0012193960585180354 0.032513629649861077 0 -0.0012576852406664804 0.032462127434288765 0 -0.001611540705808422 0.032550914240483911 0 -0.0013591461031455909 0.031507283869425459 0 -0.0021345338097707345 0.030762598648899745 0 -0.0019477257569012797 0.028827158253134037 0 -0.002265645088525088 0.029103770261706633 0 -0.0026983079197373167 0.028927846787375762 0 -0.0013591461031455909 0.031507283869425459 0 -0.0012117362217726022 0.031805758944330131 0 -0.0019477257569012797 0.028827158253134037 0 -0.001992056331438276 0.029247304918624723 0 -0.002265645088525088 0.029103770261706633 0 -0.0024887430597267573 0.029210587216199548 0 -0.002265645088525088 0.029103770261706633 0 -0.0026983079197373167 0.028927846787375762 0 -0.002377132312393121 0.029761084651187378 0 -0.0022244347074685429 0.029448671176461553 0 -0.0025627364469832841 0.029453260338511984 0 -0.002377132312393121 0.029761084651187378 0 -0.0022244347074685429 0.029448671176461553 0 -0.0020906277791631137 0.029714758919908851 0 -0.0024887430597267573 0.029210587216199548 0 -0.002265645088525088 0.029103770261706633 0 -0.0022244347074685429 0.029448671176461553 0 -0.0024887430597267573 0.029210587216199548 0 -0.0022244347074685429 0.029448671176461553 0 -0.0025627364469832841 0.029453260338511984 0 -0.001992056331438276 0.029247304918624723 0 -0.0022244347074685429 0.029448671176461553 0 -0.0019363232326034725 0.02948525126298665 0 -0.001992056331438276 0.029247304918624723 0 -0.002265645088525088 0.029103770261706633 0 -0.0022244347074685429 0.029448671176461553 0 -0.0022244347074685429 0.029448671176461553 0 -0.0020906277791631137 0.029714758919908851 0 -0.0019363232326034725 0.02948525126298665 0 -0.0020906277791631137 0.029714758919908851 0 -0.0017791484078879269 0.029720697545790254 0 -0.0019363232326034725 0.02948525126298665 0 -0.001992056331438276 0.029247304918624723 0 -0.0019363232326034725 0.02948525126298665 0 -0.0015965140879744195 0.029296037787037588 0 -0.0017791484078879269 0.029720697545790254 0 -0.0019363232326034725 0.02948525126298665 0 -0.0015965140879744195 0.029296037787037588 0 -0.0011608620895503894 0.030828953127041061 0 8.6341748093629662e-06 0.029999435754065457 0 -0.0017791484078879269 0.029720697545790254 0 -0.