<?xml version="1.0"?>
<VTKFile type="UnstructuredGrid" version="0.1" byte_order="LittleEndian">
<UnstructuredGrid>
<Piece NumberOfPoints="31563" NumberOfCells="11022">
<Points>
<DataArray type="Float64" NumberOfComponents="3" format="ascii">
-0.5 -0.5 0 -0.47822736580891267 -0.48022456444076039 0 -0.45758491015522001 -0.5 0 -0.5 -0.5 0 -0.47822736580891267 -0.48022456444076039 0 -0.49999999999999628 -0.46250626149564289 0 -0.47822736580891267 -0.48022456444076039 0 -0.45879975023453379 -0.47626309280732732 0 -0.47368828386684608 -0.46142685760713942 0 -0.47822736580891267 -0.48022456444076039 0 -0.45758491015522001 -0.5 0 -0.45879975023453379 -0.47626309280732732 0 -0.45758491015522001 -0.5 0 -0.42630880626820628 -0.50000000000000211 0 -0.43712162360799428 -0.4793165882701006 0 -0.45879975023453379 -0.47626309280732732 0 -0.44737656773369588 -0.46034745371863572 0 -0.43712162360799428 -0.4793165882701006 0 -0.45758491015522001 -0.5 0 -0.45879975023453379 -0.47626309280732732 0 -0.43712162360799428 -0.4793165882701006 0 -0.45142084082532108 -0.43807903329903009 0 -0.44737656773369588 -0.46034745371863572 0 -0.43138515683356488 -0.44497540465045599 0 -0.45879975023453379 -0.47626309280732732 0 -0.44737656773369588 -0.46034745371863572 0 -0.47368828386684608 -0.46142685760713942 0 -0.44737656773369588 -0.46034745371863572 0 -0.47368828386684608 -0.46142685760713942 0 -0.45142084082532108 -0.43807903329903009 0 -0.44737656773369588 -0.46034745371863572 0 -0.47368828386684608 -0.46142685760713942 0 -0.45142084082532108 -0.43807903329903009 0 -0.4762508684980355 -0.43773768745774672 0 -0.47368828386684608 -0.46142685760713942 0 -0.47822736580891267 -0.48022456444076039 0 -0.47368828386684608 -0.46142685760713942 0 -0.49999999999999628 -0.46250626149564289 0 -0.4762508684980355 -0.43773768745774672 0 -0.47368828386684608 -0.46142685760713942 0 -0.49999999999999628 -0.46250626149564289 0 -0.47368828386684608 -0.46142685760713942 0 -0.49999999999999628 -0.46250626149564289 0 -0.4762508684980355 -0.43773768745774672 0 -0.49999999999999628 -0.46250626149564289 0 -0.5 -0.43580834164600329 0 -0.4762508684980355 -0.43773768745774672 0 -0.5 -0.43580834164600329 0 -0.47822433616129639 -0.40884468265760682 0 -0.5 -0.43580834164600329 0 -0.5 -0.40911042179636381 0 -0.47822433616129639 -0.40884468265760682 0 -0.4762508684980355 -0.43773768745774672 0 -0.47822433616129639 -0.40884468265760682 0 -0.4596261591632701 -0.42049015578145699 0 -0.47822433616129639 -0.40884468265760682 0 -0.5 -0.38241250194672433 0 -0.46731080183093748 -0.38580744264678518 0 -0.5 -0.38241250194672433 0 -0.46731080183093748 -0.38580744264678518 0 -0.48109085397268109 -0.36906354202190389 0 -0.5 -0.40911042179636381 0 -0.47822433616129639 -0.40884468265760682 0 -0.5 -0.38241250194672433 0 -0.46731080183093748 -0.38580744264678518 0 -0.4550816028819118 -0.40222705876550491 0 -0.43538319836384481 -0.3833156475349212 0 -0.46731080183093748 -0.38580744264678518 0 -0.43538319836384481 -0.3833156475349212 0 -0.45339315296555299 -0.36082032401297209 0 -0.47822433616129639 -0.40884468265760682 0 -0.46731080183093748 -0.38580744264678518 0 -0.4550816028819118 -0.40222705876550491 0 -0.4550816028819118 -0.40222705876550491 0 -0.4390426430578851 -0.41347643405059159 0 -0.43538319836384481 -0.3833156475349212 0 -0.45142084082532108 -0.43807903329903009 0 -0.4762508684980355 -0.43773768745774672 0 -0.4596261591632701 -0.42049015578145699 0 -0.47822433616129639 -0.40884468265760682 0 -0.4550816028819118 -0.40222705876550491 0 -0.4596261591632701 -0.42049015578145699 0 -0.4550816028819118 -0.40222705876550491 0 -0.4596261591632701 -0.42049015578145699 0 -0.4390426430578851 -0.41347643405059159 0 -0.45142084082532108 -0.43807903329903009 0 -0.4390426430578851 -0.41347643405059159 0 -0.43091051670463842 -0.42860480376860149 0 -0.45142084082532108 -0.43807903329903009 0 -0.4596261591632701 -0.42049015578145699 0 -0.4390426430578851 -0.41347643405059159 0 -0.45142084082532108 -0.43807903329903009 0 -0.43091051670463842 -0.42860480376860149 0 -0.43138515683356488 -0.44497540465045599 0 -0.43091051670463842 -0.42860480376860149 0 -0.4177145571436055 -0.4363758131957346 0 -0.43138515683356488 -0.44497540465045599 0 -0.43091051670463842 -0.42860480376860149 0 -0.4177145571436055 -0.4363758131957346 0 -0.42048621384064921 -0.42320275610014307 0 -0.43091051670463842 -0.42860480376860149 0 -0.42581442410951093 -0.41610620970184681 0 -0.42048621384064921 -0.42320275610014307 0 -0.4390426430578851 -0.41347643405059159 0 -0.43091051670463842 -0.42860480376860149 0 -0.42581442410951093 -0.41610620970184681 0 -0.4390426430578851 -0.41347643405059159 0 -0.42581442410951093 -0.41610620970184681 0 -0.41737324376213653 -0.40581097105687042 0 -0.4116075324729277 -0.42723788918686062 0 -0.42048621384064921 -0.42320275610014307 0 -0.41737324376213653 -0.40581097105687042 0 -0.4116075324729277 -0.42723788918686062 0 -0.41737324376213653 -0.40581097105687042 0 -0.39850441376621182 -0.42937907240003959 0 -0.42581442410951093 -0.41610620970184681 0 -0.42048621384064921 -0.42320275610014307 0 -0.41737324376213653 -0.40581097105687042 0 -0.41737324376213653 -0.40581097105687042 0 -0.39850441376621182 -0.42937907240003959 0 -0.4116075324729277 -0.42723788918686062 0 -0.41000967572527508 -0.43642715053795461 0 -0.4048596649805658 -0.43228939567721247 0 -0.4116075324729277 -0.42723788918686062 0 -0.41000967572527508 -0.43642715053795461 0 -0.4177145571436055 -0.4363758131957346 0 -0.41000967572527508 -0.43642715053795461 0 -0.4048596649805658 -0.43228939567721247 0 -0.40393882766588463 -0.43861085667027472 0 -0.4116075324729277 -0.42723788918686062 0 -0.4177145571436055 -0.4363758131957346 0 -0.42048621384064921 -0.42320275610014307 0 -0.43538319836384481 -0.3833156475349212 0 -0.41737324376213653 -0.40581097105687042 0 -0.41332477861093131 -0.39150411800705781 0 -0.4390426430578851 -0.41347643405059159 0 -0.43538319836384481 -0.3833156475349212 0 -0.41737324376213653 -0.40581097105687042 0 -0.43538319836384481 -0.3833156475349212 0 -0.41737324376213653 -0.40581097105687042 0 -0.41737324376213653 -0.40581097105687042 0 -0.41332477861093131 -0.39150411800705781 0 -0.39923690118064692 -0.40772399257565412 0 -0.43538319836384481 -0.3833156475349212 0 -0.41332477861093131 -0.39150411800705781 0 -0.41129011921190639 -0.3767753612571007 0 -0.41332477861093131 -0.39150411800705781 0 -0.41129011921190639 -0.3767753612571007 0 -0.39911051320087221 -0.38714169057249059 0 -0.41129011921190639 -0.3767753612571007 0 -0.39911051320087221 -0.38714169057249059 0 -0.39898412522109811 -0.36655938856932713 0 -0.39911051320087221 -0.38714169057249059 0 -0.38928478747437489 -0.38189980719041922 0 -0.39898412522109811 -0.36655938856932713 0 -0.39911051320087221 -0.38714169057249059 0 -0.39898412522109811 -0.36655938856932713 0 -0.39911051320087221 -0.38714169057249059 0 -0.39125251666609462 -0.3974630730511704 0 -0.38928478747437489 -0.38189980719041922 0 -0.41332477861093131 -0.39150411800705781 0 -0.39911051320087221 -0.38714169057249059 0 -0.39923690118064692 -0.40772399257565412 0 -0.39911051320087221 -0.38714169057249059 0 -0.39923690118064692 -0.40772399257565412 0 -0.39125251666609462 -0.3974630730511704 0 -0.39923690118064692 -0.40772399257565412 0 -0.38904493174692761 -0.41330964910577689 0 -0.39911051320087221 -0.38714169057249059 0 -0.39125251666609462 -0.3974630730511704 0 -0.39923690118064692 -0.40772399257565412 0 -0.39125251666609462 -0.3974630730511704 0 -0.37958544972765013 -0.39724022581151042 0 -0.38904493174692761 -0.41330964910577689 0 -0.37958544972765013 -0.39724022581151042 0 -0.38904493174692761 -0.41330964910577689 0 -0.39125251666609462 -0.3974630730511704 0 -0.37958544972765013 -0.39724022581151042 0 -0.38928478747437489 -0.38189980719041922 0 -0.37958544972765013 -0.39724022581151042 0 -0.3837792874118337 -0.37909548828116812 0 -0.38928478747437489 -0.38189980719041922 0 -0.37958544972765013 -0.39724022581151042 0 -0.3768902071616928 -0.37751363383267378 0 -0.3837792874118337 -0.37909548828116812 0 -0.37958544972765013 -0.39724022581151042 0 -0.38928478747437489 -0.38189980719041922 0 -0.3768902071616928 -0.37751363383267378 0 -0.3837792874118337 -0.37909548828116812 0 -0.38962475916417699 -0.37424326334177382 0 -0.3837792874118337 -0.37909548828116812 0 -0.38928478747437489 -0.38189980719041922 0 -0.38962475916417699 -0.37424326334177382 0 -0.39601540841334498 -0.43248796311625121 0 -0.39850441376621182 -0.42937907240003959 0 -0.38301114415345983 -0.42243880084503171 0 -0.39601540841334498 -0.43248796311625121 0 -0.39940505176100832 -0.435107340526729 0 -0.39471674362561132 -0.44212052845959188 0 -0.39601540841334498 -0.43248796311625121 0 -0.39940505176100832 -0.435107340526729 0 -0.39601540841334498 -0.43248796311625121 0 -0.39937899987832132 -0.43086478741215478 0 -0.39940505176100832 -0.435107340526729 0 -0.39601540841334498 -0.43248796311625121 0 -0.39850441376621182 -0.42937907240003959 0 -0.39601540841334498 -0.43248796311625121 0 -0.39937899987832132 -0.43086478741215478 0 -0.39850441376621182 -0.42937907240003959 0 -0.39937899987832132 -0.43086478741215478 0 -0.39940505176100832 -0.435107340526729 0 -0.39937899987832132 -0.43086478741215478 0 -0.39850441376621182 -0.42937907240003959 0 -0.39937899987832132 -0.43086478741215478 0 -0.4048596649805658 -0.43228939567721247 0 -0.39850441376621182 -0.42937907240003959 0 -0.39937899987832132 -0.43086478741215478 0 -0.40393882766588463 -0.43861085667027472 0 -0.39940505176100832 -0.435107340526729 0 -0.40393882766588463 -0.43861085667027472 0 -0.39937899987832132 -0.43086478741215478 0 -0.39940505176100832 -0.435107340526729 0 -0.40393882766588463 -0.43861085667027472 0 -0.39937899987832132 -0.43086478741215478 0 -0.4048596649805658 -0.43228939567721247 0 -0.40393882766588463 -0.43861085667027472 0 -0.4116075324729277 -0.42723788918686062 0 -0.4048596649805658 -0.43228939567721247 0 -0.39850441376621182 -0.42937907240003959 0 -0.3985044137662
[...]
<PointData Scalars="" Vectors="displacement," Tensors="">
<DataArray type="Float64" Name="displacement" NumberOfComponents="3" format="ascii">
0.0049998671486230295 -2.2621622907890985e-08 0 0.0048346620819731444 2.3432794750097698e-05 0 0.0045758807134179715 2.1870650978398553e-07 0 0.0049998671486230295 -2.2621622907890985e-08 0 0.0048346620819731444 2.3432794750097698e-05 0 0.0049996209414871718 5.2206693232395345e-08 0 0.0048346620819731444 2.3432794750097698e-05 0 0.0047152211525423393 2.2777625984465847e-05 0 0.0048162121227535984 2.8245305550109247e-05 0 0.0048346620819731444 2.3432794750097698e-05 0 0.0045758807134179715 2.1870650978398553e-07 0 0.0047152211525423393 2.2777625984465847e-05 0 0.0045758807134179715 2.1870650978398553e-07 0 0.0042636625511047058 -4.3479289423576263e-07 0 0.0045804738645553317 1.3860688629145606e-06 0 0.0047152211525423393 2.2777625984465847e-05 0 0.004719849896876442 2.4280492195729589e-05 0 0.0045804738645553317 1.3860688629145606e-06 0 0.0045758807134179715 2.1870650978398553e-07 0 0.0047152211525423393 2.2777625984465847e-05 0 0.0045804738645553317 1.3860688629145606e-06 0 0.0049899128605417923 1.8170495601149221e-05 0 0.0049890313427865991 1.7844660962843682e-05 0 0.0049829261094003633 1.817053245757498e-05 0 0.0047152211525423393 2.2777625984465847e-05 0 0.004719849896876442 2.4280492195729589e-05 0 0.0048162121227535984 2.8245305550109247e-05 0 0.0048517101224418583 2.3595793044431492e-05 0 0.0049105691209808313 2.7796466052122946e-05 0 0.0049899128605417923 1.8170495601149221e-05 0 0.0049890313427865991 1.7844660962843682e-05 0 0.0049980336000002151 1.1064807286599226e-05 0 0.0049899128605417923 1.8170495601149221e-05 0 0.0049960722887149155 1.0583727437195318e-05 0 0.0049980336000002151 1.1064807286599226e-05 0 0.0048346620819731444 2.3432794750097698e-05 0 0.0048162121227535984 2.8245305550109247e-05 0 0.0049996209414871718 5.2206693232395345e-08 0 0.0049960722887149155 1.0583727437195318e-05 0 0.0049980336000002151 1.1064807286599226e-05 0 0.005000008108041405 2.944591527831001e-09 0 0.0049105691209808313 2.7796466052122946e-05 0 0.0049999614449660378 3.5708833555547703e-08 0 0.0049960722887149155 1.0583727437195318e-05 0 0.005000008108041405 2.944591527831001e-09 0 0.0049999943095254979 7.4810010146466022e-09 0 0.0049960722887149155 1.0583727437195318e-05 0 0.0049999943095254979 7.4810010146466022e-09 0 0.0049972383325380641 1.2765056499147741e-05 0 0.0049999943095254979 7.4810010146466022e-09 0 0.0049999930945196199 4.9795301328187156e-09 0 0.0049972383325380641 1.2765056499147741e-05 0 0.0049960722887149155 1.0583727437195318e-05 0 0.0049972383325380641 1.2765056499147741e-05 0 0.0049930767110417402 1.8287414486635575e-05 0 0.0049972383325380641 1.2765056499147741e-05 0 0.0050000130726350353 1.9603636039253298e-08 0 0.0049943832269200277 2.5189654157941122e-05 0 0.0050000130726350353 1.9603636039253298e-08 0 0.0049943832269200277 2.5189654157941122e-05 0 0.0049891080630291513 1.335035830461378e-05 0 0.0049999930945196199 4.9795301328187156e-09 0 0.0049972383325380641 1.2765056499147741e-05 0 0.0050000130726350353 1.9603636039253298e-08 0 0.0049943832269200277 2.5189654157941122e-05 0 0.0049924330370925262 2.3350157144022243e-05 0 0.0049886152906986206 3.2782568682746522e-05 0 0.0049943832269200277 2.5189654157941122e-05 0 0.0049886152906986206 3.2782568682746522e-05 0 0.0049783164504370895 5.8408174069101459e-05 0 0.0049972383325380641 1.2765056499147741e-05 0 0.0049943832269200277 2.5189654157941122e-05 0 0.0049924330370925262 2.3350157144022243e-05 0 0.0049924330370925262 2.3350157144022243e-05 0 0.0049895819351248299 2.2734964001322821e-05 0 0.0049886152906986206 3.2782568682746522e-05 0 0.0049899128605417923 1.8170495601149221e-05 0 0.0049960722887149155 1.0583727437195318e-05 0 0.0049930767110417402 1.8287414486635575e-05 0 0.0049972383325380641 1.2765056499147741e-05 0 0.0049924330370925262 2.3350157144022243e-05 0 0.0049930767110417402 1.8287414486635575e-05 0 0.0049924330370925262 2.3350157144022243e-05 0 0.0049930767110417402 1.8287414486635575e-05 0 0.0049895819351248299 2.2734964001322821e-05 0 0.0049899128605417923 1.8170495601149221e-05 0 0.0049895819351248299 2.2734964001322821e-05 0 0.0049855356873495585 1.974778319484134e-05 0 0.0049899128605417923 1.8170495601149221e-05 0 0.0049930767110417402 1.8287414486635575e-05 0 0.0049895819351248299 2.2734964001322821e-05 0 0.0049899128605417923 1.8170495601149221e-05 0 0.0049855356873495585 1.974778319484134e-05 0 0.0049829261094003633 1.817053245757498e-05 0 0.0049855356873495585 1.974778319484134e-05 0 0.0049801231140152126 1.6830007379558488e-05 0 0.0049829261094003633 1.817053245757498e-05 0 0.0049855356873495585 1.974778319484134e-05 0 0.0049801231140152126 1.6830007379558488e-05 0 0.004984663223837095 1.8247706267674437e-05 0 0.0049855356873495585 1.974778319484134e-05 0 0.0049871372401883727 2.0144425990427089e-05 0 0.004984663223837095 1.8247706267674437e-05 0 0.0049895819351248299 2.2734964001322821e-05 0 0.0049855356873495585 1.974778319484134e-05 0 0.0049871372401883727 2.0144425990427089e-05 0 0.0049895819351248299 2.2734964001322821e-05 0 0.0049871372401883727 2.0144425990427089e-05 0 0.0049882417220470134 1.9783033369573418e-05 0 0.0049821201161588721 1.5143020644178396e-05 0 0.004984663223837095 1.8247706267674437e-05 0 0.0049882417220470134 1.9783033369573418e-05 0 0.0049821201161588721 1.5143020644178396e-05 0 0.0049882417220470134 1.9783033369573418e-05 0 0.0049799830153766681 9.6059765552102647e-06 0 0.0049871372401883727 2.0144425990427089e-05 0 0.004984663223837095 1.8247706267674437e-05 0 0.0049882417220470134 1.9783033369573418e-05 0 0.0048194445026531387 4.4026910038597602e-05 0 0.004583412343900182 6.589238282973044e-05 0 0.0049821201161588721 1.5143020644178396e-05 0 0.0049783211447587917 1.4063315265868615e-05 0 0.0049794332113433752 1.2053573996406969e-05 0 0.0049821201161588721 1.5143020644178396e-05 0 0.0049783211447587917 1.4063315265868615e-05 0 0.0049801231140152126 1.6830007379558488e-05 0 0.0049783211447587917 1.4063315265868615e-05 0 0.0049794332113433752 1.2053573996406969e-05 0 0.0049766019748005118 1.1098389868878107e-05 0 0.0049821201161588721 1.5143020644178396e-05 0 0.0049801231140152126 1.6830007379558488e-05 0 0.004984663223837095 1.8247706267674437e-05 0 0.004402577901988179 -8.1086195606086751e-05 0 0.0045479167821245422 4.0493758977464929e-05 0 0.0044545371266662736 6.6219352986076469e-05 0 0.0049895819351248299 2.2734964001322821e-05 0 0.0049886152906986206 3.2782568682746522e-05 0 0.0049882417220470134 1.9783033369573418e-05 0 0.0046843218768332475 -2.9321906640460793e-05 0 0.0048194445026531387 4.4026910038597602e-05 0 0.0045479167821245422 4.0493758977464929e-05 0 0.0044545371266662736 6.6219352986076469e-05 0 0.0045582101158938007 0.00015502685341067958 0 0.004402577901988179 -8.1086195606086751e-05 0 0.0044545371266662736 6.6219352986076469e-05 0 0.0043566298796894869 8.0055254150962691e-05 0 0.0044545371266662736 6.6219352986076469e-05 0 0.0043566298796894869 8.0055254150962691e-05 0 0.0044248798041044328 0.00015902668836994396 0 0.0043566298796894869 8.0055254150962691e-05 0 0.0044248798041044328 0.00015902668836994396 0 0.0042873030966460593 0.00016276889757135639 0 0.0041230132487156453 2.5065712284179722e-05 0 0.0040919552997864686 8.243699534468289e-05 0 0.0040048185850206138 2.7069063205614141e-05 0 0.0042919857560879474 9.4247397201336716e-05 0 0.004062886902760552 4.7826352377998125e-05 0 0.0041230132487156453 2.5065712284179722e-05 0 0.0041845224823236467 7.1271179802828973e-05 0 0.0040919552997864686 8.243699534468289e-05 0 0.0044545371266662736 6.6219352986076469e-05 0 0.0044248798041044328 0.00015902668836994396 0 0.0045582101158938007 0.00015502685341067958 0 0.0042919857560879474 9.4247397201336716e-05 0 0.0043905528712063577 9.0995656044394325e-05 0 0.0041845224823236467 7.1271179802828973e-05 0 0.0042481685591751091 2.1583717080027122e-05 0 0.0042831911070762129 8.5829134742786814e-05 0 0.0041230132487156453 2.5065712284179722e-05 0 0.0041845224823236467 7.1271179802828973e-05 0 0.0042481685591751091 2.1583717080027122e-05 0 0.0041845224823236467 7.1271179802828973e-05 0 0.0041817748298131324 0.00014164138778516853 0 0.0042831911070762129 8.5829134742786814e-05 0 0.0037903186624379448 1.7515735774704551e-05 0 0.0041259654644968825 2.9030367881011974e-05 0 0.0041845224823236467 7.1271179802828973e-05 0 0.0041817748298131324 0.00014164138778516853 0 0.0040919552997864686 8.243699534468289e-05 0 0.0038807073612289675 -2.5798632372744165e-05 0 0.0038941093774787381 -2.3152424388769079e-05 0 0.0038924465925824808 -1.8973365629434613e-05 0 0.0038807073612289675 -2.5798632372744165e-05 0 0.0038944148142635638 -2.782602165609633e-05 0 0.0038941093774787381 -2.3152424388769079e-05 0 0.0037903186624379448 1.7515735774704551e-05 0 0.0040093352486545268 4.1123246468539892e-05 0 0.0038944148142635638 -2.782602165609633e-05 0 0.0038941093774787381 -2.3152424388769079e-05 0 0.0038988002407379166 -1.9483030490237704e-05 0 0.0038941093774787381 -2.3152424388769079e-05 0 0.0038924465925824808 -1.8973365629434613e-05 0 0.0038988002407379166 -1.9483030490237704e-05 0 0.0042451576805607755 -0.0001262598085906521 0 0.0042042074174138836 -0.00015907823450461993 0 0.0041095473178584833 4.3461106741145019e-05 0 0.0049563703344017032 1.512216904247632e-05 0 0.0049585005532003217 1.3141506638732137e-05 0 0.0049629747433603596 1.5254344682822486e-05 0 0.0044406050038762459 1.6978505362699126e-05 0 0.0047500327414361507 -2.0403042122877697e-05 0 0.0045840025168531395 3.9126798160317371e-05 0 0.0045856975023439734 4.2299788286852625e-05 0 0.0045819573976062537 4.2026267041373464e-05 0 0.0044406050038762459 1.6978505362699126e-05 0 0.004583412343900182 6.589238282973044e-05 0 0.0045840025168531395 3.9126798160317371e-05 0 0.0045856975023439734 4.2299788286852625e-05 0 0.0045870268823455726 4.158352171779429e-05 0 0.0046911479668840786 1.5160778748070721e-05 0 0.0047500327414361507 -2.0403042122877697e-05 0 0.0046911479668840786 1.5160778748070721e-05 0 0.004583412343900182 6.589238282973044e-05 0 0.0049794509213319238 9.9061755636933571e-06 0 0.0049794332113433752 1.2053573996406969e-05 0 0.0049799830153766681 9.6059765552102647e-06 0 0.0046911479668840786 1.5160778748070721e-05 0 0.0048692451055062152 -3.8320163185099493e-05 0 0.0047500327414361507 -2.0403042122877697e-05 0 0.0048692451055062152 -3.8320163185099493e-05 0 0.0047241015159116386 1.5595912396008239e-05 0 0.0047801458171893635 1.5218690929819332e-05 0 0.0048265423811591204 -4.4544230045418491e-05 0 0.0049794509213319238 9.9061755636933571e-06 0 0.0049794332113433752 1.2053573996406969e-05 0 0.0049766019748005118 1.1098389868878107e-05 0 0.0049821201161588721 1.5143020644178396e-05 0 0.0049794332113433752 1.2053573996406969e-05 0 0.0049799830153766681 9.6059765552102647e-06 0 0.0043895337289343939 2.5086577727789257e-05 0 0.0042481685591751091 2.1583717080027122e-05 0 0.0042831911070762129 8.5829134742786814e-05 0 0.0045479167821245422 4.0493758977464929e-05 0 0.0046922176084417773 0.00015842144921332364 0 0.0045582101158938007 0.00015502685341067958 0 0.004583412343900182 6.589238282973044e-05 0 0.0041259654644968825 2.9030367881011974e-05 0 0.004583412343900182 6.589238282973044e-05 0 0.0043905528712063577 9.0995656044394325e-05 0 0.0037791515400768111 8.6822913974240844e-05 0 0.0039899686700034945 -3.5671934819174284e-05 0 0.0039758462454554883 0.00021178783702244624 0 0.0039899686700034945 -3.5671934819174284e-05 0 0.0041095473178584833 4.3461106741145019e-05 0 0.0039758462454554883 0.00021178783702244624 0 0.0042042074174138836 -0.00015907823450461993 0 0.0039899686700034945 -3.5671934819174284e-05 0 0.0041095473178584833 4.3461106741145019e-05 0 0.0039441743978192081 3.4882187396579593e-05 0 0.0036225117305262815 8.4558804788378303e-06 0 0.0037960651480177811 -3.0634220430808071e-06 0 0.003905862691353255 -2.9644506714520908e-05 0 0.003904379354228832 7.7977566763221142e-05 0 0.0039065610278128287 -0.00014102872338965779 0 0.0037960651480177811 -3.0634220430808071e-06 0 0.003905862691353255 -2.9644506714520908e-05 0 0.0044406050038762459 1.6978505362699126e-05 0 0.0039441743978192081 3.4882187396579593e-05 0 0.0039065610278128287 -0.00014102872338965779 0 0.003905862691353255 -2.9644506714520908e-05 0 0.0040466094271827307 -2.8008454115970932e-05 0 0.003905862691353255 -2.9644506714520908e-05 0 0.003904379354228832 7.7977566763221142e-05 0 0.0040466094271827307 -2.8008454115970932e-05 0 0.0032218451891799908 -4.5239725477217639e-05 0 0.0032157084628424717 -4.9142140295804947e-05 0 0.0032164868681223407 -5.224343019264871e-05 0 0.0032241001793591128 -4.8098642571921371e-05 0 0.0032218451891799908 -4.5239725477217639e-05 0 0.0032164868681223407 -5.224343019264871e-05 0 0.003523651320039818 4.8423691014006676e-05 0 0.0040679248180691425 -3.6453519076197625e-05 0 0.0040679248180691425 -3.6453519076197625e-05 0 0.0035511903206668855 -6.1804776911548149e-05 0 0.0040679248180691425 -3.6453519076197625e-05 0 0.0043984744834890399 -0.00010843945752058538 0 0.0049629747433603596 1.5254344682822486e-05 0 0.0049671507356930048 1.4087666627645589e-05 0 0.0049652741897796395 1.3505585362379715e-05 0 0.0049563703344017032 1.512216904247632e-05 0 0.0049621763830327284 1.8601930698569536e-05 0 0.0049629747433603596 1.5254344682822486e-05 0 0.0044406050038762459 1.6978505362699126e-05 0 0.0040679248180691425 -3.6453519076197625e-05 0 0.0049585005532003217 1.3141506638732137e-05 0 0.0049629747433603596 1.5254344682822486e-05 0 0.0049652741897796395 1.3505585362379715e-05 0 0.0049621763830327284 1.8601930698569536e-05 0 0.0049629747433603596 1.5254344682822486e-05 0 0.0049671507356930048 1.4087666627645589e-05 0 0.0049621763830327284 1.8601930698569536e-05 0 0.0049671507356930048 1.4087666627645589e-05 0 0.0049665070573253773 1.409591931632387e-05 0 0.0049671507356930048 1.4087666627645589e-05 0 0.0049697458589105349 1.3687843813629746e-05 0 0.0049652741897796395 1.3505585362379715e-05 0 0.0049697458589105349 1.3687843813629746e-05 0 0.0049668343657243638 1.3669316038917888e-05 0 0.0049652741897796395 1.3505585362379715e-05 0 0.0049697458589105349 1.3687843813629746e-05 0 0.0049668343657243638 1.3669316038917888e-05 0 0.0049733035095958491 1.4134094366796184e-05 0 0.0047500327414361507 -2.0403042122877697e-05 0 0.0049282448414542934 -8.9933847009176096e-06 0 0.0049663078424923776 1.310374542957152e-05 0 0.0049668343657243638 1.3669316038917888e-05 0 0.0049652741897796395 1.3505585362379715e-05 0 0.0049671507356930048 1.4087666627645589e-05 0 0.0049665070573253773 1.409591931632387e-05 0 0.0049765953343848162 1.5708779825743418e-05 0 0.0043984744834890399 -0.00010843945752058538 0 0.0042260919905191506 -0.00011231261939724521 0 0.0043984744834890399 -0.00010843945752058538 0 0.0035511903206668855 -6.1804776911548149e-05 0 0.0039943597529959463 -7.5188693951503519e-05 0 0.0040098644446001893 -8.6088729145551439e-05 0 0.0040056954083841564 -6.4794921689746325e-05 0 0.0038499907123263127 1.3950485621364698e-05 0 0.0038507196866757868 1.4257297261604769e-05 0 0.003847306157362096 2.8191250930079095e-05 0 0.003847306157362096 2.8191250930079095e-05 0 0.0039819765119433808 9.7934754382757186e-08 0 0.0037007627540081179 8.99021455020514e-08 0 0.003847306157362096 2.8191250930079095e-05 0 0.0039819765119433808 9.7934754382757186e-08 0 0.0039333739776123092 -1.8881126355572853e-05 0 0.0038499907123263127 1.3950485621364698e-05 0 0.003847306157362096 2.8191250930079095e-05 0 0.0039333739776123092 -1.8881126355572853e-05 0 0.0039819765119433808 9.7934754382757186e-08 0 0.0039333739776123092 -1.8881126355572853e-05 0 0.0042626826041121686 -1.9507093449684524e-07 0 0.0042260919905191506 -0.00011231261939724521 0 0.004263055786182357 -2.484731948211509e-08 0 0.004555131503062671 -0.00022246048190019334 0 0.0042636625511047058 -4.3479289423576263e-07 0 0.0045804738645553317 1.3860688629145606e-06 0 0.004555131503062671 -0.00022246048190019334 0 0.0045804738645553317 1.3860688629145606e-06 0 0.0047212361880374643 -0.0001305874162046085 0 0.0048517101224418583 2.3595793044431492e-05 0 0.0049017467895532832 -7.2889923862933176e-05 0 0.0049890313427865991 1.7844660962843682e-05 0 0.0049829261094003633 1.817053245757498e-05 0 0.0049765953343848162 1.5708779825743418e-05 0 0.004719849896876442 2.4280492195729589e-05 0 0.0045804738645553317 1.3860688629145606e-06 0 0.0047212361880374643 -0.0001305874162046085 0 0.0049801231140152126 1.6830007379558488e-05 0 0.0049829261094003633 1.817053245757498e-05 0 0.0049779580266633835 1.629955201934414e-05 0 0.0049829261094003633 1.817053245757498e-05 0 0.0049779580266633835 1.629955201934414e-05 0 0.0049765953343848162 1.5708779825743418e-05 0 0.0049671507356930048 1.4087666627645589e-05 0 0.0049697458589105349 1.3687843813629746e-05 0 0.0049765953343848162 1.5708779825743418e-05 0 0.0049779580266633835 1.629955201934414e-05 0 0.0049733035095958491 1.4134094366796184e-05 0 0.0049765953343848162 1.5708779825743418e-05 0 0.0049697458589105349 1.3687843813629746e-05 0 0.0049733035095958491 1.4134094366796184e-05 0 0.0049765953343848162 1.5708779825743418e-05 0 0.0049801231140152126 1.6830007379558488e-05 0 0.0049779580266633835 1.629955201934414e-05 0 0.0049733035095958491 1.4134094366796184e-05 0 0.0049783211447587917 1.4063315265868615e-05 0 0.0049801231140152126 1.6830007379558488e-05 0 0.0049733035095958491 1.4134094366796184e-05 0 0.0049783211447587917 1.4063315265868615e-05 0 0.0049766019748005118 1.1098389868878107e-05 0 0.0049733035095958491 1.4134094366796184e-05 0 0.0048692451055062152 -3.8320163185099493e-05 0 0.0049178486392143592 -2.4956704905328088e-05 0 0.0047239997745460519 -0.00034473198077197858 0 0.004555131503062671 -0.00022246048190019334 0 0.0047212361880374643 -0.0001305874162046085 0 0.0043984744834890399 -0.00010843945752058538 0 0.0049017467895532832 -7.2889923862933176e-05 0 0.0040765556004909911 0.00038442103074155164 0 0.004028667721589778 0.00045253314505044705 0 0.0046884062231821611 0.0001770240553562145 0 0.0049472820818472832 0.00015559905300806406 0 0.0050022193757526465 6.3673483706740594e-05 0 0.0049637614564797192 7.8028724607801583e-05 0 0.0049472820818472832 0.00015559905300806406 0 0.0049637614564797192 7.8028724607801583e-05 0 0.004930337866974519 8.5253701069641093e-05 0 0.0049472820818472832 0.00015559905300806406 0 0.004930337866974519 8.5253701069641093e-05 0 0.0048449876225681371 0.00010043932706146343 0 0.0040765556004909911 0.00038442103074155164 0 0.004044840139228574 0.00041147910869683655 0 0.0039491143057739982 0.00026907006390492356 0 0.0043324419150905357 0.00029980554230145802 0 0.0043946450529958742 0.00023754497464125571 0 0.0043946450529958742 0.00023754497464125571 0 0.0040880800226402482 -1.4286091240141556e-05 0 0.004044840139228574 0.00041147910869683655 0 0.0037589583111436176 0.00030731328921166935 0 0.0036867383344545879 0.00050325534258308211 0 0.004044840139228574 0.00041147910869683655 0 0.0037589583111436176 0.00030731328921166935 0 0.0039491143057739982 0.00026907006390492356 0 0.0043698823233460837 0.00010471207001592303 0 0.0044552812713385707 7.0119140308631993e-05 0 0.0044260200041272117 2.7069177652513568e-05 0 0.0043946450529958742 0.00023754497464125571 0 0.0047306375420241159 -6.8805819326587386e-05 0 0.0045435077170145003 -0.0003474846227603986 0 0.0045828240240195798 -0.00030006680899469397 0 0.0044985895623647068 -0.00028417414810496275 0 0.0049895371417378875 5.3685301280112896e-05 0 0.004985002458555033 4.6728840247961552e-05 0 0.0050061798788006134 1.9250640386275075e-05 0 0.0050022193757526465 6.3673483706740594e-05 0 0.004985002458555033 4.6728840247961552e-05 0 0.0049637614564797192 7.8028724607801583e-05 0 0.0040880800226402482 -1.4286091240141556e-05 0 0.0047306375420241159 -6.8805819326587386e-05 0 0.0047306375420241159 -6.8805819326587386e-05 0 0.0048674742637681038 5.4361065052736686e-05 0 0.004985002458555033 4