<?xml version="1.0"?>
<VTKFile type="UnstructuredGrid" version="0.1" byte_order="LittleEndian">
<UnstructuredGrid>
<Piece NumberOfPoints="30881" NumberOfCells="10862">
<Points>
<DataArray type="Float64" NumberOfComponents="3" format="ascii">
-0.49999999999999828 -0.48677703703187492 0 -0.5 -0.5 0 -0.48129281494584059 -0.49338851851593718 0 -0.5 -0.5 0 -0.48129281494584059 -0.49338851851593718 0 -0.46258562989168328 -0.5 0 -0.49999999999999828 -0.48677703703187492 0 -0.48129281494584059 -0.49338851851593718 0 -0.49999999999999828 -0.48677703703187492 0 -0.4824545428279598 -0.47451624516148783 0 -0.48129281494584059 -0.49338851851593718 0 -0.49999999999999828 -0.48677703703187492 0 -0.4824545428279598 -0.47451624516148783 0 -0.5 -0.46599539173150673 0 -0.4824545428279598 -0.47451624516148783 0 -0.46853075243710779 -0.48354990242643758 0 -0.46411508256092049 -0.46598235294430129 0 -0.4824545428279598 -0.47451624516148783 0 -0.48129281494584059 -0.49338851851593718 0 -0.46853075243710779 -0.48354990242643758 0 -0.48129281494584059 -0.49338851851593718 0 -0.46258562989168328 -0.5 0 -0.48129281494584059 -0.49338851851593718 0 -0.46258562989168328 -0.5 0 -0.46853075243710779 -0.48354990242643758 0 -0.46258562989168328 -0.5 0 -0.46853075243710779 -0.48354990242643758 0 -0.45147378687733691 -0.48362213557840178 0 -0.46853075243710779 -0.48354990242643758 0 -0.45147378687733691 -0.48362213557840178 0 -0.46411508256092049 -0.46598235294430129 0 -0.4457251648104853 -0.47020164095208389 0 -0.45147378687733691 -0.48362213557840178 0 -0.46411508256092049 -0.46598235294430129 0 -0.4457251648104853 -0.47020164095208389 0 -0.45147378687733691 -0.48362213557840178 0 -0.43513446131126993 -0.48199891714758791 0 -0.45147378687733691 -0.48362213557840178 0 -0.43275163025255442 -0.5 0 -0.43513446131126993 -0.48199891714758791 0 -0.46258562989168328 -0.5 0 -0.45147378687733691 -0.48362213557840178 0 -0.43275163025255442 -0.5 0 -0.4467190029717853 -0.45478934699519452 0 -0.4422915115958943 -0.43555510214664611 0 -0.43246707723660932 -0.44794326854796312 0 -0.4457251648104853 -0.47020164095208389 0 -0.4467190029717853 -0.45478934699519452 0 -0.46411508256092049 -0.46598235294430129 0 -0.4457251648104853 -0.47020164095208389 0 -0.4467190029717853 -0.45478934699519452 0 -0.43016578207734568 -0.46313500011938619 0 -0.4467190029717853 -0.45478934699519452 0 -0.46411508256092049 -0.46598235294430129 0 -0.47114575579794699 -0.4403844242888923 0 -0.4467190029717853 -0.45478934699519452 0 -0.47114575579794699 -0.4403844242888923 0 -0.4422915115958943 -0.43555510214664611 0 -0.47114575579794699 -0.4403844242888923 0 -0.4422915115958943 -0.43555510214664611 0 -0.46411508256092049 -0.46598235294430129 0 -0.47114575579794699 -0.4403844242888923 0 -0.48354307623736548 -0.45841843211146538 0 -0.4824545428279598 -0.47451624516148783 0 -0.46411508256092049 -0.46598235294430129 0 -0.48354307623736548 -0.45841843211146538 0 -0.4824545428279598 -0.47451624516148783 0 -0.48354307623736548 -0.45841843211146538 0 -0.5 -0.46599539173150673 0 -0.48354307623736548 -0.45841843211146538 0 -0.5 -0.46599539173150673 0 -0.49999999999999972 -0.44521374643113848 0 -0.47114575579794699 -0.4403844242888923 0 -0.49999999999999972 -0.44521374643113848 0 -0.47114575579794699 -0.4403844242888923 0 -0.49999999999999972 -0.44521374643113848 0 -0.48704432221743971 -0.42935617662229603 0 -0.47114575579794699 -0.4403844242888923 0 -0.48354307623736548 -0.45841843211146538 0 -0.49999999999999972 -0.44521374643113848 0 -0.49999999999999972 -0.44521374643113848 0 -0.48704432221743971 -0.42935617662229603 0 -0.5 -0.41591957503128979 0 -0.48704432221743971 -0.42935617662229603 0 -0.5 -0.41591957503128979 0 -0.47703153307181151 -0.41590696073786332 0 -0.5 -0.41591957503128979 0 -0.47703153307181151 -0.41590696073786332 0 -0.48817838912021821 -0.4022119694541284 0 -0.47114575579794699 -0.4403844242888923 0 -0.48704432221743971 -0.42935617662229603 0 -0.47703153307181151 -0.41590696073786332 0 -0.5 -0.38662540363144121 0 -0.47568202340906118 -0.39039593841591919 0 -0.4947615751445838 -0.37332156409002909 0 -0.47568202340906118 -0.39039593841591919 0 -0.4947615751445838 -0.37332156409002909 0 -0.5 -0.38662540363144121 0 -0.48817838912021821 -0.4022119694541284 0 -0.47568202340906118 -0.39039593841591919 0 -0.5 -0.41591957503128979 0 -0.5 -0.38662540363144121 0 -0.48817838912021821 -0.4022119694541284 0 -0.47703153307181151 -0.41590696073786332 0 -0.48817838912021821 -0.4022119694541284 0 -0.47568202340906118 -0.39039593841591919 0 -0.47703153307181151 -0.41590696073786332 0 -0.47568202340906118 -0.39039593841591919 0 -0.45660247167353862 -0.40747031274180939 0 -0.47568202340906118 -0.39039593841591919 0 -0.48030931097003587 -0.37191064435083931 0 -0.46669490250066459 -0.37481721741951951 0 -0.47568202340906118 -0.39039593841591919 0 -0.4947615751445838 -0.37332156409002909 0 -0.48030931097003587 -0.37191064435083931 0 -0.45332061783919553 -0.38729481725706361 0 -0.46669490250066459 -0.37481721741951951 0 -0.45095991715087752 -0.36968037302039969 0 -0.47568202340906118 -0.39039593841591919 0 -0.45332061783919553 -0.38729481725706361 0 -0.46669490250066459 -0.37481721741951951 0 -0.47568202340906118 -0.39039593841591919 0 -0.45660247167353862 -0.40747031274180939 0 -0.47568202340906118 -0.39039593841591919 0 -0.45332061783919553 -0.38729481725706361 0 -0.45660247167353862 -0.40747031274180939 0 -0.44332653075004852 -0.401690115615219 0 -0.44646247228389868 -0.41654464256061052 0 -0.42870657106664078 -0.39987574649354879 0 -0.45332061783919553 -0.38729481725706361 0 -0.44332653075004852 -0.401690115615219 0 -0.43479631603355468 -0.39077639303142497 0 -0.45332061783919553 -0.38729481725706361 0 -0.44332653075004852 -0.401690115615219 0 -0.45660247167353862 -0.40747031274180939 0 -0.45332061783919553 -0.38729481725706361 0 -0.43421362475025049 -0.37527491429266319 0 -0.43479631603355468 -0.39077639303142497 0 -0.45332061783919553 -0.38729481725706361 0 -0.43421362475025049 -0.37527491429266319 0 -0.45095991715087752 -0.36968037302039969 0 -0.47114575579794699 -0.4403844242888923 0 -0.45663439814062529 -0.42533932462455271 0 -0.4422915115958943 -0.43555510214664611 0 -0.47114575579794699 -0.4403844242888923 0 -0.47703153307181151 -0.41590696073786332 0 -0.45663439814062529 -0.42533932462455271 0 -0.45663439814062529 -0.42533932462455271 0 -0.45660247167353862 -0.40747031274180939 0 -0.44646247228389868 -0.41654464256061052 0 -0.47703153307181151 -0.41590696073786332 0 -0.45663439814062529 -0.42533932462455271 0 -0.45660247167353862 -0.40747031274180939 0 -0.44332653075004852 -0.401690115615219 0 -0.45660247167353862 -0.40747031274180939 0 -0.44646247228389868 -0.41654464256061052 0 -0.45660247167353862 -0.40747031274180939 0 -0.44646247228389868 -0.41654464256061052 0 -0.44646247228389868 -0.41654464256061052 0 -0.4375229199380159 -0.42454468706769971 0 -0.45663439814062529 -0.42533932462455271 0 -0.4375229199380159 -0.42454468706769971 0 -0.4422915115958943 -0.43555510214664611 0 -0.45663439814062529 -0.42533932462455271 0 -0.44646247228389868 -0.41654464256061052 0 -0.4375229199380159 -0.42454468706769971 0 -0.4375229199380159 -0.42454468706769971 0 -0.4422915115958943 -0.43555510214664611 0 -0.43077617074680319 -0.43406335077952207 0 -0.43077617074680319 -0.43406335077952207 0 -0.42550232634077589 -0.42345940056268039 0 -0.41950844772475421 -0.43888456563633732 0 -0.4375229199380159 -0.42454468706769971 0 -0.43077617074680319 -0.43406335077952207 0 -0.42550232634077589 -0.42345940056268039 0 -0.44646247228389868 -0.41654464256061052 0 -0.41657232816672918 -0.41306671883907142 0 -0.42870657106664078 -0.39987574649354879 0 -0.44646247228389868 -0.41654464256061052 0 -0.4375229199380159 -0.42454468706769971 0 -0.42550232634077589 -0.42345940056268039 0 -0.44646247228389868 -0.41654464256061052 0 -0.42550232634077589 -0.42345940056268039 0 -0.41657232816672918 -0.41306671883907142 0 -0.44646247228389868 -0.41654464256061052 0 -0.41657232816672918 -0.41306671883907142 0 -0.42550232634077589 -0.42345940056268039 0 -0.41657232816672918 -0.41306671883907142 0 -0.41333489101611293 -0.42699700567040988 0 -0.41657232816672918 -0.41306671883907142 0 -0.41333489101611293 -0.42699700567040988 0 -0.39893236021425188 -0.42931692235905211 0 -0.41333489101611293 -0.42699700567040988 0 -0.39893236021425188 -0.42931692235905211 0 -0.41950844772475421 -0.43888456563633732 0 -0.42550232634077589 -0.42345940056268039 0 -0.41333489101611293 -0.42699700567040988 0 -0.41950844772475421 -0.43888456563633732 0 -0.43421362475025049 -0.37527491429266319 0 -0.42478231784314502 -0.38643128255249681 0 -0.41656514696884139 -0.37636588688318029 0 -0.43421362475025049 -0.37527491429266319 0 -0.42478231784314502 -0.38643128255249681 0 -0.43479631603355468 -0.39077639303142497 0 -0.42478231784314502 -0.38643128255249681 0 -0.43479631603355468 -0.39077639303142497 0 -0.42870657106664078 -0.39987574649354879 0 -0.44332653075004852 -0.401690115615219 0 -0.43479631603355468 -0.39077639303142497 0 -0.42870657106664078 -0.39987574649354879 0 -0.41657232816672918 -0.41306671883907142 0 -0.40962993039643741 -0.3898634720616666 0 -0.3946356370269814 -0.39577424904278191 0 -0.42478231784314502 -0.38643128255249681 0 -0.42870657106664078 -0.39987574649354879 0 -0.40962993039643741 -0.3898634720616666 0 -0.41657232816672918 -0.41306671883907142 0 -0.42870657106664078 -0.39987574649354879 0 -0.40962993039643741 -0.3898634720616666 0 -0.42478231784314502 -0.38643128255249681 0 -0.40962993039643741 -0.3898634720616666 0 -0.41656514696884139 -0.37636588688318029 0 -0.40962993039643741 -0.3898634720616666 0 -0.41656514696884139 -0.37636588688318029 0 -0.40465459864295228 -0.37650109000307358 0 -0.39431275766669582 -0.38061373190328529 0 -0.40465459864295228 -0.37650109000307358 0 -0.3968495855878465 -0.36923685638487008 0 -0.40962993039643741 -0.3898634720616666 0 -0.39431275766669582 -0.38061373190328529 0 -0.40465459864295228 -0.376501090003
[...]
<PointData Scalars="" Vectors="displacement," Tensors="">
<DataArray type="Float64" Name="displacement" NumberOfComponents="3" format="ascii">
-0.0049999700257966585 1.3805873678296706e-08 0 -0.0049999010081764415 -2.789071032308142e-08 0 -0.0048503242633748901 4.6871787611590486e-09 0 -0.0049999010081764415 -2.789071032308142e-08 0 -0.0048503242633748901 4.6871787611590486e-09 0 -0.0046260839645109525 4.1889596392207711e-08 0 -0.0049995576469310304 -7.2217608718024945e-08 0 -0.0048158991351765924 -6.6926224873916257e-06 0 -0.0049997152533625472 -8.7410340566171767e-08 0 -0.0048767882561224166 -3.5913567955998224e-05 0 -0.0048033134896790708 -4.249438169999857e-05 0 -0.0049997152533625472 -8.7410340566171767e-08 0 -0.0048767882561224166 -3.5913567955998224e-05 0 -0.0049999260640318953 -6.3799654693829648e-09 0 -0.0048767882561224166 -3.5913567955998224e-05 0 -0.0047497147321339372 -3.0270166965851579e-05 0 -0.0047905744691936559 -4.1356226494000172e-05 0 -0.0048767882561224166 -3.5913567955998224e-05 0 -0.0048033134896790708 -4.249438169999857e-05 0 -0.0047497147321339372 -3.0270166965851579e-05 0 -0.0048158991351765924 -6.6926224873916257e-06 0 -0.0046263118784623351 4.763647503690465e-08 0 -0.0048033134896790708 -4.249438169999857e-05 0 -0.0046257901469179902 -1.5974826845138288e-07 0 -0.0047497147321339372 -3.0270166965851579e-05 0 -0.0046257901469179902 -1.5974826845138288e-07 0 -0.0047497147321339372 -3.0270166965851579e-05 0 -0.0046270430296032955 -2.6903664777681504e-05 0 -0.0047497147321339372 -3.0270166965851579e-05 0 -0.0046270430296032955 -2.6903664777681504e-05 0 -0.0047905744691936559 -4.1356226494000172e-05 0 -0.0046749783369089181 -2.2798414876800551e-05 0 -0.0046270430296032955 -2.6903664777681504e-05 0 -0.0047905744691936559 -4.1356226494000172e-05 0 -0.0046749783369089181 -2.2798414876800551e-05 0 -0.0046270430296032955 -2.6903664777681504e-05 0 -0.0045330691785280099 -9.2723961587038659e-06 0 -0.0046270430296032955 -2.6903664777681504e-05 0 -0.0043277559790909628 -3.3563188785832846e-08 0 -0.0045330691785280099 -9.2723961587038659e-06 0 -0.0046257901469179902 -1.5974826845138288e-07 0 -0.0046270430296032955 -2.6903664777681504e-05 0 -0.0043277559790909628 -3.3563188785832846e-08 0 -0.0047564717210694472 -2.0031080310575442e-05 0 -0.0048253745038277047 3.2830344644911231e-06 0 -0.0047514990485150246 1.9010047989547509e-05 0 -0.0046749783369089181 -2.2798414876800551e-05 0 -0.0047564717210694472 -2.0031080310575442e-05 0 -0.0047905744691936559 -4.1356226494000172e-05 0 -0.0046749783369089181 -2.2798414876800551e-05 0 -0.0047564717210694472 -2.0031080310575442e-05 0 -0.0046661588061166779 1.4664531939493048e-05 0 -0.0047564717210694472 -2.0031080310575442e-05 0 -0.0047905744691936559 -4.1356226494000172e-05 0 -0.0048540756119198119 -4.8637189450709727e-05 0 -0.0047564717210694472 -2.0031080310575442e-05 0 -0.0048540756119198119 -4.8637189450709727e-05 0 -0.0048253745038277047 3.2830344644911231e-06 0 -0.0049414338559965196 -1.8546597928299018e-05 0 -0.0049176251972992387 -5.2288861487182672e-06 0 -0.0047905744691936559 -4.1356226494000172e-05 0 -0.0048540756119198119 -4.8637189450709727e-05 0 -0.004906529964261979 -3.0218358082704917e-05 0 -0.0048767882561224166 -3.5913567955998224e-05 0 -0.0047905744691936559 -4.1356226494000172e-05 0 -0.004906529964261979 -3.0218358082704917e-05 0 -0.0048767882561224166 -3.5913567955998224e-05 0 -0.004906529964261979 -3.0218358082704917e-05 0 -0.0049999260640318953 -6.3799654693829648e-09 0 -0.004906529964261979 -3.0218358082704917e-05 0 -0.0049999260640318953 -6.3799654693829648e-09 0 -0.0049997887298788343 -4.1721208114069841e-08 0 -0.0049414338559965196 -1.8546597928299018e-05 0 -0.004999891692905897 -3.421852735923856e-08 0 -0.0049432357515329537 -1.1948182146888938e-05 0 -0.004999964236378965 -5.0980433941524875e-09 0 -0.0049763083784445253 -6.4813092592753652e-06 0 -0.0048540756119198119 -4.8637189450709727e-05 0 -0.004906529964261979 -3.0218358082704917e-05 0 -0.0049997887298788343 -4.1721208114069841e-08 0 -0.004999964236378965 -5.0980433941524875e-09 0 -0.0049763083784445253 -6.4813092592753652e-06 0 -0.0049999544860239997 -1.2573738499034849e-08 0 -0.0049763083784445253 -6.4813092592753652e-06 0 -0.0049999544860239997 -1.2573738499034849e-08 0 -0.0049618645035451213 -1.1025168251790474e-05 0 -0.0049999544860239997 -1.2573738499034849e-08 0 -0.0049618645035451213 -1.1025168251790474e-05 0 -0.0049878409451392085 -7.418937582911457e-06 0 -0.0049432357515329537 -1.1948182146888938e-05 0 -0.0049763083784445253 -6.4813092592753652e-06 0 -0.0049618645035451213 -1.1025168251790474e-05 0 -0.0049999569490085435 -9.932635441607825e-09 0 -0.0049883149611373518 -8.4701294855033812e-06 0 -0.004980592108690768 -6.5482871511744296e-06 0 -0.0048892445909114743 2.6404434342654396e-05 0 -0.0049097438689952892 1.3328392290834884e-05 0 -0.0049999569490085435 -9.932635441607825e-09 0 -0.0049878409451392085 -7.418937582911457e-06 0 -0.0049883149611373518 -8.4701294855033812e-06 0 -0.0049999544860239997 -1.2573738499034849e-08 0 -0.0049999569490085435 -9.932635441607825e-09 0 -0.0049878409451392085 -7.418937582911457e-06 0 -0.0049618645035451213 -1.1025168251790474e-05 0 -0.0049878409451392085 -7.418937582911457e-06 0 -0.0049883149611373518 -8.4701294855033812e-06 0 -0.0049618645035451213 -1.1025168251790474e-05 0 -0.0049883149611373518 -8.4701294855033812e-06 0 -0.00494994565689264 2.0746328264136191e-07 0 -0.0048146237565162677 2.1726192185150154e-05 0 -0.0049265261176934735 1.5754113646751551e-05 0 -0.0048770909070031867 5.6397465259342631e-05 0 -0.0048146237565162677 2.1726192185150154e-05 0 -0.004980592108690768 -6.5482871511744296e-06 0 -0.0049265261176934735 1.5754113646751551e-05 0 -0.004797378927259832 0.00011248423595958723 0 -0.0048770909070031867 5.6397465259342631e-05 0 -0.0048563639000464365 0.00010725695817607236 0 -0.0048146237565162677 2.1726192185150154e-05 0 -0.004797378927259832 0.00011248423595958723 0 -0.0048770909070031867 5.6397465259342631e-05 0 -0.0048892445909114743 2.6404434342654396e-05 0 -0.0048519616413976122 5.7384991190898657e-05 0 -0.0048146237565162677 2.1726192185150154e-05 0 -0.004797378927259832 0.00011248423595958723 0 -0.0047185848873744982 0.00010390930233903517 0 -0.0047347119754148443 0.00015301497918681747 0 -0.0046931653543130208 0.00014602506132744834 0 -0.0047355897544912595 0.00019553215807846538 0 -0.004797378927259832 0.00011248423595958723 0 -0.0047347119754148443 0.00015301497918681747 0 -0.0047564102080558139 0.00017826142223237667 0 -0.004797378927259832 0.00011248423595958723 0 -0.0047347119754148443 0.00015301497918681747 0 -0.0047185848873744982 0.00010390930233903517 0 -0.004797378927259832 0.00011248423595958723 0 -0.004793298300969989 0.00017591946257932467 0 -0.0047564102080558139 0.00017826142223237667 0 -0.004797378927259832 0.00011248423595958723 0 -0.004793298300969989 0.00017591946257932467 0 -0.0048563639000464365 0.00010725695817607236 0 -0.0049432357515329537 -1.1948182146888938e-05 0 -0.0049050726228241394 -7.7124763336574474e-06 0 -0.0048253745038277047 3.2830344644911231e-06 0 -0.0049432357515329537 -1.1948182146888938e-05 0 -0.0049618645035451213 -1.1025168251790474e-05 0 -0.0049050726228241394 -7.7124763336574474e-06 0 -0.0049050726228241394 -7.7124763336574474e-06 0 -0.00494994565689264 2.0746328264136191e-07 0 -0.0049097917531457768 1.2105512084229777e-05 0 -0.0049618645035451213 -1.1025168251790474e-05 0 -0.0049050726228241394 -7.7124763336574474e-06 0 -0.00494994565689264 2.0746328264136191e-07 0 -0.0047347119754148443 0.00015301497918681747 0 -0.0047185848873744982 0.00010390930233903517 0 -0.0046931653543130208 0.00014602506132744834 0 -0.0048519616413976122 5.7384991190898657e-05 0 -0.0048326637757855435 7.7961448818744629e-05 0 -0.0048326637757855435 7.7961448818744629e-05 0 -0.0048426823741234432 6.4962321914481717e-05 0 -0.0049050726228241394 -7.7124763336574474e-06 0 -0.0048429989940062812 2.3395209518323415e-05 0 -0.0048253745038277047 3.2830344644911231e-06 0 -0.0049050726228241394 -7.7124763336574474e-06 0 -0.0049097917531457768 1.2105512084229777e-05 0 -0.0048429989940062812 2.3395209518323415e-05 0 -0.0048429989940062812 2.3395209518323415e-05 0 -0.0048253745038277047 3.2830344644911231e-06 0 -0.0048018359628761581 3.1210586586513731e-05 0 -0.0048018359628761581 3.1210586586513731e-05 0 -0.0048192261335934282 4.5108985452966044e-05 0 -0.0047625494578477159 5.7519970580000636e-05 0 -0.0048429989940062812 2.3395209518323415e-05 0 -0.0048018359628761581 3.1210586586513731e-05 0 -0.0048192261335934282 4.5108985452966044e-05 0 -0.0046931653543130208 0.00014602506132744834 0 -0.004723035562993836 0.00021781408306497912 0 -0.0047355897544912595 0.00019553215807846538 0 -0.004856516713602892 7.8083104455300215e-06 0 -0.0048429989940062812 2.3395209518323415e-05 0 -0.0048192261335934282 4.5108985452966044e-05 0 -0.004856516713602892 7.8083104455300215e-06 0 -0.0048192261335934282 4.5108985452966044e-05 0 -0.0048221037376851008 6.5791303669564694e-05 0 -0.0048326637757855435 7.7961448818744629e-05 0 -0.0047939383209904827 0.00011232748259593973 0 -0.0048192261335934282 4.5108985452966044e-05 0 -0.0048221037376851008 6.5791303669564694e-05 0 -0.004788307484969485 7.4558306303194926e-05 0 -0.0048221037376851008 6.5791303669564694e-05 0 -0.004788307484969485 7.4558306303194926e-05 0 -0.0047629234175618528 0.00011121594069491984 0 -0.004788307484969485 7.4558306303194926e-05 0 -0.0047629234175618528 0.00011121594069491984 0 -0.0047625494578477159 5.7519970580000636e-05 0 -0.0048192261335934282 4.5108985452966044e-05 0 -0.004788307484969485 7.4558306303194926e-05 0 -0.0047625494578477159 5.7519970580000636e-05 0 -0.004793298300969989 0.00017591946257932467 0 -0.0047474644223546017 0.00020523820296735397 0 -0.0047401295691605555 0.0002295310989188394 0 -0.004793298300969989 0.00017591946257932467 0 -0.0047474644223546017 0.00020523820296735397 0 -0.0047564102080558139 0.00017826142223237667 0 -0.0047474644223546017 0.00020523820296735397 0 -0.0047564102080558139 0.00017826142223237667 0 -0.0047355897544912595 0.00019553215807846538 0 -0.0047347119754148443 0.00015301497918681747 0 -0.0047564102080558139 0.00017826142223237667 0 -0.0047355897544912595 0.00019553215807846538 0 -0.004723035562993836 0.00021781408306497912 0 -0.0047263776485999181 0.00022274086211026493 0 -0.0047234470142911242 0.00020037063702087055 0 -0.0047474644223546017 0.00020523820296735397 0 -0.0047355897544912595 0.00019553215807846538 0 -0.0047263776485999181 0.00022274086211026493 0 -0.004723035562993836 0.00021781408306497912 0 -0.0047355897544912595 0.00019553215807846538 0 -0.0047263776485999181 0.00022274086211026493 0 -0.0047474644223546017 0.00020523820296735397 0 -0.0047263776485999181 0.00022274086211026493 0 -0.0047401295691605555 0.0002295310989188394 0 -0.0047263776485999181 0.00022274086211026493 0 -0.0047401295691605555 0.0002295310989188394 0 -0.0047046868914294307 0.00023018179767461338 0 -0.0046882841702796064 0.00020235064801191541 0 -0.0047046868914294307 0.00023018179767461338 0 -0.0046584872129394909 0.00021492719803481685 0 -0.0047263776485999181 0.00022274086211026493 0 -0.0046882841702796064 0.00020235064801191541 0 -0.0047046868914294307 0.00023018179767461338 0 -0.0047263776485999181 0.00022274086211026493 0 -0.0046882841702796064 0.00020235064801191541 0 -0.0047234470142911242 0.00020037063702087055 0 -0.0047234470142911242 0.00020037063702087055 0 -0.0047467118944763574 0.00017977567715127867 0 -0.0047138599011064273 0.00013789103927835808 0 -0.0047234470142911242 0.00020037063702087055 0 -0.0046563072213886506 0.00013141620812049621 0 -0.0047138599011064273 0.00013789103927835808 0 -0.0046882841702796064 0.00020235064801191541 0 -0.0047234470142911242 0.00020037063702087055 0 -0.0046563072213886506 0.00013141620812049621 0 -0.0046882841702796064 0.00020235064801191541 0 -0.0046563072213886506 0.00013141620812049621 0 -0.0046276599618412777 0.00016801946516212376 0 -0.0048221037376851008 6.5791303669564694e-05 0 -0.0047629234175618528 0.00011121594069491984 0 -0.0047751176249879318 0.00013567786893685572 0 -0.004723035562993836 0.00021781408306497912 0 -0.0047234470142911242 0.00020037063702087055 0 -0.0047467118944763574 0.00017977567715127867 0 -0.0047939383209904827 0.00011232748259593973 0 -0.0047744163594608691 0.00012699715136455818 0 -0.0047751176249879318 0.00013567786893685572 0 -0.0047520685639978258 0.00013981852171847395 0 -0.0047489191344613239 0.00012851480582027635 0 -0.0047520685639978258 0.00013981852171847395 0 -0.0047078778275740744 0.0001502194762493979 0 -0.0047350507323286771 0.00015044530374780957 0 -0.0047629234175618528 0.00011121594069491984 0 -0.0047520685639978258 0.00013981852171847395 0 -0.0047078778275740744 0.0001502194762493979 0 -0.0047629234175618528 0.00011121594069491984 0 -0.0047751176249879318 0.00013567786893685572 0 -0.0047520685639978258 0.00013981852171847395 0 -0.0047078778275740744 0.0001502194762493979 0 -0.0046932266105836817 0.00010136953792472596 0 -0.0046175534181445771 0.00015376567879014122 0 -0.0047629234175618528 0.00011121594069491984 0 -0.0047078778275740744 0.0001502194762493979 0 -0.0046932266105836817 0.00010136953792472596 0 -0.0046932266105836817 0.00010136953792472596 0 -0.0046175534181445771 0.00015376567879014122 0 -0.0045726043105126929 0.00011345296043731832 0 -0.0047078778275740744 0.0001502194762493979 0 -0.0046175534181445771 0.00015376567879014122 0 -0.0046403200203102308 0.00018575870956324213 0 -0.0046175534181445771 0.00015376567879014122 0 -0.004541830252171755 0.00019210780979081875 0 -0.0046403200203102308 0.00018575870956324213 0 -0.004541830252171755 0.00019210780979081875 0 -0.004436015313967456 0.00017105762916228364 0 -0.0045245075455834019 0.0001533805753012729 0 -0.0046175534181445771 0.00015376567879014122 0 -0.004541830252171755 0.00019210780979081875 0 -0.0045245075455834019 0.0001533805753012729 0 -0.0039135498955622456 -1.4805979942281358e-05 0 -0.0037448907894021884 7.8588397268764177e-05 0 -0.0039263647382325609 1.6765307347063944e-06 0 -0.0040293084166834834 1.3986525824297497e-07 0 -0.0037309617596841056 -3.1922477156343266e-08 0 -0.0039263647382325609 1.6765307347063944e-06 0 -0.0037459675739861583 6.871928674464943e-06 0 -0.0037309617596841056 -3.1922477156343266e-08 0 -0.004541830252171755 0.00019210780979081875 0 -0.004436015313967456 0.00017105762916228364 0 -0.0044685595558434038 0.00023231865288588581 0 -0.0039135498955622456 -1.4805979942281358e-05 0 -0.0039713441895267735 -6.5410420145794036e-05 0 -0.004436015313967456 0.00017105762916228364 0 -0.0045245075455834019 0.0001533805753012729 0 -0.0044621048954582672 0.00011355159359294369 0 -0.0039263647382325609 1.6765307347063944e-06 0 -0.0040293084166834834 1.3986525824297497e-07 0 -0.0042789488602917418 2.468420373676681e-05 0 -0.004436015313967456 0.00017105762916228364 0 -0.0044621048954582672 0.00011355159359294369 0 -0.0042789488602917418 2.468420373676681e-05 0 -0.0046175534181445771 0.00015376567879014122 0 -0.0045245075455834019 0.0001533805753012729 0 -0.0045726043105126929 0.00011345296043731832 0 -0.0045245075455834019 0.0001533805753012729 0 -0.0044621048954582672 0.00011355159359294369 0 -0.0045726043105126929 0.00011345296043731832 0 -0.0045726043105126929 0.00011345296043731832 0 -0.004534600584138444 3.8148401398961732e-05 0 -0.0046412437627429033 6.274486587607373e-05 0 -0.0044621048954582672 0.00011355159359294369 0 -0.004534600584138444 3.8148401398961732e-05 0 -0.0042789488602917418 2.468420373676681e-05 0 -0.0044621048954582672 0.00011355159359294369 0 -0.0045726043105126929 0.00011345296043731832 0 -0.004534600584138444 3.8148401398961732e-05 0 -0.004534600584138444 3.8148401398961732e-05 0 -0.0042789488602917418 2.468420373676681e-05 0 -0.0044115054001404681 9.4946523489211376e-06 0 -0.0040293084166834834 1.3986525824297497e-07 0 -0.0042789488602917418 2.468420373676681e-05 0 -0.0043277559790909628 -3.3563188785832846e-08 0 -0.0042789488602917418 2.468420373676681e-05 0 -0.0044115054001404681 9.4946523489211376e-06 0 -0.0043277559790909628 -3.3563188785832846e-08 0 -0.0044115054001404681 9.4946523489211376e-06 0 -0.0043277559790909628 -3.3563188785832846e-08 0 -0.0045330691785280099 -9.2723961587038659e-06 0 -0.0046749783369089181 -2.2798414876800551e-05 0 -0.0045330691785280099 -9.2723961587038659e-06 0 -0.0046661588061166779 1.4664531939493048e-05 0 -0.004534600584138444 3.8148401398961732e-05 0 -0.0045330691785280099 -9.2723961587038659e-06 0 -0.0046661588061166779 1.4664531939493048e-05 0 -0.004534600584138444 3.8148401398961732e-05 0 -0.0044115054001404681 9.4946523489211376e-06 0 -0.0045330691785280099 -9.2723961587038659e-06 0 -0.0047564717210694472 -2.0031080310575442e-05 0 -0.0046661588061166779 1.4664531939493048e-05 0 -0.0047514990485150246 1.9010047989547509e-05 0 -0.0046661588061166779 1.4664531939493048e-05 0 -0.0047078246159867245 5.0313446057218693e-05 0 -0.0046412437627429033 6.274486587607373e-05 0 -0.0046661588061166779 1.4664531939493048e-05 0 -0.0047514990485150246 1.9010047989547509e-05 0 -0.0047078246159867245 5.0313446057218693e-05 0 -0.0048253745038277047 3.2830344644911231e-06 0 -0.0048018359628761581 3.1210586586513731e-05 0 -0.0047514990485150246 1.9010047989547509e-05 0 -0.0048018359628761581 3.1210586586513731e-05 0 -0.0047514990485150246 1.9010047989547509e-05 0 -0.0047625494578477159 5.7519970580000636e-05 0 -0.0047514990485150246 1.9010047989547509e-05 0 -0.0047078246159867245 5.0313446057218693e-05 0 -0.0047625494578477159 5.7519970580000636e-05 0 -0.0047629234175618528 0.00011121594069491984 0 -0.0046932266105836817 0.00010136953792472596 0 -0.0047625494578477159 5.7519970580000636e-05 0 -0.0046932266105836817 0.00010136953792472596 0 -0.0047078246159867245 5.0313446057218693e-05 0 -0.0047625494578477159 5.7519970580000636e-05 0 -0.0046932266105836817 0.00010136953792472596 0 -0.0047078246159867245 5.0313446057218693e-05 0 -0.0046412437627429033 6.274486587607373e-05 0 -0.0046932266105836817 0.00010136953792472596 0 -0.0045726043105126929 0.00011345296043731832 0 -0.0046412437627429033 6.274486587607373e-05 0 -0.004534600584138444 3.8148401398961732e-05 0 -0.0046661588061166779 1.4664531939493048e-05 0 -0.0046412437627429033 6.274486587607373e-05 0 -0.0049841962222553727 -4.5588118044314899e-06 0 -0.0049851367351926475 -9.722367540717635e-07 0 -0.0049838659535250676 -3.4040655397699442e-06 0 -0.0049841962222553727 -4.5588118044314899e-06 0 -0.0049877972551906451 1.3885300022241056e-06 0 -0.0049851367351926475 -9.722367540717635e-07 0 -0.0049841962222553727 -4.5588118044314899e-06 0 -0.0049838659535250676 -3.4040655397699442e-06 0 -0.0049804805464675099 -8.1059886316904792e-06 0 -0.0049841962222553727 -4.5588118044314899e-06 0 -0.0049877972551906451 1.3885300022241056e-06 0 -0.0049917771744755037 1.574965089500786e-06 0 -0.0049877972551906451 1.3885300022241056e-06 0 -0.0049917771744755037 1.574965089500786e-06 0 -0.0049923772943711725 8.3947548059137384e-06 0 -0.0049917771744755037 1.574965089500786e-06 0 -0.0049898330943064532 3.1003878779696172e-06 0 -0.0049809762310085697 -6.439853139726968e-06 0 -0.0049841962222553727 -4.5588118044314899e-06 0 -0.0049917771744755037 1.574965089500786e-06 0 -0.0049809762310085697 -6.439853139726968e-06 0 -0.0049841962222553727 -4.5588118044314899e-06 0 -0.0049809762310085697 -6.439853139726968e-06 0 -0.0049804805464675099 -8.1059886316904792e-06 0 -0.0049898330943064532 3.1003878779696172e-06 0 -0.00499999986490116 -2.0037206865023968e-09 0 -0.0049999504477744759 2.9560204905852159e-08 0 -0.0049898330943064532 3.1003878779696172e-06 0 -0.00499999986490116 -2.0037206865023968e-09 0 -0.0049973126167510221 3.7250844157589847e-06 0 -0.0049917771744755037 1.574965089500786e-06 0 -0.0049898330943064532 3.1003878779696172e-06 0 -0.0049973126167510221 3.7250844157589847e-06 0 -0.0049917771744755037 1.574965089500786e-06 0 -0.0049973126167510221 3.7250844157589847e-06 0 