<?xml version="1.0"?>
<VTKFile type="UnstructuredGrid" version="0.1" byte_order="LittleEndian">
<UnstructuredGrid>
<Piece NumberOfPoints="30881" NumberOfCells="10862">
<Points>
<DataArray type="Float64" NumberOfComponents="3" format="ascii">
-0.49999999999999828 -0.48677703703187492 0 -0.5 -0.5 0 -0.48129281494584059 -0.49338851851593718 0 -0.5 -0.5 0 -0.48129281494584059 -0.49338851851593718 0 -0.46258562989168328 -0.5 0 -0.49999999999999828 -0.48677703703187492 0 -0.48129281494584059 -0.49338851851593718 0 -0.49999999999999828 -0.48677703703187492 0 -0.4824545428279598 -0.47451624516148783 0 -0.48129281494584059 -0.49338851851593718 0 -0.49999999999999828 -0.48677703703187492 0 -0.4824545428279598 -0.47451624516148783 0 -0.5 -0.46599539173150673 0 -0.4824545428279598 -0.47451624516148783 0 -0.46853075243710779 -0.48354990242643758 0 -0.46411508256092049 -0.46598235294430129 0 -0.4824545428279598 -0.47451624516148783 0 -0.48129281494584059 -0.49338851851593718 0 -0.46853075243710779 -0.48354990242643758 0 -0.48129281494584059 -0.49338851851593718 0 -0.46258562989168328 -0.5 0 -0.48129281494584059 -0.49338851851593718 0 -0.46258562989168328 -0.5 0 -0.46853075243710779 -0.48354990242643758 0 -0.46258562989168328 -0.5 0 -0.46853075243710779 -0.48354990242643758 0 -0.45147378687733691 -0.48362213557840178 0 -0.46853075243710779 -0.48354990242643758 0 -0.45147378687733691 -0.48362213557840178 0 -0.46411508256092049 -0.46598235294430129 0 -0.4457251648104853 -0.47020164095208389 0 -0.45147378687733691 -0.48362213557840178 0 -0.46411508256092049 -0.46598235294430129 0 -0.4457251648104853 -0.47020164095208389 0 -0.45147378687733691 -0.48362213557840178 0 -0.43513446131126993 -0.48199891714758791 0 -0.45147378687733691 -0.48362213557840178 0 -0.43275163025255442 -0.5 0 -0.43513446131126993 -0.48199891714758791 0 -0.46258562989168328 -0.5 0 -0.45147378687733691 -0.48362213557840178 0 -0.43275163025255442 -0.5 0 -0.4467190029717853 -0.45478934699519452 0 -0.4422915115958943 -0.43555510214664611 0 -0.43246707723660932 -0.44794326854796312 0 -0.4457251648104853 -0.47020164095208389 0 -0.4467190029717853 -0.45478934699519452 0 -0.46411508256092049 -0.46598235294430129 0 -0.4457251648104853 -0.47020164095208389 0 -0.4467190029717853 -0.45478934699519452 0 -0.43016578207734568 -0.46313500011938619 0 -0.4467190029717853 -0.45478934699519452 0 -0.46411508256092049 -0.46598235294430129 0 -0.47114575579794699 -0.4403844242888923 0 -0.4467190029717853 -0.45478934699519452 0 -0.47114575579794699 -0.4403844242888923 0 -0.4422915115958943 -0.43555510214664611 0 -0.47114575579794699 -0.4403844242888923 0 -0.4422915115958943 -0.43555510214664611 0 -0.46411508256092049 -0.46598235294430129 0 -0.47114575579794699 -0.4403844242888923 0 -0.48354307623736548 -0.45841843211146538 0 -0.4824545428279598 -0.47451624516148783 0 -0.46411508256092049 -0.46598235294430129 0 -0.48354307623736548 -0.45841843211146538 0 -0.4824545428279598 -0.47451624516148783 0 -0.48354307623736548 -0.45841843211146538 0 -0.5 -0.46599539173150673 0 -0.48354307623736548 -0.45841843211146538 0 -0.5 -0.46599539173150673 0 -0.49999999999999972 -0.44521374643113848 0 -0.47114575579794699 -0.4403844242888923 0 -0.49999999999999972 -0.44521374643113848 0 -0.47114575579794699 -0.4403844242888923 0 -0.49999999999999972 -0.44521374643113848 0 -0.48704432221743971 -0.42935617662229603 0 -0.47114575579794699 -0.4403844242888923 0 -0.48354307623736548 -0.45841843211146538 0 -0.49999999999999972 -0.44521374643113848 0 -0.49999999999999972 -0.44521374643113848 0 -0.48704432221743971 -0.42935617662229603 0 -0.5 -0.41591957503128979 0 -0.48704432221743971 -0.42935617662229603 0 -0.5 -0.41591957503128979 0 -0.47703153307181151 -0.41590696073786332 0 -0.5 -0.41591957503128979 0 -0.47703153307181151 -0.41590696073786332 0 -0.48817838912021821 -0.4022119694541284 0 -0.47114575579794699 -0.4403844242888923 0 -0.48704432221743971 -0.42935617662229603 0 -0.47703153307181151 -0.41590696073786332 0 -0.5 -0.38662540363144121 0 -0.47568202340906118 -0.39039593841591919 0 -0.4947615751445838 -0.37332156409002909 0 -0.47568202340906118 -0.39039593841591919 0 -0.4947615751445838 -0.37332156409002909 0 -0.5 -0.38662540363144121 0 -0.48817838912021821 -0.4022119694541284 0 -0.47568202340906118 -0.39039593841591919 0 -0.5 -0.41591957503128979 0 -0.5 -0.38662540363144121 0 -0.48817838912021821 -0.4022119694541284 0 -0.47703153307181151 -0.41590696073786332 0 -0.48817838912021821 -0.4022119694541284 0 -0.47568202340906118 -0.39039593841591919 0 -0.47703153307181151 -0.41590696073786332 0 -0.47568202340906118 -0.39039593841591919 0 -0.45660247167353862 -0.40747031274180939 0 -0.47568202340906118 -0.39039593841591919 0 -0.48030931097003587 -0.37191064435083931 0 -0.46669490250066459 -0.37481721741951951 0 -0.47568202340906118 -0.39039593841591919 0 -0.4947615751445838 -0.37332156409002909 0 -0.48030931097003587 -0.37191064435083931 0 -0.45332061783919553 -0.38729481725706361 0 -0.46669490250066459 -0.37481721741951951 0 -0.45095991715087752 -0.36968037302039969 0 -0.47568202340906118 -0.39039593841591919 0 -0.45332061783919553 -0.38729481725706361 0 -0.46669490250066459 -0.37481721741951951 0 -0.47568202340906118 -0.39039593841591919 0 -0.45660247167353862 -0.40747031274180939 0 -0.47568202340906118 -0.39039593841591919 0 -0.45332061783919553 -0.38729481725706361 0 -0.45660247167353862 -0.40747031274180939 0 -0.44332653075004852 -0.401690115615219 0 -0.44646247228389868 -0.41654464256061052 0 -0.42870657106664078 -0.39987574649354879 0 -0.45332061783919553 -0.38729481725706361 0 -0.44332653075004852 -0.401690115615219 0 -0.43479631603355468 -0.39077639303142497 0 -0.45332061783919553 -0.38729481725706361 0 -0.44332653075004852 -0.401690115615219 0 -0.45660247167353862 -0.40747031274180939 0 -0.45332061783919553 -0.38729481725706361 0 -0.43421362475025049 -0.37527491429266319 0 -0.43479631603355468 -0.39077639303142497 0 -0.45332061783919553 -0.38729481725706361 0 -0.43421362475025049 -0.37527491429266319 0 -0.45095991715087752 -0.36968037302039969 0 -0.47114575579794699 -0.4403844242888923 0 -0.45663439814062529 -0.42533932462455271 0 -0.4422915115958943 -0.43555510214664611 0 -0.47114575579794699 -0.4403844242888923 0 -0.47703153307181151 -0.41590696073786332 0 -0.45663439814062529 -0.42533932462455271 0 -0.45663439814062529 -0.42533932462455271 0 -0.45660247167353862 -0.40747031274180939 0 -0.44646247228389868 -0.41654464256061052 0 -0.47703153307181151 -0.41590696073786332 0 -0.45663439814062529 -0.42533932462455271 0 -0.45660247167353862 -0.40747031274180939 0 -0.44332653075004852 -0.401690115615219 0 -0.45660247167353862 -0.40747031274180939 0 -0.44646247228389868 -0.41654464256061052 0 -0.45660247167353862 -0.40747031274180939 0 -0.44646247228389868 -0.41654464256061052 0 -0.44646247228389868 -0.41654464256061052 0 -0.4375229199380159 -0.42454468706769971 0 -0.45663439814062529 -0.42533932462455271 0 -0.4375229199380159 -0.42454468706769971 0 -0.4422915115958943 -0.43555510214664611 0 -0.45663439814062529 -0.42533932462455271 0 -0.44646247228389868 -0.41654464256061052 0 -0.4375229199380159 -0.42454468706769971 0 -0.4375229199380159 -0.42454468706769971 0 -0.4422915115958943 -0.43555510214664611 0 -0.43077617074680319 -0.43406335077952207 0 -0.43077617074680319 -0.43406335077952207 0 -0.42550232634077589 -0.42345940056268039 0 -0.41950844772475421 -0.43888456563633732 0 -0.4375229199380159 -0.42454468706769971 0 -0.43077617074680319 -0.43406335077952207 0 -0.42550232634077589 -0.42345940056268039 0 -0.44646247228389868 -0.41654464256061052 0 -0.41657232816672918 -0.41306671883907142 0 -0.42870657106664078 -0.39987574649354879 0 -0.44646247228389868 -0.41654464256061052 0 -0.4375229199380159 -0.42454468706769971 0 -0.42550232634077589 -0.42345940056268039 0 -0.44646247228389868 -0.41654464256061052 0 -0.42550232634077589 -0.42345940056268039 0 -0.41657232816672918 -0.41306671883907142 0 -0.44646247228389868 -0.41654464256061052 0 -0.41657232816672918 -0.41306671883907142 0 -0.42550232634077589 -0.42345940056268039 0 -0.41657232816672918 -0.41306671883907142 0 -0.41333489101611293 -0.42699700567040988 0 -0.41657232816672918 -0.41306671883907142 0 -0.41333489101611293 -0.42699700567040988 0 -0.39893236021425188 -0.42931692235905211 0 -0.41333489101611293 -0.42699700567040988 0 -0.39893236021425188 -0.42931692235905211 0 -0.41950844772475421 -0.43888456563633732 0 -0.42550232634077589 -0.42345940056268039 0 -0.41333489101611293 -0.42699700567040988 0 -0.41950844772475421 -0.43888456563633732 0 -0.43421362475025049 -0.37527491429266319 0 -0.42478231784314502 -0.38643128255249681 0 -0.41656514696884139 -0.37636588688318029 0 -0.43421362475025049 -0.37527491429266319 0 -0.42478231784314502 -0.38643128255249681 0 -0.43479631603355468 -0.39077639303142497 0 -0.42478231784314502 -0.38643128255249681 0 -0.43479631603355468 -0.39077639303142497 0 -0.42870657106664078 -0.39987574649354879 0 -0.44332653075004852 -0.401690115615219 0 -0.43479631603355468 -0.39077639303142497 0 -0.42870657106664078 -0.39987574649354879 0 -0.41657232816672918 -0.41306671883907142 0 -0.40962993039643741 -0.3898634720616666 0 -0.3946356370269814 -0.39577424904278191 0 -0.42478231784314502 -0.38643128255249681 0 -0.42870657106664078 -0.39987574649354879 0 -0.40962993039643741 -0.3898634720616666 0 -0.41657232816672918 -0.41306671883907142 0 -0.42870657106664078 -0.39987574649354879 0 -0.40962993039643741 -0.3898634720616666 0 -0.42478231784314502 -0.38643128255249681 0 -0.40962993039643741 -0.3898634720616666 0 -0.41656514696884139 -0.37636588688318029 0 -0.40962993039643741 -0.3898634720616666 0 -0.41656514696884139 -0.37636588688318029 0 -0.40465459864295228 -0.37650109000307358 0 -0.39431275766669582 -0.38061373190328529 0 -0.40465459864295228 -0.37650109000307358 0 -0.3968495855878465 -0.36923685638487008 0 -0.40962993039643741 -0.3898634720616666 0 -0.39431275766669582 -0.38061373190328529 0 -0.40465459864295228 -0.376501090003
[...]
<PointData Scalars="" Vectors="displacement," Tensors="">
<DataArray type="Float64" Name="displacement" NumberOfComponents="3" format="ascii">
6.9542099630570213e-08 -0.0048682053180760503 0 -4.637619845363205e-08 -0.0049997209455643439 0 2.2594359407893579e-08 -0.004996025683081576 0 -4.637619845363205e-08 -0.0049997209455643439 0 2.2594359407893579e-08 -0.004996025683081576 0 2.3007353662176826e-08 -0.0050001228810334399 0 1.5877386855362071e-08 -0.004867873192466116 0 -5.2365059239286509e-07 -0.0049304685723882569 0 -1.9849776754780968e-08 -0.0048674645993113785 0 -2.6877881458524407e-05 -0.0047924430344103769 0 -2.5430099122441844e-05 -0.0048409435890140193 0 -1.9849776754780968e-08 -0.0048674645993113785 0 -2.6877881458524407e-05 -0.0047924430344103769 0 -1.4670648256304889e-07 -0.0046600026369263935 0 -2.6877881458524407e-05 -0.0047924430344103769 0 -1.6301262467349787e-05 -0.0048917045669676241 0 -2.2647981653881316e-05 -0.0048569008276580679 0 -2.6877881458524407e-05 -0.0047924430344103769 0 -2.5430099122441844e-05 -0.0048409435890140193 0 -1.6301262467349787e-05 -0.0048917045669676241 0 -5.2365059239286509e-07 -0.0049304685723882569 0 -2.364409235619084e-08 -0.0049998822331825347 0 -2.5430099122441844e-05 -0.0048409435890140193 0 -1.712370249308049e-07 -0.0049996621015092422 0 -1.6301262467349787e-05 -0.0048917045669676241 0 -1.712370249308049e-07 -0.0049996621015092422 0 -1.6301262467349787e-05 -0.0048917045669676241 0 -1.6241254912133518e-05 -0.0049362903136891643 0 -1.6301262467349787e-05 -0.0048917045669676241 0 -1.6241254912133518e-05 -0.0049362903136891643 0 -2.2647981653881316e-05 -0.0048569008276580679 0 -2.5302828363006203e-05 -0.0048979334523435811 0 -1.6241254912133518e-05 -0.0049362903136891643 0 -2.2647981653881316e-05 -0.0048569008276580679 0 -2.5302828363006203e-05 -0.0048979334523435811 0 -1.6241254912133518e-05 -0.0049362903136891643 0 -1.2642313455439102e-05 -0.0049389551863667372 0 -1.6241254912133518e-05 -0.0049362903136891643 0 4.3635750285214311e-08 -0.0049999291263897808 0 -1.2642313455439102e-05 -0.0049389551863667372 0 -1.712370249308049e-07 -0.0049996621015092422 0 -1.6241254912133518e-05 -0.0049362903136891643 0 4.3635750285214311e-08 -0.0049999291263897808 0 -3.1667715718660445e-05 -0.0048512794358446026 0 -0.00010137415314547315 -0.0047689652882619595 0 -6.8516352436499343e-05 -0.0048333714136700578 0 -2.5302828363006203e-05 -0.0048979334523435811 0 -3.1667715718660445e-05 -0.0048512794358446026 0 -2.2647981653881316e-05 -0.0048569008276580679 0 -2.5302828363006203e-05 -0.0048979334523435811 0 -3.1667715718660445e-05 -0.0048512794358446026 0 -3.9889936130773645e-05 -0.0048802949984757277 0 -3.1667715718660445e-05 -0.0048512794358446026 0 -2.2647981653881316e-05 -0.0048569008276580679 0 3.7234755117738022e-05 -0.0048233187038311141 0 -3.1667715718660445e-05 -0.0048512794358446026 0 3.7234755117738022e-05 -0.0048233187038311141 0 -0.00010137415314547315 -0.0047689652882619595 0 -2.1550063325935274e-05 -0.0045711726475386738 0 -3.1260299392178538e-05 -0.0046487822962074472 0 -2.2647981653881316e-05 -0.0048569008276580679 0 3.7234755117738022e-05 -0.0048233187038311141 0 -2.4887255725985612e-05 -0.0047199708638247621 0 -2.6877881458524407e-05 -0.0047924430344103769 0 -2.2647981653881316e-05 -0.0048569008276580679 0 -2.4887255725985612e-05 -0.0047199708638247621 0 -2.6877881458524407e-05 -0.0047924430344103769 0 -2.4887255725985612e-05 -0.0047199708638247621 0 -1.4670648256304889e-07 -0.0046600026369263935 0 -2.4887255725985612e-05 -0.0047199708638247621 0 -1.4670648256304889e-07 -0.0046600026369263935 0 2.7686423890667526e-07 -0.0044526135614609136 0 -2.1550063325935274e-05 -0.0045711726475386738 0 -5.3713738426873089e-08 -0.0044522603209778515 0 -0.00011803918402483934 -0.0043142900061790999 0 -3.3257648391449831e-08 -0.004451653050605177 0 -4.8261102855550158e-05 -0.0042920135590816862 0 3.7234755117738022e-05 -0.0048233187038311141 0 -2.4887255725985612e-05 -0.0047199708638247621 0 2.7686423890667526e-07 -0.0044526135614609136 0 -3.3257648391449831e-08 -0.004451653050605177 0 -4.8261102855550158e-05 -0.0042920135590816862 0 -1.2479195730560051e-07 -0.0041593691840835327 0 -4.8261102855550158e-05 -0.0042920135590816862 0 -1.2479195730560051e-07 -0.0041593691840835327 0 -4.6988075682482621e-06 -0.0042593189063535181 0 -1.2479195730560051e-07 -0.0041593691840835327 0 -4.6988075682482621e-06 -0.0042593189063535181 0 1.1678919524786714e-05 -0.0041044739844050054 0 -0.00011803918402483934 -0.0043142900061790999 0 -4.8261102855550158e-05 -0.0042920135590816862 0 -4.6988075682482621e-06 -0.0042593189063535181 0 2.1894340653362104e-07 -0.0038662361418363525 0 9.3657242467778414e-05 -0.004165610639371182 0 3.3786106887476698e-05 -0.0037116250271547429 0 -5.3573771469720987e-06 -0.0039332609088639208 0 -2.6787601756228031e-06 -0.003898498728712182 0 2.1894340653362104e-07 -0.0038662361418363525 0 1.1678919524786714e-05 -0.0041044739844050054 0 9.3657242467778414e-05 -0.004165610639371182 0 -1.2479195730560051e-07 -0.0041593691840835327 0 2.1894340653362104e-07 -0.0038662361418363525 0 1.1678919524786714e-05 -0.0041044739844050054 0 -4.6988075682482621e-06 -0.0042593189063535181 0 1.1678919524786714e-05 -0.0041044739844050054 0 9.3657242467778414e-05 -0.004165610639371182 0 -4.6988075682482621e-06 -0.0042593189063535181 0 9.3657242467778414e-05 -0.004165610639371182 0 9.0953557141113404e-05 -0.0044535476362926882 0 3.3722758817208558e-05 -0.0034041960431417241 0 1.7578577198249002e-05 -0.003479587191173859 0 2.4027664124975441e-05 -0.0034163648558698475 0 3.3722758817208558e-05 -0.0034041960431417241 0 3.3786106887476698e-05 -0.0037116250271547429 0 1.7578577198249002e-05 -0.003479587191173859 0 -2.9416469326959672e-05 -0.0034581033369495604 0 2.4027664124975441e-05 -0.0034163648558698475 0 3.3779634208879081e-05 -0.0034547713817004882 0 3.3722758817208558e-05 -0.0034041960431417241 0 -2.9416469326959672e-05 -0.0034581033369495604 0 2.4027664124975441e-05 -0.0034163648558698475 0 -5.3573771469720987e-06 -0.0039332609088639208 0 -4.0614010773255099e-05 -0.0040506158205741915 0 3.3722758817208558e-05 -0.0034041960431417241 0 -2.9416469326959672e-05 -0.0034581033369495604 0 -0.0001616296052128154 -0.0034409071008192548 0 -0.00014714267127157086 -0.0035265126351497079 0 -0.00026162204974238397 -0.0035024074376642849 0 -0.00016121607969694503 -0.0036415544772250004 0 -2.9416469326959672e-05 -0.0034581033369495604 0 -0.00014714267127157086 -0.0035265126351497079 0 -7.6527438188344802e-05 -0.0035845531532867777 0 -2.9416469326959672e-05 -0.0034581033369495604 0 -0.00014714267127157086 -0.0035265126351497079 0 -0.0001616296052128154 -0.0034409071008192548 0 -2.9416469326959672e-05 -0.0034581033369495604 0 2.4883407088190169e-05 -0.0035706930040408655 0 -7.6527438188344802e-05 -0.0035845531532867777 0 -2.9416469326959672e-05 -0.0034581033369495604 0 2.4883407088190169e-05 -0.0035706930040408655 0 3.3779634208879081e-05 -0.0034547713817004882 0 -0.00011803918402483934 -0.0043142900061790999 0 -2.0458032212647422e-05 -0.0045051818046731784 0 -0.00010137415314547315 -0.0047689652882619595 0 -0.00011803918402483934 -0.0043142900061790999 0 -4.6988075682482621e-06 -0.0042593189063535181 0 -2.0458032212647422e-05 -0.0045051818046731784 0 -2.0458032212647422e-05 -0.0045051818046731784 0 9.0953557141113404e-05 -0.0044535476362926882 0 5.6237665594380403e-05 -0.0046251807349520432 0 -4.6988075682482621e-06 -0.0042593189063535181 0 -2.0458032212647422e-05 -0.0045051818046731784 0 9.0953557141113404e-05 -0.0044535476362926882 0 -0.00014714267127157086 -0.0035265126351497079 0 -0.0001616296052128154 -0.0034409071008192548 0 -0.00026162204974238397 -0.0035024074376642849 0 -4.0614010773255099e-05 -0.0040506158205741915 0 -6.1779320175187001e-05 -0.004135783467702399 0 -6.1779320175187001e-05 -0.004135783467702399 0 -0.00010502549720535158 -0.0042208821186144052 0 -2.0458032212647422e-05 -0.0045051818046731784 0 -4.6810445213128497e-05 -0.0047894928235975845 0 -0.00010137415314547315 -0.0047689652882619595 0 -2.0458032212647422e-05 -0.0045051818046731784 0 5.6237665594380403e-05 -0.0046251807349520432 0 -4.6810445213128497e-05 -0.0047894928235975845 0 -4.6810445213128497e-05 -0.0047894928235975845 0 -0.00010137415314547315 -0.0047689652882619595 0 -8.2167957225532523e-05 -0.004815132389249425 0 -8.2167957225532523e-05 -0.004815132389249425 0 -7.8333426597975691e-05 -0.0048128594517827597 0 -8.3145638947038363e-05 -0.0048310527338012816 0 -4.6810445213128497e-05 -0.0047894928235975845 0 -8.2167957225532523e-05 -0.004815132389249425 0 -7.8333426597975691e-05 -0.0048128594517827597 0 -0.00026162204974238397 -0.0035024074376642849 0 -0.00030724117264511954 -0.0037575939509261725 0 -0.00016121607969694503 -0.0036415544772250004 0 -3.3690864278456743e-05 -0.0047812980267010596 0 -4.6810445213128497e-05 -0.0047894928235975845 0 -7.8333426597975691e-05 -0.0048128594517827597 0 -3.3690864278456743e-05 -0.0047812980267010596 0 -7.8333426597975691e-05 -0.0048128594517827597 0 -0.0001040585399495068 -0.0048220632311848227 0 -6.1779320175187001e-05 -0.004135783467702399 0 -0.00015078274292254073 -0.0042841880321701662 0 -7.8333426597975691e-05 -0.0048128594517827597 0 -0.0001040585399495068 -0.0048220632311848227 0 -9.6414049385335314e-05 -0.0048171153738179153 0 -0.0001040585399495068 -0.0048220632311848227 0 -9.6414049385335314e-05 -0.0048171153738179153 0 -0.0001125727344399607 -0.0047963115739702135 0 -9.6414049385335314e-05 -0.0048171153738179153 0 -0.0001125727344399607 -0.0047963115739702135 0 -8.3145638947038363e-05 -0.0048310527338012816 0 -7.8333426597975691e-05 -0.0048128594517827597 0 -9.6414049385335314e-05 -0.0048171153738179153 0 -8.3145638947038363e-05 -0.0048310527338012816 0 2.4883407088190169e-05 -0.0035706930040408655 0 -4.8813721978494738e-05 -0.0036697449451348631 0 3.6341149775647054e-05 -0.003739875085227658 0 2.4883407088190169e-05 -0.0035706930040408655 0 -4.8813721978494738e-05 -0.0036697449451348631 0 -7.6527438188344802e-05 -0.0035845531532867777 0 -4.8813721978494738e-05 -0.0036697449451348631 0 -7.6527438188344802e-05 -0.0035845531532867777 0 -0.00016121607969694503 -0.0036415544772250004 0 -0.00014714267127157086 -0.0035265126351497079 0 -7.6527438188344802e-05 -0.0035845531532867777 0 -0.00016121607969694503 -0.0036415544772250004 0 -0.00030724117264511954 -0.0037575939509261725 0 -8.3254869899935952e-05 -0.0038342014775160083 0 -0.00014938253496572383 -0.0040273425599719522 0 -4.8813721978494738e-05 -0.0036697449451348631 0 -0.00016121607969694503 -0.0036415544772250004 0 -8.3254869899935952e-05 -0.0038342014775160083 0 -0.00030724117264511954 -0.0037575939509261725 0 -0.00016121607969694503 -0.0036415544772250004 0 -8.3254869899935952e-05 -0.0038342014775160083 0 -4.8813721978494738e-05 -0.0036697449451348631 0 -8.3254869899935952e-05 -0.0038342014775160083 0 3.6341149775647054e-05 -0.003739875085227658 0 -8.3254869899935952e-05 -0.0038342014775160083 0 3.6341149775647054e-05 -0.003739875085227658 0 5.2481954341626478e-05 -0.0038914283199631915 0 1.8798964536794756e-05 -0.0040315165980594576 0 5.2481954341626478e-05 -0.0038914283199631915 0 0.00014621662098956805 -0.0039979835354551525 0 -8.3254869899935952e-05 -0.0038342014775160083 0 1.8798964536794756e-05 -0.0040315165980594576 0 5.2481954341626478e-05 -0.0038914283199631915 0 -8.3254869899935952e-05 -0.0038342014775160083 0 1.8798964536794756e-05 -0.0040315165980594576 0 -0.00014938253496572383 -0.0040273425599719522 0 -0.00014938253496572383 -0.0040273425599719522 0 -0.0003286607220942449 -0.004130585863161125 0 -0.0001441633271269003 -0.0043142613004986856 0 -0.00014938253496572383 -0.0040273425599719522 0 3.2188700360770095e-05 -0.0042978171334371942 0 -0.0001441633271269003 -0.0043142613004986856 0 1.8798964536794756e-05 -0.0040315165980594576 0 -0.00014938253496572383 -0.0040273425599719522 0 3.2188700360770095e-05 -0.0042978171334371942 0 1.8798964536794756e-05 -0.0040315165980594576 0 3.2188700360770095e-05 -0.0042978171334371942 0 0.00014359938519077558 -0.0041533039941732651 0 -0.0001040585399495068 -0.0048220632311848227 0 -0.0001125727344399607 -0.0047963115739702135 0 -0.00018895607248064464 -0.0047607719693637356 0 -0.00030724117264511954 -0.0037575939509261725 0 -0.00014938253496572383 -0.0040273425599719522 0 -0.0003286607220942449 -0.004130585863161125 0 -0.00015078274292254073 -0.0042841880321701662 0 -0.0001963483530521865 -0.0044164695855140532 0 -0.00018895607248064464 -0.0047607719693637356 0 -0.00013679987137397469 -0.0047348662129691344 0 -0.00017635424323296498 -0.0046436502476018228 0 -0.00013679987137397469 -0.0047348662129691344 0 -9.049080541853152e-05 -0.0047522165592661682 0 -0.0001331005906292339 -0.0046800713517909168 0 -0.0001125727344399607 -0.0047963115739702135 0 -0.00013679987137397469 -0.0047348662129691344 0 -9.049080541853152e-05 -0.0047522165592661682 0 -0.0001125727344399607 -0.0047963115739702135 0 -0.00018895607248064464 -0.0047607719693637356 0 -0.00013679987137397469 -0.0047348662129691344 0 -9.049080541853152e-05 -0.0047522165592661682 0 -7.0851129793261997e-05 -0.0048238094255587975 0 -4.3076921193895544e-05 -0.0047873789841140066 0 -0.0001125727344399607 -0.0047963115739702135 0 -9.049080541853152e-05 -0.0047522165592661682 0 -7.0851129793261997e-05 -0.0048238094255587975 0 -7.0851129793261997e-05 -0.0048238094255587975 0 -4.3076921193895544e-05 -0.0047873789841140066 0 -2.8434580869860027e-05 -0.0048468283199515714 0 -9.049080541853152e-05 -0.0047522165592661682 0 -4.3076921193895544e-05 -0.0047873789841140066 0 -4.9708463302369057e-05 -0.0047238996545323009 0 -4.3076921193895544e-05 -0.0047873789841140066 0 2.4512371165946996e-06 -0.0047544549482709296 0 -4.9708463302369057e-05 -0.0047238996545323009 0 2.4512371165946996e-06 -0.0047544549482709296 0 6.4983387967899368e-05 -0.0048070257368874152 0 -6.1719466982544258e-06 -0.0048149441622673062 0 -4.3076921193895544e-05 -0.0047873789841140066 0 2.4512371165946996e-06 -0.0047544549482709296 0 -6.1719466982544258e-06 -0.0048149441622673062 0 1.4680805307402397e-06 -0.0049200881764159083 0 -1.5584317747680766e-05 -0.0049602700141939829 0 2.8881887744352075e-06 -0.0050047860741426337 0 -2.1556805585528193e-10 -0.0049999125200201984 0 5.2952410899943699e-09 -0.0050000579482964063 0 2.8881887744352075e-06 -0.0050047860741426337 0 -1.1115387187538129e-06 -0.0049995600761517465 0 5.2952410899943699e-09 -0.0050000579482964063 0 2.4512371165946996e-06 -0.0047544549482709296 0 6.4983387967899368e-05 -0.0048070257368874152 0 7.1287214118175295e-05 -0.0047162265715234731 0 1.4680805307402397e-06 -0.0049200881764159083 0 4.8313611423865493e-06 -0.0049237070006592004 0 6.4983387967899368e-05 -0.0048070257368874152 0 -6.1719466982544258e-06 -0.0048149441622673062 0 -5.1624903311799504e-08 -0.0048756252669091265 0 2.8881887744352075e-06 -0.0050047860741426337 0 -2.1556805585528193e-10 -0.0049999125200201984 0 1.5906943631237127e-05 -0.0049618056327392851 0 6.4983387967899368e-05 -0.0048070257368874152 0 -5.1624903311799504e-08 -0.0048756252669091265 0 1.5906943631237127e-05 -0.0049618056327392851 0 -4.3076921193895544e-05 -0.0047873789841140066 0 -6.1719466982544258e-06 -0.0048149441622673062 0 -2.8434580869860027e-05 -0.0048468283199515714 0 -6.1719466982544258e-06 -0.0048149441622673062 0 -5.1624903311799504e-08 -0.0048756252669091265 0 -2.8434580869860027e-05 -0.0048468283199515714 0 -2.8434580869860027e-05 -0.0048468283199515714 0 -1.9201760216296782e-05 -0.004908855153147834 0 -4.6971100679981558e-05 -0.0048648056296400691 0 -5.1624903311799504e-08 -0.0048756252669091265 0 -1.9201760216296782e-05 -0.004908855153147834 0 1.5906943631237127e-05 -0.0049618056327392851 0 -5.1624903311799504e-08 -0.0048756252669091265 0 -2.8434580869860027e-05 -0.0048468283199515714 0 -1.9201760216296782e-05 -0.004908855153147834 0 -1.9201760216296782e-05 -0.004908855153147834 0 1.5906943631237127e-05 -0.0049618056327392851 0 -2.0455615873294518e-06 -0.0049538915365791077 0 -2.1556805585528193e-10 -0.0049999125200201984 0 1.5906943631237127e-05 -0.0049618056327392851 0 4.3635750285214311e-08 -0.0049999291263897808 0 1.5906943631237127e-05 -0.0049618056327392851 0 -2.0455615873294518e-06 -0.0049538915365791077 0 4.3635750285214311e-08 -0.0049999291263897808 0 -2.0455615873294518e-06 -0.0049538915365791077 0 4.3635750285214311e-08 -0.0049999291263897808 0 -1.2642313455439102e-05 -0.0049389551863667372 0 -2.5302828363006203e-05 -0.0048979334523435811 0 -1.2642313455439102e-05 -0.0049389551863667372 0 -3.9889936130773645e-05 -0.0048802949984757277 0 -1.9201760216296782e-05 -0.004908855153147834 0 -1.2642313455439102e-05 -0.0049389551863667372 0 -3.9889936130773645e-05 -0.0048802949984757277 0 -1.9201760216296782e-05 -0.004908855153147834 0 -2.0455615873294518e-06 -0.0049538915365791077 0 -1.2642313455439102e-05 -0.0049389551863667372 0 -3.1667715718660445e-05 -0.0048512794358446026 0 -3.9889936130773645e-05 -0.0048802949984757277 0 -6.8516352436499343e-05 -0.0048333714136700578 0 -3.9889936130773645e-05 -0.0048802949984757277 0 -6.4898614071201943e-05 -0.0048490520980758395 0 -4.6971100679981558e-05 -0.0048648056296400691 0 -3.9889936130773645e-05 -0.0048802949984757277 0 -6.8516352436499343e-05 -0.0048333714136700578 0 -6.4898614071201943e-05 -0.0048490520980758395 0 -0.00010137415314547315 -0.0047689652882619595 0 -8.2167957225532523e-05 -0.004815132389249425 0 -6.8516352436499343e-05 -0.0048333714136700578 0 -8.2167957225532523e-05 -0.004815132389249425 0 -6.8516352436499343e-05 -0.0048333714136700578 0 -8.3145638947038363e-05 -0.0048310527338012816 0 -6.8516352436499343e-05 -0.0048333714136700578 0 -6.4898614071201943e-05 -0.0048490520980758395 0 -8.3145638947038363e-05 -0.0048310527338012816 0 -0.0001125727344399607 -0.0047963115739702135 0 -7.0851129793261997e-05 -0.0048238094255587975 0 -8.3145638947038363e-05 -0.0048310527338012816 0 -7.0851129793261997e-05 -0.0048238094255587975 0 -6.4898614071201943e-05 -0.0048490520980758395 0 -8.3145638947038363e-05 -0.0048310527338012816 0 -7.0851129793261997e-05 -0.0048238094255587975 0 -6.4898614071201943e-05 -0.0048490520980758395 0 -4.6971100679981558e-05 -0.0048648056296400691 0 -7.0851129793261997e-05 -0.0048238094255587975 0 -2.8434580869860027e-05 -0.0048468283199515714 0 -4.6971100679981558e-05 -0.0048648056296400691 0 -1.9201760216296782e-05 -0.004908855153147834 0 -3.9889936130773645e-05 -0.0048802949984757277 0 -4.6971100679981558e-05 -0.0048648056296400691 0 -1.6368038593649496e-05 -0.0028630909801027004 0 -2.3230716038823276e-05 -0.0029446935479086498 0 2.3415493101706543e-05 -0.0029249307290963025 0 -1.6368038593649496e-05 -0.0028630909801027004 0 -4.9228060780478595e-05 -0.0029358127718033104 0 -2.3230716038823276e-05 -0.0029446935479086498 0 -1.6368038593649496e-05 -0.0028630909801027004 0 2.3415493101706543e-05 -0.0029249307290963025 0 2.6545841508701067e-05 -0.002838841708766473 0 -1.6368038593649496e-05 -0.0028630909801027004 0 -4.9228060780478595e-05 -0.0029358127718033104 0 -4.9813649970404686e-05 -0.0028636772751125376 0 -4.9228060780478595e-05 -0.0029358127718033104 0 -4.9813649970404686e-05 -0.0028636772751125376 0 -6.1270522056550917e-05 -0.0029681295849744763 0 -4.9813649970404686e-05 -0.0028636772751125376 0 -1.5586844004368676e-05 -0.0026608668627836319 0 7.2356037108410113e-06 -0.0027538508752905739 0 -1.6368038593649496e-05 -0.0028630909801027004 0 -4.9813649970404686e-05 -0.0028636772751125376 0 7.2356037108410113e-06 -0.0027538508752905739 0 -1.6368038593649496e-05 -0.0028630909801027004 0 7.2356037108410113e-06 -0.0027538508752905739 0 2.6545841508701067e-05 -0.002838841708766473 0 -1.5586844004368676e-05 -0.0026608668627836319 0 -5.2787220310848544e-08 -0.0026945646959497089 0 -3.9009341289516869e-08 -0.0024015107658616917 0 -1.5586844004368676e-05 -0.0026608668627836319 0 -5.2787220310848544e-08 -0.0026945646959497089 0 -3.3535407368445153e-05 -0.0028523810947932338 0 -4.9813649970404686e-05 -