<?xml version="1.0"?>
<VTKFile type="UnstructuredGrid" version="0.1" byte_order="LittleEndian">
<UnstructuredGrid>
<Piece NumberOfPoints="30881" NumberOfCells="10862">
<Points>
<DataArray type="Float64" NumberOfComponents="3" format="ascii">
-0.49999999999999828 -0.48677703703187492 0 -0.5 -0.5 0 -0.48129281494584059 -0.49338851851593718 0 -0.5 -0.5 0 -0.48129281494584059 -0.49338851851593718 0 -0.46258562989168328 -0.5 0 -0.49999999999999828 -0.48677703703187492 0 -0.48129281494584059 -0.49338851851593718 0 -0.49999999999999828 -0.48677703703187492 0 -0.4824545428279598 -0.47451624516148783 0 -0.48129281494584059 -0.49338851851593718 0 -0.49999999999999828 -0.48677703703187492 0 -0.4824545428279598 -0.47451624516148783 0 -0.5 -0.46599539173150673 0 -0.4824545428279598 -0.47451624516148783 0 -0.46853075243710779 -0.48354990242643758 0 -0.46411508256092049 -0.46598235294430129 0 -0.4824545428279598 -0.47451624516148783 0 -0.48129281494584059 -0.49338851851593718 0 -0.46853075243710779 -0.48354990242643758 0 -0.48129281494584059 -0.49338851851593718 0 -0.46258562989168328 -0.5 0 -0.48129281494584059 -0.49338851851593718 0 -0.46258562989168328 -0.5 0 -0.46853075243710779 -0.48354990242643758 0 -0.46258562989168328 -0.5 0 -0.46853075243710779 -0.48354990242643758 0 -0.45147378687733691 -0.48362213557840178 0 -0.46853075243710779 -0.48354990242643758 0 -0.45147378687733691 -0.48362213557840178 0 -0.46411508256092049 -0.46598235294430129 0 -0.4457251648104853 -0.47020164095208389 0 -0.45147378687733691 -0.48362213557840178 0 -0.46411508256092049 -0.46598235294430129 0 -0.4457251648104853 -0.47020164095208389 0 -0.45147378687733691 -0.48362213557840178 0 -0.43513446131126993 -0.48199891714758791 0 -0.45147378687733691 -0.48362213557840178 0 -0.43275163025255442 -0.5 0 -0.43513446131126993 -0.48199891714758791 0 -0.46258562989168328 -0.5 0 -0.45147378687733691 -0.48362213557840178 0 -0.43275163025255442 -0.5 0 -0.4467190029717853 -0.45478934699519452 0 -0.4422915115958943 -0.43555510214664611 0 -0.43246707723660932 -0.44794326854796312 0 -0.4457251648104853 -0.47020164095208389 0 -0.4467190029717853 -0.45478934699519452 0 -0.46411508256092049 -0.46598235294430129 0 -0.4457251648104853 -0.47020164095208389 0 -0.4467190029717853 -0.45478934699519452 0 -0.43016578207734568 -0.46313500011938619 0 -0.4467190029717853 -0.45478934699519452 0 -0.46411508256092049 -0.46598235294430129 0 -0.47114575579794699 -0.4403844242888923 0 -0.4467190029717853 -0.45478934699519452 0 -0.47114575579794699 -0.4403844242888923 0 -0.4422915115958943 -0.43555510214664611 0 -0.47114575579794699 -0.4403844242888923 0 -0.4422915115958943 -0.43555510214664611 0 -0.46411508256092049 -0.46598235294430129 0 -0.47114575579794699 -0.4403844242888923 0 -0.48354307623736548 -0.45841843211146538 0 -0.4824545428279598 -0.47451624516148783 0 -0.46411508256092049 -0.46598235294430129 0 -0.48354307623736548 -0.45841843211146538 0 -0.4824545428279598 -0.47451624516148783 0 -0.48354307623736548 -0.45841843211146538 0 -0.5 -0.46599539173150673 0 -0.48354307623736548 -0.45841843211146538 0 -0.5 -0.46599539173150673 0 -0.49999999999999972 -0.44521374643113848 0 -0.47114575579794699 -0.4403844242888923 0 -0.49999999999999972 -0.44521374643113848 0 -0.47114575579794699 -0.4403844242888923 0 -0.49999999999999972 -0.44521374643113848 0 -0.48704432221743971 -0.42935617662229603 0 -0.47114575579794699 -0.4403844242888923 0 -0.48354307623736548 -0.45841843211146538 0 -0.49999999999999972 -0.44521374643113848 0 -0.49999999999999972 -0.44521374643113848 0 -0.48704432221743971 -0.42935617662229603 0 -0.5 -0.41591957503128979 0 -0.48704432221743971 -0.42935617662229603 0 -0.5 -0.41591957503128979 0 -0.47703153307181151 -0.41590696073786332 0 -0.5 -0.41591957503128979 0 -0.47703153307181151 -0.41590696073786332 0 -0.48817838912021821 -0.4022119694541284 0 -0.47114575579794699 -0.4403844242888923 0 -0.48704432221743971 -0.42935617662229603 0 -0.47703153307181151 -0.41590696073786332 0 -0.5 -0.38662540363144121 0 -0.47568202340906118 -0.39039593841591919 0 -0.4947615751445838 -0.37332156409002909 0 -0.47568202340906118 -0.39039593841591919 0 -0.4947615751445838 -0.37332156409002909 0 -0.5 -0.38662540363144121 0 -0.48817838912021821 -0.4022119694541284 0 -0.47568202340906118 -0.39039593841591919 0 -0.5 -0.41591957503128979 0 -0.5 -0.38662540363144121 0 -0.48817838912021821 -0.4022119694541284 0 -0.47703153307181151 -0.41590696073786332 0 -0.48817838912021821 -0.4022119694541284 0 -0.47568202340906118 -0.39039593841591919 0 -0.47703153307181151 -0.41590696073786332 0 -0.47568202340906118 -0.39039593841591919 0 -0.45660247167353862 -0.40747031274180939 0 -0.47568202340906118 -0.39039593841591919 0 -0.48030931097003587 -0.37191064435083931 0 -0.46669490250066459 -0.37481721741951951 0 -0.47568202340906118 -0.39039593841591919 0 -0.4947615751445838 -0.37332156409002909 0 -0.48030931097003587 -0.37191064435083931 0 -0.45332061783919553 -0.38729481725706361 0 -0.46669490250066459 -0.37481721741951951 0 -0.45095991715087752 -0.36968037302039969 0 -0.47568202340906118 -0.39039593841591919 0 -0.45332061783919553 -0.38729481725706361 0 -0.46669490250066459 -0.37481721741951951 0 -0.47568202340906118 -0.39039593841591919 0 -0.45660247167353862 -0.40747031274180939 0 -0.47568202340906118 -0.39039593841591919 0 -0.45332061783919553 -0.38729481725706361 0 -0.45660247167353862 -0.40747031274180939 0 -0.44332653075004852 -0.401690115615219 0 -0.44646247228389868 -0.41654464256061052 0 -0.42870657106664078 -0.39987574649354879 0 -0.45332061783919553 -0.38729481725706361 0 -0.44332653075004852 -0.401690115615219 0 -0.43479631603355468 -0.39077639303142497 0 -0.45332061783919553 -0.38729481725706361 0 -0.44332653075004852 -0.401690115615219 0 -0.45660247167353862 -0.40747031274180939 0 -0.45332061783919553 -0.38729481725706361 0 -0.43421362475025049 -0.37527491429266319 0 -0.43479631603355468 -0.39077639303142497 0 -0.45332061783919553 -0.38729481725706361 0 -0.43421362475025049 -0.37527491429266319 0 -0.45095991715087752 -0.36968037302039969 0 -0.47114575579794699 -0.4403844242888923 0 -0.45663439814062529 -0.42533932462455271 0 -0.4422915115958943 -0.43555510214664611 0 -0.47114575579794699 -0.4403844242888923 0 -0.47703153307181151 -0.41590696073786332 0 -0.45663439814062529 -0.42533932462455271 0 -0.45663439814062529 -0.42533932462455271 0 -0.45660247167353862 -0.40747031274180939 0 -0.44646247228389868 -0.41654464256061052 0 -0.47703153307181151 -0.41590696073786332 0 -0.45663439814062529 -0.42533932462455271 0 -0.45660247167353862 -0.40747031274180939 0 -0.44332653075004852 -0.401690115615219 0 -0.45660247167353862 -0.40747031274180939 0 -0.44646247228389868 -0.41654464256061052 0 -0.45660247167353862 -0.40747031274180939 0 -0.44646247228389868 -0.41654464256061052 0 -0.44646247228389868 -0.41654464256061052 0 -0.4375229199380159 -0.42454468706769971 0 -0.45663439814062529 -0.42533932462455271 0 -0.4375229199380159 -0.42454468706769971 0 -0.4422915115958943 -0.43555510214664611 0 -0.45663439814062529 -0.42533932462455271 0 -0.44646247228389868 -0.41654464256061052 0 -0.4375229199380159 -0.42454468706769971 0 -0.4375229199380159 -0.42454468706769971 0 -0.4422915115958943 -0.43555510214664611 0 -0.43077617074680319 -0.43406335077952207 0 -0.43077617074680319 -0.43406335077952207 0 -0.42550232634077589 -0.42345940056268039 0 -0.41950844772475421 -0.43888456563633732 0 -0.4375229199380159 -0.42454468706769971 0 -0.43077617074680319 -0.43406335077952207 0 -0.42550232634077589 -0.42345940056268039 0 -0.44646247228389868 -0.41654464256061052 0 -0.41657232816672918 -0.41306671883907142 0 -0.42870657106664078 -0.39987574649354879 0 -0.44646247228389868 -0.41654464256061052 0 -0.4375229199380159 -0.42454468706769971 0 -0.42550232634077589 -0.42345940056268039 0 -0.44646247228389868 -0.41654464256061052 0 -0.42550232634077589 -0.42345940056268039 0 -0.41657232816672918 -0.41306671883907142 0 -0.44646247228389868 -0.41654464256061052 0 -0.41657232816672918 -0.41306671883907142 0 -0.42550232634077589 -0.42345940056268039 0 -0.41657232816672918 -0.41306671883907142 0 -0.41333489101611293 -0.42699700567040988 0 -0.41657232816672918 -0.41306671883907142 0 -0.41333489101611293 -0.42699700567040988 0 -0.39893236021425188 -0.42931692235905211 0 -0.41333489101611293 -0.42699700567040988 0 -0.39893236021425188 -0.42931692235905211 0 -0.41950844772475421 -0.43888456563633732 0 -0.42550232634077589 -0.42345940056268039 0 -0.41333489101611293 -0.42699700567040988 0 -0.41950844772475421 -0.43888456563633732 0 -0.43421362475025049 -0.37527491429266319 0 -0.42478231784314502 -0.38643128255249681 0 -0.41656514696884139 -0.37636588688318029 0 -0.43421362475025049 -0.37527491429266319 0 -0.42478231784314502 -0.38643128255249681 0 -0.43479631603355468 -0.39077639303142497 0 -0.42478231784314502 -0.38643128255249681 0 -0.43479631603355468 -0.39077639303142497 0 -0.42870657106664078 -0.39987574649354879 0 -0.44332653075004852 -0.401690115615219 0 -0.43479631603355468 -0.39077639303142497 0 -0.42870657106664078 -0.39987574649354879 0 -0.41657232816672918 -0.41306671883907142 0 -0.40962993039643741 -0.3898634720616666 0 -0.3946356370269814 -0.39577424904278191 0 -0.42478231784314502 -0.38643128255249681 0 -0.42870657106664078 -0.39987574649354879 0 -0.40962993039643741 -0.3898634720616666 0 -0.41657232816672918 -0.41306671883907142 0 -0.42870657106664078 -0.39987574649354879 0 -0.40962993039643741 -0.3898634720616666 0 -0.42478231784314502 -0.38643128255249681 0 -0.40962993039643741 -0.3898634720616666 0 -0.41656514696884139 -0.37636588688318029 0 -0.40962993039643741 -0.3898634720616666 0 -0.41656514696884139 -0.37636588688318029 0 -0.40465459864295228 -0.37650109000307358 0 -0.39431275766669582 -0.38061373190328529 0 -0.40465459864295228 -0.37650109000307358 0 -0.3968495855878465 -0.36923685638487008 0 -0.40962993039643741 -0.3898634720616666 0 -0.39431275766669582 -0.38061373190328529 0 -0.40465459864295228 -0.376501090003
[...]
<PointData Scalars="" Vectors="displacement," Tensors="">
<DataArray type="Float64" Name="displacement" NumberOfComponents="3" format="ascii">
-0.0048682209356786009 -0.0049999171348643623 0 -0.0049997368365692994 -0.0049999799600845092 0 -0.0050394874799987548 -0.0048349095444892368 0 -0.0049997368365692994 -0.0049999799600845092 0 -0.0050394874799987548 -0.0048349095444892368 0 -0.0050000749758996607 -0.0046259793182149185 0 -0.0048679754165251547 -0.0049996559476358443 0 -0.0049310920936391439 -0.004809295491961187 0 -0.0048673681861641669 -0.0049997879434360562 0 -0.0047658503019856772 -0.0048392153113545932 0 -0.0047904437982909213 -0.0047731672384892492 0 -0.0048673681861641669 -0.0049997879434360562 0 -0.0047658503019856772 -0.0048392153113545932 0 -0.0046599989078618224 -0.0049998296333354586 0 -0.0047658503019856772 -0.0048392153113545932 0 -0.0048246926215589764 -0.0046823976009747323 0 -0.0047484625196268313 -0.0046775848416269108 0 -0.0047658503019856772 -0.0048392153113545932 0 -0.0047904437982909213 -0.0047731672384892492 0 -0.0048246926215589764 -0.0046823976009747323 0 -0.0049310920936391439 -0.004809295491961187 0 -0.0049997792904250583 -0.0046261883149363988 0 -0.0047904437982909213 -0.0047731672384892492 0 -0.004999319575634046 -0.0046257339842239202 0 -0.0048246926215589764 -0.0046823976009747323 0 -0.004999319575634046 -0.0046257339842239202 0 -0.0048246926215589764 -0.0046823976009747323 0 -0.0048765566963190881 -0.0045606852179593364 0 -0.0048246926215589764 -0.0046823976009747323 0 -0.0048765566963190881 -0.0045606852179593364 0 -0.0047484625196268313 -0.0046775848416269108 0 -0.0047946498119175382 -0.0045538897328559489 0 -0.0048765566963190881 -0.0045606852179593364 0 -0.0047484625196268313 -0.0046775848416269108 0 -0.0047946498119175382 -0.0045538897328559489 0 -0.0048765566963190881 -0.0045606852179593364 0 -0.0048802869064285713 -0.0044349993822107477 0 -0.0048765566963190881 -0.0045606852179593364 0 -0.0049999038167290238 -0.004327781361545391 0 -0.0048802869064285713 -0.0044349993822107477 0 -0.004999319575634046 -0.0046257339842239202 0 -0.0048765566963190881 -0.0045606852179593364 0 -0.0049999038167290238 -0.004327781361545391 0 -0.0047069654074797214 -0.00460505707714486 0 -0.0045354482926995131 -0.004676262723957522 0 -0.0046355605350106195 -0.0045771592089791403 0 -0.0047946498119175382 -0.0045538897328559489 0 -0.0047069654074797214 -0.00460505707714486 0 -0.0047484625196268313 -0.0046775848416269108 0 -0.0047946498119175382 -0.0045538897328559489 0 -0.0047069654074797214 -0.00460505707714486 0 -0.0047379403045192184 -0.0045021924442031824 0 -0.0047069654074797214 -0.00460505707714486 0 -0.0047484625196268313 -0.0046775848416269108 0 -0.0047206738509173772 -0.0047273621860614221 0 -0.0047069654074797214 -0.00460505707714486 0 -0.0047206738509173772 -0.0047273621860614221 0 -0.0045354482926995131 -0.004676262723957522 0 -0.0044902373326857438 -0.0048773718909555031 0 -0.0045022242282986881 -0.0048333183551483071 0 -0.0047484625196268313 -0.0046775848416269108 0 -0.0047206738509173772 -0.0047273621860614221 0 -0.0046650210027476156 -0.0048671540005630291 0 -0.0047658503019856772 -0.0048392153113545932 0 -0.0047484625196268313 -0.0046775848416269108 0 -0.0046650210027476156 -0.0048671540005630291 0 -0.0047658503019856772 -0.0048392153113545932 0 -0.0046650210027476156 -0.0048671540005630291 0 -0.0046599989078618224 -0.0049998296333354586 0 -0.0046650210027476156 -0.0048671540005630291 0 -0.0046599989078618224 -0.0049998296333354586 0 -0.0044527810895938569 -0.0049998344589801159 0 -0.0044902373326857438 -0.0048773718909555031 0 -0.0044522045178299061 -0.0049998097125327958 0 -0.0043130320473032946 -0.0050266368598629362 0 -0.0044518455979189481 -0.0049999661050484203 0 -0.004300006228085634 -0.0050346191772612453 0 -0.0047206738509173772 -0.0047273621860614221 0 -0.0046650210027476156 -0.0048671540005630291 0 -0.0044527810895938569 -0.0049998344589801159 0 -0.0044518455979189481 -0.0049999661050484203 0 -0.004300006228085634 -0.0050346191772612453 0 -0.0041593947918254805 -0.0049999016897747366 0 -0.004300006228085634 -0.0050346191772612453 0 -0.0041593947918254805 -0.0049999016897747366 0 -0.0042804985248666803 -0.0050346683552041516 0 -0.0041593947918254805 -0.0049999016897747366 0 -0.0042804985248666803 -0.0050346683552041516 0 -0.0040947736757808786 -0.0050342036419719367 0 -0.0043130320473032946 -0.0050266368598629362 0 -0.004300006228085634 -0.0050346191772612453 0 -0.0042804985248666803 -0.0050346683552041516 0 -0.0038664342942624397 -0.0049999240680892081 0 -0.0040525731845545507 -0.0050943101117667091 0 -0.0037577477444876834 -0.0050411569311523061 0 -0.0040418866682480703 -0.0050065870296153499 0 -0.0039592233502110481 -0.0049808757295390065 0 -0.0038664342942624397 -0.0049999240680892081 0 -0.0040947736757808786 -0.0050342036419719367 0 -0.0040525731845545507 -0.0050943101117667091 0 -0.0041593947918254805 -0.0049999016897747366 0 -0.0038664342942624397 -0.0049999240680892081 0 -0.0040947736757808786 -0.0050342036419719367 0 -0.0042804985248666803 -0.0050346683552041516 0 -0.0040947736757808786 -0.0050342036419719367 0 -0.0040525731845545507 -0.0050943101117667091 0 -0.0042804985248666803 -0.0050346683552041516 0 -0.0040525731845545507 -0.0050943101117667091 0 -0.0043468276049879297 -0.0049790747573145826 0 -0.0039469032601537665 -0.0052082451766114497 0 -0.0037854078928828624 -0.0051610810771940893 0 -0.0038530588667686646 -0.0052530774779503209 0 -0.0039469032601537665 -0.0052082451766114497 0 -0.0037577477444876834 -0.0050411569311523061 0 -0.0037854078928828624 -0.0051610810771940893 0 -0.0039486730234786927 -0.005312148386319035 0 -0.0038530588667686646 -0.0052530774779503209 0 -0.0038837715141707774 -0.005310904226618637 0 -0.0039469032601537665 -0.0052082451766114497 0 -0.0039486730234786927 -0.005312148386319035 0 -0.0038530588667686646 -0.0052530774779503209 0 -0.0040418866682480703 -0.0050065870296153499 0 -0.0041841970236213112 -0.0049918061781148021 0 -0.0039469032601537665 -0.0052082451766114497 0 -0.0039486730234786927 -0.005312148386319035 0 -0.0039857579390049826 -0.0053109476947318969 0 -0.0039754065045490327 -0.0053260975741310128 0 -0.0039541839037620348 -0.0053337722955571886 0 -0.0039726721374981943 -0.0053024600251739464 0 -0.0039486730234786927 -0.005312148386319035 0 -0.0039754065045490327 -0.0053260975741310128 0 -0.003995763682034424 -0.0053232791691909167 0 -0.0039486730234786927 -0.005312148386319035 0 -0.0039754065045490327 -0.0053260975741310128 0 -0.0039857579390049826 -0.0053109476947318969 0 -0.0039486730234786927 -0.005312148386319035 0 -0.0040010988285282129 -0.0053372114372815596 0 -0.003995763682034424 -0.0053232791691909167 0 -0.0039486730234786927 -0.005312148386319035 0 -0.0040010988285282129 -0.0053372114372815596 0 -0.0038837715141707774 -0.005310904226618637 0 -0.0043130320473032946 -0.0050266368598629362 0 -0.0044281476882432665 -0.0048918655277929383 0 -0.0045354482926995131 -0.004676262723957522 0 -0.0043130320473032946 -0.0050266368598629362 0 -0.0042804985248666803 -0.0050346683552041516 0 -0.0044281476882432665 -0.0048918655277929383 0 -0.0044281476882432665 -0.0048918655277929383 0 -0.0043468276049879297 -0.0049790747573145826 0 -0.0044678086714192034 -0.0048324404155823449 0 -0.0042804985248666803 -0.0050346683552041516 0 -0.0044281476882432665 -0.0048918655277929383 0 -0.0043468276049879297 -0.0049790747573145826 0 -0.0039754065045490327 -0.0053260975741310128 0 -0.0039857579390049826 -0.0053109476947318969 0 -0.0039541839037620348 -0.0053337722955571886 0 -0.0041841970236213112 -0.0049918061781148021 0 -0.0042784501247136982 -0.0049664631168567638 0 -0.0042784501247136982 -0.0049664631168567638 0 -0.0042799239528359375 -0.0049376581763923601 0 -0.0044281476882432665 -0.0048918655277929383 0 -0.004544880280769251 -0.0046769825567736642 0 -0.0045354482926995131 -0.004676262723957522 0 -0.0044281476882432665 -0.0048918655277929383 0 -0.0044678086714192034 -0.0048324404155823449 0 -0.004544880280769251 -0.0046769825567736642 0 -0.004544880280769251 -0.0046769825567736642 0 -0.0045354482926995131 -0.004676262723957522 0 -0.0045619973617973967 -0.0046057408954338118 0 -0.0045619973617973967 -0.0046057408954338118 0 -0.0045626950019538193 -0.0045845040357301043 0 -0.0045859778483248797 -0.0045382915924712212 0 -0.004544880280769251 -0.0046769825567736642 0 -0.0045619973617973967 -0.0046057408954338118 0 -0.0045626950019538193 -0.0045845040357301043 0 -0.0039541839037620348 -0.0053337722955571886 0 -0.0038897234022147553 -0.005239116928219655 0 -0.0039726721374981943 -0.0053024600251739464 0 -0.0046060158260249453 -0.00473119535152609 0 -0.004544880280769251 -0.0046769825567736642 0 -0.0045626950019538193 -0.0045845040357301043 0 -0.0046060158260249453 -0.00473119535152609 0 -0.0045626950019538193 -0.0045845040357301043 0 -0.0045923380014450061 -0.0045285048855852475 0 -0.0042784501247136982 -0.0049664631168567638 0 -0.0042440835044107884 -0.0048714339473546666 0 -0.0045626950019538193 -0.0045845040357301043 0 -0.0045923380014450061 -0.0045285048855852475 0 -0.0045602506122590248 -0.0045276826493592477 0 -0.0045923380014450061 -0.0045285048855852475 0 -0.0045602506122590248 -0.0045276826493592477 0 -0.0045339787413789887 -0.0044901264079197879 0 -0.0045602506122590248 -0.0045276826493592477 0 -0.0045339787413789887 -0.0044901264079197879 0 -0.0045859778483248797 -0.0045382915924712212 0 -0.0045626950019538193 -0.0045845040357301043 0 -0.0045602506122590248 -0.0045276826493592477 0 -0.0045859778483248797 -0.0045382915924712212 0 -0.0040010988285282129 -0.0053372114372815596 0 -0.0040386584476995117 -0.0052975436985718948 0 -0.004112754484695268 -0.0052843147333614133 0 -0.0040010988285282129 -0.0053372114372815596 0 -0.0040386584476995117 -0.0052975436985718948 0 -0.003995763682034424 -0.0053232791691909167 0 -0.0040386584476995117 -0.0052975436985718948 0 -0.003995763682034424 -0.0053232791691909167 0 -0.0039726721374981943 -0.0053024600251739464 0 -0.0039754065045490327 -0.0053260975741310128 0 -0.003995763682034424 -0.0053232791691909167 0 -0.0039726721374981943 -0.0053024600251739464 0 -0.0038897234022147553 -0.005239116928219655 0 -0.0040679853187010531 -0.0051829456406133094 0 -0.0040544938093358129 -0.0049783042394454186 0 -0.0040386584476995117 -0.0052975436985718948 0 -0.0039726721374981943 -0.0053024600251739464 0 -0.0040679853187010531 -0.0051829456406133094 0 -0.0038897234022147553 -0.005239116928219655 0 -0.0039726721374981943 -0.0053024600251739464 0 -0.0040679853187010531 -0.0051829456406133094 0 -0.0040386584476995117 -0.0052975436985718948 0 -0.0040679853187010531 -0.0051829456406133094 0 -0.004112754484695268 -0.0052843147333614133 0 -0.0040679853187010531 -0.0051829456406133094 0 -0.004112754484695268 -0.0052843147333614133 0 -0.0041962223627639121 -0.0051511933368396613 0 -0.0042109534615321978 -0.0049867496204476225 0 -0.0041962223627639121 -0.0051511933368396613 0 -0.0043432481828475315 -0.0050395728298260178 0 -0.0040679853187010531 -0.0051829456406133094 0 -0.0042109534615321978 -0.0049867496204476225 0 -0.0041962223627639121 -0.0051511933368396613 0 -0.0040679853187010531 -0.0051829456406133094 0 -0.0042109534615321978 -0.0049867496204476225 0 -0.0040544938093358129 -0.0049783042394454186 0 -0.0040544938093358129 -0.0049783042394454186 0 -0.0039079244953256018 -0.0048547792545891545 0 -0.0041264361964146387 -0.0046650631603258148 0 -0.0040544938093358129 -0.0049783042394454186 0 -0.0042839914141576804 -0.0046657714028441911 0 -0.0041264361964146387 -0.0046650631603258148 0 -0.0042109534615321978 -0.0049867496204476225 0 -0.0040544938093358129 -0.0049783042394454186 0 -0.0042839914141576804 -0.0046657714028441911 0 -0.0042109534615321978 -0.0049867496204476225 0 -0.0042839914141576804 -0.0046657714028441911 0 -0.0043933494611193913 -0.0048402199576505081 0 -0.0045923380014450061 -0.0045285048855852475 0 -0.0045339787413789887 -0.0044901264079197879 0 -0.0044689161127838932 -0.0044670347872839663 0 -0.0038897234022147553 -0.005239116928219655 0 -0.0040544938093358129 -0.0049783042394454186 0 -0.0039079244953256018 -0.0048547792545891545 0 -0.0042440835044107884 -0.0048714339473546666 0 -0.0042197274871555723 -0.0047462395291836129 0 -0.0044689161127838932 -0.0044670347872839663 0 -0.0044814393433173739 -0.0044846415789112767 0 -0.0043658155585972625 -0.0044912579730221605 0 -0.0044814393433173739 -0.0044846415789112767 0 -0.0045660423048518896 -0.0045025066407849371 0 -0.004470378597485703 -0.0045097889362769334 0 -0.0045339787413789887 -0.0044901264079197879 0 -0.0044814393433173739 -0.0044846415789112767 0 -0.0045660423048518896 -0.0045025066407849371 0 -0.0045339787413789887 -0.0044901264079197879 0 -0.0044689161127838932 -0.0044670347872839663 0 -0.0044814393433173739 -0.0044846415789112767 0 -0.0045660423048518896 -0.0045025066407849371 0 -0.0046258987070286724 -0.0044897576720746646 0 -0.0046850370893978515 -0.0045038410889417539 0 -0.0045339787413789887 -0.0044901264079197879 0 -0.0045660423048518896 -0.0045025066407849371 0 -0.0046258987070286724 -0.0044897576720746646 0 -0.0046258987070286724 -0.0044897576720746646 0 -0.0046850370893978515 -0.0045038410889417539 0 -0.0047483259744762309 -0.0044544408498413115 0 -0.0045660423048518896 -0.0045025066407849371 0 -0.0046850370893978515 -0.0045038410889417539 0 -0.0046526700467296655 -0.0045518482863405015 0 -0.0046850370893978515 -0.0045038410889417539 0 -0.0047719945181907654 -0.004547156505698772 0 -0.0046526700467296655 -0.0045518482863405015 0 -0.0047719945181907654 -0.004547156505698772 0 -0.0049025291974059545 -0.0045025258503548172 0 -0.0047843049803834 -0.0044843000529382329 0 -0.0046850370893978515 -0.0045038410889417539 0 -0.0047719945181907654 -0.004547156505698772 0 -0.0047843049803834 -0.0044843000529382329 0 -0.0049547338963579126 -0.0040705127108208606 0 -0.0049284200047169996 -0.0038247141853406073 0 -0.0050766186780029426 -0.003913911038221249 0 -0.0049998454704915955 -0.0040294649590971454 0 -0.00500008990456408 -0.0037306705212551148 0 -0.0050766186780029426 -0.003913911038221249 0 -0.0050562554536384714 -0.0037059134729378008 0 -0.00500008990456408 -0.0037306705212551148 0 -0.0047719945181907654 -0.004547156505698772 0 -0.0049025291974059545 -0.0045025258503548172 0 -0.0048727651905852267 -0.004602069326552086 0 -0.0049547338963579126 -0.0040705127108208606 0 -0.0049614659418504327 -0.00411911818915741 0 -0.0049025291974059545 -0.0045025258503548172 0 -0.0047843049803834 -0.0044843000529382329 0 -0.0048389723863007956 -0.004404876436229819 0 -0.0050766186780029426 -0.003913911038221249 0 -0.0049998454704915955 -0.0040294649590971454 0 -0.0049878218972098489 -0.0042373029165276932 0 -0.0049025291974059545 -0.0045025258503548172 0 -0.0048389723863007956 -0.004404876436229819 0 -0.0049878218972098489 -0.0042373029165276932 0 -0.0046850370893978515 -0.0045038410889417539 0 -0.0047843049803834 -0.0044843000529382329 0 -0.0047483259744762309 -0.0044544408498413115 0 -0.0047843049803834 -0.0044843000529382329 0 -0.0048389723863007956 -0.004404876436229819 0 -0.0047483259744762309 -0.0044544408498413115 0 -0.0047483259744762309 -0.0044544408498413115 0 -0.0048197682347866904 -0.004391736882191858 0 -0.0047087795478026112 -0.0044650364278988972 0 -0.0048389723863007956 -0.004404876436229819 0 -0.0048197682347866904 -0.004391736882191858 0 -0.0049878218972098489 -0.0042373029165276932 0 -0.0048389723863007956 -0.004404876436229819 0 -0.0047483259744762309 -0.0044544408498413115 0 -0.0048197682347866904 -0.004391736882191858 0 -0.0048197682347866904 -0.004391736882191858 0 -0.0049878218972098489 -0.0042373029165276932 0 -0.0049304591330404891 -0.0043443215554617902 0 -0.0049998454704915955 -0.0040294649590971454 0 -0.0049878218972098489 -0.0042373029165276932 0 -0.0049999038167290238 -0.004327781361545391 0 -0.0049878218972098489 -0.0042373029165276932 0 -0.0049304591330404891 -0.0043443215554617902 0 -0.0049999038167290238 -0.004327781361545391 0 -0.0049304591330404891 -0.0043443215554617902 0 -0.0049999038167290238 -0.004327781361545391 0 -0.0048802869064285713 -0.0044349993822107477 0 -0.0047946498119175382 -0.0045538897328559489 0 -0.0048802869064285713 -0.0044349993822107477 0 -0.0047379403045192184 -0.0045021924442031824 0 -0.0048197682347866904 -0.004391736882191858 0 -0.0048802869064285713 -0.0044349993822107477 0 -0.0047379403045192184 -0.0045021924442031824 0 -0.0048197682347866904 -0.004391736882191858 0 -0.0049304591330404891 -0.0043443215554617902 0 -0.0048802869064285713 -0.0044349993822107477 0 -0.0047069654074797214 -0.00460505707714486 0 -0.0047379403045192184 -0.0045021924442031824 0 -0.0046355605350106195 -0.0045771592089791403 0 -0.0047379403045192184 -0.0045021924442031824 0 -0.0046518775699358056 -0.0045124736217976571 0 -0.0047087795478026112 -0.0044650364278988972 0 -0.0047379403045192184 -0.0045021924442031824 0 -0.0046355605350106195 -0.0045771592089791403 0 -0.0046518775699358056 -0.0045124736217976571 0 -0.0045354482926995131 -0.004676262723957522 0 -0.0045619973617973967 -0.0046057408954338118 0 -0.0046355605350106195 -0.0045771592089791403 0 -0.0045619973617973967 -0.0046057408954338118 0 -0.0046355605350106195 -0.0045771592089791403 0 -0.0045859778483248797 -0.0045382915924712212 0 -0.0046355605350106195 -0.0045771592089791403 0 -0.0046518775699358056 -0.0045124736217976571 0 -0.0045859778483248797 -0.0045382915924712212 0 -0.0045339787413789887 -0.0044901264079197879 0 -0.0046258987070286724 -0.0044897576720746646 0 -0.0045859778483248797 -0.0045382915924712212 0 -0.0046258987070286724 -0.0044897576720746646 0 -0.0046518775699358056 -0.0045124736217976571 0 -0.0045859778483248797 -0.0045382915924712212 0 -0.0046258987070286724 -0.0044897576720746646 0 -0.0046518775699358056 -0.0045124736217976571 0 -0.0047087795478026112 -0.0044650364278988972 0 -0.0046258987070286724 -0.0044897576720746646 0 -0.0047483259744762309 -0.0044544408498413115 0 -0.0047087795478026112 -0.0044650364278988972 0 -0.0048197682347866904 -0.004391736882191858 0 -0.0047379403045192184 -0.0045021924442031824 0 -0.0047087795478026112 -0.0044650364278988972 0 -0.0025502933200476584 -0.0055129158554048027 0 -0.0026043423912744832 -0.0057334585180805727 0 -0.0024457661511690454 -0.0056674373310477751 0 -0.0025502933200476584 -0.0055129158554048027 0 -0.0027457317164382039 -0.0056479021090370439 0 -0.0026043423912744832 -0.0057334585180805727 0 -0.0025502933200476584 -0.0055129158554048027 0 -0.0024457661511690454 -0.0056674373310477751 0 -0.002442736795035465 -0.005502312232555576 0 -0.0025502933200476584 -0.0055129158554048027 0 -0.0027457317164382039 -0.0056479021090370439 0 -0.00271638643903142 -0.0053801820437850015 0 -0.0027457317164382039 -0.0056479021090370439 0 -0.00271638643903142 -0.0053801820437850015 0 -0.0029493818320432074 -0.0055345485287326976 0 -0.00271638643903142 -0.0053801820437850015 0 -0.0025391799774849349 -0.0051806353031695835 0 -0.0024564865174231654 -0.0053760870750595513 0 -0.0025502933200476584 -0.0055129158554048027 0 -0.00271638643903142 -0.0053801820437850015 0 -0.0024564865174231654 -0.0053760870750595513 0 -0.0025502933200476584 -0.0055129158554048027 0 -0.0024564865174231654 -0.0053760870750595513 0 -0.002442736795035465 -0.005502312232555576 0 -0.0025391799774849349 -0.0051806353031695835 0 -0.002694502336234274 -0.0050000017914625999 0 -0.0024014372989476359 -0.0049999368320062677 0 -0.0025391799774849349 -0.0051806353031695835 0 -0.002694502336234274 -0.0050000017914625999 0 -0.0028113619765348184 -0.0051651969313765969 0 -0.00271638643903142 -0.0053801820437850015 0 -0.0025391799774849349 -0.0051806353031695835 0 -0.0028113619765348184 -0.0051651969313765969 0 -0.00271638643903142 -0.0053801820437850015 0 -0.0028113619765348184 -0.0051651969313765969 0 -0.0030048595145044416 -0.0052903481182179591 0 -0.0028113619765348184 -0.0051651969313765969 0 -0.0029874470706095185 -0.0049999721983620873 0 -0.00300485