<?xml version="1.0"?>
<VTKFile type="UnstructuredGrid" version="0.1" byte_order="LittleEndian">
<UnstructuredGrid>
<Piece NumberOfPoints="29298" NumberOfCells="10292">
<Points>
<DataArray type="Float64" NumberOfComponents="3" format="ascii">
-0.5 -0.5 0 -0.46041872417458801 -0.5 0 -0.46747409196672429 -0.46635237475468022 0 -0.5 -0.5 0 -0.47372258576817777 -0.43851749806451917 0 -0.5 -0.40215818236599848 0 -0.46041872417458801 -0.5 0 -0.45819951653298502 -0.47586731236597812 0 -0.44675721301359778 -0.48480373329638887 0 -0.46041872417458801 -0.5 0 -0.45819951653298502 -0.47586731236597812 0 -0.46747409196672429 -0.46635237475468022 0 -0.45819951653298502 -0.47586731236597812 0 -0.44828410186158879 -0.47258213323486548 0 -0.46452775127951579 -0.46410508109993431 0 -0.45819951653298502 -0.47586731236597812 0 -0.46747409196672429 -0.46635237475468022 0 -0.46452775127951579 -0.46410508109993431 0 -0.44828410186158879 -0.47258213323486548 0 -0.438075559351217 -0.46231173044867119 0 -0.43444593250288521 -0.48115586522433568 0 -0.45819951653298502 -0.47586731236597812 0 -0.44828410186158879 -0.47258213323486548 0 -0.44675721301359778 -0.48480373329638887 0 -0.44828410186158879 -0.47258213323486548 0 -0.44675721301359778 -0.48480373329638887 0 -0.43444593250288521 -0.48115586522433568 0 -0.46041872417458801 -0.5 0 -0.44675721301359778 -0.48480373329638887 0 -0.43081630565455131 -0.49999999999999978 0 -0.44279155480728871 -0.43782743559164239 0 -0.438075559351217 -0.46231173044867119 0 -0.44279155480728871 -0.43782743559164239 0 -0.438075559351217 -0.46231173044867119 0 -0.45500087781297488 -0.44743734919765232 0 -0.438075559351217 -0.46231173044867119 0 -0.46452775127951579 -0.46410508109993431 0 -0.44828410186158879 -0.47258213323486548 0 -0.438075559351217 -0.46231173044867119 0 -0.46452775127951579 -0.46410508109993431 0 -0.438075559351217 -0.46231173044867119 0 -0.46452775127951579 -0.46410508109993431 0 -0.45500087781297488 -0.44743734919765232 0 -0.46747409196672429 -0.46635237475468022 0 -0.46452775127951579 -0.46410508109993431 0 -0.47372258576817777 -0.43851749806451917 0 -0.46452775127951579 -0.46410508109993431 0 -0.45500087781297488 -0.44743734919765232 0 -0.47372258576817777 -0.43851749806451917 0 -0.46747409196672429 -0.46635237475468022 0 -0.47372258576817777 -0.43851749806451917 0 -0.5 -0.5 0 -0.46747409196672429 -0.46635237475468022 0 -0.47372258576817777 -0.43851749806451917 0 -0.47372258576817777 -0.43851749806451917 0 -0.47997107956963109 -0.41068262137435829 0 -0.5 -0.40215818236599848 0 -0.47372258576817777 -0.43851749806451917 0 -0.47997107956963109 -0.41068262137435829 0 -0.45990318050858159 -0.42553720605681872 0 -0.47372258576817777 -0.43851749806451917 0 -0.47997107956963109 -0.41068262137435829 0 -0.47997107956963109 -0.41068262137435829 0 -0.48621957337108462 -0.38284774468419719 0 -0.5 -0.40215818236599848 0 -0.47997107956963109 -0.41068262137435829 0 -0.48621957337108462 -0.38284774468419719 0 -0.47997107956963109 -0.41068262137435829 0 -0.48621957337108462 -0.38284774468419719 0 -0.46061798818106148 -0.38950224539549477 0 -0.48621957337108462 -0.38284774468419719 0 -0.46061798818106148 -0.38950224539549477 0 -0.46314646492496542 -0.36348021062215441 0 -0.46061798818106148 -0.38950224539549477 0 -0.45295563401162209 -0.37624745073812571 0 -0.46314646492496542 -0.36348021062215441 0 -0.46061798818106148 -0.38950224539549477 0 -0.46314646492496542 -0.36348021062215441 0 -0.46061798818106148 -0.38950224539549477 0 -0.45222354571942802 -0.38885884587758401 0 -0.45295563401162209 -0.37624745073812571 0 -0.46061798818106148 -0.38950224539549477 0 -0.46042543483005888 -0.40541519137812682 0 -0.45222354571942802 -0.38885884587758401 0 -0.47997107956963109 -0.41068262137435829 0 -0.46061798818106148 -0.38950224539549477 0 -0.46042543483005888 -0.40541519137812682 0 -0.46042543483005888 -0.40541519137812682 0 -0.45222354571942802 -0.38885884587758401 0 -0.44750755026335842 -0.41334314073461309 0 -0.45222354571942802 -0.38885884587758401 0 -0.44750755026335842 -0.41334314073461309 0 -0.43944708140057082 -0.39943917350740538 0 -0.45222354571942802 -0.38885884587758401 0 -0.44750755026335842 -0.41334314073461309 0 -0.43944708140057082 -0.39943917350740538 0 -0.45222354571942802 -0.38885884587758401 0 -0.43991806855136362 -0.38484112519593899 0 -0.43991806855136362 -0.38484112519593899 0 -0.45295563401162209 -0.37624745073812571 0 -0.43984316204505469 -0.36909794372703719 0 -0.45222354571942802 -0.38885884587758401 0 -0.43991806855136362 -0.38484112519593899 0 -0.45295563401162209 -0.37624745073812571 0 -0.45500087781297488 -0.44743734919765232 0 -0.47372258576817777 -0.43851749806451917 0 -0.45990318050858159 -0.42553720605681872 0 -0.47997107956963109 -0.41068262137435829 0 -0.46042543483005888 -0.40541519137812682 0 -0.45990318050858159 -0.42553720605681872 0 -0.46042543483005888 -0.40541519137812682 0 -0.45990318050858159 -0.42553720605681872 0 -0.44750755026335842 -0.41334314073461309 0 -0.43944708140057082 -0.39943917350740538 0 -0.44750755026335842 -0.41334314073461309 0 -0.43046448816499949 -0.41343251458703728 0 -0.44279155480728871 -0.43782743559164239 0 -0.44750755026335842 -0.41334314073461309 0 -0.43046448816499949 -0.41343251458703728 0 -0.44279155480728871 -0.43782743559164239 0 -0.45500087781297488 -0.44743734919765232 0 -0.45990318050858159 -0.42553720605681872 0 -0.44279155480728871 -0.43782743559164239 0 -0.44750755026335842 -0.41334314073461309 0 -0.44279155480728871 -0.43782743559164239 0 -0.45990318050858159 -0.42553720605681872 0 -0.44750755026335842 -0.41334314073461309 0 -0.44279155480728871 -0.43782743559164239 0 -0.43046448816499949 -0.41343251458703728 0 -0.41386943218760641 -0.42464906852793988 0 -0.44279155480728871 -0.43782743559164239 0 -0.41386943218760641 -0.42464906852793988 0 -0.423125636324716 -0.44634012224188169 0 -0.43046448816499949 -0.41343251458703728 0 -0.41386943218760641 -0.42464906852793988 0 -0.41325406299604162 -0.40270262648220378 0 -0.41386943218760641 -0.42464906852793988 0 -0.41325406299604162 -0.40270262648220378 0 -0.39647706496066432 -0.40356677437860439 0 -0.43991806855136362 -0.38484112519593899 0 -0.42768557797177481 -0.38192216189686012 0 -0.43984316204505469 -0.36909794372703719 0 -0.43991806855136362 -0.38484112519593899 0 -0.42768557797177481 -0.38192216189686012 0 -0.4271217543037043 -0.39672024114185411 0 -0.42768557797177481 -0.38192216189686012 0 -0.4271217543037043 -0.39672024114185411 0 -0.41422573019701941 -0.38747486131003228 0 -0.43046448816499949 -0.41343251458703728 0 -0.4271217543037043 -0.39672024114185411 0 -0.41325406299604162 -0.40270262648220378 0 -0.43944708140057082 -0.39943917350740538 0 -0.43046448816499949 -0.41343251458703728 0 -0.4271217543037043 -0.39672024114185411 0 -0.43944708140057082 -0.39943917350740538 0 -0.43991806855136362 -0.38484112519593899 0 -0.4271217543037043 -0.39672024114185411 0 -0.41325406299604162 -0.40270262648220378 0 -0.41422573019701941 -0.38747486131003228 0 -0.3973659081622557 -0.39037229894775521 0 -0.4271217543037043 -0.39672024114185411 0 -0.41325406299604162 -0.40270262648220378 0 -0.41422573019701941 -0.38747486131003228 0 -0.42768557797177481 -0.38192216189686012 0 -0.41422573019701941 -0.38747486131003228 0 -0.4173191747617318 -0.37147663810943821 0 -0.41422573019701941 -0.38747486131003228 0 -0.4038116012304574 -0.37792315688141909 0 -0.4173191747617318 -0.37147663810943821 0 -0.3973659081622557 -0.39037229894775521 0 -0.4038116012304574 -0.37792315688141909 0 -0.39154030978956561 -0.3744609372448135 0 -0.3973659081622557 -0.39037229894775521 0 -0.38554988889744463 -0.3844337879503838 0 -0.39154030978956561 -0.3744609372448135 0 -0.41422573019701941 -0.38747486131003228 0 -0.3973659081622557 -0.39037229894775521 0 -0.4038116012304574 -0.37792315688141909 0 -0.41325406299604162 -0.40270262648220378 0 -0.3973659081622557 -0.39037229894775521 0 -0.39647706496066432 -0.40356677437860439 0 -0.3973659081622557 -0.39037229894775521 0 -0.39647706496066432 -0.40356677437860439 0 -0.38009500019605358 -0.39439078473986727 0 -0.39647706496066432 -0.40356677437860439 0 -0.38009500019605358 -0.39439078473986727 0 -0.37855821513367782 -0.40980771242859643 0 -0.38009500019605358 -0.39439078473986727 0 -0.37855821513367782 -0.40980771242859643 0 -0.36904983326882818 -0.39985468805073809 0 -0.3973659081622557 -0.39037229894775521 0 -0.38009500019605358 -0.39439078473986727 0 -0.38554988889744463 -0.3844337879503838 0 -0.38009500019605358 -0.39439078473986727 0 -0.38554988889744463 -0.3844337879503838 0 -0.37376125972292512 -0.38039979218528158 0 -0.38554988889744463 -0.3844337879503838 0 -0.38120614903516797 -0.37422622318350918 0 -0.37376125972292512 -0.38039979218528158 0 -0.38554988889744463 -0.3844337879503838 0 -0.39154030978956561 -0.3744609372448135 0 -0.38120614903516797 -0.37422622318350918 0 -0.41386943218760641 -0.42464906852793988 0 -0.38611327022433489 -0.42560937872863358 0 -0.40066823844991428 -0.44414861722684718 0 -0.39647706496066432 -0.40356677437860439 0 -0.38611327022433489 -0.42560937872863358 0 -0.41386943218760641 -0.42464906852793988 0 -0.39647706496066432 -0.40356677437860439 0 -0.38611327022433489 -0.42560937872863358 0 -0.37855821513367782 -0.40980771242859643 0 -0.38611327022433489 -0.42560937872863358 0 -0.37090144580233381 -0.4250987793791331 0 -0.39647706496066432 -0.40356677437860439 0 -0.37855821513367782 -0.40980771242859643 0 -0.38611327022433489 -0.42560937872863358 0 -0.38611327022433489 -0.42560937872863358 0 -0.37574947548800558 -0.44765198307866277 0 -0.37090144580233381 -0.4250987793791331 0 -0.38611327022433489 -0.42560937872863358 0 -0.37574947548800558 -0.44765198307866277 0 -0.37574947548800558 -0.44765198307866277 0 -0.40066823844991428 -0.44414861722684718 0 -0.38841682257859361 -0.45894507077171542 0 -0.38611327022433489 -0.42560937872863358 0 -0.37574947548800558 -0.44765198307866277 0 -0.40066823844991428 -0.44414861722684718 0 -0.40066823844991428
[...]
<PointData Scalars="" Vectors="displacement," Tensors="">
<DataArray type="Float64" Name="displacement" NumberOfComponents="3" format="ascii">
-0.044996396546801633 -7.1564725301335884e-07 0 -0.041440050007660802 -1.0522219830865368e-06 0 -0.043963862797171203 -0.00032270766318901731 0 -0.044996396546801633 -7.1564725301335884e-07 0 -0.044548191587776807 -0.0002239680341453887 0 -0.044998629243783402 -4.9701272230966905e-07 0 -0.041440050007660802 -1.0522219830865368e-06 0 -0.042931073184895051 -8.4549860720279168e-05 0 -0.041722529566486859 0.00015112158790380668 0 -0.041440050007660802 -1.0522219830865368e-06 0 -0.042931073184895051 -8.4549860720279168e-05 0 -0.043963862797171203 -0.00032270766318901731 0 -0.042931073184895051 -8.4549860720279168e-05 0 -0.042899867230707024 0.00032166305710328952 0 -0.043911738667949611 -0.00037781337169805456 0 -0.042931073184895051 -8.4549860720279168e-05 0 -0.043963862797171203 -0.00032270766318901731 0 -0.043911738667949611 -0.00037781337169805456 0 -0.042899867230707024 0.00032166305710328952 0 -0.043438359240465109 0.00091055458788329776 0 -0.041944234951402086 0.0010697664999878016 0 -0.042931073184895051 -8.4549860720279168e-05 0 -0.042899867230707024 0.00032166305710328952 0 -0.041722529566486859 0.00015112158790380668 0 -0.042899867230707024 0.00032166305710328952 0 -0.041722529566486859 0.00015112158790380668 0 -0.041944234951402086 0.0010697664999878016 0 -0.041440050007660802 -1.0522219830865368e-06 0 -0.041722529566486859 0.00015112158790380668 0 -0.038776501601458312 3.394535026648325e-06 0 -0.040914214297862371 -0.0018269808484860733 0 -0.040108576017801018 -0.00049084405051831289 0 -0.043665677931243582 -0.00077914215494176669 0 -0.043893795106689171 -0.00079575913459217112 0 -0.043751404393779954 -0.00060794476564726262 0 -0.040108576017801018 -0.00049084405051831289 0 -0.044712716630177313 -0.00011452110371889329 0 -0.042899867230707024 0.00032166305710328952 0 -0.043438359240465109 0.00091055458788329776 0 -0.043911738667949611 -0.00037781337169805456 0 -0.043893795106689171 -0.00079575913459217112 0 -0.043911738667949611 -0.00037781337169805456 0 -0.043751404393779954 -0.00060794476564726262 0 -0.043963862797171203 -0.00032270766318901731 0 -0.043911738667949611 -0.00037781337169805456 0 -0.043703924917490006 -0.00048742515275169469 0 -0.043911738667949611 -0.00037781337169805456 0 -0.043751404393779954 -0.00060794476564726262 0 -0.043703924917490006 -0.00048742515275169469 0 -0.043994034184329504 -0.00033119481862229038 0 -0.044136317916002039 -0.00034957134812746665 0 -0.044996396546801633 -7.1564725301335884e-07 0 -0.043963862797171203 -0.00032270766318901731 0 -0.044548191587776807 -0.0002239680341453887 0 -0.044548191587776807 -0.0002239680341453887 0 -0.044884171721707222 -0.00011148603915917972 0 -0.044998629243783402 -4.9701272230966905e-07 0 -0.043703924917490006 -0.00048742515275169469 0 -0.043430362256439793 -0.00042347277213081722 0 -0.043601187672235482 -0.00067940732595396297 0 -0.044136317916002039 -0.00034957134812746665 0 -0.044158756625417794 -0.00027573992267404123 0 -0.044884171721707222 -0.00011148603915917972 0 -0.044482851494723141 -0.00033155230305134789 0 -0.044998629243783402 -4.9701272230966905e-07 0 -0.044158756625417794 -0.00027573992267404123 0 -0.044429181508139001 -0.00031879460420213538 0 -0.043430362256439793 -0.00042347277213081722 0 -0.044482851494723141 -0.00033155230305134789 0 -0.042886086753337653 -0.00060747553997975785 0 -0.044482851494723141 -0.00033155230305134789 0 -0.042886086753337653 -0.00060747553997975785 0 -0.044476964658154275 -0.00014889128698917774 0 -0.042886086753337653 -0.00060747553997975785 0 -0.041659982920583462 -0.0015514121251191952 0 -0.041213841438385294 -0.0015249403582914948 0 -0.042966162006921015 -0.00066113513849416989 0 -0.042914785673989646 -0.00082679924315420415 0 -0.042886086753337653 -0.00060747553997975785 0 -0.04221644957012767 -0.0015258423144412 0 -0.041659982920583462 -0.0015514121251191952 0 -0.042886086753337653 -0.00060747553997975785 0 -0.043276309011906079 -0.00068489781077352618 0 -0.04221644957012767 -0.0015258423144412 0 -0.043430362256439793 -0.00042347277213081722 0 -0.042886086753337653 -0.00060747553997975785 0 -0.043276309011906079 -0.00068489781077352618 0 -0.043276309011906079 -0.00068489781077352618 0 -0.04221644957012767 -0.0015258423144412 0 -0.043496961686797904 -0.0010075494052620222 0 -0.042036111651558287 -0.0015904760791396117 0 -0.041463105247616962 -0.0017533027070018991 0 -0.040708184882136997 -0.0018336055403731107 0 -0.04221644957012767 -0.0015258423144412 0 -0.039581500485717555 -0.0026622080641885396 0 -0.040708184882136997 -0.0018336055403731107 0 -0.04221644957012767 -0.0015258423144412 0 -0.041361862515221635 -0.0017398191573222972 0 -0.041361862515221635 -0.0017398191573222972 0 -0.041659982920583462 -0.0015514121251191952 0 -0.04132720922153349 -0.0016601225808898494 0 -0.04221644957012767 -0.0015258423144412 0 -0.041361862515221635 -0.0017398191573222972 0 -0.041659982920583462 -0.0015514121251191952 0 -0.043751404393779954 -0.00060794476564726262 0 -0.043703924917490006 -0.00048742515275169469 0 -0.043601187672235482 -0.00067940732595396297 0 -0.043430362256439793 -0.00042347277213081722 0 -0.043276309011906079 -0.00068489781077352618 0 -0.043601187672235482 -0.00067940732595396297 0 -0.043276309011906079 -0.00068489781077352618 0 -0.043601187672235482 -0.00067940732595396297 0 -0.043496961686797904 -0.0010075494052620222 0 -0.040708184882136997 -0.0018336055403731107 0 -0.039581500485717555 -0.0026622080641885396 0 -0.039447225762467487 -0.0017892150698589147 0 -0.038018501909410161 -0.0026009847370793049 0 -0.039581500485717555 -0.0026622080641885396 0 -0.039447225762467487 -0.0017892150698589147 0 -0.043665677931243582 -0.00077914215494176669 0 -0.043751404393779954 -0.00060794476564726262 0 -0.043601187672235482 -0.00067940732595396297 0 -0.040914214297862371 -0.0018269808484860733 0 -0.041463105247616962 -0.0017533027070018991 0 -0.043665677931243582 -0.00077914215494176669 0 -0.043601187672235482 -0.00067940732595396297 0 -0.043496961686797904 -0.0010075494052620222 0 -0.038018501909410161 -0.0026009847370793049 0 -0.039447225762467487 -0.0017892150698589147 0 -0.03863800387876621 -0.0013021942597795338 0 -0.038018501909410161 -0.0026009847370793049 0 -0.03863800387876621 -0.0013021942597795338 0 -0.037489612407587011 -0.0017820272636070696 0 -0.039447225762467487 -0.0017892150698589147 0 -0.03863800387876621 -0.0013021942597795338 0 -0.039564396195380838 -0.0013132460317610605 0 -0.03863800387876621 -0.0013021942597795338 0 -0.039564396195380838 -0.0013132460317610605 0 -0.038979062008519319 -0.0010844540642380837 0 -0.041361862515221635 -0.0017398191573222972 0 -0.040947397616330115 -0.0015759489346700668 0 -0.04132720922153349 -0.0016601225808898494 0 -0.041361862515221635 -0.0017398191573222972 0 -0.040947397616330115 -0.0015759489346700668 0 -0.040356410505059372 -0.0016077187524209976 0 -0.040947397616330115 -0.0015759489346700668 0 -0.040356410505059372 -0.0016077187524209976 0 -0.040353042838116672 -0.0013043532189142833 0 -0.039447225762467487 -0.0017892150698589147 0 -0.040356410505059372 -0.0016077187524209976 0 -0.039564396195380838 -0.0013132460317610605 0 -0.040708184882136997 -0.0018336055403731107 0 -0.039447225762467487 -0.0017892150698589147 0 -0.040356410505059372 -0.0016077187524209976 0 -0.040708184882136997 -0.0018336055403731107 0 -0.041361862515221635 -0.0017398191573222972 0 -0.040356410505059372 -0.0016077187524209976 0 -0.039564396195380838 -0.0013132460317610605 0 -0.040353042838116672 -0.0013043532189142833 0 -0.039781427794155361 -0.00092270023034593637 0 -0.040356410505059372 -0.0016077187524209976 0 -0.039564396195380838 -0.0013132460317610605 0 -0.040353042838116672 -0.0013043532189142833 0 -0.040947397616330115 -0.0015759489346700668 0 -0.040353042838116672 -0.0013043532189142833 0 -0.040974521771828705 -0.0013193922544036461 0 -0.040353042838116672 -0.0013043532189142833 0 -0.040529205691892799 -0.00099277593347393768 0 -0.040974521771828705 -0.0013193922544036461 0 -0.039781427794155361 -0.00092270023034593637 0 -0.040529205691892799 -0.00099277593347393768 0 -0.040576733483633026 -0.00050731124610663755 0 -0.039781427794155361 -0.00092270023034593637 0 -0.039955793482494922 -0.00032114014004846027 0 -0.040576733483633026 -0.00050731124610663755 0 -0.040353042838116672 -0.0013043532189142833 0 -0.039781427794155361 -0.00092270023034593637 0 -0.040529205691892799 -0.00099277593347393768 0 -0.039564396195380838 -0.0013132460317610605 0 -0.039781427794155361 -0.00092270023034593637 0 -0.038979062008519319 -0.0010844540642380837 0 -0.039781427794155361 -0.00092270023034593637 0 -0.038979062008519319 -0.0010844540642380837 0 -0.039121617707827835 -0.00011312493848994057 0 -0.038979062008519319 -0.0010844540642380837 0 -0.039121617707827835 -0.00011312493848994057 0 -0.037402386247771632 -0.00019634605213514526 0 -0.039121617707827835 -0.00011312493848994057 0 -0.037402386247771632 -0.00019634605213514526 0 -0.038337468543432139 0.00080202640877374723 0 -0.039781427794155361 -0.00092270023034593637 0 -0.039121617707827835 -0.00011312493848994057 0 -0.039955793482494922 -0.00032114014004846027 0 -0.039121617707827835 -0.00011312493848994057 0 -0.039955793482494922 -0.00032114014004846027 0 -0.040194837038587811 0.00040896788098984617 0 -0.039955793482494922 -0.00032114014004846027 0 -0.040561650324075375 -6.7799342808934401e-06 0 -0.040194837038587811 0.00040896788098984617 0 -0.039955793482494922 -0.00032114014004846027 0 -0.040576733483633026 -0.00050731124610663755 0 -0.040561650324075375 -6.7799342808934401e-06 0 -0.03863800387876621 -0.0013021942597795338 0 -0.038359463544428353 -0.00033901673290806874 0 -0.037416693209705289 -0.00089227584969645436 0 -0.0386539346985562 -0.0011312505932830979 0 -0.036650965724723844 -0.00082814969268703385 0 -0.03863800387876621 -0.0013021942597795338 0 -0.038979062008519319 -0.0010844540642380837 0 -0.038359463544428353 -0.00033901673290806874 0 -0.037402386247771632 -0.00019634605213514526 0 -0.03502523154388619 -0.0015089778026463425 0 -0.034783993285985255 0.0002342140942541908 0 -0.038979062008519319 -0.0010844540642380837 0 -0.037402386247771632 -0.00019634605213514526 0 -0.03502523154388619 -0.0015089778026463425 0 -0.03502523154388619 -0.0015089778026463425 0 -0.031439685675049844 -0.00049964582633535383 0 -0.034783993285985255 0.0002342140942541908 0 -0.036650965724723844 -0.00082814969268703385 0 -0.034243544798437997 -5.1127863882961728e-05 0 -0.036957595069305009 0.00036444880836498342 0 -0.037416693209705289 -0.00089227584969645436 0 -0.036236776015413925 -0.00033274167866062976 0 -0.038359463544428353 -0.00033901673290806874 0 -0.036957595069305009 0.00036444880836498342 0 -0.037416693209705289 -0.00089227584969645436 0 -0.037416693209705289 -0.00089227584969645436 0 -0.036236776015413925 -0.00033274167866062976 0 -0.03673456997195948 -0.0014085072288407285 0 -0.036236776015413925 -0.00033274167866062976 0 -0.035801939078445637 -0.00040405785264077324 0 -0.035805406666104336 -0.00034061981783903246 0 -0.036337288978031589 -0.00026475066803905567 0 -0.035869800757490529 -0.00093059350418109809 0 -0.036957595069305009 0.00036444880836498342 0 -0.036236776015413925 -0.00033274167866062976 0 -0.035345372828839684 0.00067273752321262553 0 -0.036236776015413925 -0.00033274167866062976 0 -0.034883181328951365 -0.00025085824611288887 0 -0.035345372828839684 0.00067273752321262553 0 -0.036236776015413925 -0.00033274167866062976 0 -0.034883181328951365 -0.00025085824611288887 0 -0.035801939078445637 -0.00040405785264077324 0 -0.034883181328951365 -0.00025085824611288887 0 -0.036101346427281182 -1.8896933633680954e-06 0 -0.033428255591139225 8.223886878016774e-07 0 -0.034883181328951365 -0.00025085824611288887 0 -0.036101346427281182 -1.8896933633680954e-06 0 -0.035801939078445637 -0.00040405785264077324 0 -0.036101346427281182 -1.8896933633680954e-06 0 -0.035801939078445637 -0.00040405785264077324 0 -0.036498970518856387 -0.00024226956464243029 0 -0.035801939078445637 -0.00040405785264077324 0 -0.036498970518856387 -0.00024226956464243029 0 -0.035805406666104336 -0.00034061981783903246 0 -0.036498970518856387 -0.00024226956464243029 0 -0.036701768125959502 0.00064073461062467702 0 -0.035805406666104336 -0.00034061981783903246 0 -0.036101346427281182 -1.8896933633680954e-06 0 -0.036498970518856387 -0.00024226956464243029 0 -0.038769281454503104 2.1097105356876562e-06 0 -0.036498970518856387 -0.00024226956464243029 0 -0.038769281454503104 2.1097105356876562e-06 0 -0.036701768125959502 0.00064073461062467702 0 -0.038774059042140992 3.9999977519167224e-07 0 -0.039251275652467686 0.000779147743263778 0 -0.041722529566486859 0.00015112158790380668 0 -0.038776501601458312 3.394535026648325e-06 0 -0.041944234951402086 0.0010697664999878016 0 -0.040108576017801018 -0.00049084405051831289 0 -0.039251275652467686 0.000779147743263778 0 -0.03680198341272356 -0.0024413293007643153 0 -0.037489612407587011 -0.0017820272636070696 0 -0.03673456997195948 -0.0014085072288407285 0 -0.035902459479945421 0.00077151388753721054 0 -0.036701768125959502 0.00064073461062467702 0 -0.035805406666104336 -0.00034061981783903246 0 -0.040108576017801018 -0.00049084405051831289 0 -0.035869800757490529 -0.00093059350418109809 0 -0.038018501909410161 -0.0026009847370793049 0 -0.03680198341272356 -0.0024413293007643153 0 -0.037489612407587011 -0.0017820272636070696 0 -0.03863800387876621 -0.0013021942597795338 0 -0.037416693209705289 -0.00089227584969645436 0 -0.037489612407587011 -0.0017820272636070696 0 -0.037416693209705289 -0.00089227584969645436 0 -0.037489612407587011 -0.0017820272636070696 0 -0.03673456997195948 -0.0014085072288407285 0 -0.044969940171454073 -1.0558665531937836e-05 0 -0.044999361760405636 -3.9267706315727605e-07 0 -0.044999676223205602 3.5252420108548151e-08 0 -0.04330560251257512 0.00031434731533404097 0 -0.043096658087354849 6.7628205100331775e-05 0 -0.042969216965120335 0.00017293375928370528 0 -0.044696542470897396 0.0001671301961756361 0 -0.044593970117595506 1.6527124910229339e-05 0 -0.044243301010699516 0.00016595609415105138 0 -0.044696542470897396 0.0001671301961756361 0 -0.044243301010699516 0.00016595609415105138 0 -0.04407661482525807 5.9660744975773502e-05 0 -0.043985503530771033 0.000253361800040158 0 -0.044115349902745564 6.6602750698143321e-05 0 -0.044593970117595506 1.6527124910229339e-05 0 -0.044781554567203043 -0.00010992374371684863 0 -0.044452512334526038 -0.00015276766687119089 0 -0.044593970117595506 1.6527124910229339e-05 0 -0.044785355267784425 -9.7221067136951461e-06 0 -0.044781554567203043 -0.00010992374371684863 0 -0.044696542470897396 0.0001671301961756361 0 -0.044785355267784425 -9.7221067136951461e-06 0 -0.04493793795046136 3.9625795027680077e-05 0 -0.044696542470897396 0.0001671301961756361 0 -0.044593970117595506 1.6527124910229339e-05 0 -0.044785355267784425 -9.7221067136951461e-06 0 -0.044867931895619322 -7.6357274817259242e-05 0 -0.044969940171454073 -1.0558665531937836e-05 0 -0.044999676223205602 3.5252420108548151e-08 0 -0.044785355267784425 -9.7221067136951461e-06 0 -0.044867931895619322 -7.6357274817259242e-05 0 -0.044781554567203043 -0.00010992374371684863 0 -0.044785355267784425 -9.7221067136951461e-06 0 -0.044867931895619322 -7.6357274817259242e-05 0 -0.044902871078895117 -7.2917364655452163e-05 0 -0.044867931895619322 -7.6357274817259242e-05 0 -0.044999676223205602 3.5252420108548151e-08 0 -0.044902871078895117 -7.2917364655452163e-05 0 -0.044867931895619322 -7.6357274817259242e-05 0 -0.044781554567203043 -0.00010992374371684863 0 -0.044969940171454073 -1.0558665531937836e-05 0 -0.044781554567203043 -0.00010992374371684863 0 -0.044934738036839512 -0.00014456794607075761 0 -0.044969940171454073 -1.0558665531937836e-05 0 -0.044886580701743659 -0.00019910689056789965 0 -0.044181466541063828 -0.00075281786518843329 0 -0.044181466541063828 -0.00075281786518843329 0 -0.044991267014468705 0.00021446753072832303 0 -0.044969940171454073 -1.0558665531937836e-05 0 -0.044966425522539648 -9.0189158509702837e-06 0 -0.044999361760405636 -3.9267706315727605e-07 0 -0.044965176363011929 -1.1445984017982936e-05 0 -0.044969940171454073 -1.0558665531937836e-05 0 -0.044966425522539648 -9.0189158509702837e-06 0 -0.044965176363011929 -1.1445984017982936e-05 0 -0.044966425522539648 -9.0189158509702837e-06 0 -0.044943802068334704 -4.6234553350462498e-06 0 -0.044181466541063828 -0.00075281786518843329 0 -0.043676079801388192 -0.0011163999486179293 0 -0.042460870737047629 -0.0021570531758989945 0 -0.042858961216107133 -0.0018667446886709916 0 -0.042597960947136963 -0.0016934406960307689 0 -0.043115704038879911 -0.0022165224556881897 0 -0.042460870737047629 -0.0021570531758989945 0 -0.042858961216107133 -0.0018667446886709916 0 -0.044181466541063828 -0.00075281786518843329 0 -0.043615306356325351 -0.00081185771997855901 0 -0.044593970117595506 1.6527124910229339e-05 0 -0.044452512334526038 -0.00015276766687119089 0 -0.044243301010699516 0.00016595609415105138 0 -0.043115704038879911 -0.0022165224556881897 0 -0.042858961216107133 -0.0018667446886709916 0 -0.043086403968774979 -0.0016107283089239572 0 -0.042858961216107133 -0.0018667446886709916 0 -0.043086403968774979 -0.0016107283089239572 0 -0.042830503805434517 -0.0016267075310106038 0 -0.043086403968774979 -0.0016107283089239572 0 -0.042830503805434517 -0.0016267075310106038 0 -0.042775397317736059 -0.0013479501361110275 0 -0.042830503805434517 -0.0016267075310106038 0 -0.042597960947136963 -0.0016934406960307689 0 -0.042775397317736059 -0.0013479501361110275 0 -0.042597960947136963 -0.0016934406960307689 0 -0.042255249398928017 -0.0013853989001324928 0 -0.042775397317736059 -0.0013479501361110275 0 -0.042858961216107133 -0.0018667446886709916 0 -0.042830503805434517 -0.0016267075310106038 0 -0.042597960947136963 -0.0016934406960307689 0 -0.044482851494723141 -0.00033155230305134789 0 -0.044998629243783402 -4.9701272230966905e-07 0 -0.044999361760405636 -3.9267706315727605e-07 0 -0.042597960947136963 -0.0016934406960307689 0 -0.042167497804072439 -0.0017490686434158481 0 -0.042255249398928017 -0.0013853989001324928 0 -0.042167497804072439 -0.0017490686434158481 0 -0.041828073971002848 -0.0015696510377310121 0 -0.042255249398928017 -0.0013853989001324928 0 -0.041828073971002848 -0.0015696510377310121 0 -0.041758764550908635 -0.0019571519962850812 0 -0.041437175482199211 -0.0015686588222678776 0 -0.042167497804072439 -0.0017490686434158481 0 -0.041828073971002848 -0.0015696510377310121 0 -0.041758764550908635 -0.0019571519962850812 0 -0.042460870737047629 -0.0021570531758989945 0 -0.042597960947136963 -0.0016934406960307689 0 -0.042167497804072439 -0.0017490686434158481 0 -0.043676079801388192 -0.0011163999486179293 0 -0.043306027774022732 -0.00097371227490293056 0 -0.042460870737047629 -0.0021570531758989945 0 -0.042167497804072439 -0.0017490686434158481 0 -0.041758764550908635 -0.0019571519962850812 0 -0.044966425522539648 -9.0189158509702837e-06 0 -0.044943802068334704 -4.6234553350462498e-06 0 -0.044999361760405636 -3.9267706315727605e-07 0 -0.044943802068334704 -4.6234553350462498e-06 0 -0.044826209518994894 1.2561420978599581e-06 0 -0.044999361760405636 -3.9267706315727605e-07 0 -0.044826209518994894 1.2561420978599581e-06 0 -0.044999361760405636 -3.9267706315727605e-07 0 -0.044476964658154275 -0.00014889128698917774 0 -0.044482851494723141 -0.00033155230305134789 0 -0.044999361760405636 -3.9267706315727605e-07 0 -0.044476964658154275 -0.00014889128698917774 0 -0.041758764550908635 -0.0019571519962850812 0 -0.041213841438385294 -0.0015249403582914948 0 -0.041437175482199211 -0.0015686588222678776 0 -0.043306027774022732 -0.00097371227490293056 0 -0.042914785673989646 -0.00082679924315420415 0 -0.041659982920583462 -0.0015514121251191952 0 -0.041213841438385294 -0.0015249403582914948 0 -0.0413272092215334