<?xml version="1.0"?>
<VTKFile type="UnstructuredGrid" version="0.1" byte_order="LittleEndian">
<UnstructuredGrid>
<Piece NumberOfPoints="30881" NumberOfCells="10862">
<Points>
<DataArray type="Float64" NumberOfComponents="3" format="ascii">
-0.49999999999999828 -0.48677703703187492 0 -0.5 -0.5 0 -0.48129281494584059 -0.49338851851593718 0 -0.5 -0.5 0 -0.48129281494584059 -0.49338851851593718 0 -0.46258562989168328 -0.5 0 -0.49999999999999828 -0.48677703703187492 0 -0.48129281494584059 -0.49338851851593718 0 -0.49999999999999828 -0.48677703703187492 0 -0.4824545428279598 -0.47451624516148783 0 -0.48129281494584059 -0.49338851851593718 0 -0.49999999999999828 -0.48677703703187492 0 -0.4824545428279598 -0.47451624516148783 0 -0.5 -0.46599539173150673 0 -0.4824545428279598 -0.47451624516148783 0 -0.46853075243710779 -0.48354990242643758 0 -0.46411508256092049 -0.46598235294430129 0 -0.4824545428279598 -0.47451624516148783 0 -0.48129281494584059 -0.49338851851593718 0 -0.46853075243710779 -0.48354990242643758 0 -0.48129281494584059 -0.49338851851593718 0 -0.46258562989168328 -0.5 0 -0.48129281494584059 -0.49338851851593718 0 -0.46258562989168328 -0.5 0 -0.46853075243710779 -0.48354990242643758 0 -0.46258562989168328 -0.5 0 -0.46853075243710779 -0.48354990242643758 0 -0.45147378687733691 -0.48362213557840178 0 -0.46853075243710779 -0.48354990242643758 0 -0.45147378687733691 -0.48362213557840178 0 -0.46411508256092049 -0.46598235294430129 0 -0.4457251648104853 -0.47020164095208389 0 -0.45147378687733691 -0.48362213557840178 0 -0.46411508256092049 -0.46598235294430129 0 -0.4457251648104853 -0.47020164095208389 0 -0.45147378687733691 -0.48362213557840178 0 -0.43513446131126993 -0.48199891714758791 0 -0.45147378687733691 -0.48362213557840178 0 -0.43275163025255442 -0.5 0 -0.43513446131126993 -0.48199891714758791 0 -0.46258562989168328 -0.5 0 -0.45147378687733691 -0.48362213557840178 0 -0.43275163025255442 -0.5 0 -0.4467190029717853 -0.45478934699519452 0 -0.4422915115958943 -0.43555510214664611 0 -0.43246707723660932 -0.44794326854796312 0 -0.4457251648104853 -0.47020164095208389 0 -0.4467190029717853 -0.45478934699519452 0 -0.46411508256092049 -0.46598235294430129 0 -0.4457251648104853 -0.47020164095208389 0 -0.4467190029717853 -0.45478934699519452 0 -0.43016578207734568 -0.46313500011938619 0 -0.4467190029717853 -0.45478934699519452 0 -0.46411508256092049 -0.46598235294430129 0 -0.47114575579794699 -0.4403844242888923 0 -0.4467190029717853 -0.45478934699519452 0 -0.47114575579794699 -0.4403844242888923 0 -0.4422915115958943 -0.43555510214664611 0 -0.47114575579794699 -0.4403844242888923 0 -0.4422915115958943 -0.43555510214664611 0 -0.46411508256092049 -0.46598235294430129 0 -0.47114575579794699 -0.4403844242888923 0 -0.48354307623736548 -0.45841843211146538 0 -0.4824545428279598 -0.47451624516148783 0 -0.46411508256092049 -0.46598235294430129 0 -0.48354307623736548 -0.45841843211146538 0 -0.4824545428279598 -0.47451624516148783 0 -0.48354307623736548 -0.45841843211146538 0 -0.5 -0.46599539173150673 0 -0.48354307623736548 -0.45841843211146538 0 -0.5 -0.46599539173150673 0 -0.49999999999999972 -0.44521374643113848 0 -0.47114575579794699 -0.4403844242888923 0 -0.49999999999999972 -0.44521374643113848 0 -0.47114575579794699 -0.4403844242888923 0 -0.49999999999999972 -0.44521374643113848 0 -0.48704432221743971 -0.42935617662229603 0 -0.47114575579794699 -0.4403844242888923 0 -0.48354307623736548 -0.45841843211146538 0 -0.49999999999999972 -0.44521374643113848 0 -0.49999999999999972 -0.44521374643113848 0 -0.48704432221743971 -0.42935617662229603 0 -0.5 -0.41591957503128979 0 -0.48704432221743971 -0.42935617662229603 0 -0.5 -0.41591957503128979 0 -0.47703153307181151 -0.41590696073786332 0 -0.5 -0.41591957503128979 0 -0.47703153307181151 -0.41590696073786332 0 -0.48817838912021821 -0.4022119694541284 0 -0.47114575579794699 -0.4403844242888923 0 -0.48704432221743971 -0.42935617662229603 0 -0.47703153307181151 -0.41590696073786332 0 -0.5 -0.38662540363144121 0 -0.47568202340906118 -0.39039593841591919 0 -0.4947615751445838 -0.37332156409002909 0 -0.47568202340906118 -0.39039593841591919 0 -0.4947615751445838 -0.37332156409002909 0 -0.5 -0.38662540363144121 0 -0.48817838912021821 -0.4022119694541284 0 -0.47568202340906118 -0.39039593841591919 0 -0.5 -0.41591957503128979 0 -0.5 -0.38662540363144121 0 -0.48817838912021821 -0.4022119694541284 0 -0.47703153307181151 -0.41590696073786332 0 -0.48817838912021821 -0.4022119694541284 0 -0.47568202340906118 -0.39039593841591919 0 -0.47703153307181151 -0.41590696073786332 0 -0.47568202340906118 -0.39039593841591919 0 -0.45660247167353862 -0.40747031274180939 0 -0.47568202340906118 -0.39039593841591919 0 -0.48030931097003587 -0.37191064435083931 0 -0.46669490250066459 -0.37481721741951951 0 -0.47568202340906118 -0.39039593841591919 0 -0.4947615751445838 -0.37332156409002909 0 -0.48030931097003587 -0.37191064435083931 0 -0.45332061783919553 -0.38729481725706361 0 -0.46669490250066459 -0.37481721741951951 0 -0.45095991715087752 -0.36968037302039969 0 -0.47568202340906118 -0.39039593841591919 0 -0.45332061783919553 -0.38729481725706361 0 -0.46669490250066459 -0.37481721741951951 0 -0.47568202340906118 -0.39039593841591919 0 -0.45660247167353862 -0.40747031274180939 0 -0.47568202340906118 -0.39039593841591919 0 -0.45332061783919553 -0.38729481725706361 0 -0.45660247167353862 -0.40747031274180939 0 -0.44332653075004852 -0.401690115615219 0 -0.44646247228389868 -0.41654464256061052 0 -0.42870657106664078 -0.39987574649354879 0 -0.45332061783919553 -0.38729481725706361 0 -0.44332653075004852 -0.401690115615219 0 -0.43479631603355468 -0.39077639303142497 0 -0.45332061783919553 -0.38729481725706361 0 -0.44332653075004852 -0.401690115615219 0 -0.45660247167353862 -0.40747031274180939 0 -0.45332061783919553 -0.38729481725706361 0 -0.43421362475025049 -0.37527491429266319 0 -0.43479631603355468 -0.39077639303142497 0 -0.45332061783919553 -0.38729481725706361 0 -0.43421362475025049 -0.37527491429266319 0 -0.45095991715087752 -0.36968037302039969 0 -0.47114575579794699 -0.4403844242888923 0 -0.45663439814062529 -0.42533932462455271 0 -0.4422915115958943 -0.43555510214664611 0 -0.47114575579794699 -0.4403844242888923 0 -0.47703153307181151 -0.41590696073786332 0 -0.45663439814062529 -0.42533932462455271 0 -0.45663439814062529 -0.42533932462455271 0 -0.45660247167353862 -0.40747031274180939 0 -0.44646247228389868 -0.41654464256061052 0 -0.47703153307181151 -0.41590696073786332 0 -0.45663439814062529 -0.42533932462455271 0 -0.45660247167353862 -0.40747031274180939 0 -0.44332653075004852 -0.401690115615219 0 -0.45660247167353862 -0.40747031274180939 0 -0.44646247228389868 -0.41654464256061052 0 -0.45660247167353862 -0.40747031274180939 0 -0.44646247228389868 -0.41654464256061052 0 -0.44646247228389868 -0.41654464256061052 0 -0.4375229199380159 -0.42454468706769971 0 -0.45663439814062529 -0.42533932462455271 0 -0.4375229199380159 -0.42454468706769971 0 -0.4422915115958943 -0.43555510214664611 0 -0.45663439814062529 -0.42533932462455271 0 -0.44646247228389868 -0.41654464256061052 0 -0.4375229199380159 -0.42454468706769971 0 -0.4375229199380159 -0.42454468706769971 0 -0.4422915115958943 -0.43555510214664611 0 -0.43077617074680319 -0.43406335077952207 0 -0.43077617074680319 -0.43406335077952207 0 -0.42550232634077589 -0.42345940056268039 0 -0.41950844772475421 -0.43888456563633732 0 -0.4375229199380159 -0.42454468706769971 0 -0.43077617074680319 -0.43406335077952207 0 -0.42550232634077589 -0.42345940056268039 0 -0.44646247228389868 -0.41654464256061052 0 -0.41657232816672918 -0.41306671883907142 0 -0.42870657106664078 -0.39987574649354879 0 -0.44646247228389868 -0.41654464256061052 0 -0.4375229199380159 -0.42454468706769971 0 -0.42550232634077589 -0.42345940056268039 0 -0.44646247228389868 -0.41654464256061052 0 -0.42550232634077589 -0.42345940056268039 0 -0.41657232816672918 -0.41306671883907142 0 -0.44646247228389868 -0.41654464256061052 0 -0.41657232816672918 -0.41306671883907142 0 -0.42550232634077589 -0.42345940056268039 0 -0.41657232816672918 -0.41306671883907142 0 -0.41333489101611293 -0.42699700567040988 0 -0.41657232816672918 -0.41306671883907142 0 -0.41333489101611293 -0.42699700567040988 0 -0.39893236021425188 -0.42931692235905211 0 -0.41333489101611293 -0.42699700567040988 0 -0.39893236021425188 -0.42931692235905211 0 -0.41950844772475421 -0.43888456563633732 0 -0.42550232634077589 -0.42345940056268039 0 -0.41333489101611293 -0.42699700567040988 0 -0.41950844772475421 -0.43888456563633732 0 -0.43421362475025049 -0.37527491429266319 0 -0.42478231784314502 -0.38643128255249681 0 -0.41656514696884139 -0.37636588688318029 0 -0.43421362475025049 -0.37527491429266319 0 -0.42478231784314502 -0.38643128255249681 0 -0.43479631603355468 -0.39077639303142497 0 -0.42478231784314502 -0.38643128255249681 0 -0.43479631603355468 -0.39077639303142497 0 -0.42870657106664078 -0.39987574649354879 0 -0.44332653075004852 -0.401690115615219 0 -0.43479631603355468 -0.39077639303142497 0 -0.42870657106664078 -0.39987574649354879 0 -0.41657232816672918 -0.41306671883907142 0 -0.40962993039643741 -0.3898634720616666 0 -0.3946356370269814 -0.39577424904278191 0 -0.42478231784314502 -0.38643128255249681 0 -0.42870657106664078 -0.39987574649354879 0 -0.40962993039643741 -0.3898634720616666 0 -0.41657232816672918 -0.41306671883907142 0 -0.42870657106664078 -0.39987574649354879 0 -0.40962993039643741 -0.3898634720616666 0 -0.42478231784314502 -0.38643128255249681 0 -0.40962993039643741 -0.3898634720616666 0 -0.41656514696884139 -0.37636588688318029 0 -0.40962993039643741 -0.3898634720616666 0 -0.41656514696884139 -0.37636588688318029 0 -0.40465459864295228 -0.37650109000307358 0 -0.39431275766669582 -0.38061373190328529 0 -0.40465459864295228 -0.37650109000307358 0 -0.3968495855878465 -0.36923685638487008 0 -0.40962993039643741 -0.3898634720616666 0 -0.39431275766669582 -0.38061373190328529 0 -0.40465459864295228 -0.376501090003
[...]
<PointData Scalars="" Vectors="displacement," Tensors="">
<DataArray type="Float64" Name="displacement" NumberOfComponents="3" format="ascii">
0.063286872163821825 0.064998922753236724 0 0.064996578875400848 0.064999739481098606 0 0.065513337239983788 0.062853824078360071 0 0.064996578875400848 0.064999739481098606 0 0.065513337239983788 0.062853824078360071 0 0.065000974686695592 0.060137731136793965 0 0.063283680414827001 0.064995527319265986 0 0.064104197217308895 0.062520841395495422 0 0.063275786420134136 0.064997243264668755 0 0.061956053925813791 0.06290979904760971 0 0.06227576937778196 0.062051174100360242 0 0.063275786420134136 0.064997243264668755 0 0.061956053925813791 0.06290979904760971 0 0.060579985802203709 0.064997785233360972 0 0.061956053925813791 0.06290979904760971 0 0.062721004080266707 0.060871168812671517 0 0.061730012755148778 0.060808602941149849 0 0.061956053925813791 0.06290979904760971 0 0.06227576937778196 0.062051174100360242 0 0.062721004080266707 0.060871168812671517 0 0.064104197217308895 0.062520841395495422 0 0.064997130775525783 0.060140448094173189 0 0.06227576937778196 0.062051174100360242 0 0.064991154483242622 0.060134541794910942 0 0.062721004080266707 0.060871168812671517 0 0.064991154483242622 0.060134541794910942 0 0.062721004080266707 0.060871168812671517 0 0.06339523705214814 0.05928890783347137 0 0.062721004080266707 0.060871168812671517 0 0.06339523705214814 0.05928890783347137 0 0.061730012755148778 0.060808602941149849 0 0.062330447554927983 0.059200566527127338 0 0.06339523705214814 0.05928890783347137 0 0.061730012755148778 0.060808602941149849 0 0.062330447554927983 0.059200566527127338 0 0.06339523705214814 0.05928890783347137 0 0.063443729783571393 0.057654991968739716 0 0.06339523705214814 0.05928890783347137 0 0.064998749617477272 0.056261157700090055 0 0.063443729783571393 0.057654991968739716 0 0.064991154483242622 0.060134541794910942 0 0.06339523705214814 0.05928890783347137 0 0.064998749617477272 0.056261157700090055 0 0.061190550297236336 0.059865742002883186 0 0.058960827805093666 0.060791415411447787 0 0.060262286955138016 0.059503069716728807 0 0.062330447554927983 0.059200566527127338 0 0.061190550297236336 0.059865742002883186 0 0.061730012755148778 0.060808602941149849 0 0.062330447554927983 0.059200566527127338 0 0.061190550297236336 0.059865742002883186 0 0.061593223958749804 0.058528501774641355 0 0.061190550297236336 0.059865742002883186 0 0.061730012755148778 0.060808602941149849 0 0.061368760061925876 0.061455708418798521 0 0.061190550297236336 0.059865742002883186 0 0.061368760061925876 0.061455708418798521 0 0.058960827805093666 0.060791415411447787 0 0.058373085324914677 0.063405834582421536 0 0.058528914967882956 0.062833138616927992 0 0.061730012755148778 0.060808602941149849 0 0.061368760061925876 0.061455708418798521 0 0.060645273035719004 0.06327300200731939 0 0.061956053925813791 0.06290979904760971 0 0.061730012755148778 0.060808602941149849 0 0.060645273035719004 0.06327300200731939 0 0.061956053925813791 0.06290979904760971 0 0.060645273035719004 0.06327300200731939 0 0.060579985802203709 0.064997785233360972 0 0.060645273035719004 0.06327300200731939 0 0.060579985802203709 0.064997785233360972 0 0.057886154164720136 0.064997847966741518 0 0.058373085324914677 0.063405834582421536 0 0.057878658731788789 0.06499752626292632 0 0.056069416614942864 0.065346279178218197 0 0.0578739927729464 0.064999559365629414 0 0.055900080965113265 0.065450049304396185 0 0.061368760061925876 0.061455708418798521 0 0.060645273035719004 0.06327300200731939 0 0.057886154164720136 0.064997847966741518 0 0.0578739927729464 0.064999559365629414 0 0.055900080965113265 0.065450049304396185 0 0.054072132293731236 0.064998721967071543 0 0.055900080965113265 0.065450049304396185 0 0.054072132293731236 0.064998721967071543 0 0.055646480823266849 0.06545068861765399 0 0.054072132293731236 0.064998721967071543 0 0.055646480823266849 0.06545068861765399 0 0.053232057785151436 0.065444647345635182 0 0.056069416614942864 0.065346279178218197 0 0.055900080965113265 0.065450049304396185 0 0.055646480823266849 0.06545068861765399 0 0.050263645825411769 0.064999012885159774 0 0.052683451399209193 0.066226031452967224 0 0.048850720678339912 0.065535040104980027 0 0.052544526687224924 0.065085631384999579 0 0.051469903552743633 0.064751384484007135 0 0.050263645825411769 0.064999012885159774 0 0.053232057785151436 0.065444647345635182 0 0.052683451399209193 0.066226031452967224 0 0.054072132293731236 0.064998721967071543 0 0.050263645825411769 0.064999012885159774 0 0.053232057785151436 0.065444647345635182 0 0.055646480823266849 0.06545068861765399 0 0.053232057785151436 0.065444647345635182 0 0.052683451399209193 0.066226031452967224 0 0.055646480823266849 0.06545068861765399 0 0.052683451399209193 0.066226031452967224 0 0.056508758864843064 0.064727971845089577 0 0.051309742381998966 0.067707187295948851 0 0.049210302607477226 0.067094054003523196 0 0.05008976526799265 0.068290007213354195 0 0.051309742381998966 0.067707187295948851 0 0.048850720678339912 0.065535040104980027 0 0.049210302607477226 0.067094054003523196 0 0.051332749305223017 0.069057929022147468 0 0.05008976526799265 0.068290007213354195 0 0.050489029684220102 0.069041754946042297 0 0.051309742381998966 0.067707187295948851 0 0.051332749305223017 0.069057929022147468 0 0.05008976526799265 0.068290007213354195 0 0.052544526687224924 0.065085631384999579 0 0.054394561307077045 0.064893480315492455 0 0.051309742381998966 0.067707187295948851 0 0.051332749305223017 0.069057929022147468 0 0.05181485320706479 0.069042320031514698 0 0.051680284559137403 0.069239268463703194 0 0.051404390748906438 0.069339039842243488 0 0.051644737787476531 0.068931980327261305 0 0.051332749305223017 0.069057929022147468 0 0.051680284559137403 0.069239268463703194 0 0.051944927866447527 0.069202629199481933 0 0.051332749305223017 0.069057929022147468 0 0.051680284559137403 0.069239268463703194 0 0.05181485320706479 0.069042320031514698 0 0.051332749305223017 0.069057929022147468 0 0.05201428477086676 0.069383748684660282 0 0.051944927866447527 0.069202629199481933 0 0.051332749305223017 0.069057929022147468 0 0.05201428477086676 0.069383748684660282 0 0.050489029684220102 0.069041754946042297 0 0.056069416614942864 0.065346279178218197 0 0.057565919947162453 0.063594251861308196 0 0.058960827805093666 0.060791415411447787 0 0.056069416614942864 0.065346279178218197 0 0.055646480823266849 0.06545068861765399 0 0.057565919947162453 0.063594251861308196 0 0.057565919947162453 0.063594251861308196 0 0.056508758864843064 0.064727971845089577 0 0.058081512728449636 0.0628217254025705 0 0.055646480823266849 0.06545068861765399 0 0.057565919947162453 0.063594251861308196 0 0.056508758864843064 0.064727971845089577 0 0.051680284559137403 0.069239268463703194 0 0.05181485320706479 0.069042320031514698 0 0.051404390748906438 0.069339039842243488 0 0.054394561307077045 0.064893480315492455 0 0.055619851621278096 0.064564020519137927 0 0.055619851621278096 0.064564020519137927 0 0.055639011386867221 0.064189556293100677 0 0.057565919947162453 0.063594251861308196 0 0.059083443650000261 0.060800773238057625 0 0.058960827805093666 0.060791415411447787 0 0.057565919947162453 0.063594251861308196 0 0.058081512728449636 0.0628217254025705 0 0.059083443650000261 0.060800773238057625 0 0.059083443650000261 0.060800773238057625 0 0.058960827805093666 0.060791415411447787 0 0.059305965703366138 0.059874631640639546 0 0.059305965703366138 0.059874631640639546 0 0.059315035025399643 0.059598552464491347 0 0.059617712028223406 0.058997790702125852 0 0.059083443650000261 0.060800773238057625 0 0.059305965703366138 0.059874631640639546 0 0.059315035025399643 0.059598552464491347 0 0.051404390748906438 0.069339039842243488 0 0.050566404228791835 0.068108520066855541 0 0.051644737787476531 0.068931980327261305 0 0.059878205738324267 0.061505539569839125 0 0.059083443650000261 0.060800773238057625 0 0.059315035025399643 0.059598552464491347 0 0.059878205738324267 0.061505539569839125 0 0.059315035025399643 0.059598552464491347 0 0.059700394018785068 0.058870563512608207 0 0.055619851621278096 0.064564020519137927 0 0.055173085557340254 0.063328641315610695 0 0.059315035025399643 0.059598552464491347 0 0.059700394018785068 0.058870563512608207 0 0.059283257959367314 0.058859874441670207 0 0.059700394018785068 0.058870563512608207 0 0.059283257959367314 0.058859874441670207 0 0.058941723637926831 0.058371643302957237 0 0.059283257959367314 0.058859874441670207 0 0.058941723637926831 0.058371643302957237 0 0.059617712028223406 0.058997790702125852 0 0.059315035025399643 0.059598552464491347 0 0.059283257959367314 0.058859874441670207 0 0.059617712028223406 0.058997790702125852 0 0.05201428477086676 0.069383748684660282 0 0.052502559820093664 0.068868068081434627 0 0.053465808301038489 0.068696091533698406 0 0.05201428477086676 0.069383748684660282 0 0.052502559820093664 0.068868068081434627 0 0.051944927866447527 0.069202629199481933 0 0.052502559820093664 0.068868068081434627 0 0.051944927866447527 0.069202629199481933 0 0.051644737787476531 0.068931980327261305 0 0.051680284559137403 0.069239268463703194 0 0.051944927866447527 0.069202629199481933 0 0.051644737787476531 0.068931980327261305 0 0.050566404228791835 0.068108520066855541 0 0.052883809143113698 0.067378293327973043 0 0.052708419521365554 0.064717955112790437 0 0.052502559820093664 0.068868068081434627 0 0.051644737787476531 0.068931980327261305 0 0.052883809143113698 0.067378293327973043 0 0.050566404228791835 0.068108520066855541 0 0.051644737787476531 0.068931980327261305 0 0.052883809143113698 0.067378293327973043 0 0.052502559820093664 0.068868068081434627 0 0.052883809143113698 0.067378293327973043 0 0.053465808301038489 0.068696091533698406 0 0.052883809143113698 0.067378293327973043 0 0.053465808301038489 0.068696091533698406 0 0.054550890715930868 0.066965513378915612 0 0.054742394999918571 0.064827745065819078 0 0.054550890715930868 0.066965513378915612 0 0.056462226377017914 0.065514446787738254 0 0.052883809143113698 0.067378293327973043 0 0.054742394999918571 0.064827745065819078 0 0.054550890715930868 0.066965513378915612 0 0.052883809143113698 0.067378293327973043 0 0.054742394999918571 0.064827745065819078 0 0.052708419521365554 0.064717955112790437 0 0.052708419521365554 0.064717955112790437 0 0.050803018439232815 0.063112130309658995 0 0.053643670553390303 0.060645821084235607 0 0.052708419521365554 0.064717955112790437 0 0.055691888384049835 0.060655028236974474 0 0.053643670553390303 0.060645821084235607 0 0.054742394999918571 0.064827745065819078 0 0.052708419521365554 0.064717955112790437 0 0.055691888384049835 0.060655028236974474 0 0.054742394999918571 0.064827745065819078 0 0.055691888384049835 0.060655028236974474 0 0.057113542994552076 0.062922859449456595 0 0.059700394018785068 0.058870563512608207 0 0.058941723637926831 0.058371643302957237 0 0.05809590946619058 0.058071452234691567 0 0.050566404228791835 0.068108520066855541 0 0.052708419521365554 0.064717955112790437 0 0.050803018439232815 0.063112130309658995 0 0.055173085557340254 0.063328641315610695 0 0.054856457333022426 0.061701113879386975 0 0.05809590946619058 0.058071452234691567 0 0.058258711463125855 0.058300340525846595 0 0.056755602261764411 0.058386353649288091 0 0.058258711463125855 0.058300340525846595 0 0.05935854996307454 0.058532586330204174 0 0.05811492176731415 0.058627256171600126 0 0.058941723637926831 0.058371643302957237 0 0.058258711463125855 0.058300340525846595 0 0.05935854996307454 0.058532586330204174 0 0.058941723637926831 0.058371643302957237 0 0.05809590946619058 0.058071452234691567 0 0.058258711463125855 0.058300340525846595 0 0.05935854996307454 0.058532586330204174 0 0.060136683191372706 0.058366849736970629 0 0.060905482162172044 0.058549934156242801 0 0.058941723637926831 0.058371643302957237 0 0.05935854996307454 0.058532586330204174 0 0.060136683191372706 0.058366849736970629 0 0.060136683191372706 0.058366849736970629 0 0.060905482162172044 0.058549934156242801 0 0.061728237668190987 0.057907731047937033 0 0.05935854996307454 0.058532586330204174 0 0.060905482162172044 0.058549934156242801 0 0.060484710607485614 0.059174027722426525 0 0.060905482162172044 0.058549934156242801 0 0.062035928736479937 0.059113034574084053 0 0.060484710607485614 0.059174027722426525 0 0.062035928736479937 0.059113034574084053 0 0.06373287956627742 0.058532836054612611 0 0.062195964744984192 0.058295900688197032 0 0.060905482162172044 0.058549934156242801 0 0.062035928736479937 0.059113034574084053 0 0.062195964744984192 0.058295900688197032 0 0.064411540652652824 0.052916665240671158 0 0.064069460061320957 0.049721284409427857 0 0.065996042814038244 0.05088084349687625 0 0.064997991116390721 0.052383044468262904 0 0.065001168759333039 0.048498716776316488 0 0.065996042814038244 0.05088084349687625 0 0.065731320897300147 0.048176875148191411 0 0.065001168759333039 0.048498716776316488 0 0.062035928736479937 0.059113034574084053 0 0.06373287956627742 0.058532836054612611 0 0.063345947477607981 0.059826901245177144 0 0.064411540652652824 0.052916665240671158 0 0.064499057244055608 0.053548536459046302 0 0.06373287956627742 0.058532836054612611 0 0.062195964744984192 0.058295900688197032 0 0.06290664102191032 0.057263393670987629 0 0.065996042814038244 0.05088084349687625 0 0.064997991116390721 0.052383044468262904 0 0.064841684663728 0.055084937914859966 0 0.06373287956627742 0.058532836054612611 0 0.06290664102191032 0.057263393670987629 0 0.064841684663728 0.055084937914859966 0 0.060905482162172044 0.058549934156242801 0 0.062195964744984192 0.058295900688197032 0 0.061728237668190987 0.057907731047937033 0 0.062195964744984192 0.058295900688197032 0 0.06290664102191032 0.057263393670987629 0 0.061728237668190987 0.057907731047937033 0 0.061728237668190987 0.057907731047937033 0 0.062656987052226956 0.05709257946849413 0 0.061214134121433922 0.058045473562685648 0 0.06290664102191032 0.057263393670987629 0 0.062656987052226956 0.05709257946849413 0 0.064841684663728 0.055084937914859966 0 0.06290664102191032 0.057263393670987629 0 0.061728237668190987 0.057907731047937033 0 0.062656987052226956 0.05709257946849413 0 0.062656987052226956 0.05709257946849413 0 0.064841684663728 0.055084937914859966 0 0.064095968729526331 0.05647618022100323 0 0.064997991116390721 0.052383044468262904 0 0.064841684663728 0.055084937914859966 0 0.064998749617477272 0.056261157700090055 0 0.064841684663728 0.055084937914859966 0 0.064095968729526331 0.05647618022100323 0 0.064998749617477272 0.056261157700090055 0 0.064095968729526331 0.05647618022100323 0 0.064998749617477272 0.056261157700090055 0 0.063443729783571393 0.057654991968739716 0 0.062330447554927983 0.059200566527127338 0 0.063443729783571393 0.057654991968739716 0 0.061593223958749804 0.058528501774641355 0 0.062656987052226956 0.05709257946849413 0 0.063443729783571393 0.057654991968739716 0 0.061593223958749804 0.058528501774641355 0 0.062656987052226956 0.05709257946849413 0 0.064095968729526331 0.05647618022100323 0 0.063443729783571393 0.057654991968739716 0 0.061190550297236336 0.059865742002883186 0 0.061593223958749804 0.058528501774641355 0 0.060262286955138016 0.059503069716728807 0 0.061593223958749804 0.058528501774641355 0 0.060474408409165431 0.058662157083369533 0 0.061214134121433922 0.058045473562685648 0 0.061593223958749804 0.058528501774641355 0 0.060262286955138016 0.059503069716728807 0 0.060474408409165431 0.058662157083369533 0 0.058960827805093666 0.060791415411447787 0 0.059305965703366138 0.059874631640639546 0 0.060262286955138016 0.059503069716728807 0 0.059305965703366138 0.059874631640639546 0 0.060262286955138016 0.059503069716728807 0 0.059617712028223406 0.058997790702125852 0 0.060262286955138016 0.059503069716728807 0 0.060474408409165431 0.058662157083369533 0 0.059617712028223406 0.058997790702125852 0 0.058941723637926831 0.058371643302957237 0 0.060136683191372706 0.058366849736970629 0 0.059617712028223406 0.058997790702125852 0 0.060136683191372706 0.058366849736970629 0 0.060474408409165431 0.058662157083369533 0 0.059617712028223406 0.058997790702125852 0 0.060136683191372706 0.058366849736970629 0 0.060474408409165431 0.058662157083369533 0 0.061214134121433922 0.058045473562685648 0 0.060136683191372706 0.058366849736970629 0 0.061728237668190987 0.057907731047937033 0 0.061214134121433922 0.058045473562685648 0 0.062656987052226956 0.05709257946849413 0 0.061593223958749804 0.058528501774641355 0 0.061214134121433922 0.058045473562685648 0 0.03315381316061955 0.071667906120262456 0 0.033856451086568283 0.074534960735047451 0 0.031794959965197607 0.073676685303621078 0 0.03315381316061955 0.071667906120262456 0 0.035694512313696622 0.073422727417481598 0 0.033856451086568283 0.074534960735047451 0 0.03315381316061955 0.071667906120262456 0 0.031794959965197607 0.073676685303621078 0 0.031755578335461047 0.071530059023222528 0 0.03315381316061955 0.071667906120262456 0 0.035694512313696622 0.073422727417481598 0 0.035313023707408464 0.06994236656920505 0 0.035694512313696622 0.073422727417481598 0 0.035313023707408464 0.06994236656920505 0 0.0383419638165617 0.071949130873525058 0 0.035313023707408464 0.06994236656920505 0 0.033009339707304144 0.067348258941204636 0 0.031934324726501137 0.069889131975774191 0 0.03315381316061955 0.071667906120262456 0 0.035313023707408464 0.06994236656920505 0 0.031934324726501137 0.069889131975774191 0 0.03315381316061955 0.071667906120262456 0 0.031934324726501137 0.069889131975774191 0 0.031755578335461047 0.071530059023222528 0 0.033009339707304144 0.067348258941204636 0 0.035028530371045551 0.065000023289013817 0 0.031218684886319268 0.06499917881608154 0 0.033009339707304144 0.067348258941204636 0 0.035028530371045551 0.065000023289013817 0 0.036547705694952637 0.067147560107895798 0 0.035313023707408464 0.06994236656920505 0 0.033009339707304144 0.067348258941204636 0 0.036547705694952637 0.067147560107895798 0 0.035313023707408464 0.06994236656920505 0 0.036547705694952637 0.067147560107895798 0 0.039063173688557738 0.068774525536833497 0 0.036547705694952637 0.067147560107895798 0 0.038836811917923729 0.06499963857870715 0 0.039063173688557738 0.068774525536833497 0 0.035028530371045551 0.065000023289013817 0 0.036547705694952637 0.067147560107895798 0 0.038836811917923729 0.06499963857870715 0 0.038836811917923729 0.06499963857870715 0 0.039063173688557738 0.068774525536833497 0 0.042590016586503521 0.067599744792639846 0 0.039063173688557738 0.068774525536833497 0 0.0383419638165617 0.071949130873525058 0 0.042860318535819258 0.071452672407591553 0 0.035313023707408464 0.06994236656920505 0 0.039063173688557738 0.068774525536833497 0 0.0383419638165617 0.071949130873525058 0 0.035694512313696622 0.073422727417481598 0 0.0383419638165617 0.071949130873525058 0 0.037959891567581831 0.074188487671900089 0 0.0383419638165617 0.071949130873525058 0 0.042860318535819258 0.071452672407591553 0 0.040177504529400589 0.074349617551240046 0 0.039801131104479553 0.070338797988702101 0 0.039225754377235279 0.069713623472622957 0 0.042860318535819258 0.071452672407591553 0 0.046716459593846911 0.069125161419916398 0 0.045779965617968862 0.074005604770128172 0 0.050027548157503585 0.069799413053696024 0 0.050946854665227172 0.070026583427384742 0 0.042860318535819258 0.071452672407591553 0 0.046716459593846911 0.069125161419916398 0 0.042590016586503521 0.067599744792639846 0 0.039063173688557738 0.068774525536833497 0 0.042860318535819258 0.071452672407591553 0 0.042590016586503521 0.067599744792639846 0 0.038836811917923729 0.06499963857870715 0 0.042590016586503521 0.067599744792639846 0 0.042646160444892382 0.06499945940975442 0 0.042590016586503521 0.067599744792639846 0 0.042646160444892382 0.06499945940975442 0 0.045511950028061479 0.066493048008852307 0 0.04264616044