<?xml version="1.0"?>
<VTKFile type="UnstructuredGrid" version="0.1" byte_order="LittleEndian">
<UnstructuredGrid>
<Piece NumberOfPoints="30881" NumberOfCells="10862">
<Points>
<DataArray type="Float64" NumberOfComponents="3" format="ascii">
-0.49999999999999828 -0.48677703703187492 0 -0.5 -0.5 0 -0.48129281494584059 -0.49338851851593718 0 -0.5 -0.5 0 -0.48129281494584059 -0.49338851851593718 0 -0.46258562989168328 -0.5 0 -0.49999999999999828 -0.48677703703187492 0 -0.48129281494584059 -0.49338851851593718 0 -0.49999999999999828 -0.48677703703187492 0 -0.4824545428279598 -0.47451624516148783 0 -0.48129281494584059 -0.49338851851593718 0 -0.49999999999999828 -0.48677703703187492 0 -0.4824545428279598 -0.47451624516148783 0 -0.5 -0.46599539173150673 0 -0.4824545428279598 -0.47451624516148783 0 -0.46853075243710779 -0.48354990242643758 0 -0.46411508256092049 -0.46598235294430129 0 -0.4824545428279598 -0.47451624516148783 0 -0.48129281494584059 -0.49338851851593718 0 -0.46853075243710779 -0.48354990242643758 0 -0.48129281494584059 -0.49338851851593718 0 -0.46258562989168328 -0.5 0 -0.48129281494584059 -0.49338851851593718 0 -0.46258562989168328 -0.5 0 -0.46853075243710779 -0.48354990242643758 0 -0.46258562989168328 -0.5 0 -0.46853075243710779 -0.48354990242643758 0 -0.45147378687733691 -0.48362213557840178 0 -0.46853075243710779 -0.48354990242643758 0 -0.45147378687733691 -0.48362213557840178 0 -0.46411508256092049 -0.46598235294430129 0 -0.4457251648104853 -0.47020164095208389 0 -0.45147378687733691 -0.48362213557840178 0 -0.46411508256092049 -0.46598235294430129 0 -0.4457251648104853 -0.47020164095208389 0 -0.45147378687733691 -0.48362213557840178 0 -0.43513446131126993 -0.48199891714758791 0 -0.45147378687733691 -0.48362213557840178 0 -0.43275163025255442 -0.5 0 -0.43513446131126993 -0.48199891714758791 0 -0.46258562989168328 -0.5 0 -0.45147378687733691 -0.48362213557840178 0 -0.43275163025255442 -0.5 0 -0.4467190029717853 -0.45478934699519452 0 -0.4422915115958943 -0.43555510214664611 0 -0.43246707723660932 -0.44794326854796312 0 -0.4457251648104853 -0.47020164095208389 0 -0.4467190029717853 -0.45478934699519452 0 -0.46411508256092049 -0.46598235294430129 0 -0.4457251648104853 -0.47020164095208389 0 -0.4467190029717853 -0.45478934699519452 0 -0.43016578207734568 -0.46313500011938619 0 -0.4467190029717853 -0.45478934699519452 0 -0.46411508256092049 -0.46598235294430129 0 -0.47114575579794699 -0.4403844242888923 0 -0.4467190029717853 -0.45478934699519452 0 -0.47114575579794699 -0.4403844242888923 0 -0.4422915115958943 -0.43555510214664611 0 -0.47114575579794699 -0.4403844242888923 0 -0.4422915115958943 -0.43555510214664611 0 -0.46411508256092049 -0.46598235294430129 0 -0.47114575579794699 -0.4403844242888923 0 -0.48354307623736548 -0.45841843211146538 0 -0.4824545428279598 -0.47451624516148783 0 -0.46411508256092049 -0.46598235294430129 0 -0.48354307623736548 -0.45841843211146538 0 -0.4824545428279598 -0.47451624516148783 0 -0.48354307623736548 -0.45841843211146538 0 -0.5 -0.46599539173150673 0 -0.48354307623736548 -0.45841843211146538 0 -0.5 -0.46599539173150673 0 -0.49999999999999972 -0.44521374643113848 0 -0.47114575579794699 -0.4403844242888923 0 -0.49999999999999972 -0.44521374643113848 0 -0.47114575579794699 -0.4403844242888923 0 -0.49999999999999972 -0.44521374643113848 0 -0.48704432221743971 -0.42935617662229603 0 -0.47114575579794699 -0.4403844242888923 0 -0.48354307623736548 -0.45841843211146538 0 -0.49999999999999972 -0.44521374643113848 0 -0.49999999999999972 -0.44521374643113848 0 -0.48704432221743971 -0.42935617662229603 0 -0.5 -0.41591957503128979 0 -0.48704432221743971 -0.42935617662229603 0 -0.5 -0.41591957503128979 0 -0.47703153307181151 -0.41590696073786332 0 -0.5 -0.41591957503128979 0 -0.47703153307181151 -0.41590696073786332 0 -0.48817838912021821 -0.4022119694541284 0 -0.47114575579794699 -0.4403844242888923 0 -0.48704432221743971 -0.42935617662229603 0 -0.47703153307181151 -0.41590696073786332 0 -0.5 -0.38662540363144121 0 -0.47568202340906118 -0.39039593841591919 0 -0.4947615751445838 -0.37332156409002909 0 -0.47568202340906118 -0.39039593841591919 0 -0.4947615751445838 -0.37332156409002909 0 -0.5 -0.38662540363144121 0 -0.48817838912021821 -0.4022119694541284 0 -0.47568202340906118 -0.39039593841591919 0 -0.5 -0.41591957503128979 0 -0.5 -0.38662540363144121 0 -0.48817838912021821 -0.4022119694541284 0 -0.47703153307181151 -0.41590696073786332 0 -0.48817838912021821 -0.4022119694541284 0 -0.47568202340906118 -0.39039593841591919 0 -0.47703153307181151 -0.41590696073786332 0 -0.47568202340906118 -0.39039593841591919 0 -0.45660247167353862 -0.40747031274180939 0 -0.47568202340906118 -0.39039593841591919 0 -0.48030931097003587 -0.37191064435083931 0 -0.46669490250066459 -0.37481721741951951 0 -0.47568202340906118 -0.39039593841591919 0 -0.4947615751445838 -0.37332156409002909 0 -0.48030931097003587 -0.37191064435083931 0 -0.45332061783919553 -0.38729481725706361 0 -0.46669490250066459 -0.37481721741951951 0 -0.45095991715087752 -0.36968037302039969 0 -0.47568202340906118 -0.39039593841591919 0 -0.45332061783919553 -0.38729481725706361 0 -0.46669490250066459 -0.37481721741951951 0 -0.47568202340906118 -0.39039593841591919 0 -0.45660247167353862 -0.40747031274180939 0 -0.47568202340906118 -0.39039593841591919 0 -0.45332061783919553 -0.38729481725706361 0 -0.45660247167353862 -0.40747031274180939 0 -0.44332653075004852 -0.401690115615219 0 -0.44646247228389868 -0.41654464256061052 0 -0.42870657106664078 -0.39987574649354879 0 -0.45332061783919553 -0.38729481725706361 0 -0.44332653075004852 -0.401690115615219 0 -0.43479631603355468 -0.39077639303142497 0 -0.45332061783919553 -0.38729481725706361 0 -0.44332653075004852 -0.401690115615219 0 -0.45660247167353862 -0.40747031274180939 0 -0.45332061783919553 -0.38729481725706361 0 -0.43421362475025049 -0.37527491429266319 0 -0.43479631603355468 -0.39077639303142497 0 -0.45332061783919553 -0.38729481725706361 0 -0.43421362475025049 -0.37527491429266319 0 -0.45095991715087752 -0.36968037302039969 0 -0.47114575579794699 -0.4403844242888923 0 -0.45663439814062529 -0.42533932462455271 0 -0.4422915115958943 -0.43555510214664611 0 -0.47114575579794699 -0.4403844242888923 0 -0.47703153307181151 -0.41590696073786332 0 -0.45663439814062529 -0.42533932462455271 0 -0.45663439814062529 -0.42533932462455271 0 -0.45660247167353862 -0.40747031274180939 0 -0.44646247228389868 -0.41654464256061052 0 -0.47703153307181151 -0.41590696073786332 0 -0.45663439814062529 -0.42533932462455271 0 -0.45660247167353862 -0.40747031274180939 0 -0.44332653075004852 -0.401690115615219 0 -0.45660247167353862 -0.40747031274180939 0 -0.44646247228389868 -0.41654464256061052 0 -0.45660247167353862 -0.40747031274180939 0 -0.44646247228389868 -0.41654464256061052 0 -0.44646247228389868 -0.41654464256061052 0 -0.4375229199380159 -0.42454468706769971 0 -0.45663439814062529 -0.42533932462455271 0 -0.4375229199380159 -0.42454468706769971 0 -0.4422915115958943 -0.43555510214664611 0 -0.45663439814062529 -0.42533932462455271 0 -0.44646247228389868 -0.41654464256061052 0 -0.4375229199380159 -0.42454468706769971 0 -0.4375229199380159 -0.42454468706769971 0 -0.4422915115958943 -0.43555510214664611 0 -0.43077617074680319 -0.43406335077952207 0 -0.43077617074680319 -0.43406335077952207 0 -0.42550232634077589 -0.42345940056268039 0 -0.41950844772475421 -0.43888456563633732 0 -0.4375229199380159 -0.42454468706769971 0 -0.43077617074680319 -0.43406335077952207 0 -0.42550232634077589 -0.42345940056268039 0 -0.44646247228389868 -0.41654464256061052 0 -0.41657232816672918 -0.41306671883907142 0 -0.42870657106664078 -0.39987574649354879 0 -0.44646247228389868 -0.41654464256061052 0 -0.4375229199380159 -0.42454468706769971 0 -0.42550232634077589 -0.42345940056268039 0 -0.44646247228389868 -0.41654464256061052 0 -0.42550232634077589 -0.42345940056268039 0 -0.41657232816672918 -0.41306671883907142 0 -0.44646247228389868 -0.41654464256061052 0 -0.41657232816672918 -0.41306671883907142 0 -0.42550232634077589 -0.42345940056268039 0 -0.41657232816672918 -0.41306671883907142 0 -0.41333489101611293 -0.42699700567040988 0 -0.41657232816672918 -0.41306671883907142 0 -0.41333489101611293 -0.42699700567040988 0 -0.39893236021425188 -0.42931692235905211 0 -0.41333489101611293 -0.42699700567040988 0 -0.39893236021425188 -0.42931692235905211 0 -0.41950844772475421 -0.43888456563633732 0 -0.42550232634077589 -0.42345940056268039 0 -0.41333489101611293 -0.42699700567040988 0 -0.41950844772475421 -0.43888456563633732 0 -0.43421362475025049 -0.37527491429266319 0 -0.42478231784314502 -0.38643128255249681 0 -0.41656514696884139 -0.37636588688318029 0 -0.43421362475025049 -0.37527491429266319 0 -0.42478231784314502 -0.38643128255249681 0 -0.43479631603355468 -0.39077639303142497 0 -0.42478231784314502 -0.38643128255249681 0 -0.43479631603355468 -0.39077639303142497 0 -0.42870657106664078 -0.39987574649354879 0 -0.44332653075004852 -0.401690115615219 0 -0.43479631603355468 -0.39077639303142497 0 -0.42870657106664078 -0.39987574649354879 0 -0.41657232816672918 -0.41306671883907142 0 -0.40962993039643741 -0.3898634720616666 0 -0.3946356370269814 -0.39577424904278191 0 -0.42478231784314502 -0.38643128255249681 0 -0.42870657106664078 -0.39987574649354879 0 -0.40962993039643741 -0.3898634720616666 0 -0.41657232816672918 -0.41306671883907142 0 -0.42870657106664078 -0.39987574649354879 0 -0.40962993039643741 -0.3898634720616666 0 -0.42478231784314502 -0.38643128255249681 0 -0.40962993039643741 -0.3898634720616666 0 -0.41656514696884139 -0.37636588688318029 0 -0.40962993039643741 -0.3898634720616666 0 -0.41656514696884139 -0.37636588688318029 0 -0.40465459864295228 -0.37650109000307358 0 -0.39431275766669582 -0.38061373190328529 0 -0.40465459864295228 -0.37650109000307358 0 -0.3968495855878465 -0.36923685638487008 0 -0.40962993039643741 -0.3898634720616666 0 -0.39431275766669582 -0.38061373190328529 0 -0.40465459864295228 -0.376501090003
[...]
<PointData Scalars="" Vectors="displacement," Tensors="">
<DataArray type="Float64" Name="displacement" NumberOfComponents="3" format="ascii">
-9.0404879264970583e-07 0.06328666913475213 0 6.0289033283384142e-07 0.064996372292158586 0 -2.9396501066009435e-07 0.064948333551375692 0 6.0289033283384142e-07 0.064996372292158586 0 -2.9396501066009435e-07 0.064948333551375692 0 -2.9909487275419004e-07 0.065001597451069731 0 -2.0774677601453145e-07 0.063282349214210887 0 6.3456091214073528e-06 0.064095183707053999 0 2.4620144902422068e-07 0.063277035431644202 0 0.00034486375937283132 0.062297585349123295 0 0.00032569111250806485 0.062926766640348686 0 2.4620144902422068e-07 0.063277035431644202 0 0.00034486375937283132 0.062297585349123295 0 1.9028027499402918e-06 0.060580032454948536 0 0.00034486375937283132 0.062297585349123295 0 0.00020457111845493875 0.063586527765226775 0 0.00028454642592951485 0.063130972103869781 0 0.00034486375937283132 0.062297585349123295 0 0.00032569111250806485 0.062926766640348686 0 0.00020457111845493875 0.063586527765226775 0 6.3456091214073528e-06 0.064095183707053999 0 3.0649705950880419e-07 0.064998468054868183 0 0.00032569111250806485 0.062926766640348686 0 2.2185409312246416e-06 0.064995590450668592 0 0.00020457111845493875 0.063586527765226775 0 2.2185409312246416e-06 0.064995590450668592 0 0.00020457111845493875 0.063586527765226775 0 0.00020043158146205848 0.064163684627559739 0 0.00020457111845493875 0.063586527765226775 0 0.00020043158146205848 0.064163684627559739 0 0.00028454642592951485 0.063130972103869781 0 0.00031384158324170133 0.063659237453290551 0 0.00020043158146205848 0.064163684627559739 0 0.00028454642592951485 0.063130972103869781 0 0.00031384158324170133 0.063659237453290551 0 0.00020043158146205848 0.064163684627559739 0 0.00014810088022772141 0.064194347892234258 0 0.00020043158146205848 0.064163684627559739 0 -5.9503611945321437e-07 0.064999041145195183 0 0.00014810088022772141 0.064194347892234258 0 2.2185409312246416e-06 0.064995590450668592 0 0.00020043158146205848 0.064163684627559739 0 -5.9503611945321437e-07 0.064999041145195183 0 0.0003981059561211903 0.063049193794292857 0 0.0013093596120557741 0.061974509782673097 0 0.00087391400954545486 0.062803590279903052 0 0.00031384158324170133 0.063659237453290551 0 0.0003981059561211903 0.063049193794292857 0 0.00028454642592951485 0.063130972103869781 0 0.00031384158324170133 0.063659237453290551 0 0.0003981059561211903 0.063049193794292857 0 0.00049748200470192086 0.063417262365829952 0 0.0003981059561211903 0.063049193794292857 0 0.00028454642592951485 0.063130972103869781 0 -0.00048723182669177176 0.062696068092212467 0 0.0003981059561211903 0.063049193794292857 0 -0.00048723182669177176 0.062696068092212467 0 0.0013093596120557741 0.061974509782673097 0 0.0002778135318166888 0.059418288523735895 0 0.00040326549405693472 0.060421125897464595 0 0.00028454642592951485 0.063130972103869781 0 -0.00048723182669177176 0.062696068092212467 0 0.00031988615316357093 0.061356012248458457 0 0.00034486375937283132 0.062297585349123295 0 0.00028454642592951485 0.063130972103869781 0 0.00031988615316357093 0.061356012248458457 0 0.00034486375937283132 0.062297585349123295 0 0.00031988615316357093 0.061356012248458457 0 1.9028027499402918e-06 0.060580032454948536 0 0.00031988615316357093 0.061356012248458457 0 1.9028027499402918e-06 0.060580032454948536 0 -3.5992009720402238e-06 0.057883974762250635 0 0.0002778135318166888 0.059418288523735895 0 6.9298719257782596e-07 0.057879377779132921 0 0.0015285915204861738 0.056081574062725452 0 4.2086749651514194e-07 0.057871489795433537 0 0.00062610342179239954 0.055795071455031708 0 -0.00048723182669177176 0.062696068092212467 0 0.00031988615316357093 0.061356012248458457 0 -3.5992009720402238e-06 0.057883974762250635 0 4.2086749651514194e-07 0.057871489795433537 0 0.00062610342179239954 0.055795071455031708 0 1.6309930295660803e-06 0.054071799218891575 0 0.00062610342179239954 0.055795071455031708 0 1.6309930295660803e-06 0.054071799218891575 0 6.1769700515135277e-05 0.055368713861628935 0 1.6309930295660803e-06 0.054071799218891575 0 6.1769700515135277e-05 0.055368713861628935 0 -0.0001507271198873031 0.053357894179569952 0 0.0015285915204861738 0.056081574062725452 0 0.00062610342179239954 0.055795071455031708 0 6.1769700515135277e-05 0.055368713861628935 0 -2.8674785389772392e-06 0.050261070161425676 0 -0.0012150126704446108 0.054153598918653498 0 -0.00045169501717353343 0.048254764138985461 0 9.6915143209491357e-06 0.051090309193995022 0 -1.3744775438578984e-05 0.050652746413348687 0 -2.8674785389772392e-06 0.050261070161425676 0 -0.0001507271198873031 0.053357894179569952 0 -0.0012150126704446108 0.054153598918653498 0 1.6309930295660803e-06 0.054071799218891575 0 -2.8674785389772392e-06 0.050261070161425676 0 -0.0001507271198873031 0.053357894179569952 0 6.1769700515135277e-05 0.055368713861628935 0 -0.0001507271198873031 0.053357894179569952 0 -0.0012150126704446108 0.054153598918653498 0 6.1769700515135277e-05 0.055368713861628935 0 -0.0012150126704446108 0.054153598918653498 0 -0.0011784493405918683 0.057886347584094083 0 -0.00057112383079820311 0.044231179788907588 0 -0.00027572255341074643 0.045216586257680977 0 -0.00039149455687621017 0.044358442598000578 0 -0.00057112383079820311 0.044231179788907588 0 -0.00045169501717353343 0.048254764138985461 0 -0.00027572255341074643 0.045216586257680977 0 0.00024168599014550435 0.044850780601157603 0 -0.00039149455687621017 0.044358442598000578 0 -0.00052392641048898208 0.044808619196070411 0 -0.00057112383079820311 0.044231179788907588 0 0.00024168599014550435 0.044850780601157603 0 -0.00039149455687621017 0.044358442598000578 0 9.6915143209491357e-06 0.051090309193995022 0 0.00045604374898048023 0.052583607515883708 0 -0.00057112383079820311 0.044231179788907588 0 0.00024168599014550435 0.044850780601157603 0 0.0018839265747936488 0.044637154300979379 0 0.0017132735256634259 0.045700196981671513 0 0.0031512231316230279 0.045396510421496256 0 0.0018993062637540088 0.047144341112766899 0 0.00024168599014550435 0.044850780601157603 0 0.0017132735256634259 0.045700196981671513 0 0.00082600355727307422 0.046426106333579853 0 0.00024168599014550435 0.044850780601157603 0 0.0017132735256634259 0.045700196981671513 0 0.0018839265747936488 0.044637154300979379 0 0.00024168599014550435 0.044850780601157603 0 -0.00044771888503970266 0.046249205628171169 0 0.00082600355727307422 0.046426106333579853 0 0.00024168599014550435 0.044850780601157603 0 -0.00044771888503970266 0.046249205628171169 0 -0.00052392641048898208 0.044808619196070411 0 0.0015285915204861738 0.056081574062725452 0 0.00026409782419259175 0.058555791007963438 0 0.0013093596120557741 0.061974509782673097 0 0.0015285915204861738 0.056081574062725452 0 6.1769700515135277e-05 0.055368713861628935 0 0.00026409782419259175 0.058555791007963438 0 0.00026409782419259175 0.058555791007963438 0 -0.0011784493405918683 0.057886347584094083 0 -0.00072861582856753549 0.060109271456718273 0 6.1769700515135277e-05 0.055368713861628935 0 0.00026409782419259175 0.058555791007963438 0 -0.0011784493405918683 0.057886347584094083 0 0.0017132735256634259 0.045700196981671513 0 0.0018839265747936488 0.044637154300979379 0 0.0031512231316230279 0.045396510421496256 0 0.00045604374898048023 0.052583607515883708 0 0.00073499414623339669 0.053672675568657742 0 0.00073499414623339669 0.053672675568657742 0 0.0013102709237917296 0.054793143423121859 0 0.00026409782419259175 0.058555791007963438 0 0.00060688575263702718 0.062236860654737963 0 0.0013093596120557741 0.061974509782673097 0 0.00026409782419259175 0.058555791007963438 0 -0.00072861582856753549 0.060109271456718273 0 0.00060688575263702718 0.062236860654737963 0 0.00060688575263702718 0.062236860654737963 0 0.0013093596120557741 0.061974509782673097 0 0.0010580161805908246 0.062561627854728047 0 0.0010580161805908246 0.062561627854728047 0 0.0010164892014114825 0.062522537949885978 0 0.001063527372945715 0.062753282844913882 0 0.00060688575263702718 0.062236860654737963 0 0.0010580161805908246 0.062561627854728047 0 0.0010164892014114825 0.062522537949885978 0 0.0031512231316230279 0.045396510421496256 0 0.0037652429822605535 0.048613799628733106 0 0.0018993062637540088 0.047144341112766899 0 0.00044834475863208249 0.06214369587030965 0 0.00060688575263702718 0.062236860654737963 0 0.0010164892014114825 0.062522537949885978 0 0.00044834475863208249 0.06214369587030965 0 0.0010164892014114825 0.062522537949885978 0 0.0013638960640738728 0.062627087562837386 0 0.00073499414623339669 0.053672675568657742 0 0.0018687563455197435 0.055560953657828184 0 0.0010164892014114825 0.062522537949885978 0 0.0013638960640738728 0.062627087562837386 0 0.0012429417118807347 0.062557910402982586 0 0.0013638960640738728 0.062627087562837386 0 0.0012429417118807347 0.062557910402982586 0 0.0014403830945404392 0.062258690752952345 0 0.0012429417118807347 0.062557910402982586 0 0.0014403830945404392 0.062258690752952345 0 0.001063527372945715 0.062753282844913882 0 0.0010164892014114825 0.062522537949885978 0 0.0012429417118807347 0.062557910402982586 0 0.001063527372945715 0.062753282844913882 0 -0.00044771888503970266 0.046249205628171169 0 0.00046886171450779884 0.04749978071861629 0 -0.00062512130248937206 0.048384605223062573 0 -0.00044771888503970266 0.046249205628171169 0 0.00046886171450779884 0.04749978071861629 0 0.00082600355727307422 0.046426106333579853 0 0.00046886171450779884 0.04749978071861629 0 0.00082600355727307422 0.046426106333579853 0 0.0018993062637540088 0.047144341112766899 0 0.0017132735256634259 0.045700196981671513 0 0.00082600355727307422 0.046426106333579853 0 0.0018993062637540088 0.047144341112766899 0 0.0037652429822605535 0.048613799628733106 0 0.00090077118014482167 0.049593667184136901 0 0.0017520452147063144 0.052077351415877556 0 0.00046886171450779884 0.04749978071861629 0 0.0018993062637540088 0.047144341112766899 0 0.00090077118014482167 0.049593667184136901 0 0.0037652429822605535 0.048613799628733106 0 0.0018993062637540088 0.047144341112766899 0 0.00090077118014482167 0.049593667184136901 0 0.00046886171450779884 0.04749978071861629 0 0.00090077118014482167 0.049593667184136901 0 -0.00062512130248937206 0.048384605223062573 0 0.00090077118014482167 0.049593667184136901 0 -0.00062512130248937206 0.048384605223062573 0 -0.00085398933971799645 0.050328189283006017 0 -0.00043516215112531274 0.052137664382173599 0 -0.00085398933971799645 0.050328189283006017 0 -0.0020833190402352402 0.051708311692852164 0 0.00090077118014482167 0.049593667184136901 0 -0.00043516215112531274 0.052137664382173599 0 -0.00085398933971799645 0.050328189283006017 0 0.00090077118014482167 0.049593667184136901 0 -0.00043516215112531274 0.052137664382173599 0 0.0017520452147063144 0.052077351415877556 0 0.0017520452147063144 0.052077351415877556 0 0.0040822043423737716 0.053408484776114762 0 0.0016834832478539062 0.055811328323493239 0 0.0017520452147063144 0.052077351415877556 0 -0.00064062320918307472 0.055592115887685534 0 0.0016834832478539062 0.055811328323493239 0 -0.00043516215112531274 0.052137664382173599 0 0.0017520452147063144 0.052077351415877556 0 -0.00064062320918307472 0.055592115887685534 0 -0.00043516215112531274 0.052137664382173599 0 -0.00064062320918307472 0.055592115887685534 0 -0.0020741393113294501 0.053723533142073503 0 0.0013638960640738728 0.062627087562837386 0 0.0014403830945404392 0.062258690752952345 0 0.0024456395903301952 0.061763870495100723 0 0.0037652429822605535 0.048613799628733106 0 0.0017520452147063144 0.052077351415877556 0 0.0040822043423737716 0.053408484776114762 0 0.0018687563455197435 0.055560953657828184 0 0.0024535226619410233 0.057248953485729427 0 0.0024456395903301952 0.061763870495100723 0 0.0017409295343176904 0.061420522442347927 0 0.0022246897649606848 0.060190331053950039 0 0.0017409295343176904 0.061420522442347927 0 0.0011391479912099174 0.061662852655450004 0 0.0016815272779352433 0.060686775781169502 0 0.0014403830945404392 0.062258690752952345 0 0.0017409295343176904 0.061420522442347927 0 0.0011391479912099174 0.061662852655450004 0 0.0014403830945404392 0.062258690752952345 0 0.0024456395903301952 0.061763870495100723 0 0.0017409295343176904 0.061420522442347927 0 0.0011391479912099174 0.061662852655450004 0 0.00089244753923748896 0.062639291294276547 0 0.00052339252448224596 0.062146590324242967 0 0.0014403830945404392 0.062258690752952345 0 0.0011391479912099174 0.061662852655450004 0 0.00089244753923748896 0.062639291294276547 0 0.00089244753923748896 0.062639291294276547 0 0.00052339252448224596 0.062146590324242967 0 0.00033684823364762842 0.062950735861415974 0 0.0011391479912099174 0.061662852655450004 0 0.00052339252448224596 0.062146590324242967 0 0.00060570336511793889 0.061293347353731542 0 0.00052339252448224596 0.062146590324242967 0 -7.943841622901723e-05 0.061708326059126579 0 0.00060570336511793889 0.061293347353731542 0 -7.943841622901723e-05 0.061708326059126579 0 -0.00091025367074977612 0.062416407764319823 0 4.0009429892871039e-05 0.062521315431343663 0 0.00052339252448224596 0.062146590324242967 0 -7.943841622901723e-05 0.061708326059126579 0 4.0009429892871039e-05 0.062521315431343663 0 -4.0609859483746635e-05 0.063919625810642325 0 0.00018622930741913891 0.064448250475521024 0 -3.8451252674885669e-05 0.065064561550831609 0 -1.8591756750571105e-08 0.064998848057680692 0 -5.9962819401828457e-08 0.065000767085671401 0 -3.8451252674885669e-05 0.065064561550831609 0 1.5025268079684622e-05 0.064994023528648762 0 -5.9962819401828457e-08 0.065000767085671401 0 -7.943841622901723e-05 0.061708326059126579 0 -0.00091025367074977612 0.062416407764319823 0 -0.00099825504804746897 0.061198524256062252 0 -4.0609859483746635e-05 0.063919625810642325 0 -8.500871126099087e-05 0.063968463839007464 0 -0.00091025367074977612 0.062416407764319823 0 4.0009429892871039e-05 0.062521315431343663 0 -3.3745338009628299e-05 0.063337869104600181 0 -3.8451252674885669e-05 0.065064561550831609 0 -1.8591756750571105e-08 0.064998848057680692 0 -0.00022783930965712589 0.064491379303153309 0 -0.00091025367074977612 0.062416407764319823 0 -3.3745338009628299e-05 0.063337869104600181 0 -0.00022783930965712589 0.064491379303153309 0 0.00052339252448224596 0.062146590324242967 0 4.0009429892871039e-05 0.062521315431343663 0 0.00033684823364762842 0.062950735861415974 0 4.0009429892871039e-05 0.062521315431343663 0 -3.3745338009628299e-05 0.063337869104600181 0 0.00033684823364762842 0.062950735861415974 0 0.00033684823364762842 0.062950735861415974 0 0.00022364515432129494 0.063786753814207772 0 0.00058429369121439187 0.06319832927170399 0 -3.3745338009628299e-05 0.063337869104600181 0 0.00022364515432129494 0.063786753814207772 0 -0.00022783930965712589 0.064491379303153309 0 -3.3745338009628299e-05 0.063337869104600181 0 0.00033684823364762842 0.062950735861415974 0 0.00022364515432129494 0.063786753814207772 0 0.00022364515432129494 0.063786753814207772 0 -0.00022783930965712589 0.064491379303153309 0 9.5892995080726561e-06 0.064387919087301529 0 -1.8591756750571105e-08 0.064998848057680692 0 -0.00022783930965712589 0.064491379303153309 0 -5.9503611945321437e-07 0.064999041145195183 0 -0.00022783930965712589 0.064491379303153309 0 9.5892995080726561e-06 0.064387919087301529 0 -5.9503611945321437e-07 0.064999041145195183 0 9.5892995080726561e-06 0.064387919087301529 0 -5.9503611945321437e-07 0.064999041145195183 0 0.00014810088022772141 0.064194347892234258 0 0.00031384158324170133 0.063659237453290551 0 0.00014810088022772141 0.064194347892234258 0 0.00049748200470192086 0.063417262365829952 0 0.00022364515432129494 0.063786753814207772 0 0.00014810088022772141 0.064194347892234258 0 0.00049748200470192086 0.063417262365829952 0 0.00022364515432129494 0.063786753814207772 0 9.5892995080726561e-06 0.064387919087301529 0 0.00014810088022772141 0.064194347892234258 0 0.0003981059561211903 0.063049193794292857 0 0.00049748200470192086 0.063417262365829952 0 0.00087391400954545486 0.062803590279903052 0 0.00049748200470192086 0.063417262365829952 0 0.00082135788217727566 0.062994419593668638 0 0.00058429369121439187 0.06319832927170399 0 0.00049748200470192086 0.063417262365829952 0 0.00087391400954545486 0.062803590279903052 0 0.00082135788217727566 0.062994419593668638 0 0.0013093596120557741 0.061974509782673097 0 0.0010580161805908246 0.062561627854728047 0 0.00087391400954545486 0.062803590279903052 0 0.0010580161805908246 0.062561627854728047 0 0.00087391400954545486 0.062803590279903052 0 0.001063527372945715 0.062753282844913882 0 0.00087391400954545486 0.062803590279903052 0 0.00082135788217727566 0.062994419593668638 0 0.001063527372945715 0.062753282844913882 0 0.0014403830945404392 0.062258690752952345 0 0.00089244753923748896 0.062639291294276547 0 0.001063527372945715 0.062753282844913882 0 0.00089244753923748896 0.062639291294276547 0 0.00082135788217727566 0.062994419593668638 0 0.001063527372945715 0.062753282844913882 0 0.00089244753923748896 0.062639291294276547 0 0.00082135788217727566 0.062994419593668638 0 0.00058429369121439187 0.06319832927170399 0 0.00089244753923748896 0.062639291294276547 0 0.00033684823364762842 0.062950735861415974 0 0.00058429369121439187 0.06319832927170399 0 0.00022364515432129494 0.063786753814207772 0 0.00049748200470192086 0.063417262365829952 0 0.00058429369121439187 0.06319832927170399 0 0.00023787008994207578 0.037191469612466208 0 0.00032512393666873354 0.0382452874560067 0 -0.00027401211330571243 0.037989173174789378 0 0.00023787008994207578 0.037191469612466208 0 0.00065589488843642389 0.038133842736500244 0 0.00032512393666873354 0.0382452874560067 0 0.00023787008994207578 0.037191469612466208 0 -0.00027401211330571243 0.037989173174789378 0 -0.00031191778212748082 0.036874199755781149 0 0.00023787008994207578 0.037191469612466208 0 0.00065589488843642389 0.038133842736500244 0 0.00065992287092683972 0.037209252018568423 0 0.00065589488843642389 0.038133842736500244 0 0.00065992287092683972 0.037209252018568423 0 0.00080342443829932734 0.038559827038817412 0 0.00065992287092683972 0.037209252018568423 0 0.00021937616336571052 0.034590633612794859 0 -6.3797460758593577e-05 0.035779428667278443 0 0.00023787008994207578 0.037191469612466208 0 0.00065992287092683972 0.037209252018568423 0 -6.3797460758593577e-05 0.035779428667278443 0 0.00023787008994207578 0.037191469612466208 0 -6.3797460758593577e-05 0.035779428667278443 0 -0.00031191778212748082 0.036874199755781149 0 0.00021937616336571052 0.034590633612794859 0 6.8853710954062184e-07 0.035029330094114512 0 5.9419134099095453e-07 0.031219684657532401 0 0.00021937616336571052 0.034590633612794859 0 6.8853710954062184e-07 0.035029330094114512 0 0.00044085758165922476 0.03707488798363575 0 0.00065992287092683972 0.037209252018568423 0 0.00021937616336571052 0.034590633612794859 0 0.00044085758165922476 0.03707488798363575 0 0.00065992287092683972 0.037209252018568423 0 0.00044085758165922476 0.03707488798363575 0 0.00061226593691909913 0.039013005469560769 0 0.00044085758165922476 0.03707488798363575 0 1.0460151382982798e-06 0.038836961480383451 0 0.00061226593691909913 0.039013005469560769 0 6.8853710954062184e-07 0.035029330094114512 0 0.00044085758165922476 0.03707488798363575 0 1.0460151382982798e-06 0.038836961480383451 0 1.0460151382982798e-06 0.038836961480383451 0 0.00061226593691909913 0.039013005469560769 0 0.00014047640098839909 0.041424968750769349 0 0.00061226593691909913 0.039013005469560769 0 0.00080342443829932734 0.038559827038817412 0 0.00025720385822582874 0.040130183952967968 0 0.00065992287092683972 0.037209252018568423 0 0.00061226593691909913 0.039013005469560769 0 0.00080342443829932734 0.038559827038817412 0 0.00065589488843642389 0.038133842736500244 0 0.00080342443829932734 0.038559827038817412 0 0.00075181525887052817 0.038389167022447865 0 0.00080342443829932734 0.038