<?xml version="1.0"?>
<VTKFile type="UnstructuredGrid" version="0.1" byte_order="LittleEndian">
<UnstructuredGrid>
<Piece NumberOfPoints="30881" NumberOfCells="10862">
<Points>
<DataArray type="Float64" NumberOfComponents="3" format="ascii">
-0.49999999999999828 -0.48677703703187492 0 -0.5 -0.5 0 -0.48129281494584059 -0.49338851851593718 0 -0.5 -0.5 0 -0.48129281494584059 -0.49338851851593718 0 -0.46258562989168328 -0.5 0 -0.49999999999999828 -0.48677703703187492 0 -0.48129281494584059 -0.49338851851593718 0 -0.49999999999999828 -0.48677703703187492 0 -0.4824545428279598 -0.47451624516148783 0 -0.48129281494584059 -0.49338851851593718 0 -0.49999999999999828 -0.48677703703187492 0 -0.4824545428279598 -0.47451624516148783 0 -0.5 -0.46599539173150673 0 -0.4824545428279598 -0.47451624516148783 0 -0.46853075243710779 -0.48354990242643758 0 -0.46411508256092049 -0.46598235294430129 0 -0.4824545428279598 -0.47451624516148783 0 -0.48129281494584059 -0.49338851851593718 0 -0.46853075243710779 -0.48354990242643758 0 -0.48129281494584059 -0.49338851851593718 0 -0.46258562989168328 -0.5 0 -0.48129281494584059 -0.49338851851593718 0 -0.46258562989168328 -0.5 0 -0.46853075243710779 -0.48354990242643758 0 -0.46258562989168328 -0.5 0 -0.46853075243710779 -0.48354990242643758 0 -0.45147378687733691 -0.48362213557840178 0 -0.46853075243710779 -0.48354990242643758 0 -0.45147378687733691 -0.48362213557840178 0 -0.46411508256092049 -0.46598235294430129 0 -0.4457251648104853 -0.47020164095208389 0 -0.45147378687733691 -0.48362213557840178 0 -0.46411508256092049 -0.46598235294430129 0 -0.4457251648104853 -0.47020164095208389 0 -0.45147378687733691 -0.48362213557840178 0 -0.43513446131126993 -0.48199891714758791 0 -0.45147378687733691 -0.48362213557840178 0 -0.43275163025255442 -0.5 0 -0.43513446131126993 -0.48199891714758791 0 -0.46258562989168328 -0.5 0 -0.45147378687733691 -0.48362213557840178 0 -0.43275163025255442 -0.5 0 -0.4467190029717853 -0.45478934699519452 0 -0.4422915115958943 -0.43555510214664611 0 -0.43246707723660932 -0.44794326854796312 0 -0.4457251648104853 -0.47020164095208389 0 -0.4467190029717853 -0.45478934699519452 0 -0.46411508256092049 -0.46598235294430129 0 -0.4457251648104853 -0.47020164095208389 0 -0.4467190029717853 -0.45478934699519452 0 -0.43016578207734568 -0.46313500011938619 0 -0.4467190029717853 -0.45478934699519452 0 -0.46411508256092049 -0.46598235294430129 0 -0.47114575579794699 -0.4403844242888923 0 -0.4467190029717853 -0.45478934699519452 0 -0.47114575579794699 -0.4403844242888923 0 -0.4422915115958943 -0.43555510214664611 0 -0.47114575579794699 -0.4403844242888923 0 -0.4422915115958943 -0.43555510214664611 0 -0.46411508256092049 -0.46598235294430129 0 -0.47114575579794699 -0.4403844242888923 0 -0.48354307623736548 -0.45841843211146538 0 -0.4824545428279598 -0.47451624516148783 0 -0.46411508256092049 -0.46598235294430129 0 -0.48354307623736548 -0.45841843211146538 0 -0.4824545428279598 -0.47451624516148783 0 -0.48354307623736548 -0.45841843211146538 0 -0.5 -0.46599539173150673 0 -0.48354307623736548 -0.45841843211146538 0 -0.5 -0.46599539173150673 0 -0.49999999999999972 -0.44521374643113848 0 -0.47114575579794699 -0.4403844242888923 0 -0.49999999999999972 -0.44521374643113848 0 -0.47114575579794699 -0.4403844242888923 0 -0.49999999999999972 -0.44521374643113848 0 -0.48704432221743971 -0.42935617662229603 0 -0.47114575579794699 -0.4403844242888923 0 -0.48354307623736548 -0.45841843211146538 0 -0.49999999999999972 -0.44521374643113848 0 -0.49999999999999972 -0.44521374643113848 0 -0.48704432221743971 -0.42935617662229603 0 -0.5 -0.41591957503128979 0 -0.48704432221743971 -0.42935617662229603 0 -0.5 -0.41591957503128979 0 -0.47703153307181151 -0.41590696073786332 0 -0.5 -0.41591957503128979 0 -0.47703153307181151 -0.41590696073786332 0 -0.48817838912021821 -0.4022119694541284 0 -0.47114575579794699 -0.4403844242888923 0 -0.48704432221743971 -0.42935617662229603 0 -0.47703153307181151 -0.41590696073786332 0 -0.5 -0.38662540363144121 0 -0.47568202340906118 -0.39039593841591919 0 -0.4947615751445838 -0.37332156409002909 0 -0.47568202340906118 -0.39039593841591919 0 -0.4947615751445838 -0.37332156409002909 0 -0.5 -0.38662540363144121 0 -0.48817838912021821 -0.4022119694541284 0 -0.47568202340906118 -0.39039593841591919 0 -0.5 -0.41591957503128979 0 -0.5 -0.38662540363144121 0 -0.48817838912021821 -0.4022119694541284 0 -0.47703153307181151 -0.41590696073786332 0 -0.48817838912021821 -0.4022119694541284 0 -0.47568202340906118 -0.39039593841591919 0 -0.47703153307181151 -0.41590696073786332 0 -0.47568202340906118 -0.39039593841591919 0 -0.45660247167353862 -0.40747031274180939 0 -0.47568202340906118 -0.39039593841591919 0 -0.48030931097003587 -0.37191064435083931 0 -0.46669490250066459 -0.37481721741951951 0 -0.47568202340906118 -0.39039593841591919 0 -0.4947615751445838 -0.37332156409002909 0 -0.48030931097003587 -0.37191064435083931 0 -0.45332061783919553 -0.38729481725706361 0 -0.46669490250066459 -0.37481721741951951 0 -0.45095991715087752 -0.36968037302039969 0 -0.47568202340906118 -0.39039593841591919 0 -0.45332061783919553 -0.38729481725706361 0 -0.46669490250066459 -0.37481721741951951 0 -0.47568202340906118 -0.39039593841591919 0 -0.45660247167353862 -0.40747031274180939 0 -0.47568202340906118 -0.39039593841591919 0 -0.45332061783919553 -0.38729481725706361 0 -0.45660247167353862 -0.40747031274180939 0 -0.44332653075004852 -0.401690115615219 0 -0.44646247228389868 -0.41654464256061052 0 -0.42870657106664078 -0.39987574649354879 0 -0.45332061783919553 -0.38729481725706361 0 -0.44332653075004852 -0.401690115615219 0 -0.43479631603355468 -0.39077639303142497 0 -0.45332061783919553 -0.38729481725706361 0 -0.44332653075004852 -0.401690115615219 0 -0.45660247167353862 -0.40747031274180939 0 -0.45332061783919553 -0.38729481725706361 0 -0.43421362475025049 -0.37527491429266319 0 -0.43479631603355468 -0.39077639303142497 0 -0.45332061783919553 -0.38729481725706361 0 -0.43421362475025049 -0.37527491429266319 0 -0.45095991715087752 -0.36968037302039969 0 -0.47114575579794699 -0.4403844242888923 0 -0.45663439814062529 -0.42533932462455271 0 -0.4422915115958943 -0.43555510214664611 0 -0.47114575579794699 -0.4403844242888923 0 -0.47703153307181151 -0.41590696073786332 0 -0.45663439814062529 -0.42533932462455271 0 -0.45663439814062529 -0.42533932462455271 0 -0.45660247167353862 -0.40747031274180939 0 -0.44646247228389868 -0.41654464256061052 0 -0.47703153307181151 -0.41590696073786332 0 -0.45663439814062529 -0.42533932462455271 0 -0.45660247167353862 -0.40747031274180939 0 -0.44332653075004852 -0.401690115615219 0 -0.45660247167353862 -0.40747031274180939 0 -0.44646247228389868 -0.41654464256061052 0 -0.45660247167353862 -0.40747031274180939 0 -0.44646247228389868 -0.41654464256061052 0 -0.44646247228389868 -0.41654464256061052 0 -0.4375229199380159 -0.42454468706769971 0 -0.45663439814062529 -0.42533932462455271 0 -0.4375229199380159 -0.42454468706769971 0 -0.4422915115958943 -0.43555510214664611 0 -0.45663439814062529 -0.42533932462455271 0 -0.44646247228389868 -0.41654464256061052 0 -0.4375229199380159 -0.42454468706769971 0 -0.4375229199380159 -0.42454468706769971 0 -0.4422915115958943 -0.43555510214664611 0 -0.43077617074680319 -0.43406335077952207 0 -0.43077617074680319 -0.43406335077952207 0 -0.42550232634077589 -0.42345940056268039 0 -0.41950844772475421 -0.43888456563633732 0 -0.4375229199380159 -0.42454468706769971 0 -0.43077617074680319 -0.43406335077952207 0 -0.42550232634077589 -0.42345940056268039 0 -0.44646247228389868 -0.41654464256061052 0 -0.41657232816672918 -0.41306671883907142 0 -0.42870657106664078 -0.39987574649354879 0 -0.44646247228389868 -0.41654464256061052 0 -0.4375229199380159 -0.42454468706769971 0 -0.42550232634077589 -0.42345940056268039 0 -0.44646247228389868 -0.41654464256061052 0 -0.42550232634077589 -0.42345940056268039 0 -0.41657232816672918 -0.41306671883907142 0 -0.44646247228389868 -0.41654464256061052 0 -0.41657232816672918 -0.41306671883907142 0 -0.42550232634077589 -0.42345940056268039 0 -0.41657232816672918 -0.41306671883907142 0 -0.41333489101611293 -0.42699700567040988 0 -0.41657232816672918 -0.41306671883907142 0 -0.41333489101611293 -0.42699700567040988 0 -0.39893236021425188 -0.42931692235905211 0 -0.41333489101611293 -0.42699700567040988 0 -0.39893236021425188 -0.42931692235905211 0 -0.41950844772475421 -0.43888456563633732 0 -0.42550232634077589 -0.42345940056268039 0 -0.41333489101611293 -0.42699700567040988 0 -0.41950844772475421 -0.43888456563633732 0 -0.43421362475025049 -0.37527491429266319 0 -0.42478231784314502 -0.38643128255249681 0 -0.41656514696884139 -0.37636588688318029 0 -0.43421362475025049 -0.37527491429266319 0 -0.42478231784314502 -0.38643128255249681 0 -0.43479631603355468 -0.39077639303142497 0 -0.42478231784314502 -0.38643128255249681 0 -0.43479631603355468 -0.39077639303142497 0 -0.42870657106664078 -0.39987574649354879 0 -0.44332653075004852 -0.401690115615219 0 -0.43479631603355468 -0.39077639303142497 0 -0.42870657106664078 -0.39987574649354879 0 -0.41657232816672918 -0.41306671883907142 0 -0.40962993039643741 -0.3898634720616666 0 -0.3946356370269814 -0.39577424904278191 0 -0.42478231784314502 -0.38643128255249681 0 -0.42870657106664078 -0.39987574649354879 0 -0.40962993039643741 -0.3898634720616666 0 -0.41657232816672918 -0.41306671883907142 0 -0.42870657106664078 -0.39987574649354879 0 -0.40962993039643741 -0.3898634720616666 0 -0.42478231784314502 -0.38643128255249681 0 -0.40962993039643741 -0.3898634720616666 0 -0.41656514696884139 -0.37636588688318029 0 -0.40962993039643741 -0.3898634720616666 0 -0.41656514696884139 -0.37636588688318029 0 -0.40465459864295228 -0.37650109000307358 0 -0.39431275766669582 -0.38061373190328529 0 -0.40465459864295228 -0.37650109000307358 0 -0.3968495855878465 -0.36923685638487008 0 -0.40962993039643741 -0.3898634720616666 0 -0.39431275766669582 -0.38061373190328529 0 -0.40465459864295228 -0.376501090003
[...]
<PointData Scalars="" Vectors="displacement," Tensors="">
<DataArray type="Float64" Name="displacement" NumberOfComponents="3" format="ascii">
0.064999610335356534 -1.7947635781786797e-07 0 0.064998713106293751 3.6257923420006271e-07 0 0.063054215423873586 -6.0933323893656196e-08 0 0.064998713106293751 3.6257923420006271e-07 0 0.063054215423873586 -6.0933323893656196e-08 0 0.060139091538642421 -5.4456475309868387e-07 0 0.0649942494101034 9.3882891333433097e-07 0 0.06260668875729572 8.7004092336093736e-05 0 0.064996298293713159 1.1363344273602404e-06 0 0.063398247329591428 0.00046687638342798144 0 0.062443075365827938 0.00055242696209998644 0 0.064996298293713159 1.1363344273602404e-06 0 0.063398247329591428 0.00046687638342798144 0 0.064999038832414674 8.2939551101963867e-08 0 0.063398247329591428 0.00046687638342798144 0 0.061746291517741192 0.00039351217055607371 0 0.062277468099517508 0.00053763094442201139 0 0.063398247329591428 0.00046687638342798144 0 0.062443075365827938 0.00055242696209998644 0 0.061746291517741192 0.00039351217055607371 0 0.06260668875729572 8.7004092336093736e-05 0 0.060142054420010381 -6.1927417547975805e-07 0 0.062443075365827938 0.00055242696209998644 0 0.060135271909933903 2.0767274898680076e-06 0 0.061746291517741192 0.00039351217055607371 0 0.060135271909933903 2.0767274898680076e-06 0 0.061746291517741192 0.00039351217055607371 0 0.060151559384842825 0.00034974764210986899 0 0.061746291517741192 0.00039351217055607371 0 0.060151559384842825 0.00034974764210986899 0 0.062277468099517508 0.00053763094442201139 0 0.060774718379815913 0.00029637939339841637 0 0.060151559384842825 0.00034974764210986899 0 0.062277468099517508 0.00053763094442201139 0 0.060774718379815913 0.00029637939339841637 0 0.060151559384842825 0.00034974764210986899 0 0.058929899320864107 0.0001205411500631534 0 0.060151559384842825 0.00034974764210986899 0 0.056260827728182486 4.3632145421582194e-07 0 0.058929899320864107 0.0001205411500631534 0 0.060135271909933903 2.0767274898680076e-06 0 0.060151559384842825 0.00034974764210986899 0 0.056260827728182486 4.3632145421582194e-07 0 0.061834132373902818 0.0002604040440374853 0 0.062729868549760134 -4.2679448038384655e-05 0 0.06176948763069532 -0.00024713062386411377 0 0.060774718379815913 0.00029637939339841637 0 0.061834132373902818 0.0002604040440374853 0 0.062277468099517508 0.00053763094442201139 0 0.060774718379815913 0.00029637939339841637 0 0.061834132373902818 0.0002604040440374853 0 0.060660064479516808 -0.00019063891521340566 0 0.061834132373902818 0.0002604040440374853 0 0.062277468099517508 0.00053763094442201139 0 0.063102982954957559 0.00063228346285923952 0 0.061834132373902818 0.0002604040440374853 0 0.063102982954957559 0.00063228346285923952 0 0.062729868549760134 -4.2679448038384655e-05 0 0.064238640127954744 0.00024110577306788589 0 0.063929127564890081 6.79755199333409e-05 0 0.062277468099517508 0.00053763094442201139 0 0.063102982954957559 0.00063228346285923952 0 0.063784889535405731 0.00039283865507517396 0 0.063398247329591428 0.00046687638342798144 0 0.062277468099517508 0.00053763094442201139 0 0.063784889535405731 0.00039283865507517396 0 0.063398247329591428 0.00046687638342798144 0 0.063784889535405731 0.00039283865507517396 0 0.064999038832414674 8.2939551101963867e-08 0 0.063784889535405731 0.00039283865507517396 0 0.064999038832414674 8.2939551101963867e-08 0 0.064997253488424792 5.4237570548285023e-07 0 0.064238640127954744 0.00024110577306788589 0 0.064998592007776662 4.4484085567009818e-07 0 0.064262064769928379 0.00015532636790953599 0 0.064999535072926509 6.6274564123974332e-08 0 0.064692008919778804 8.4257020370568489e-05 0 0.063102982954957559 0.00063228346285923952 0 0.063784889535405731 0.00039283865507517396 0 0.064997253488424792 5.4237570548285023e-07 0 0.064999535072926509 6.6274564123974332e-08 0 0.064692008919778804 8.4257020370568489e-05 0 0.064999408318311996 1.6345860048746464e-07 0 0.064692008919778804 8.4257020370568489e-05 0 0.064999408318311996 1.6345860048746464e-07 0 0.06450423854608657 0.00014332718727326071 0 0.064999408318311996 1.6345860048746464e-07 0 0.06450423854608657 0.00014332718727326071 0 0.06484193228680972 9.6446188577840238e-05 0 0.064262064769928379 0.00015532636790953599 0 0.064692008919778804 8.4257020370568489e-05 0 0.06450423854608657 0.00014332718727326071 0 0.064999440337111122 1.2912426074090938e-07 0 0.064848094494785596 0.00011011168331152991 0 0.064747697412980004 8.5127732965269235e-05 0 0.063560179681849169 -0.0003432576464545118 0 0.063826670296938781 -0.00017326909978085362 0 0.064999440337111122 1.2912426074090938e-07 0 0.06484193228680972 9.6446188577840238e-05 0 0.064848094494785596 0.00011011168331152991 0 0.064999408318311996 1.6345860048746464e-07 0 0.064999440337111122 1.2912426074090938e-07 0 0.06484193228680972 9.6446188577840238e-05 0 0.06450423854608657 0.00014332718727326071 0 0.06484193228680972 9.6446188577840238e-05 0 0.064848094494785596 0.00011011168331152991 0 0.06450423854608657 0.00014332718727326071 0 0.064848094494785596 0.00011011168331152991 0 0.064349293539604308 -2.6970226743558915e-06 0 0.062590108834711458 -0.00028244049840695114 0 0.064044839530015149 -0.00020480347740776177 0 0.063402181791041415 -0.00073316704837145523 0 0.062590108834711458 -0.00028244049840695114 0 0.064747697412980004 8.5127732965269235e-05 0 0.064044839530015149 -0.00020480347740776177 0 0.062365926054377789 -0.0014622950674746406 0 0.063402181791041415 -0.00073316704837145523 0 0.063132730700603656 -0.0013943404562889487 0 0.062590108834711458 -0.00028244049840695114 0 0.062365926054377789 -0.0014622950674746406 0 0.063402181791041415 -0.00073316704837145523 0 0.063560179681849169 -0.0003432576464545118 0 0.063075501338168943 -0.00074600488548169121 0 0.062590108834711458 -0.00028244049840695114 0 0.062365926054377789 -0.0014622950674746406 0 0.061341603535868462 -0.0013508209304074629 0 0.061551255680392949 -0.0019891947294286348 0 0.061011149606069244 -0.0018983257972568358 0 0.061562666808386353 -0.0025419180550200608 0 0.062365926054377789 -0.0014622950674746406 0 0.061551255680392949 -0.0019891947294286348 0 0.061833332704725581 -0.0023173984890209089 0 0.062365926054377789 -0.0014622950674746406 0 0.061551255680392949 -0.0019891947294286348 0 0.061341603535868462 -0.0013508209304074629 0 0.062365926054377789 -0.0014622950674746406 0 0.062312877912609844 -0.0022869530135312295 0 0.061833332704725581 -0.0023173984890209089 0 0.062365926054377789 -0.0014622950674746406 0 0.062312877912609844 -0.0022869530135312295 0 0.063132730700603656 -0.0013943404562889487 0 0.064262064769928379 0.00015532636790953599 0 0.063765944096713781 0.00010026219233753415 0 0.062729868549760134 -4.2679448038384655e-05 0 0.064262064769928379 0.00015532636790953599 0 0.06450423854608657 0.00014332718727326071 0 0.063765944096713781 0.00010026219233753415 0 0.063765944096713781 0.00010026219233753415 0 0.064349293539604308 -2.6970226743558915e-06 0 0.063827292790895093 -0.00015737165709499957 0 0.06450423854608657 0.00014332718727326071 0 0.063765944096713781 0.00010026219233753415 0 0.064349293539604308 -2.6970226743558915e-06 0 0.061551255680392949 -0.0019891947294286348 0 0.061341603535868462 -0.0013508209304074629 0 0.061011149606069244 -0.0018983257972568358 0 0.063075501338168943 -0.00074600488548169121 0 0.062824629085212053 -0.0010134988346436865 0 0.062824629085212053 -0.0010134988346436865 0 0.062954870863604753 -0.00084451018488826684 0 0.063765944096713781 0.00010026219233753415 0 0.062958986922081656 -0.0003041377237382095 0 0.062729868549760134 -4.2679448038384655e-05 0 0.063765944096713781 0.00010026219233753415 0 0.063827292790895093 -0.00015737165709499957 0 0.062958986922081656 -0.0003041377237382095 0 0.062958986922081656 -0.0003041377237382095 0 0.062729868549760134 -4.2679448038384655e-05 0 0.062423867517390062 -0.00040573762562467921 0 0.062423867517390062 -0.00040573762562467921 0 0.062649939736714566 -0.00058641681088855918 0 0.061913142952020307 -0.00074775961754000803 0 0.062958986922081656 -0.0003041377237382095 0 0.062423867517390062 -0.00040573762562467921 0 0.062649939736714566 -0.00058641681088855918 0 0.061011149606069244 -0.0018983257972568358 0 0.061399462318919844 -0.0028315830798447414 0 0.061562666808386353 -0.0025419180550200608 0 0.063134717276837574 -0.00010150803579189299 0 0.062958986922081656 -0.0003041377237382095 0 0.062649939736714566 -0.00058641681088855918 0 0.063134717276837574 -0.00010150803579189299 0 0.062649939736714566 -0.00058641681088855918 0 0.062687348589906308 -0.00085528694770434037 0 0.062824629085212053 -0.0010134988346436865 0 0.062321198172876263 -0.0014602572737472189 0 0.062649939736714566 -0.00058641681088855918 0 0.062687348589906308 -0.00085528694770434037 0 0.062247997304603307 -0.00096925798194153346 0 0.062687348589906308 -0.00085528694770434037 0 0.062247997304603307 -0.00096925798194153346 0 0.061918004428304078 -0.0014458072290339545 0 0.062247997304603307 -0.00096925798194153346 0 0.061918004428304078 -0.0014458072290339545 0 0.061913142952020307 -0.00074775961754000803 0 0.062649939736714566 -0.00058641681088855918 0 0.062247997304603307 -0.00096925798194153346 0 0.061913142952020307 -0.00074775961754000803 0 0.062312877912609844 -0.0022869530135312295 0 0.061717037490609819 -0.0026680966385756104 0 0.061621684399087204 -0.0029839042859449269 0 0.062312877912609844 -0.0022869530135312295 0 0.061717037490609819 -0.0026680966385756104 0 0.061833332704725581 -0.0023173984890209089 0 0.061717037490609819 -0.0026680966385756104 0 0.061833332704725581 -0.0023173984890209089 0 0.061562666808386353 -0.0025419180550200608 0 0.061551255680392949 -0.0019891947294286348 0 0.061833332704725581 -0.0023173984890209089 0 0.061562666808386353 -0.0025419180550200608 0 0.061399462318919844 -0.0028315830798447414 0 0.061442909431798899 -0.002895631207433455 0 0.061404811185784572 -0.0026048182812713197 0 0.061717037490609819 -0.0026680966385756104 0 0.061562666808386353 -0.0025419180550200608 0 0.061442909431798899 -0.002895631207433455 0 0.061399462318919844 -0.0028315830798447414 0 0.061562666808386353 -0.0025419180550200608 0 0.061442909431798899 -0.002895631207433455 0 0.061717037490609819 -0.0026680966385756104 0 0.061442909431798899 -0.002895631207433455 0 0.061621684399087204 -0.0029839042859449269 0 0.061442909431798899 -0.002895631207433455 0 0.061621684399087204 -0.0029839042859449269 0 0.061160929588582581 -0.0029923633697699855 0 0.060947694213634884 -0.0026305584241549003 0 0.061160929588582581 -0.0029923633697699855 0 0.060560333768213348 -0.0027940535744526217 0 0.061442909431798899 -0.002895631207433455 0 0.060947694213634884 -0.0026305584241549003 0 0.061160929588582581 -0.0029923633697699855 0 0.061442909431798899 -0.002895631207433455 0 0.060947694213634884 -0.0026305584241549003 0 0.061404811185784572 -0.0026048182812713197 0 0.061404811185784572 -0.0026048182812713197 0 0.061707254628192584 -0.0023370838029666209 0 0.061280178714383522 -0.0017925835106186478 0 0.061404811185784572 -0.0026048182812713197 0 0.060531993878052442 -0.0017084107055664447 0 0.061280178714383522 -0.0017925835106186478 0 0.060947694213634884 -0.0026305584241549003 0 0.061404811185784572 -0.0026048182812713197 0 0.060531993878052442 -0.0017084107055664447 0 0.060947694213634884 -0.0026305584241549003 0 0.060531993878052442 -0.0017084107055664447 0 0.060159579503936612 -0.0021842530471076018 0 0.062687348589906308 -0.00085528694770434037 0 0.061918004428304078 -0.0014458072290339545 0 0.062076529124843099 -0.0017638122961791123 0 0.061399462318919844 -0.0028315830798447414 0 0.061404811185784572 -0.0026048182812713197 0 0.061707254628192584 -0.0023370838029666209 0 0.062321198172876263 -0.0014602572737472189 0 0.062067412672991311 -0.0016509629677392474 0 0.062076529124843099 -0.0017638122961791123 0 0.061776891331971714 -0.001817640782340154 0 0.061735948747997219 -0.0016706924756635824 0 0.061776891331971714 -0.001817640782340154 0 0.061202411758462957 -0.0019528531912421634 0 0.061555659520272782 -0.0019557889487215145 0 0.061918004428304078 -0.0014458072290339545 0 0.061776891331971714 -0.001817640782340154 0 0.061202411758462957 -0.0019528531912421634 0 0.061918004428304078 -0.0014458072290339545 0 0.062076529124843099 -0.0017638122961791123 0 0.061776891331971714 -0.001817640782340154 0 0.061202411758462957 -0.0019528531912421634 0 0.061011945937587846 -0.0013178039930214342 0 0.060028194435879485 -0.0019989538242718269 0 0.061918004428304078 -0.0014458072290339545 0 0.061202411758462957 -0.0019528531912421634 0 0.061011945937587846 -0.0013178039930214342 0 0.061011945937587846 -0.0013178039930214342 0 0.060028194435879485 -0.0019989538242718269 0 0.059443856036665008 -0.0014748884856851357 0 0.061202411758462957 -0.0019528531912421634 0 0.060028194435879485 -0.0019989538242718269 0 0.060324160264032985 -0.0024148632243221357 0 0.060028194435879485 -0.0019989538242718269 0 0.059043793278232823 -0.0024974015272806321 0 0.060324160264032985 -0.0024148632243221357 0 0.059043793278232823 -0.0024974015272806321 0 0.057668199081576943 -0.0022237491791096795 0 0.058818598092584225 -0.0019939474789165434 0 0.060028194435879485 -0.0019989538242718269 0 0.059043793278232823 -0.0024974015272806321 0 0.058818598092584225 -0.0019939474789165434 0 0.050876148642309202 0.00019247773924966217 0 0.048683580262228444 -0.0010216491644939327 0 0.051042741597023294 -2.1794899551181013e-05 0 0.052381009416885282 -1.81824835715868e-06 0 0.048502502875893388 4.1499220303247242e-07 0 0.051042741597023294 -2.1794899551181013e-05 0 0.048697578461820074 -8.9335072768046916e-05 0 0.048502502875893388 4.1499220303247242e-07 0 0.059043793278232823 -0.0024974015272806321 0 0.057668199081576943 -0.0022237491791096795 0 0.058091274225964259 -0.0030201424875164998 0 0.050876148642309202 0.00019247773924966217 0 0.051627474463848071 0.00085033546189532648 0 0.057668199081576943 -0.0022237491791096795 0 0.058818598092584225 -0.0019939474789165434 0 0.05800736364095746 -0.0014761707167082678 0 0.051042741597023294 -2.1794899551181013e-05 0 0.052381009416885282 -1.81824835715868e-06 0 0.05562633518379264 -0.00032089464857797091 0 0.057668199081576943 -0.0022237491791096795 0 0.05800736364095746 -0.0014761707167082678 0 0.05562633518379264 -0.00032089464857797091 0 0.060028194435879485 -0.0019989538242718269 0 0.058818598092584225 -0.0019939474789165434 0 0.059443856036665008 -0.0014748884856851357 0 0.058818598092584225 -0.0019939474789165434 0 0.05800736364095746 -0.0014761707167082678 0 0.059443856036665008 -0.0014748884856851357 0 0.059443856036665008 -0.0014748884856851357 0 0.058949807593799752 -0.00049592921818650357 0 0.06033616891565774 -0.00081568325638896278 0 0.05800736364095746 -0.0014761707167082678 0 0.058949807593799752 -0.00049592921818650357 0 0.05562633518379264 -0.00032089464857797091 0 0.05800736364095746 -0.0014761707167082678 0 0.059443856036665008 -0.0014748884856851357 0 0.058949807593799752 -0.00049592921818650357 0 0.058949807593799752 -0.00049592921818650357 0 0.05562633518379264 -0.00032089464857797091 0 0.057349570201826058 -0.00012343048053597495 0 0.052381009416885282 -1.81824835715868e-06 0 0.05562633518379264 -0.00032089464857797091 0 0.056260827728182486 4.3632145421582194e-07 0 0.05562633518379264 -0.00032089464857797091 0 0.057349570201826058 -0.00012343048053597495 0 0.056260827728182486 4.3632145421582194e-07 0 0.057349570201826058 -0.00012343048053597495 0 0.056260827728182486 4.3632145421582194e-07 0 0.058929899320864107 0.0001205411500631534 0 0.060774718379815913 0.00029637939339841637 0 0.058929899320864107 0.0001205411500631534 0 0.060660064479516808 -0.00019063891521340566 0 0.058949807593799752 -0.00049592921818650357 0 0.058929899320864107 0.0001205411500631534 0 0.060660064479516808 -0.00019063891521340566 0 0.058949807593799752 -0.00049592921818650357 0 0.057349570201826058 -0.00012343048053597495 0 0.058929899320864107 0.0001205411500631534 0 0.061834132373902818 0.0002604040440374853 0 0.060660064479516808 -0.00019063891521340566 0 0.06176948763069532 -0.00024713062386411377 0 0.060660064479516808 -0.00019063891521340566 0 0.061201720007827434 -0.00065407479874384259 0 0.06033616891565774 -0.00081568325638896278 0 0.060660064479516808 -0.00019063891521340566 0 0.06176948763069532 -0.00024713062386411377 0 0.061201720007827434 -0.00065407479874384259 0 0.062729868549760134 -4.2679448038384655e-05 0 0.062423867517390062 -0.00040573762562467921 0 0.06176948763069532 -0.00024713062386411377 0 0.062423867517390062 -0.00040573762562467921 0 0.06176948763069532 -0.00024713062386411377 0 0.061913142952020307 -0.00074775961754000803 0 0.06176948763069532 -0.00024713062386411377 0 0.061201720007827434 -0.00065407479874384259 0 0.061913142952020307 -0.00074775961754000803 0 0.061918004428304078 -0.0014458072290339545 0 0.061011945937587846 -0.0013178039930214342 0 0.061913142952020307 -0.00074775961754000803 0 0.061011945937587846 -0.0013178039930214342 0 0.061201720007827434 -0.00065407479874384259 0 0.061913142952020307 -0.00074775961754000803 0 0.061011945937587846 -0.0013178039930214342 0 0.061201720007827434 -0.00065407479874384259 0 0.06033616891565774 -0.00081568325638896278 0 0.061011945937587846 -0.0013178039930214342 0 0.059443856036665008 -0.0014748884856851357 0 0.06033616891565774 -0.00081568325638896278 0 0.058949807593799752 -0.00049592921818650357 0 0.060660064479516808 -0.00019063891521340566 0 0.06033616891565774 -0.00081568325638896278 0 0.064794550889319846 5.9264553457614008e-05 0 0.064806777557504427 1.2639077802945734e-05 0 0.06479025739582589 4.4252852017019087e-05 0 0.064794550889319846 5.9264553457614008e-05 0 0.064841364317478389 -1.8050890028902549e-05 0 0.064806777557504427 1.2639077802945734e-05 0 0.064794550889319846 5.9264553457614008e-05 0 0.06479025739582589 4.4252852017019087e-05 0 0.064746247104077656 0.00010537785221198503 0 0.064794550889319846 5.9264553457614008e-05 0 0.064841364317478389 -1.8050890028902549e-05 0 0.064893103268181526 -2.0474546163502974e-05 0 0.064841364317478389 -1.8050890028902549e-05 0 0.064893103268181526 -2.0474546163502974e-05 0 0.064900904826825229 -0.00010913181247686753 0 0.064893103268181526 -2.0474546163502974e-05 0 0.0648678302259839 -4.0305042413590822e-05 0 0.064752691003111457 8.371809081646279e-05 0 0.064794550889319846 5.9264553457614008e-05 0 0.064893103268181526 -2.0474546163502974e-05 0 0.064752691003111457 8.371809081646279e-05 0 0.064794550889319846 5.9264553457614008e-05 0 0.064752691003111457 8.371809081646279e-05 0 0.064746247104077656 0.00010537785221198503 0 0.0648678302259839 -4.0305042413590822e-05 0 0.064999998243715093 2.6048368924545241e-08 0 0.064999355821068236 -3.8428266377606611e-07 0 0.0648678302259839 -4.0305042413590822e-05 0 0.064999998243715093 2.6048368924545241e-08 0 0.064965064017763308 -4.8426097404863032e-05 0 0.064893103268181526 -2.0474546163502974e-05 0 0.0648678302259839 -4.0305042413590822e-05 0 0.064965064017763308 -4.8426097404863032e-05 0 0.064893103268181526 -2.0474546163502974e-05 0 0.064965064017763308 -4.8426097404863032e-05 0 0.064954128203083605 -0.00011241149932577327 0 0.064965064017763308 -4.8426097404863032e-05 0 0.064999944471412927 -7.221885143610269e-08 0 0.064954128203083605 -0.00011241149932577327 0 0.064999998243715093 2.6048368924545241e-08 0 0.064965064017763308 -4.8426097404863032e-05 0 0.064999944471412927 -7.221885143610269e-08 0 0.064999944471412927 -7.221885143610269e-08 0 0.064954128203083605 -0.00011241149932577327 0 0.064947220061705765 -0.00015626667672779374 0 0.064954128203083605 -0.00011241149932577327 0 0.064900904826825229 -0.00010913181247686753 0 0.064876201014623047 -0.00032276962560295658 0 0.064893103268181526 -2.0474546163502974e-05 0 0.064954128203083605 -0.00011241149932577327 0 0.064900904826825229 -0.00010913181247686753 0 0.064841364317478389 -1.8050890028902549e-05 0 0.064900904826825229 -0