<?xml version="1.0"?>
<VTKFile type="UnstructuredGrid" version="0.1" byte_order="LittleEndian">
<UnstructuredGrid>
<Piece NumberOfPoints="29934" NumberOfCells="10516">
<Points>
<DataArray type="Float64" NumberOfComponents="3" format="ascii">
-0.5 -0.5 0 -0.46762736676955269 -0.47409617252917879 0 -0.43560460907974868 -0.50000000000000056 0 -0.5 -0.5 0 -0.46762736676955269 -0.47409617252917879 0 -0.49999999999999961 -0.44826748862051452 0 -0.46762736676955269 -0.47409617252917879 0 -0.43772196989477707 -0.47257531725526558 0 -0.43560460907974868 -0.50000000000000056 0 -0.46762736676955269 -0.47409617252917879 0 -0.43772196989477707 -0.47257531725526558 0 -0.45377708318226001 -0.4596327964651245 0 -0.43772196989477707 -0.47257531725526558 0 -0.43983933070980669 -0.44515063451053072 0 -0.45377708318226001 -0.4596327964651245 0 -0.43772196989477707 -0.47257531725526558 0 -0.43983933070980669 -0.44515063451053072 0 -0.46762736676955269 -0.47409617252917879 0 -0.45377708318226001 -0.4596327964651245 0 -0.46991966535490309 -0.44670906156552259 0 -0.43983933070980669 -0.44515063451053072 0 -0.46991966535490309 -0.44670906156552259 0 -0.43983933070980669 -0.44515063451053072 0 -0.45377708318226001 -0.4596327964651245 0 -0.46991966535490309 -0.44670906156552259 0 -0.43983933070980669 -0.44515063451053072 0 -0.46991966535490309 -0.44670906156552259 0 -0.45684144257326009 -0.43007718344363638 0 -0.46762736676955269 -0.47409617252917879 0 -0.46991966535490309 -0.44670906156552259 0 -0.49999999999999961 -0.44826748862051452 0 -0.46991966535490309 -0.44670906156552259 0 -0.49999999999999961 -0.44826748862051452 0 -0.46991966535490309 -0.44670906156552259 0 -0.49999999999999961 -0.44826748862051452 0 -0.48625309581259402 -0.43464866171576733 0 -0.5 -0.42476393632784593 0 -0.48625309581259402 -0.43464866171576733 0 -0.47509271789547319 -0.41885416034918632 0 -0.49999999999999961 -0.44826748862051452 0 -0.5 -0.42476393632784593 0 -0.48625309581259402 -0.43464866171576733 0 -0.5 -0.42476393632784593 0 -0.47509271789547319 -0.41885416034918632 0 -0.5 -0.40126038403517739 0 -0.46991966535490309 -0.44670906156552259 0 -0.48625309581259402 -0.43464866171576733 0 -0.47509271789547319 -0.41885416034918632 0 -0.5 -0.37775683174250879 0 -0.5 -0.40126038403517739 0 -0.48264375600015208 -0.37810847329754932 0 -0.5 -0.40126038403517739 0 -0.47437189542094338 -0.39359097651992597 0 -0.48264375600015208 -0.37810847329754932 0 -0.47509271789547319 -0.41885416034918632 0 -0.5 -0.40126038403517739 0 -0.47437189542094338 -0.39359097651992597 0 -0.47509271789547319 -0.41885416034918632 0 -0.47437189542094338 -0.39359097651992597 0 -0.45913213784758039 -0.4046238603719049 0 -0.47437189542094338 -0.39359097651992597 0 -0.48264375600015208 -0.37810847329754932 0 -0.46232592600273609 -0.3813298561100994 0 -0.47437189542094338 -0.39359097651992597 0 -0.46232592600273609 -0.3813298561100994 0 -0.45913213784758039 -0.4046238603719049 0 -0.46232592600273609 -0.3813298561100994 0 -0.45913213784758039 -0.4046238603719049 0 -0.44412567168299771 -0.38963268004040857 0 -0.44412567168299771 -0.38963268004040857 0 -0.44198250119640148 -0.41739165727546951 0 -0.44412567168299771 -0.38963268004040857 0 -0.44198250119640148 -0.41739165727546951 0 -0.43218985944351013 -0.40342574304108619 0 -0.45913213784758039 -0.4046238603719049 0 -0.44412567168299771 -0.38963268004040857 0 -0.44198250119640148 -0.41739165727546951 0 -0.44412567168299771 -0.38963268004040857 0 -0.44626884216959378 -0.36187370280534759 0 -0.46232592600273609 -0.3813298561100994 0 -0.44412567168299771 -0.38963268004040857 0 -0.44626884216959378 -0.36187370280534759 0 -0.44412567168299771 -0.38963268004040857 0 -0.43791474735390912 -0.38332244439929392 0 -0.44626884216959378 -0.36187370280534759 0 -0.46991966535490309 -0.44670906156552259 0 -0.47509271789547319 -0.41885416034918632 0 -0.45684144257326009 -0.43007718344363638 0 -0.47509271789547319 -0.41885416034918632 0 -0.45913213784758039 -0.4046238603719049 0 -0.45684144257326009 -0.43007718344363638 0 -0.45913213784758039 -0.4046238603719049 0 -0.45684144257326009 -0.43007718344363638 0 -0.44198250119640148 -0.41739165727546951 0 -0.43983933070980669 -0.44515063451053072 0 -0.45684144257326009 -0.43007718344363638 0 -0.44198250119640148 -0.41739165727546951 0 -0.43983933070980669 -0.44515063451053072 0 -0.44198250119640148 -0.41739165727546951 0 -0.43983933070980669 -0.44515063451053072 0 -0.44198250119640148 -0.41739165727546951 0 -0.42702082230643101 -0.42877332507398619 0 -0.44198250119640148 -0.41739165727546951 0 -0.42702082230643101 -0.42877332507398619 0 -0.42662463509224258 -0.41514759188608569 0 -0.44198250119640148 -0.41739165727546951 0 -0.42662463509224258 -0.41514759188608569 0 -0.43218985944351013 -0.40342574304108619 0 -0.42662463509224258 -0.41514759188608569 0 -0.43218985944351013 -0.40342574304108619 0 -0.41902822484986341 -0.40383216776077019 0 -0.41056900679878189 -0.42194665790661928 0 -0.41902822484986341 -0.40383216776077019 0 -0.40532883761082872 -0.40142899444776797 0 -0.42662463509224258 -0.41514759188608569 0 -0.41056900679878189 -0.42194665790661928 0 -0.41902822484986341 -0.40383216776077019 0 -0.41056900679878189 -0.42194665790661928 0 -0.39727600112878991 -0.44294547804694051 0 -0.41855766591929838 -0.44404805627873573 0 -0.42702082230643101 -0.42877332507398619 0 -0.42662463509224258 -0.41514759188608569 0 -0.41056900679878189 -0.42194665790661928 0 -0.42702082230643101 -0.42877332507398619 0 -0.41056900679878189 -0.42194665790661928 0 -0.41855766591929838 -0.44404805627873573 0 -0.42742859016246981 -0.37678441008047658 0 -0.42918826439604529 -0.3911246182426969 0 -0.41343349607248392 -0.39041141666690432 0 -0.43791474735390912 -0.38332244439929392 0 -0.42742859016246981 -0.37678441008047658 0 -0.42918826439604529 -0.3911246182426969 0 -0.44412567168299771 -0.38963268004040857 0 -0.43791474735390912 -0.38332244439929392 0 -0.42918826439604529 -0.3911246182426969 0 -0.44412567168299771 -0.38963268004040857 0 -0.42918826439604529 -0.3911246182426969 0 -0.43218985944351013 -0.40342574304108619 0 -0.42918826439604529 -0.3911246182426969 0 -0.43218985944351013 -0.40342574304108619 0 -0.41902822484986341 -0.40383216776077019 0 -0.42918826439604529 -0.3911246182426969 0 -0.41902822484986341 -0.40383216776077019 0 -0.41343349607248392 -0.39041141666690432 0 -0.41902822484986341 -0.40383216776077019 0 -0.41343349607248392 -0.39041141666690432 0 -0.40532883761082872 -0.40142899444776797 0 -0.42742859016246981 -0.37678441008047658 0 -0.40468887922437252 -0.37724770059752027 0 -0.42742859016246981 -0.37678441008047658 0 -0.41343349607248392 -0.39041141666690432 0 -0.40468887922437252 -0.37724770059752027 0 -0.40468887922437252 -0.37724770059752027 0 -0.38194916828627518 -0.37771099111456408 0 -0.40468887922437252 -0.37724770059752027 0 -0.39493818019132387 -0.39205060887219378 0 -0.38194916828627518 -0.37771099111456408 0 -0.41343349607248392 -0.39041141666690432 0 -0.40468887922437252 -0.37724770059752027 0 -0.39493818019132387 -0.39205060887219378 0 -0.39493818019132387 -0.39205060887219378 0 -0.40532883761082872 -0.40142899444776797 0 -0.39277456519772042 -0.4099560525308672 0 -0.41343349607248392 -0.39041141666690432 0 -0.39493818019132387 -0.39205060887219378 0 -0.40532883761082872 -0.40142899444776797 0 -0.39493818019132387 -0.39205060887219378 0 -0.37598509500569272 -0.39823253503515998 0 -0.39277456519772042 -0.4099560525308672 0 -0.39493818019132387 -0.39205060887219378 0 -0.37598509500569272 -0.39823253503515998 0 -0.38194916828627518 -0.37771099111456408 0 -0.37598509500569272 -0.39823253503515998 0 -0.38194916828627518 -0.37771099111456408 0 -0.36794806572274641 -0.38789943445554981 0 -0.41056900679878189 -0.42194665790661928 0 -0.39030060063932043 -0.42731579243036771 0 -0.39727600112878991 -0.44294547804694051 0 -0.41056900679878189 -0.42194665790661928 0 -0.40532883761082872 -0.40142899444776797 0 -0.39277456519772042 -0.4099560525308672 0 -0.41056900679878189 -0.42194665790661928 0 -0.39277456519772042 -0.4099560525308672 0 -0.39030060063932043 -0.42731579243036771 0 -0.39277456519772042 -0.4099560525308672 0 -0.39030060063932043 -0.42731579243036771 0 -0.37488909373302781 -0.41988787385226561 0 -0.37598509500569272 -0.39823253503515998 0 -0.39277456519772042 -0.4099560525308672 0 -0.37488909373302781 -0.41988787385226561 0 -0.39030060063932043 -0.42731579243036771 0 -0.3759943363382815 -0.44184289981514541 0 -0.39727600112878991 -0.44294547804694051 0 -0.39030060063932043 -0.42731579243036771 0 -0.3759943363382815 -0.44184289981514541 0 -0.37488909373302781 -0.41988787385226561 0 -0.3759943363382815 -0.44184289981514541 0 -0.39727600112878991 -0.44294547804694051 0 -0.3759943363382815 -0.44184289981514541 0 -0.39727600112878991 -0.44294547804694051 0 -0.38920447147529519 -0.46172994394109163 0 -0.39727600112878991 -0.44294547804694051 0 -0.40597569155464153 -0.45637079042433382 0 -0.38920447147529519 -0.46172994394109163 0 -0.40597569155464153 -0.45637079042433382 0 -0.38920447147529519 -0.46172994394109163 0 -0.4135995120771444 -0.47043496429189152 0 -0.3759943363382815 -0.44184289981514541 0 -0.38920447147529519 -0.46172994394109163 0 -0.37310865864376852 -0.45653282154445002 0 -0.38920447147529519 -0.46172994394109163 0 -0.37427480159930482 -0.46751936413266731 0 -0.37310865864376852 -0.45653282154445002 0 -0.38920447147529519 -0.46172994394109163 0 -0.38007567615417798 -0.47700737555269518 0 -0.39219890587423079 -0.48177022503521377 0 -0.38920447147529519 -0.46172994394109163 0 -0.38007567615417798 -0.47700737555269518 0 -0.37427480159930482 -0.46751936413266731 0 -0.38007567615417798 -0.47700737555269518 0 -0.39219890587423079 -0.48177022503521377 0 -0.37266329855325669 -0.48748192881742952 0 -0.38054789694558239 -0.5 0 -0.39219890587423079 -0.48177022503521377 0 -0.37266329855325669 -0.48748192881742952 0 -0.39219890587423079 -0.48177022503521377 0 -0.37266329855325669 -0.48748192881742952 0 -0.3805478
[...]
<PointData Scalars="" Vectors="displacement," Tensors="">
<DataArray type="Float64" Name="displacement" NumberOfComponents="3" format="ascii">
-1.529561893797201e-06 -0.044995280188540064 0 -0.00018860422170313397 -0.044196703805083379 0 1.5072475380420524e-07 -0.045000503974949556 0 -1.529561893797201e-06 -0.044995280188540064 0 -0.00018860422170313397 -0.044196703805083379 0 2.8792688751764407e-06 -0.040352870650044767 0 -0.00018860422170313397 -0.044196703805083379 0 6.81747593010033e-05 -0.044837093721471315 0 1.5072475380420524e-07 -0.045000503974949556 0 -0.00018860422170313397 -0.044196703805083379 0 6.81747593010033e-05 -0.044837093721471315 0 0.00040357497484686585 -0.044418038706087772 0 6.81747593010033e-05 -0.044837093721471315 0 0.00094049470011673124 -0.044919202786855246 0 0.00040357497484686585 -0.044418038706087772 0 -4.5041869587319983e-05 -0.04550023720741371 0 -0.00031818048850171379 -0.041436965496335666 0 -0.00018860422170313397 -0.044196703805083379 0 0.00040357497484686585 -0.044418038706087772 0 0.0010304684855934631 -0.043558978179638386 0 -0.00031818048850171379 -0.041436965496335666 0 0.00097327832321428785 -0.04000872479276104 0 0.00094049470011673124 -0.044919202786855246 0 0.00040357497484686585 -0.044418038706087772 0 0.0010304684855934631 -0.043558978179638386 0 0.00056079253822604268 -0.035822935899001186 0 0.0007656569748713775 -0.036908106142128444 0 6.6797748451649566e-05 -0.036327714950226998 0 -0.00018860422170313397 -0.044196703805083379 0 0.0010304684855934631 -0.043558978179638386 0 2.8792688751764407e-06 -0.040352870650044767 0 0.00097327832321428785 -0.04000872479276104 0 2.6564990798639965e-07 -0.040344444676594496 0 0.0007656569748713775 -0.036908106142128444 0 2.6766059080480532e-06 -0.040339874148535321 0 -2.1359725755605901e-05 -0.038172304960837788 0 -9.854009042104227e-07 -0.038228697947601274 0 -2.1359725755605901e-05 -0.038172304960837788 0 -0.00036341980980954101 -0.036834235389301619 0 2.6766059080480532e-06 -0.040339874148535321 0 -9.854009042104227e-07 -0.038228697947601274 0 -2.1359725755605901e-05 -0.038172304960837788 0 -9.854009042104227e-07 -0.038228697947601274 0 -0.00036341980980954101 -0.036834235389301619 0 -7.1592508214608442e-07 -0.036113644405758066 0 0.0007656569748713775 -0.036908106142128444 0 -2.1359725755605901e-05 -0.038172304960837788 0 -0.00036341980980954101 -0.036834235389301619 0 -2.1770229921393413e-07 -0.033997283704077404 0 -7.1592508214608442e-07 -0.036113644405758066 0 -0.00019446615781759077 -0.034576965705877045 0 -7.1592508214608442e-07 -0.036113644405758066 0 -0.0003396719933106444 -0.03564506334774082 0 -0.00019446615781759077 -0.034576965705877045 0 -0.00036341980980954101 -0.036834235389301619 0 -7.1592508214608442e-07 -0.036113644405758066 0 -0.0003396719933106444 -0.03564506334774082 0 -0.00036341980980954101 -0.036834235389301619 0 -0.0003396719933106444 -0.03564506334774082 0 -0.00046372543331199117 -0.036122332971417023 0 -0.0003396719933106444 -0.03564506334774082 0 -0.00019446615781759077 -0.034576965705877045 0 -0.00016030179233480371 -0.035717762367953279 0 -0.0003396719933106444 -0.03564506334774082 0 -0.00016030179233480371 -0.035717762367953279 0 -0.00046372543331199117 -0.036122332971417023 0 -0.00016030179233480371 -0.035717762367953279 0 -0.00046372543331199117 -0.036122332971417023 0 -0.00036048864585920521 -0.036162557352906508 0 0.00041192770178704246 -0.038928927840929911 0 -0.0001609710381661446 -0.037313552089392549 0 0.0012491600835741173 -0.039793654005624027 0 -8.8955023320415604e-05 -0.039799427087791411 0 0.00057589052597893685 -0.040263666569069878 0 -0.00046372543331199117 -0.036122332971417023 0 -0.00036048864585920521 -0.036162557352906508 0 -0.00027802354696867268 -0.03597471251504402 0 0.00041192770178704246 -0.038928927840929911 0 0.0010706545157018693 -0.031097337342485702 0 -0.00016030179233480371 -0.035717762367953279 0 -0.00036048864585920521 -0.036162557352906508 0 0.00054356059646924987 -0.036161127012677527 0 0.0012491600835741173 -0.039793654005624027 0 0.0014353320925167955 -0.040001947649341736 0 0.0017512952604957603 -0.039771893167835928 0 0.0007656569748713775 -0.036908106142128444 0 -0.00036341980980954101 -0.036834235389301619 0 6.6797748451649566e-05 -0.036327714950226998 0 -0.00036341980980954101 -0.036834235389301619 0 -0.00046372543331199117 -0.036122332971417023 0 6.6797748451649566e-05 -0.036327714950226998 0 -0.00046372543331199117 -0.036122332971417023 0 6.6797748451649566e-05 -0.036327714950226998 0 -0.00027802354696867268 -0.03597471251504402 0 0.00056079253822604268 -0.035822935899001186 0 6.6797748451649566e-05 -0.036327714950226998 0 -0.00027802354696867268 -0.03597471251504402 0 -0.00031818048850171379 -0.041436965496335666 0 -0.0001609710381661446 -0.037313552089392549 0 -0.0014709278046584374 -0.039927646242076391 0 -8.8955023320415604e-05 -0.039799427087791411 0 -0.00065797032506273348 -0.040556127256897972 0 -8.8955023320415604e-05 -0.039799427087791411 0 -0.00065797032506273348 -0.040556127256897972 0 9.9094381371457296e-06 -0.040554670925488437 0 -8.8955023320415604e-05 -0.039799427087791411 0 9.9094381371457296e-06 -0.040554670925488437 0 0.00057589052597893685 -0.040263666569069878 0 9.9094381371457296e-06 -0.040554670925488437 0 0.00057589052597893685 -0.040263666569069878 0 0.00052082328367438618 -0.04088396523348916 0 -0.00031381086900596705 -0.041387224883530381 0 0.00052082328367438618 -0.04088396523348916 0 0.00060667170065612983 -0.041567139466773373 0 9.9094381371457296e-06 -0.040554670925488437 0 -0.00031381086900596705 -0.041387224883530381 0 0.00052082328367438618 -0.04088396523348916 0 -0.00031381086900596705 -0.041387224883530381 0 -0.0013516607288165991 -0.042141621156178616 0 -0.0014263352498384021 -0.041004582318691182 0 -0.00065797032506273348 -0.040556127256897972 0 9.9094381371457296e-06 -0.040554670925488437 0 -0.00031381086900596705 -0.041387224883530381 0 -0.00065797032506273348 -0.040556127256897972 0 -0.00031381086900596705 -0.041387224883530381 0 -0.0014263352498384021 -0.041004582318691182 0 0.0015242072601267332 -0.040158616956265367 0 0.001102203313189986 -0.040323423035274857 0 0.0010853877609634354 -0.041072852418504974 0 0.0014353320925167955 -0.040001947649341736 0 0.0015242072601267332 -0.040158616956265367 0 0.001102203313189986 -0.040323423035274857 0 0.0012491600835741173 -0.039793654005624027 0 0.0014353320925167955 -0.040001947649341736 0 0.001102203313189986 -0.040323423035274857 0 0.0012491600835741173 -0.039793654005624027 0 0.001102203313189986 -0.040323423035274857 0 0.00057589052597893685 -0.040263666569069878 0 0.001102203313189986 -0.040323423035274857 0 0.00057589052597893685 -0.040263666569069878 0 0.00052082328367438618 -0.04088396523348916 0 0.001102203313189986 -0.040323423035274857 0 0.00052082328367438618 -0.04088396523348916 0 0.0010853877609634354 -0.041072852418504974 0 0.00052082328367438618 -0.04088396523348916 0 0.0010853877609634354 -0.041072852418504974 0 0.00060667170065612983 -0.041567139466773373 0 0.0015874999481464622 -0.040252261273079848 0 0.0017307541710210102 -0.040570260978136714 0 0.0015242072601267332 -0.040158616956265367 0 0.0010853877609634354 -0.041072852418504974 0 0.0017554648996995915 -0.041541830301981872 0 0.0017307541710210102 -0.040570260978136714 0 0.0019143343813898875 -0.041349003498693804 0 0.0017554648996995915 -0.041541830301981872 0 0.0010247429153894998 -0.042082952524833572 0 0.0016917559991392512 -0.042702185885157902 0 0.0010853877609634354 -0.041072852418504974 0 0.0017554648996995915 -0.041541830301981872 0 0.0010247429153894998 -0.042082952524833572 0 0.0010247429153894998 -0.042082952524833572 0 0.00060667170065612983 -0.041567139466773373 0 0.0002184461007429749 -0.04226917240830589 0 0.0010853877609634354 -0.041072852418504974 0 0.0010247429153894998 -0.042082952524833572 0 0.00060667170065612983 -0.041567139466773373 0 0.0010247429153894998 -0.042082952524833572 0 0.00071273214286604429 -0.043015072246749428 0 0.0002184461007429749 -0.04226917240830589 0 0.0010247429153894998 -0.042082952524833572 0 0.00071273214286604429 -0.043015072246749428 0 0.0016917559991392512 -0.042702185885157902 0 0.00071273214286604429 -0.043015072246749428 0 0.0016917559991392512 -0.042702185885157902 0 0.0011815717270758658 -0.043351536232167309 0 -0.00031381086900596705 -0.041387224883530381 0 -0.00053026311231405996 -0.042509049566223381 0 -0.0013516607288165991 -0.042141621156178616 0 -0.00031381086900596705 -0.041387224883530381 0 0.00060667170065612983 -0.041567139466773373 0 0.0002184461007429749 -0.04226917240830589 0 -0.00031381086900596705 -0.041387224883530381 0 0.0002184461007429749 -0.04226917240830589 0 -0.00053026311231405996 -0.042509049566223381 0 0.0002184461007429749 -0.04226917240830589 0 -0.00053026311231405996 -0.042509049566223381 0 -0.0002475710930306545 -0.043195817870208569 0 0.00071273214286604429 -0.043015072246749428 0 0.0002184461007429749 -0.04226917240830589 0 -0.0002475710930306545 -0.043195817870208569 0 -0.00053026311231405996 -0.042509049566223381 0 -0.0010514922504526278 -0.043483320019430546 0 -0.0013516607288165991 -0.042141621156178616 0 -0.00053026311231405996 -0.042509049566223381 0 -0.0010514922504526278 -0.043483320019430546 0 -0.0002475710930306545 -0.043195817870208569 0 -0.0010869609892324111 -0.043477272998531789 0 -0.0011620720719799438 -0.043237799813136427 0 -0.0010514922504526278 -0.043483320019430546 0 -0.0010238012206327677 -0.04445862382108156 0 -0.00053465186515611171 -0.044311138935992755 0 -0.0010238012206327677 -0.04445862382108156 0 -0.00064236808282313175 -0.044695734186073199 0 -0.00053465186515611171 -0.044311138935992755 0 -0.00064236808282313175 -0.044695734186073199 0 -0.00053465186515611171 -0.044311138935992755 0 -0.00030290995637452219 -0.044901311460900657 0 -0.0010514922504526278 -0.043483320019430546 0 -0.00053465186515611171 -0.044311138935992755 0 -0.00076453006534141135 -0.043711648310757134 0 -0.00053465186515611171 -0.044311138935992755 0 -0.00044001355590334387 -0.043859716016637039 0 -0.00076453006534141135 -0.043711648310757134 0 -0.00053465186515611171 -0.044311138935992755 0 -0.00016195263156730516 -0.044134300641617781 0 -3.2861106851692753e-05 -0.044686861624891216 0 -0.00053465186515611171 -0.044311138935992755 0 -0.00016195263156730516 -0.044134300641617781 0 -0.00044001355590334387 -0.043859716016637039 0 -0.00016195263156730516 -0.044134300641617781 0 -3.2861106851692753e-05 -0.044686861624891216 0 0.00022750578367380345 -0.043853538550900233 0 -1.1196382323874369e-07 -0.04499972581867677 0 -3.2861106851692753e-05 -0.044686861624891216 0 2.1586781070381824e-05 -0.044989235623548403 0 -1.6029165439745733e-05 -0.044704640556483613 0 0.00013721948209283253 -0.044350363956968203 0 -1.1196382323874369e-07 -0.04499972581867677 0 -3.2861106851692753e-05 -0.044686861624891216 0 5.529178427003865e-08 -0.044999596075404651 0 -0.00053465186515611171 -0.044311138935992755 0 -3.2861106851692753e-05 -0.044686861624891216 0 -0.00030290995637452219 -0.044901311460900657 0 -3.2861106851692753e-05 -0.044686861624891216 0 -0.00030290995637452219 -0.044901311460900657 0 -7.8999210125133405e-05 -0.045012831623317824 0 -3.2861106851692753e-05 -0.044686861624891216 0 -7.8999210125133405e-05 -0.045012831623317824 0 5.529178427003865e-08 -0.044999596075404651 0 -7.8999210125133405e-05 -0.045012831623317824 0 5.529178427003865e-08 -0.044999596075404651 0 -5.9282691602192879e-08 -0.045000505114718495 0 -4.5041869587319983e-05 -0.04550023720741371 0 -1.6281390365951397e-07 -0.044999761536199626 0 -0.00027280138627994415 -0.045227460405817661 0 -7.8999210125133405e-05 -0.045012831623317824 0 -5.9282691602192879e-08 -0.045000505114718495 0 -0.00027280138627994415 -0.045227460405817661 0 -0.00030290995637452219 -0.044901311460900657 0 -7.8999210125133405e-05 -0.045012831623317824 0 -0.00027280138627994415 -0.045227460405817661 0 -0.00079645012656071404 -0.045305154591049716 0 -0.00056052503482791787 -0.045070257809188947 0 -0.00027280138627994415 -0.045227460405817661 0 -0.00030290995637452219 -0.044901311460900657 0 -0.00056052503482791787 -0.045070257809188947 0 -0.00079645012656071404 -0.045305154591049716 0 -0.00056052503482791787 -0.045070257809188947 0 -0.00087004641820665439 -0.044933741675173694 0 -0.0014709278046584374 -0.039927646242076391 0 -0.00065797032506273348 -0.040556127256897972 0 -0.0014263352498384021 -0.041004582318691182 0 -0.00031818048850171379 -0.041436965496335666 0 -0.0011972542219743753 -0.043194179622048225 0 -0.00064236808282313175 -0.044695734186073199 0 -0.00056052503482791787 -0.045070257809188947 0 -0.00087004641820665439 -0.044933741675173694 0 -0.0011620720719799438 -0.043237799813136427 0 -0.0011972542219743753 -0.043194179622048225 0 -0.0010238012206327677 -0.04445862382108156 0 -0.00064236808282313175 -0.044695734186073199 0 -0.00087004641820665439 -0.044933741675173694 0 -0.00064236808282313175 -0.044695734186073199 0 -0.00030290995637452219 -0.044901311460900657 0 -0.00056052503482791787 -0.045070257809188947 0 0.0016588724488972835 -0.020049080358899761 0 0.0016087395470744245 -0.020194099538601861 0 0.0017353359183233782 -0.020065871729002715 0 0.0015057937792753106 -0.020224000302312951 0 0.0016588724488972835 -0.020049080358899761 0 0.0016087395470744245 -0.020194099538601861 0 0.0015057937792753106 -0.020224000302312951 0 0.0015051544210767538 -0.020304915608325268 0 0.0016087395470744245 -0.020194099538601861 0 0.00040931030977968294 -0.02397535762025715 0 0.001708958232522827 -0.023919398529775877 0 -0.00057111405030232042 -0.02778083897359504 0 0.00048695165413008268 -0.02649381499939029 0 -0.00033347589809201559 -0.026258681537717474 0 -0.00057111405030232042 -0.02778083897359504 0 0.0013156145774742716 -0.027477643270339008 0 0.00048695165413008268 -0.02649381499939029 0 0.0013156145774742716 -0.027477643270339008 0 0.00048695165413008268 -0.02649381499939029 0 0.0019298798835931546 -0.025765981333454126 0 0.00048695165413008268 -0.02649381499939029 0 0.0001311724268766689 -0.025377793509962571 0 0.0019298798835931546 -0.025765981333454126 0 2.422342619253892e-06 -0.023786818911744077 0 0.0001311724268766689 -0.025377793509962571 0 0.0019298798835931546 -0.025765981333454126 0 -1.4668781466099347e-07 -0.023781989592464799 0 0.00097755287246164809 -0.023612566255516918 0 2.422342619253892e-06 -0.023786818911744077 0 -0.00017994791768463704 -0.024822720281071107 0 0.0001311724268766689 -0.025377793509962571 0 2.422342619253892e-06 -0.023786818911744077 0 -0.00017994791768463704 -0.024822720281071107 0 -2.3714801141585876e-06 -0.025396046331105815 0 -0.00017994791768463704 -0.024822720281071107 0 -2.3714801141585876e-06 -0.025396046331105815 0 -0.00017183414502624741 -0.02510286339125949 0 -0.00017994791768463704 -0.024822720281071107 0 -0.00041573076170693256 -0.025282066260854951 0 -0.00017183414502624741 -0.02510286339125949 0 -0.00017994791768463704 -0.024822720281071107 0 -0.00041573076170693256 -0.025282066260854951 0 0.0001311724268766689 -0.025377793509962571 0 -0.00041573076170693256 -0.025282066260854951 0 0.0001311724268766689 -0.025377793509962571 0 -0.00033347589809201559 -0.026258681537717474 0 0.00048695165413008268 -0.02649381499939029 0 0.0001311724268766689 -0.025377793509962571 0 -0.00033347589809201559 -0.026258681537717474 0 -0.00041573076170693256 -0.025282066260854951 0 -0.00033347589809201559 -0.026258681537717474 0 -0.0012051918356381268 -0.026565378234941067 0 -0.00041573076170693256 -0.025282066260854951 0 -0.0012051918356381268 -0.026565378234941067 0 -0.001441321574693951 -0.025185078598312989 0 -0.00041573076170693256 -0.025282066260854951 0 -0.00024187187496990548 -0.025177996173188111 0 -0.0002026471062017229 -0.025146926641565676 0 -0.0011107252406599025 -0.028390041588307713 0 0.00015392739331413267 -0.026744076525410842 0 -0.0024529094742283906 -0.028128194068906917 0 -0.00052901184901196503 -0.025915809105977145 0 -0.0016555066861130814 -0.027827518766604099 0 6.3058341411381864e-05 -0.025693034790466727 0 -0.0020651764844945544 -0.029602160716166618 0 -0.00041573076170693256 -0.025282066260854951 0 -0.00024187187496990548 -0.025177996173188111 0 -0.00017183414502624741 -0.02510286339125949 0 3.0276981164885086e-07 -0.025556832353098646 0 4.9908288961387926e-06 -0.025784870679826051 0 -2.1703253752644286e-07 -0.027664370226769357 0 -0.0016555066861130814 -0.027827518766604099 0 6.3058341411381864e-05 -0.025693034790466727 0 -0.00024187187496990548 -0.025177996173188111 0 -0.0002026471062017229 -0.025146926641565676 0 -9.355051013027927e-05 -0.025282008647022548 0 4.1675171105513336e-07 -0.025555849019543699 0 6.3058341411381864e-05 -0.025693034790466727 0 6.3058341411381864e-05 -0.025693034790466727 0 2.0256032939467692e-07 -0.025400139905210183 0 5.1144833013464115e-10 -0.025554851172234674 0 7.1664453235885654e-08 -0.025660549733250118 0 -3.8225950219624629e-10 -0.025399697502429822 0 -9.355051013027927e-05 -0.025282008647022548 0 -2.3714801141585876e-06 -0.025396046331105815 0 -0.00017183414502624741 -0.02510286339125949 0 -0.00024187187496990548 -0.025177996173188111 0 -9.355051013027927e-05 -0.025282008647022548 0 -0.00017183414502624741 -0.02510286339125949 0 4.9908288961387926e-06 -0.025784870679826051 0 -2.1703253752644286e-07 -0.027664370226769357 0 -1.1048408570302406e-06 -0.02737636598337571 0 -0.0045690836705604169 -0.031904716204665 0 -0.0039009866896655416 -0.032043640119113238 0 -0.0036226792634440289 -0.031421061225494658 0 -0.0016555066861130814 -0.027827518766604099 0 -0.0020651764844945544 -0.029602160716166618 0 -0.0020651764844945544 -0.029602160716166618 0 -0.0026724496416416989 -0.031626336783658462 0 -0.0016555066861130814 -0.027827518766604099 0 -0.0030900068226768261 -0.028881891249618988 0 -0.0045690836705604169 -0.031904716204665 0 -0.0036226792634440289 -0.031421061225494658 0 -0.0035361634161977526 -0.030445328382173686 0 -0.0039009866896655416 -0.032043640119113238 0 -0.0036226792634440289 -0.031421061225494658 0 -0.0026176909276163208 -0.03145887739813321 0 -0.0012051918356381268 -0.026565378234941067 0 -0.001441321574693951 -0.025185078598312989 0 -0.0024038924096061189 -0.026957248390009899 0 -0.0036226792634440289 -0.031421061225494658 0 -0.0035361634161977526 -0.030445328382173686 0 -0.0026176909276163208 -0.03145887739813321 0 -0.0012051918356381268 -0.026565378234941067 0 -0.0024038924096061189 -0.026957248390009899 0 -0.0016455826706482809 -0.027373527612565878 0 -0.0024038924096061189 -0.026957248390009899 0 -0.0016455826706482809 -0.027373527612565878 0 -0.0023709046166902523 -0.028171281025062292 0 -0.0024038924096061189 -0.026957248390009899 0 -0.0023709046166902523 -0.028171281025062292 0 -0.0020658521856343113 -0.028545392683489164 0 -0.00057111405030232042 -0.02778083897359504 0 -0.0016455826706482809 -0.027373527612565878 0 -0.0023709046166902523 -0.028171281025062292 0 -0.00057111405030232042 -0.02778083897359504 0 -0.0012051918356381268 -0.026565378234941067 0 -0.0016455826706482809 -0.027373527612565878 0 -0.00057111405030232042 -0.02778083897359504 0 -0.00033347589809201559 -0.026258681537717474 0 -0.0012051918356381268 -0.026565378234941067 0 0.00040931030977968294 -0.02397535762025715 0 -0.00038821984058592869 -0.024406504453904257 0 0.0015057937792753106 -0.020224000302312951 0 0.0014570509396340575 -0.020374378360948027 0 0.0015051544210767538 -0.020304915608325268 0 0.0015057937792753106 -0.020224000302312951 0 0.0014697397788304973 -0.020408262100395161 0 0.0014570509396340575 -0.020374378360948027 0 0.0014697397788304973 -0.020408262100395161 0 0.0013981963449069192 -0.020474833502904542 0 0.0014570509396340575 -0.020374378360948027 0 -0.00038821984058592869 -0.024406504453904257 0 -0.00041387175868931749 -0.023834902377589277 0 -0.0023709046166902523 -0.028171281025062292 0 -0.0020658521856343113 -0.028545392683489164 0 -0.0015135787173431474 -0.028720099402671569 0 0.00146973977