<?xml version="1.0"?>
<VTKFile type="UnstructuredGrid" version="0.1" byte_order="LittleEndian">
<UnstructuredGrid>
<Piece NumberOfPoints="29934" NumberOfCells="10516">
<Points>
<DataArray type="Float64" NumberOfComponents="3" format="ascii">
-0.5 -0.5 0 -0.46762736676955269 -0.47409617252917879 0 -0.43560460907974868 -0.50000000000000056 0 -0.5 -0.5 0 -0.46762736676955269 -0.47409617252917879 0 -0.49999999999999961 -0.44826748862051452 0 -0.46762736676955269 -0.47409617252917879 0 -0.43772196989477707 -0.47257531725526558 0 -0.43560460907974868 -0.50000000000000056 0 -0.46762736676955269 -0.47409617252917879 0 -0.43772196989477707 -0.47257531725526558 0 -0.45377708318226001 -0.4596327964651245 0 -0.43772196989477707 -0.47257531725526558 0 -0.43983933070980669 -0.44515063451053072 0 -0.45377708318226001 -0.4596327964651245 0 -0.43772196989477707 -0.47257531725526558 0 -0.43983933070980669 -0.44515063451053072 0 -0.46762736676955269 -0.47409617252917879 0 -0.45377708318226001 -0.4596327964651245 0 -0.46991966535490309 -0.44670906156552259 0 -0.43983933070980669 -0.44515063451053072 0 -0.46991966535490309 -0.44670906156552259 0 -0.43983933070980669 -0.44515063451053072 0 -0.45377708318226001 -0.4596327964651245 0 -0.46991966535490309 -0.44670906156552259 0 -0.43983933070980669 -0.44515063451053072 0 -0.46991966535490309 -0.44670906156552259 0 -0.45684144257326009 -0.43007718344363638 0 -0.46762736676955269 -0.47409617252917879 0 -0.46991966535490309 -0.44670906156552259 0 -0.49999999999999961 -0.44826748862051452 0 -0.46991966535490309 -0.44670906156552259 0 -0.49999999999999961 -0.44826748862051452 0 -0.46991966535490309 -0.44670906156552259 0 -0.49999999999999961 -0.44826748862051452 0 -0.48625309581259402 -0.43464866171576733 0 -0.5 -0.42476393632784593 0 -0.48625309581259402 -0.43464866171576733 0 -0.47509271789547319 -0.41885416034918632 0 -0.49999999999999961 -0.44826748862051452 0 -0.5 -0.42476393632784593 0 -0.48625309581259402 -0.43464866171576733 0 -0.5 -0.42476393632784593 0 -0.47509271789547319 -0.41885416034918632 0 -0.5 -0.40126038403517739 0 -0.46991966535490309 -0.44670906156552259 0 -0.48625309581259402 -0.43464866171576733 0 -0.47509271789547319 -0.41885416034918632 0 -0.5 -0.37775683174250879 0 -0.5 -0.40126038403517739 0 -0.48264375600015208 -0.37810847329754932 0 -0.5 -0.40126038403517739 0 -0.47437189542094338 -0.39359097651992597 0 -0.48264375600015208 -0.37810847329754932 0 -0.47509271789547319 -0.41885416034918632 0 -0.5 -0.40126038403517739 0 -0.47437189542094338 -0.39359097651992597 0 -0.47509271789547319 -0.41885416034918632 0 -0.47437189542094338 -0.39359097651992597 0 -0.45913213784758039 -0.4046238603719049 0 -0.47437189542094338 -0.39359097651992597 0 -0.48264375600015208 -0.37810847329754932 0 -0.46232592600273609 -0.3813298561100994 0 -0.47437189542094338 -0.39359097651992597 0 -0.46232592600273609 -0.3813298561100994 0 -0.45913213784758039 -0.4046238603719049 0 -0.46232592600273609 -0.3813298561100994 0 -0.45913213784758039 -0.4046238603719049 0 -0.44412567168299771 -0.38963268004040857 0 -0.44412567168299771 -0.38963268004040857 0 -0.44198250119640148 -0.41739165727546951 0 -0.44412567168299771 -0.38963268004040857 0 -0.44198250119640148 -0.41739165727546951 0 -0.43218985944351013 -0.40342574304108619 0 -0.45913213784758039 -0.4046238603719049 0 -0.44412567168299771 -0.38963268004040857 0 -0.44198250119640148 -0.41739165727546951 0 -0.44412567168299771 -0.38963268004040857 0 -0.44626884216959378 -0.36187370280534759 0 -0.46232592600273609 -0.3813298561100994 0 -0.44412567168299771 -0.38963268004040857 0 -0.44626884216959378 -0.36187370280534759 0 -0.44412567168299771 -0.38963268004040857 0 -0.43791474735390912 -0.38332244439929392 0 -0.44626884216959378 -0.36187370280534759 0 -0.46991966535490309 -0.44670906156552259 0 -0.47509271789547319 -0.41885416034918632 0 -0.45684144257326009 -0.43007718344363638 0 -0.47509271789547319 -0.41885416034918632 0 -0.45913213784758039 -0.4046238603719049 0 -0.45684144257326009 -0.43007718344363638 0 -0.45913213784758039 -0.4046238603719049 0 -0.45684144257326009 -0.43007718344363638 0 -0.44198250119640148 -0.41739165727546951 0 -0.43983933070980669 -0.44515063451053072 0 -0.45684144257326009 -0.43007718344363638 0 -0.44198250119640148 -0.41739165727546951 0 -0.43983933070980669 -0.44515063451053072 0 -0.44198250119640148 -0.41739165727546951 0 -0.43983933070980669 -0.44515063451053072 0 -0.44198250119640148 -0.41739165727546951 0 -0.42702082230643101 -0.42877332507398619 0 -0.44198250119640148 -0.41739165727546951 0 -0.42702082230643101 -0.42877332507398619 0 -0.42662463509224258 -0.41514759188608569 0 -0.44198250119640148 -0.41739165727546951 0 -0.42662463509224258 -0.41514759188608569 0 -0.43218985944351013 -0.40342574304108619 0 -0.42662463509224258 -0.41514759188608569 0 -0.43218985944351013 -0.40342574304108619 0 -0.41902822484986341 -0.40383216776077019 0 -0.41056900679878189 -0.42194665790661928 0 -0.41902822484986341 -0.40383216776077019 0 -0.40532883761082872 -0.40142899444776797 0 -0.42662463509224258 -0.41514759188608569 0 -0.41056900679878189 -0.42194665790661928 0 -0.41902822484986341 -0.40383216776077019 0 -0.41056900679878189 -0.42194665790661928 0 -0.39727600112878991 -0.44294547804694051 0 -0.41855766591929838 -0.44404805627873573 0 -0.42702082230643101 -0.42877332507398619 0 -0.42662463509224258 -0.41514759188608569 0 -0.41056900679878189 -0.42194665790661928 0 -0.42702082230643101 -0.42877332507398619 0 -0.41056900679878189 -0.42194665790661928 0 -0.41855766591929838 -0.44404805627873573 0 -0.42742859016246981 -0.37678441008047658 0 -0.42918826439604529 -0.3911246182426969 0 -0.41343349607248392 -0.39041141666690432 0 -0.43791474735390912 -0.38332244439929392 0 -0.42742859016246981 -0.37678441008047658 0 -0.42918826439604529 -0.3911246182426969 0 -0.44412567168299771 -0.38963268004040857 0 -0.43791474735390912 -0.38332244439929392 0 -0.42918826439604529 -0.3911246182426969 0 -0.44412567168299771 -0.38963268004040857 0 -0.42918826439604529 -0.3911246182426969 0 -0.43218985944351013 -0.40342574304108619 0 -0.42918826439604529 -0.3911246182426969 0 -0.43218985944351013 -0.40342574304108619 0 -0.41902822484986341 -0.40383216776077019 0 -0.42918826439604529 -0.3911246182426969 0 -0.41902822484986341 -0.40383216776077019 0 -0.41343349607248392 -0.39041141666690432 0 -0.41902822484986341 -0.40383216776077019 0 -0.41343349607248392 -0.39041141666690432 0 -0.40532883761082872 -0.40142899444776797 0 -0.42742859016246981 -0.37678441008047658 0 -0.40468887922437252 -0.37724770059752027 0 -0.42742859016246981 -0.37678441008047658 0 -0.41343349607248392 -0.39041141666690432 0 -0.40468887922437252 -0.37724770059752027 0 -0.40468887922437252 -0.37724770059752027 0 -0.38194916828627518 -0.37771099111456408 0 -0.40468887922437252 -0.37724770059752027 0 -0.39493818019132387 -0.39205060887219378 0 -0.38194916828627518 -0.37771099111456408 0 -0.41343349607248392 -0.39041141666690432 0 -0.40468887922437252 -0.37724770059752027 0 -0.39493818019132387 -0.39205060887219378 0 -0.39493818019132387 -0.39205060887219378 0 -0.40532883761082872 -0.40142899444776797 0 -0.39277456519772042 -0.4099560525308672 0 -0.41343349607248392 -0.39041141666690432 0 -0.39493818019132387 -0.39205060887219378 0 -0.40532883761082872 -0.40142899444776797 0 -0.39493818019132387 -0.39205060887219378 0 -0.37598509500569272 -0.39823253503515998 0 -0.39277456519772042 -0.4099560525308672 0 -0.39493818019132387 -0.39205060887219378 0 -0.37598509500569272 -0.39823253503515998 0 -0.38194916828627518 -0.37771099111456408 0 -0.37598509500569272 -0.39823253503515998 0 -0.38194916828627518 -0.37771099111456408 0 -0.36794806572274641 -0.38789943445554981 0 -0.41056900679878189 -0.42194665790661928 0 -0.39030060063932043 -0.42731579243036771 0 -0.39727600112878991 -0.44294547804694051 0 -0.41056900679878189 -0.42194665790661928 0 -0.40532883761082872 -0.40142899444776797 0 -0.39277456519772042 -0.4099560525308672 0 -0.41056900679878189 -0.42194665790661928 0 -0.39277456519772042 -0.4099560525308672 0 -0.39030060063932043 -0.42731579243036771 0 -0.39277456519772042 -0.4099560525308672 0 -0.39030060063932043 -0.42731579243036771 0 -0.37488909373302781 -0.41988787385226561 0 -0.37598509500569272 -0.39823253503515998 0 -0.39277456519772042 -0.4099560525308672 0 -0.37488909373302781 -0.41988787385226561 0 -0.39030060063932043 -0.42731579243036771 0 -0.3759943363382815 -0.44184289981514541 0 -0.39727600112878991 -0.44294547804694051 0 -0.39030060063932043 -0.42731579243036771 0 -0.3759943363382815 -0.44184289981514541 0 -0.37488909373302781 -0.41988787385226561 0 -0.3759943363382815 -0.44184289981514541 0 -0.39727600112878991 -0.44294547804694051 0 -0.3759943363382815 -0.44184289981514541 0 -0.39727600112878991 -0.44294547804694051 0 -0.38920447147529519 -0.46172994394109163 0 -0.39727600112878991 -0.44294547804694051 0 -0.40597569155464153 -0.45637079042433382 0 -0.38920447147529519 -0.46172994394109163 0 -0.40597569155464153 -0.45637079042433382 0 -0.38920447147529519 -0.46172994394109163 0 -0.4135995120771444 -0.47043496429189152 0 -0.3759943363382815 -0.44184289981514541 0 -0.38920447147529519 -0.46172994394109163 0 -0.37310865864376852 -0.45653282154445002 0 -0.38920447147529519 -0.46172994394109163 0 -0.37427480159930482 -0.46751936413266731 0 -0.37310865864376852 -0.45653282154445002 0 -0.38920447147529519 -0.46172994394109163 0 -0.38007567615417798 -0.47700737555269518 0 -0.39219890587423079 -0.48177022503521377 0 -0.38920447147529519 -0.46172994394109163 0 -0.38007567615417798 -0.47700737555269518 0 -0.37427480159930482 -0.46751936413266731 0 -0.38007567615417798 -0.47700737555269518 0 -0.39219890587423079 -0.48177022503521377 0 -0.37266329855325669 -0.48748192881742952 0 -0.38054789694558239 -0.5 0 -0.39219890587423079 -0.48177022503521377 0 -0.37266329855325669 -0.48748192881742952 0 -0.39219890587423079 -0.48177022503521377 0 -0.37266329855325669 -0.48748192881742952 0 -0.3805478
[...]
<PointData Scalars="" Vectors="displacement," Tensors="">
<DataArray type="Float64" Name="displacement" NumberOfComponents="3" format="ascii">
-0.0449952217207698 -0.044996601030082933 0 -0.044142518954206136 -0.043102352748985398 0 -0.044997552209426611 -0.039213873254061463 0 -0.0449952217207698 -0.044996601030082933 0 -0.044142518954206136 -0.043102352748985398 0 -0.040356063457345361 -0.044997383268363791 0 -0.044142518954206136 -0.043102352748985398 0 -0.044382965427799716 -0.041411085221048839 0 -0.044997552209426611 -0.039213873254061463 0 -0.044142518954206136 -0.043102352748985398 0 -0.044382965427799716 -0.041411085221048839 0 -0.044212534431469649 -0.042576826484806485 0 -0.044382965427799716 -0.041411085221048839 0 -0.044585968037168459 -0.042222392042488684 0 -0.044212534431469649 -0.042576826484806485 0 -0.045792264635572913 -0.039737101621874799 0 -0.043940392675349819 -0.041710820996095667 0 -0.044142518954206136 -0.043102352748985398 0 -0.044212534431469649 -0.042576826484806485 0 -0.043530864013664856 -0.043267576904269092 0 -0.043940392675349819 -0.041710820996095667 0 -0.041490755777277802 -0.046218490262239197 0 -0.044585968037168459 -0.042222392042488684 0 -0.044212534431469649 -0.042576826484806485 0 -0.043530864013664856 -0.043267576904269092 0 -0.039965261689489315 -0.049889583514463799 0 -0.040088536342809906 -0.047488119056443852 0 -0.038688785061448697 -0.048554552846245824 0 -0.044142518954206136 -0.043102352748985398 0 -0.043530864013664856 -0.043267576904269092 0 -0.040356063457345361 -0.044997383268363791 0 -0.041490755777277802 -0.046218490262239197 0 -0.040344880963435449 -0.0449977072441827 0 -0.040088536342809906 -0.047488119056443852 0 -0.040343834717910164 -0.04499995600456274 0 -0.039091762682732963 -0.046149723639589676 0 -0.03822877791043474 -0.04499992997285427 0 -0.039091762682732963 -0.046149723639589676 0 -0.037713749314786056 -0.047075704262944197 0 -0.040343834717910164 -0.04499995600456274 0 -0.03822877791043474 -0.04499992997285427 0 -0.039091762682732963 -0.046149723639589676 0 -0.03822877791043474 -0.04499992997285427 0 -0.037713749314786056 -0.047075704262944197 0 -0.036113484047604269 -0.044999937991279153 0 -0.040088536342809906 -0.047488119056443852 0 -0.039091762682732963 -0.046149723639589676 0 -0.037713749314786056 -0.047075704262944197 0 -0.033998148108890479 -0.044999927724079729 0 -0.036113484047604269 -0.044999937991279153 0 -0.034083247536170119 -0.046448967199322629 0 -0.036113484047604269 -0.044999937991279153 0 -0.035480988110714262 -0.047134686256667849 0 -0.034083247536170119 -0.046448967199322629 0 -0.037713749314786056 -0.047075704262944197 0 -0.036113484047604269 -0.044999937991279153 0 -0.035480988110714262 -0.047134686256667849 0 -0.037713749314786056 -0.047075704262944197 0 -0.035480988110714262 -0.047134686256667849 0 -0.036483459927666433 -0.048388701833118365 0 -0.035480988110714262 -0.047134686256667849 0 -0.034083247536170119 -0.046448967199322629 0 -0.034430801191559869 -0.048129099303942852 0 -0.035480988110714262 -0.047134686256667849 0 -0.034430801191559869 -0.048129099303942852 0 -0.036483459927666433 -0.048388701833118365 0 -0.034430801191559869 -0.048129099303942852 0 -0.036483459927666433 -0.048388701833118365 0 -0.035194841814273972 -0.04963547775404227 0 -0.040574539366316373 -0.041971346039351813 0 -0.04124136898537397 -0.042102008513916996 0 -0.044678090342796233 -0.034140530125053581 0 -0.045520145262571789 -0.034347877332705425 0 -0.045114295682256299 -0.034575462827933286 0 -0.036483459927666433 -0.048388701833118365 0 -0.035194841814273972 -0.04963547775404227 0 -0.037622964001259952 -0.04978748280426025 0 -0.040574539366316373 -0.041971346039351813 0 -0.034897748894838619 -0.041089382418780303 0 -0.034430801191559869 -0.048129099303942852 0 -0.035194841814273972 -0.04963547775404227 0 -0.032804165550173528 -0.049420507099786563 0 -0.044678090342796233 -0.034140530125053581 0 -0.044275684944212246 -0.034489444293862831 0 -0.04245888959169155 -0.033854797594216286 0 -0.040088536342809906 -0.047488119056443852 0 -0.037713749314786056 -0.047075704262944197 0 -0.038688785061448697 -0.048554552846245824 0 -0.037713749314786056 -0.047075704262944197 0 -0.036483459927666433 -0.048388701833118365 0 -0.038688785061448697 -0.048554552846245824 0 -0.036483459927666433 -0.048388701833118365 0 -0.038688785061448697 -0.048554552846245824 0 -0.037622964001259952 -0.04978748280426025 0 -0.039965261689489315 -0.049889583514463799 0 -0.038688785061448697 -0.048554552846245824 0 -0.037622964001259952 -0.04978748280426025 0 -0.043940392675349819 -0.041710820996095667 0 -0.04124136898537397 -0.042102008513916996 0 -0.046214495485364819 -0.034472831069082312 0 -0.045520145262571789 -0.034347877332705425 0 -0.045836017807143539 -0.034726799575219534 0 -0.045520145262571789 -0.034347877332705425 0 -0.045836017807143539 -0.034726799575219534 0 -0.045470889568374036 -0.034727479154419767 0 -0.045520145262571789 -0.034347877332705425 0 -0.045470889568374036 -0.034727479154419767 0 -0.045114295682256299 -0.034575462827933286 0 -0.045470889568374036 -0.034727479154419767 0 -0.045114295682256299 -0.034575462827933286 0 -0.045141085937133292 -0.034931096231333308 0 -0.045699322030787651 -0.035100978785439947 0 -0.045141085937133292 -0.034931096231333308 0 -0.045100355431361178 -0.035253822325392557 0 -0.045470889568374036 -0.034727479154419767 0 -0.045699322030787651 -0.035100978785439947 0 -0.045141085937133292 -0.034931096231333308 0 -0.045699322030787651 -0.035100978785439947 0 -0.046304392922089016 -0.035384967685875457 0 -0.046229366030181754 -0.034923725374709794 0 -0.045836017807143539 -0.034726799575219534 0 -0.045470889568374036 -0.034727479154419767 0 -0.045699322030787651 -0.035100978785439947 0 -0.045836017807143539 -0.034726799575219534 0 -0.045699322030787651 -0.035100978785439947 0 -0.046229366030181754 -0.034923725374709794 0 -0.044139946986690631 -0.034755956859616889 0 -0.044674134771016248 -0.034700574514969502 0 -0.044730885507678862 -0.035091374128714596 0 -0.044275684944212246 -0.034489444293862831 0 -0.044139946986690631 -0.034755956859616889 0 -0.044674134771016248 -0.034700574514969502 0 -0.044678090342796233 -0.034140530125053581 0 -0.044275684944212246 -0.034489444293862831 0 -0.044674134771016248 -0.034700574514969502 0 -0.044678090342796233 -0.034140530125053581 0 -0.044674134771016248 -0.034700574514969502 0 -0.045114295682256299 -0.034575462827933286 0 -0.044674134771016248 -0.034700574514969502 0 -0.045114295682256299 -0.034575462827933286 0 -0.045141085937133292 -0.034931096231333308 0 -0.044674134771016248 -0.034700574514969502 0 -0.045141085937133292 -0.034931096231333308 0 -0.044730885507678862 -0.035091374128714596 0 -0.045141085937133292 -0.034931096231333308 0 -0.044730885507678862 -0.035091374128714596 0 -0.045100355431361178 -0.035253822325392557 0 -0.04415759090532699 -0.034796118153581149 0 -0.044182091611145197 -0.03516900900523405 0 -0.044139946986690631 -0.034755956859616889 0 -0.044730885507678862 -0.035091374128714596 0 -0.04442507829643997 -0.035293840029618467 0 -0.044182091611145197 -0.03516900900523405 0 -0.044367374128948797 -0.035975455306376851 0 -0.04442507829643997 -0.035293840029618467 0 -0.044855865730608256 -0.035497762176733547 0 -0.044514448976179295 -0.035796821323214711 0 -0.044730885507678862 -0.035091374128714596 0 -0.04442507829643997 -0.035293840029618467 0 -0.044855865730608256 -0.035497762176733547 0 -0.044855865730608256 -0.035497762176733547 0 -0.045100355431361178 -0.035253822325392557 0 -0.045387790087590502 -0.035519973090380824 0 -0.044730885507678862 -0.035091374128714596 0 -0.044855865730608256 -0.035497762176733547 0 -0.045100355431361178 -0.035253822325392557 0 -0.044855865730608256 -0.035497762176733547 0 -0.045071471540668089 -0.035929444805390211 0 -0.045387790087590502 -0.035519973090380824 0 -0.044855865730608256 -0.035497762176733547 0 -0.045071471540668089 -0.035929444805390211 0 -0.044514448976179295 -0.035796821323214711 0 -0.045071471540668089 -0.035929444805390211 0 -0.044514448976179295 -0.035796821323214711 0 -0.044789265982060657 -0.036139804989632318 0 -0.045699322030787651 -0.035100978785439947 0 -0.045927453527586967 -0.035543184465484351 0 -0.046304392922089016 -0.035384967685875457 0 -0.045699322030787651 -0.035100978785439947 0 -0.045100355431361178 -0.035253822325392557 0 -0.045387790087590502 -0.035519973090380824 0 -0.045699322030787651 -0.035100978785439947 0 -0.045387790087590502 -0.035519973090380824 0 -0.045927453527586967 -0.035543184465484351 0 -0.045387790087590502 -0.035519973090380824 0 -0.045927453527586967 -0.035543184465484351 0 -0.045737467823354909 -0.035935065802500575 0 -0.045071471540668089 -0.035929444805390211 0 -0.045387790087590502 -0.035519973090380824 0 -0.045737467823354909 -0.035935065802500575 0 -0.045927453527586967 -0.035543184465484351 0 -0.046541973662120192 -0.035884628411462227 0 -0.046304392922089016 -0.035384967685875457 0 -0.045927453527586967 -0.035543184465484351 0 -0.046541973662120192 -0.035884628411462227 0 -0.045737467823354909 -0.035935065802500575 0 -0.046601672195805521 -0.035851163948598795 0 -0.046732082767564596 -0.036129880535847543 0 -0.046541973662120192 -0.035884628411462227 0 -0.047230035632881535 -0.036299916750639774 0 -0.046759268732678515 -0.035981536586854969 0 -0.047230035632881535 -0.036299916750639774 0 -0.047011459292187828 -0.036713272826274415 0 -0.046759268732678515 -0.035981536586854969 0 -0.047011459292187828 -0.036713272826274415 0 -0.046759268732678515 -0.035981536586854969 0 -0.046639989979917883 -0.037106084833444589 0 -0.046541973662120192 -0.035884628411462227 0 -0.046759268732678515 -0.035981536586854969 0 -0.046657192990780111 -0.03592043552024108 0 -0.046759268732678515 -0.035981536586854969 0 -0.046602900859580659 -0.03587244576207381 0 -0.046657192990780111 -0.03592043552024108 0 -0.046759268732678515 -0.035981536586854969 0 -0.046490111645317411 -0.035828749858106822 0 -0.046362293828472977 -0.035755271074441458 0 -0.046759268732678515 -0.035981536586854969 0 -0.046490111645317411 -0.035828749858106822 0 -0.046602900859580659 -0.03587244576207381 0 -0.046490111645317411 -0.035828749858106822 0 -0.046362293828472977 -0.035755271074441458 0 -0.046522350548069746 -0.035855076122485174 0 -0.044999742269461046 -0.03424979834884842 0 -0.046362293828472977 -0.035755271074441458 0 -0.04610003782033513 -0.033578799805656687 0 -0.046368078063261979 -0.035537184606627269 0 -0.046366866787954798 -0.034989404696099582 0 -0.044999742269461046 -0.03424979834884842 0 -0.046362293828472977 -0.035755271074441458 0 -0.044999921181612723 -0.036727426879830251 0 -0.046759268732678515 -0.035981536586854969 0 -0.046362293828472977 -0.035755271074441458 0 -0.046639989979917883 -0.037106084833444589 0 -0.046362293828472977 -0.035755271074441458 0 -0.046639989979917883 -0.037106084833444589 0 -0.045829356221012772 -0.037780326679133773 0 -0.046362293828472977 -0.035755271074441458 0 -0.045829356221012772 -0.037780326679133773 0 -0.044999921181612723 -0.036727426879830251 0 -0.045829356221012772 -0.037780326679133773 0 -0.044999921181612723 -0.036727426879830251 0 -0.044999748844020575 -0.039202650768680521 0 -0.045792264635572913 -0.039737101621874799 0 -0.044998778690676131 -0.039204712980911931 0 -0.046544009439938118 -0.038480572723794057 0 -0.045829356221012772 -0.037780326679133773 0 -0.044999748844020575 -0.039202650768680521 0 -0.046544009439938118 -0.038480572723794057 0 -0.046639989979917883 -0.037106084833444589 0 -0.045829356221012772 -0.037780326679133773 0 -0.046544009439938118 -0.038480572723794057 0 -0.047635368443885481 -0.038349384167176093 0 -0.047107494336547553 -0.037723600587905429 0 -0.046544009439938118 -0.038480572723794057 0 -0.046639989979917883 -0.037106084833444589 0 -0.047107494336547553 -0.037723600587905429 0 -0.047635368443885481 -0.038349384167176093 0 -0.047107494336547553 -0.037723600587905429 0 -0.047614916490660401 -0.037326524289178813 0 -0.046214495485364819 -0.034472831069082312 0 -0.045836017807143539 -0.034726799575219534 0 -0.046229366030181754 -0.034923725374709794 0 -0.043940392675349819 -0.041710820996095667 0 -0.047132824135436083 -0.035055508445418375 0 -0.047011459292187828 -0.036713272826274415 0 -0.047107494336547553 -0.037723600587905429 0 -0.047614916490660401 -0.037326524289178813 0 -0.046732082767564596 -0.036129880535847543 0 -0.047132824135436083 -0.035055508445418375 0 -0.047230035632881535 -0.036299916750639774 0 -0.047011459292187828 -0.036713272826274415 0 -0.047614916490660401 -0.037326524289178813 0 -0.047011459292187828 -0.036713272826274415 0 -0.046639989979917883 -0.037106084833444589 0 -0.047107494336547553 -0.037723600587905429 0 -0.022565043111122236 -0.035249319684156649 0 -0.023135510339861411 -0.036644675171529258 0 -0.021707585892127314 -0.036454310296919173 0 -0.024326008197514064 -0.035352631370856667 0 -0.022565043111122236 -0.035249319684156649 0 -0.023135510339861411 -0.036644675171529258 0 -0.024326008197514064 -0.035352631370856667 0 -0.024493764864411943 -0.036750339545695745 0 -0.023135510339861411 -0.036644675171529258 0 -0.024717522315122319 -0.041984051518332573 0 -0.022946925770823825 -0.041653187294825707 0 -0.025192957436973116 -0.048585504760567645 0 -0.023957033178829159 -0.047269013233517516 0 -0.024964450885435023 -0.04697712487897724 0 -0.025192957436973116 -0.048585504760567645 0 -0.023107412585898816 -0.048290056630183355 0 -0.023957033178829159 -0.047269013233517516 0 -0.023107412585898816 -0.048290056630183355 0 -0.023957033178829159 -0.047269013233517516 0 -0.022514895120644616 -0.04657199716189997 0 -0.023957033178829159 -0.047269013233517516 0 -0.024173689629921218 -0.046226474988366913 0 -0.022514895120644616 -0.04657199716189997 0 -0.023783721347676364 -0.044999863825467272 0 -0.024173689629921218 -0.046226474988366913 0 -0.022514895120644616 -0.04657199716189997 0 -0.02378344631665015 -0.044998899048512515 0 -0.022059578724181048 -0.047644026401394472 0 -0.023783721347676364 -0.044999863825467272 0 -0.024723199639568871 -0.04551464161431884 0 -0.024173689629921218 -0.046226474988366913 0 -0.023783721347676364 -0.044999863825467272 0 -0.024723199639568871 -0.04551464161431884 0 -0.02539861922336022 -0.044999896059209697 0 -0.024723199639568871 -0.04551464161431884 0 -0.02539861922336022 -0.044999896059209697 0 -0.025280028166713146 -0.045446949646196458 0 -0.024723199639568871 -0.04551464161431884 0 -0.025246550883346135 -0.046019331783553309 0 -0.025280028166713146 -0.045446949646196458 0 -0.024723199639568871 -0.04551464161431884 0 -0.025246550883346135 -0.046019331783553309 0 -0.024173689629921218 -0.046226474988366913 0 -0.025246550883346135 -0.046019331783553309 0 -0.024173689629921218 -0.046226474988366913 0 -0.024964450885435023 -0.04697712487897724 0 -0.023957033178829159 -0.047269013233517516 0 -0.024173689629921218 -0.046226474988366913 0 -0.024964450885435023 -0.04697712487897724 0 -0.025246550883346135 -0.046019331783553309 0 -0.024964450885435023 -0.04697712487897724 0 -0.026033492100090861 -0.047103919755255096 0 -0.025246550883346135 -0.046019331783553309 0 -0.026033492100090861 -0.047103919755255096 0 -0.026269644755930344 -0.045755870248828753 0 -0.025246550883346135 -0.046019331783553309 0 -0.025540877111874503 -0.045606800679216311 0 -0.026119285383312284 -0.045858947043128387 0 -0.026457006578586403 -0.045848520607355184 0 -0.025861437636156257 -0.045080882547921905 0 -0.027088779534094373 -0.045722586711831832 0 -0.02540378776694191 -0.045989007206206058 0 -0.026383361077889442 -0.045820537613413426 0 -0.02566127559973291 -0.045104167381458012 0 -0.027384178681427 -0.045752464420245179 0 -0.025246550883346135 -0.046019331783553309 0 -0.025540877111874503 -0.045606800679216311 0 -0.025280028166713146 -0.045446949646196458 0 -0.025555265510093815 -0.044999997447978189 0 -0.02566174950175934 -0.045137203333043899 0 -0.027664441029641832 -0.04499999716216338 0 -0.026383361077889442 -0.045820537613413426 0 -0.02566127559973291 -0.045104167381458012 0 -0.025540877111874503 -0.045606800679216311 0 -0.026119285383312284 -0.045858947043128387 0 -0.025561238783194374 -0.045105595905610717 0 -0.025555577321521812 -0.045000240590324661 0 -0.02566127559973291 -0.045104167381458012 0 -0.02566127559973291 -0.045104167381458012 0 -0.025399691886281026 -0.045000116356353523 0 -0.025555260724815218 -0.044999999656823733 0 -0.025661550082641135 -0.045137219963096539 0 -0.025399288000680573 -0.044999999979952431 0 -0.025561238783194374 -0.045105595905610717 0 -0.02539861922336022 -0.044999896059209697 0 -0.025280028166713146 -0.045446949646196458 0 -0.025540877111874503 -0.045606800679216311 0 -0.025561238783194374 -0.045105595905610717 0 -0.025280028166713146 -0.045446949646196458 0 -0.02566174950175934 -0.045137203333043899 0 -0.027664441029641832 -0.04499999716216338 0 -0.027189833911933924 -0.045936037343918171 0 -0.026715859050509164 -0.045756578173690755 0 -0.027452014339533974 -0.045611193204800629 0 -0.027751211963741106 -0.04627706713541458 0 -0.026383361077889442 -0.045820537613413426 0 -0.027384178681427 -0.045752464420245179 0 -0.027384178681427 -0.045752464420245179 0 -0.028905656476992829 -0.046366977703614462 0 -0.026383361077889442 -0.045820537613413426 0 -0.027745116456958079 -0.047251605832720416 0 -0.026715859050509164 -0.045756578173690755 0 -0.027751211963741106 -0.04627706713541458 0 -0.027892357828799598 -0.047275503927353281 0 -0.027452014339533974 -0.045611193204800629 0 -0.027751211963741106 -0.04627706713541458 0 -0.028749548645037318 -0.046286730947726798 0 -0.026033492100090861 -0.047103919755255096 0 -0.026269644755930344 -0.045755870248828753 0 -0.02752728998548179 -0.047162918546914304 0 -0.027751211963741106 -0.04627706713541458 0 -0.027892357828799598 -0.047275503927353281 0 -0.028749548645037318 -0.046286730947726798 0 -0.026033492100090861 -0.047103919755255096 0 -0.02752728998548179 -0.047162918546914304 0 -0.026586928775500684 -0.047936497295843962 0 -0.02752728998548179 -0.047162918546914304 0 -0.026586928775500684 -0.047936497295843962 0 -0.027632897426250153 -0.048898682271819587 0 -0.02752728998548179 -0.047162918546914304 0 -0.027632897426250153 -0.048898682271819587 0 -0.028964717968564098 -0.048776234284348831 0 -0.025192957436973116 -0.048585504760567645 0 -0.026586928775500684 -0.047936497295843962 0 -0.027632897426250153 -0.048898682271819587 0 -0.025192957436973116 -0.048585504760567645 0 -0.026033492100090861 -0.047103919755255096 0 -0.026586928775500684 -0.047936497295843962 0 -0.025192957436973116 -0.048585504760567645 0 -0.024964450885435023 -0.04697712487897724 0 -0.026033492100090861 -0.047103919755255096 0 -0.024717522315122319 -0.041984051518332573 0 -0.027016751811525255 -0.042142020920063708 0 -0.024326008197514064 -0.035352631370856667 0 -0.025520572788479738 -0.03629757711796034 0 -0.024493764864411943 -0.036750339545695745 0 -0.024326008197514064 -0.035352631370856667 0 -0.026072667128681431 -0.035429744497230006 0 -0.025520572788479738 -0.03629757711796034 0 -0.026072667128681431 -0.035429744497230006 0 -0.026479553953964133 -0.03623700116206649 0 -0.025520572788479738 -0.03629757711796034 0 -0.027016751811525255 -0.042142020920063708 0 -0.0286354789245774 -0.042433625851420027 0 -0.027632897426250153 -0.048898682271819587 0 -0.028964717968564098 -0.048776234284348831 0 -0.030274370582392764 -0.04907305482582041 0 -0.026072667128681431 -0.035429744497230006 0 -0.026479553953964133 -0.03623700116206649 0 -0.027539047492265559 -0.035833941869740982 0 -0.026072667128681431 -0.035429744497230006 0 -0.027539047492265559 -0.035833941869740982 0 -0.028301963119899118 -0.035501016261839234 0 -0.026479553953964133 -0.03623700116206649 0 -0.027539047492265559 -0.035833941869740982 0 -0.027030319453930019 -0.036678720169118502 0 -0.028301963119899118 -0.035501016261839234 0 -0.030182467638340989 -0.037044207808494337 0 -0.029229044015650456 -0.03