<?xml version="1.0"?>
<VTKFile type="UnstructuredGrid" version="0.1" byte_order="LittleEndian">
<UnstructuredGrid>
<Piece NumberOfPoints="30655" NumberOfCells="10720">
<Points>
<DataArray type="Float64" NumberOfComponents="3" format="ascii">
-0.5 -0.5 0 -0.48113944850806339 -0.48056471521631988 0 -0.50000000000000711 -0.4658100594871909 0 -0.5 -0.5 0 -0.48113944850806339 -0.48056471521631988 0 -0.46046510288576492 -0.5 0 -0.48113944850806339 -0.48056471521631988 0 -0.47181697923608568 -0.46164593814545868 0 -0.50000000000000711 -0.4658100594871909 0 -0.48113944850806339 -0.48056471521631988 0 -0.46193144004422199 -0.47897598145297599 0 -0.47181697923608568 -0.46164593814545868 0 -0.46046510288576492 -0.5 0 -0.46193144004422199 -0.47897598145297599 0 -0.44521843675491368 -0.48987230226349959 0 -0.48113944850806339 -0.48056471521631988 0 -0.46046510288576492 -0.5 0 -0.46193144004422199 -0.47897598145297599 0 -0.46193144004422199 -0.47897598145297599 0 -0.44516659812140491 -0.46815958827145532 0 -0.47181697923608568 -0.46164593814545868 0 -0.46193144004422199 -0.47897598145297599 0 -0.44521843675491368 -0.48987230226349959 0 -0.44516659812140491 -0.46815958827145532 0 -0.44521843675491368 -0.48987230226349959 0 -0.42995391773136421 -0.4715387390879226 0 -0.44521843675491368 -0.48987230226349959 0 -0.44516659812140491 -0.46815958827145532 0 -0.42995391773136421 -0.4715387390879226 0 -0.44092902709703569 -0.43863678752773161 0 -0.44363395847216408 -0.45748181680372862 0 -0.44092902709703569 -0.43863678752773161 0 -0.44363395847216408 -0.45748181680372862 0 -0.45525817794649359 -0.44509323693356118 0 -0.44363395847216408 -0.45748181680372862 0 -0.44516659812140491 -0.46815958827145532 0 -0.43336096825818737 -0.46259633001886208 0 -0.44363395847216408 -0.45748181680372862 0 -0.44516659812140491 -0.46815958827145532 0 -0.44363395847216408 -0.45748181680372862 0 -0.45525817794649359 -0.44509323693356118 0 -0.47181697923608568 -0.46164593814545868 0 -0.44363395847216408 -0.45748181680372862 0 -0.47181697923608568 -0.46164593814545868 0 -0.44363395847216408 -0.45748181680372862 0 -0.44516659812140491 -0.46815958827145532 0 -0.47181697923608568 -0.46164593814545868 0 -0.45525817794649359 -0.44509323693356118 0 -0.47181697923608568 -0.46164593814545868 0 -0.46828043329488001 -0.43492097771962662 0 -0.47181697923608568 -0.46164593814545868 0 -0.5 -0.43631786962744401 0 -0.46828043329488001 -0.43492097771962662 0 -0.47181697923608568 -0.46164593814545868 0 -0.50000000000000711 -0.4658100594871909 0 -0.47181697923608568 -0.46164593814545868 0 -0.50000000000000711 -0.4658100594871909 0 -0.5 -0.43631786962744401 0 -0.5 -0.43631786962744401 0 -0.48152043501152852 -0.41732484028286793 0 -0.46828043329488001 -0.43492097771962662 0 -0.5 -0.43631786962744401 0 -0.5 -0.40682567976769718 0 -0.48152043501152852 -0.41732484028286793 0 -0.48152043501152852 -0.41732484028286793 0 -0.46828043329488001 -0.43492097771962662 0 -0.4611206688355981 -0.41015630141068349 0 -0.5 -0.37733348990795051 0 -0.47851630218636992 -0.39068943291841979 0 -0.48425098247528608 -0.36462304094731629 0 -0.5 -0.40682567976769718 0 -0.48152043501152852 -0.41732484028286793 0 -0.47851630218636992 -0.39068943291841979 0 -0.5 -0.40682567976769718 0 -0.5 -0.37733348990795051 0 -0.47851630218636992 -0.39068943291841979 0 -0.48152043501152852 -0.41732484028286793 0 -0.47851630218636992 -0.39068943291841979 0 -0.4611206688355981 -0.41015630141068349 0 -0.45876884863916229 -0.38830632695912648 0 -0.46388025252233389 -0.36946134457768071 0 -0.44310955625738607 -0.37225968980706758 0 -0.47851630218636992 -0.39068943291841979 0 -0.45876884863916229 -0.38830632695912648 0 -0.46388025252233389 -0.36946134457768071 0 -0.45876884863916229 -0.38830632695912648 0 -0.44612144827359818 -0.39360503905926209 0 -0.4611206688355981 -0.41015630141068349 0 -0.47851630218636992 -0.39068943291841979 0 -0.45876884863916229 -0.38830632695912648 0 -0.4611206688355981 -0.41015630141068349 0 -0.44612144827359818 -0.39360503905926209 0 -0.4611206688355981 -0.41015630141068349 0 -0.43602883345340809 -0.40449755075399219 0 -0.44612144827359818 -0.39360503905926209 0 -0.43383357118490867 -0.38920334325624978 0 -0.43602883345340809 -0.40449755075399219 0 -0.44612144827359818 -0.39360503905926209 0 -0.43383357118490867 -0.38920334325624978 0 -0.44310955625738607 -0.37225968980706758 0 -0.45876884863916229 -0.38830632695912648 0 -0.44612144827359818 -0.39360503905926209 0 -0.44310955625738607 -0.37225968980706758 0 -0.45525817794649359 -0.44509323693356118 0 -0.46828043329488001 -0.43492097771962662 0 -0.45291759324069047 -0.4272993607371337 0 -0.46828043329488001 -0.43492097771962662 0 -0.4611206688355981 -0.41015630141068349 0 -0.45291759324069047 -0.4272993607371337 0 -0.4611206688355981 -0.41015630141068349 0 -0.43822409572191662 -0.41979175825173332 0 -0.45291759324069047 -0.4272993607371337 0 -0.4611206688355981 -0.41015630141068349 0 -0.43822409572191662 -0.41979175825173332 0 -0.4611206688355981 -0.41015630141068349 0 -0.43822409572191662 -0.41979175825173332 0 -0.43602883345340809 -0.40449755075399219 0 -0.44092902709703569 -0.43863678752773161 0 -0.45525817794649359 -0.44509323693356118 0 -0.45291759324069047 -0.4272993607371337 0 -0.44092902709703569 -0.43863678752773161 0 -0.43822409572191662 -0.41979175825173332 0 -0.44092902709703569 -0.43863678752773161 0 -0.43822409572191662 -0.41979175825173332 0 -0.45291759324069047 -0.4272993607371337 0 -0.44092902709703569 -0.43863678752773161 0 -0.43822409572191662 -0.41979175825173332 0 -0.41920917538217067 -0.42779371746895117 0 -0.43822409572191662 -0.41979175825173332 0 -0.41920917538217067 -0.42779371746895117 0 -0.44092902709703569 -0.43863678752773161 0 -0.41920917538217067 -0.42779371746895117 0 -0.42565926478824739 -0.4420486357828749 0 -0.43822409572191662 -0.41979175825173332 0 -0.42167488180506751 -0.41208363647319612 0 -0.41920917538217067 -0.42779371746895117 0 -0.43822409572191662 -0.41979175825173332 0 -0.42167488180506751 -0.41208363647319612 0 -0.43602883345340809 -0.40449755075399219 0 -0.43822409572191662 -0.41979175825173332 0 -0.43602883345340809 -0.40449755075399219 0 -0.42167488180506751 -0.41208363647319612 0 -0.41920917538217067 -0.42779371746895117 0 -0.40510528355032621 -0.41947021251847311 0 -0.42167488180506751 -0.41208363647319612 0 -0.40802671179822703 -0.40221021883265001 0 -0.40510528355032621 -0.41947021251847311 0 -0.41920917538217067 -0.42779371746895117 0 -0.4001942550424239 -0.43579567668616659 0 -0.40510528355032621 -0.41947021251847311 0 -0.41920917538217067 -0.42779371746895117 0 -0.4001942550424239 -0.43579567668616659 0 -0.41920917538217067 -0.42779371746895117 0 -0.4001942550424239 -0.43579567668616659 0 -0.42565926478824739 -0.4420486357828749 0 -0.43383357118490867 -0.38920334325624978 0 -0.4239160825033208 -0.39843150813027411 0 -0.41829380196532889 -0.38054949952976358 0 -0.43383357118490867 -0.38920334325624978 0 -0.41829380196532889 -0.38054949952976358 0 -0.44310955625738607 -0.37225968980706758 0 -0.43383357118490867 -0.38920334325624978 0 -0.4239160825033208 -0.39843150813027411 0 -0.43602883345340809 -0.40449755075399219 0 -0.43383357118490867 -0.38920334325624978 0 -0.43602883345340809 -0.40449755075399219 0 -0.42167488180506751 -0.41208363647319612 0 -0.4239160825033208 -0.39843150813027411 0 -0.43602883345340809 -0.40449755075399219 0 -0.4239160825033208 -0.39843150813027411 0 -0.40802671179822703 -0.40221021883265001 0 -0.41829380196532889 -0.38054949952976358 0 -0.42167488180506751 -0.41208363647319612 0 -0.4239160825033208 -0.39843150813027411 0 -0.40802671179822703 -0.40221021883265001 0 -0.40802671179822703 -0.40221021883265001 0 -0.41829380196532889 -0.38054949952976358 0 -0.39435237826397251 -0.38714214129015262 0 -0.41829380196532889 -0.38054949952976358 0 -0.39435237826397251 -0.38714214129015262 0 -0.39984811069874948 -0.3670637527489099 0 -0.40802671179822703 -0.40221021883265001 0 -0.39435237826397251 -0.38714214129015262 0 -0.38296974127767941 -0.41510804736830992 0 -0.39435237826397251 -0.38714214129015262 0 -0.38296974127767941 -0.41510804736830992 0 -0.36574522751293398 -0.39442041805045369 0 -0.39435237826397251 -0.38714214129015262 0 -0.39984811069874948 -0.3670637527489099 0 -0.37227104331404492 -0.37147264876230612 0 -0.39435237826397251 -0.38714214129015262 0 -0.37227104331404492 -0.37147264876230612 0 -0.36574522751293398 -0.39442041805045369 0 -0.4001942550424239 -0.43579567668616659 0 -0.38296974127767941 -0.41510804736830992 0 -0.4001942550424239 -0.43579567668616659 0 -0.40510528355032621 -0.41947021251847311 0 -0.38296974127767941 -0.41510804736830992 0 -0.40802671179822703 -0.40221021883265001 0 -0.40510528355032621 -0.41947021251847311 0 -0.38296974127767941 -0.41510804736830992 0 -0.4001942550424239 -0.43579567668616659 0 -0.38296974127767941 -0.41510804736830992 0 -0.37360776445756222 -0.43190754127687497 0 -0.39401552711814081 -0.45015055268284898 0 -0.37252491038279989 -0.44743963645972262 0 -0.4001942550424239 -0.43579567668616659 0 -0.37252491038279989 -0.44743963645972262 0 -0.4001942550424239 -0.43579567668616659 0 -0.37252491038279989 -0.44743963645972262 0 -0.37360776445756222 -0.43190754127687497 0 -0.4001942550424239 -0.43579567668616659 0 -0.39401552711814081 -0.45015055268284898 0 -0.37252491038279989 -0.44743963645972262 0 -0.39401552711814081 -0.45015055268284898 0 -0.3880561298873122 -0.46085771673827319 0 -0.37252491038279989 -0.44743963645972262 0 -0.4001942550424239 -0.43579567668616659 0 -0.39401552711814081 -0.45015055268284898 0 -0.41468939870781601 -0.45320517591234483 0 -0.39401552711814081 -0.45015055268284898 0 -0.41468939870781601 -0.45320517591234483 0 -0.39401552711814081 -0.45015055268284898 0 -0.40331080077142362 -0.46119068581389261 0 -0.41468939870781601 -0.45320517591234483 0 -0.39401552711814081 -0.45015055268284898 0 -0.40331080077142362 -0.46119068581389261 0 -0.3880561298873122 -0.46085771673827319 0 -0.40331080077142362 -0
[...]
<PointData Scalars="" Vectors="displacement," Tensors="">
<DataArray type="Float64" Name="displacement" NumberOfComponents="3" format="ascii">
-0.034997367086051862 -0.034998981311779372 0 -0.034519476394696089 -0.034101039473900599 0 -0.032614272913063659 -0.034998159592784524 0 -0.034997367086051862 -0.034998981311779372 0 -0.034519476394696089 -0.034101039473900599 0 -0.034998772453178714 -0.032234462039032838 0 -0.034519476394696089 -0.034101039473900599 0 -0.035462595644972172 -0.033450058474758335 0 -0.032614272913063659 -0.034998159592784524 0 -0.034519476394696089 -0.034101039473900599 0 -0.035130877572700989 -0.032622175903774149 0 -0.035462595644972172 -0.033450058474758335 0 -0.034998772453178714 -0.032234462039032838 0 -0.035130877572700989 -0.032622175903774149 0 -0.035368092861971956 -0.031393495423468094 0 -0.034519476394696089 -0.034101039473900599 0 -0.034998772453178714 -0.032234462039032838 0 -0.035130877572700989 -0.032622175903774149 0 -0.035130877572700989 -0.032622175903774149 0 -0.035531827898368694 -0.031777461889348935 0 -0.035462595644972172 -0.033450058474758335 0 -0.035130877572700989 -0.032622175903774149 0 -0.035368092861971956 -0.031393495423468094 0 -0.035531827898368694 -0.031777461889348935 0 -0.035220835955851272 -0.031516110655999401 0 -0.036474229024411171 -0.030626057771461965 0 -0.035368092861971956 -0.031393495423468094 0 -0.035531827898368694 -0.031777461889348935 0 -0.035501636828206361 -0.031666155227579248 0 -0.030097962689568426 -0.036243241374985462 0 -0.032865805296010853 -0.03409976156735689 0 -0.030464710397670309 -0.038932457521740779 0 -0.031856403168035168 -0.038662091360297982 0 -0.030958803475109944 -0.037845249544091512 0 -0.035567212494174126 -0.031760115322824169 0 -0.035531827898368694 -0.031777461889348935 0 -0.035543477235509997 -0.031699660453953768 0 -0.032865805296010853 -0.03409976156735689 0 -0.036135032171901296 -0.032359494379422191 0 -0.031856403168035168 -0.038662091360297982 0 -0.030958803475109944 -0.037845249544091512 0 -0.032151031502963792 -0.036717191557023937 0 -0.032865805296010853 -0.03409976156735689 0 -0.033881904314668324 -0.035196033374233104 0 -0.036116919664237537 -0.031705791741667315 0 -0.035531827898368694 -0.031777461889348935 0 -0.035462595644972172 -0.033450058474758335 0 -0.030958803475109944 -0.037845249544091512 0 -0.032151031502963792 -0.036717191557023937 0 -0.030226844496452712 -0.036904383628532392 0 -0.032151031502963792 -0.036717191557023937 0 -0.030542022514975255 -0.034999727500911758 0 -0.030226844496452712 -0.036904383628532392 0 -0.033881904314668324 -0.035196033374233104 0 -0.032607203074950887 -0.034999171485046339 0 -0.032151031502963792 -0.036717191557023937 0 -0.032606411442788086 -0.034999954424912709 0 -0.030542022514975255 -0.034999727500911758 0 -0.030542022514975255 -0.034999727500911758 0 -0.028933979241636768 -0.036039220289728481 0 -0.030226844496452712 -0.036904383628532392 0 -0.030542022514975255 -0.034999727500911758 0 -0.028477268639008967 -0.034999799672155295 0 -0.028933979241636768 -0.036039220289728481 0 -0.028933979241636768 -0.036039220289728481 0 -0.030226844496452712 -0.036904383628532392 0 -0.028003937637070112 -0.037169313408678552 0 -0.026413132248469345 -0.034999909468656165 0 -0.027053657526666618 -0.036215989795304548 0 -0.025553874372330785 -0.035916990806523309 0 -0.028477268639008967 -0.034999799672155295 0 -0.028933979241636768 -0.036039220289728481 0 -0.027053657526666618 -0.036215989795304548 0 -0.028477268639008967 -0.034999799672155295 0 -0.026413132248469345 -0.034999909468656165 0 -0.027053657526666618 -0.036215989795304548 0 -0.028933979241636768 -0.036039220289728481 0 -0.027053657526666618 -0.036215989795304548 0 -0.028003937637070112 -0.037169313408678552 0 -0.026627551826885469 -0.037111527082375181 0 -0.025795270692599365 -0.03686914511655362 0 -0.025901953191554035 -0.037524544217394998 0 -0.027053657526666618 -0.036215989795304548 0 -0.026627551826885469 -0.037111527082375181 0 -0.025795270692599365 -0.03686914511655362 0 -0.026627551826885469 -0.037111527082375181 0 -0.02657817660866648 -0.03748203084628924 0 -0.028003937637070112 -0.037169313408678552 0 -0.027053657526666618 -0.036215989795304548 0 -0.026627551826885469 -0.037111527082375181 0 -0.028003937637070112 -0.037169313408678552 0 -0.02657817660866648 -0.03748203084628924 0 -0.028003937637070112 -0.037169313408678552 0 -0.027219551504742812 -0.037974539527877688 0 -0.02657817660866648 -0.03748203084628924 0 -0.025870621666063069 -0.037625168915379245 0 -0.027219551504742812 -0.037974539527877688 0 -0.02657817660866648 -0.03748203084628924 0 -0.025870621666063069 -0.037625168915379245 0 -0.025901953191554035 -0.037524544217394998 0 -0.026627551826885469 -0.037111527082375181 0 -0.02657817660866648 -0.03748203084628924 0 -0.025901953191554035 -0.037524544217394998 0 -0.030958803475109944 -0.037845249544091512 0 -0.030226844496452712 -0.036904383628532392 0 -0.029552562284965247 -0.037988959659859253 0 -0.030226844496452712 -0.036904383628532392 0 -0.028003937637070112 -0.037169313408678552 0 -0.029552562284965247 -0.037988959659859253 0 -0.028003937637070112 -0.037169313408678552 0 -0.028898884050298147 -0.039227398135079722 0 -0.029552562284965247 -0.037988959659859253 0 -0.028311500588696529 -0.038020564329027604 0 -0.027660805918199985 -0.03665569628220041 0 -0.028003937637070112 -0.037169313408678552 0 -0.027905937372611187 -0.037913755026518996 0 -0.027219551504742812 -0.037974539527877688 0 -0.030464710397670309 -0.038932457521740779 0 -0.030958803475109944 -0.037845249544091512 0 -0.029552562284965247 -0.037988959659859253 0 -0.030097962689568426 -0.036243241374985462 0 -0.027660805918199985 -0.03665569628220041 0 -0.030464710397670309 -0.038932457521740779 0 -0.028898884050298147 -0.039227398135079722 0 -0.029552562284965247 -0.037988959659859253 0 -0.02990323959985455 -0.033430800604900661 0 -0.029272865095311969 -0.033535468177413028 0 -0.02953766726830151 -0.034130007154340364 0 -0.027660805918199985 -0.03665569628220041 0 -0.026079808316529108 -0.035426072642504684 0 -0.02990323959985455 -0.033430800604900661 0 -0.02953766726830151 -0.034130007154340364 0 -0.030014616230547689 -0.033916260714217307 0 -0.023397531196833913 -0.037965275890546754 0 -0.023888034759101579 -0.036826215449113603 0 -0.022873303666374117 -0.036656869668912698 0 -0.023397531196833913 -0.037965275890546754 0 -0.023888034759101579 -0.036826215449113603 0 -0.024452100900196158 -0.037857723001685509 0 -0.027660805918199985 -0.03665569628220041 0 -0.025507640473924946 -0.037872320476418884 0 -0.023888034759101579 -0.036826215449113603 0 -0.022873303666374117 -0.036656869668912698 0 -0.023375018003584307 -0.035779979306239169 0 -0.023888034759101579 -0.036826215449113603 0 -0.024417660723562953 -0.035978226603160128 0 -0.023375018003584307 -0.035779979306239169 0 -0.022873303666374117 -0.036656869668912698 0 -0.022414494737401671 -0.035471503866679376 0 -0.023375018003584307 -0.035779979306239169 0 -0.026079808316529108 -0.035426072642504684 0 -0.026997635353283107 -0.033391482583056867 0 -0.02953766726830151 -0.034130007154340364 0 -0.029790637033326347 -0.034724397932873054 0 -0.030014616230547689 -0.033916260714217307 0 -0.025870621666063069 -0.037625168915379245 0 -0.024881704782359234 -0.036967809410623886 0 -0.025668269633943908 -0.036807195840425071 0 -0.025870621666063069 -0.037625168915379245 0 -0.025668269633943908 -0.036807195840425071 0 -0.025901953191554035 -0.037524544217394998 0 -0.025870621666063069 -0.037625168915379245 0 -0.024881704782359234 -0.036967809410623886 0 -0.024452100900196158 -0.037857723001685509 0 -0.026021246744190953 -0.037706730599568201 0 -0.025507640473924946 -0.037872320476418884 0 -0.023888034759101579 -0.036826215449113603 0 -0.024881704782359234 -0.036967809410623886 0 -0.024452100900196158 -0.037857723001685509 0 -0.024881704782359234 -0.036967809410623886 0 -0.024417660723562953 -0.035978226603160128 0 -0.025668269633943908 -0.036807195840425071 0 -0.023888034759101579 -0.036826215449113603 0 -0.024881704782359234 -0.036967809410623886 0 -0.024417660723562953 -0.035978226603160128 0 -0.024417660723562953 -0.035978226603160128 0 -0.025668269633943908 -0.036807195840425071 0 -0.025096934062314519 -0.035127023325785003 0 -0.025668269633943908 -0.036807195840425071 0 -0.025096934062314519 -0.035127023325785003 0 -0.026060237995765349 -0.035507696816564509 0 -0.024417660723562953 -0.035978226603160128 0 -0.025096934062314519 -0.035127023325785003 0 -0.023571592590690166 -0.034426590531659383 0 -0.025096934062314519 -0.035127023325785003 0 -0.023571592590690166 -0.034426590531659383 0 -0.024611196830223971 -0.033297409690394408 0 -0.025096934062314519 -0.035127023325785003 0 -0.026060237995765349 -0.035507696816564509 0 -0.025808197961254074 -0.033597510829793176 0 -0.025096934062314519 -0.035127023325785003 0 -0.025808197961254074 -0.033597510829793176 0 -0.024611196830223971 -0.033297409690394408 0 -0.026997635353283107 -0.033391482583056867 0 -0.024889188990084798 -0.03277469391404543 0 -0.022414494737401671 -0.035471503866679376 0 -0.023375018003584307 -0.035779979306239169 0 -0.023571592590690166 -0.034426590531659383 0 -0.024417660723562953 -0.035978226603160128 0 -0.023375018003584307 -0.035779979306239169 0 -0.023571592590690166 -0.034426590531659383 0 -0.025869044031634453 -0.031943382714151883 0 -0.027278573003047913 -0.030749333119834781 0 -0.026123490230881338 -0.030083113610886628 0 -0.034505154417049051 -0.029548043472533456 0 -0.032443864162040252 -0.0282502610171513 0 -0.026997635353283107 -0.033391482583056867 0 -0.032443864162040252 -0.0282502610171513 0 -0.025869044031634453 -0.031943382714151883 0 -0.025068920879599093 -0.03000283556878525 0 -0.026123490230881338 -0.030083113610886628 0 -0.03209664845661836 -0.030894315333530892 0 -0.031522300691395777 -0.030627770667895664 0 -0.031638650463549932 -0.029714784345417095 0 -0.037169518484259874 -0.028652538173162437 0 -0.036869081855251701 -0.028480665620411658 0 -0.03716256538321086 -0.028094570066212094 0 -0.03209664845661836 -0.030894315333530892 0 -0.031522300691395777 -0.030627770667895664 0 -0.031417060861731329 -0.031476626141752728 0 -0.034505154417049051 -0.029548043472533456 0 -0.033919363885858748 -0.031421835058797531 0 -0.037169518484259874 -0.028652538173162437 0 -0.036864670565566325 -0.028951933400514534 0 -0.037179604026307697 -0.029360333547766654 0 -0.037169518484259874 -0.028652538173162437 0 -0.036864670565566325 -0.028951933400514534 0 -0.036869081855251701 -0.028480665620411658 0 -0.036864670565566325 -0.028951933400514534 0 -0.036869081855251701 -0.028480665620411658 0 -0.036393006297769273 -0.028928084989464933 0 -0.037321866030576745 -0.027759865477474676 0 -0.036272890348601768 -0.028765522817671269 0 -0.037787310608581162 -0.026801358634459163 0 -0.032443864162040252 -0.0282502610171513 0 -0.03665312113975238 -0.027692996395194229 0 -0.03671416591247139 -0.027750794518173978 0 -0.036712439087144583 -0.027654977083207685 0 -0.03665312113975238 -0.027692996395194229 0 -0.03671416591247139 -0.027750794518173978 0 -0.036430086345249225 -0.027941212277015078 0 -0.037141163763217459 -0.026811984542052834 0 -0.037280386938828881 -0.026275176442696287 0 -0.038168317547502585 -0.026120332815148122 0 -0.037321866030576745 -0.027759865477474676 0 -0.032443864162040252 -0.0282502610171513 0 -0.037141163763217459 -0.026811984542052834 0 -0.037280386938828881 -0.026275176442696287 0 -0.03675713018809771 -0.026227140243714669 0 -0.037141163763217459 -0.026811984542052834 0 -0.036502186862097712 -0.026729447095293041 0 -0.036119083917074746 -0.027559444658153496 0 -0.037787310608581162 -0.026801358634459163 0 -0.035876635065031845 -0.027862106306299716 0 -0.036502186862097712 -0.026729447095293041 0 -0.035979734174298256 -0.026293818010060584 0 -0.036119083917074746 -0.027559444658153496 0 -0.037141163763217459 -0.026811984542052834 0 -0.036502186862097712 -0.026729447095293041 0 -0.03675713018809771 -0.026227140243714669 0 -0.03665312113975238 -0.027692996395194229 0 -0.036430086345249225 -0.027941212277015078 0 -0.036013929426686561 -0.027949921536095768 0 -0.036502186862097712 -0.026729447095293041 0 -0.035979734174298256 -0.026293818010060584 0 -0.03675713018809771 -0.026227140243714669 0 -0.034999932501170672 -0.026959026184891571 0 -0.035979734174298256 -0.026293818010060584 0 -0.036119083917074746 -0.027559444658153496 0 -0.034999932501170672 -0.026959026184891571 0 -0.035979734174298256 -0.026293818010060584 0 -0.03500002941489138 -0.025553102179783398 0 -0.034999899579241892 -0.028365768792321028 0 -0.036013929426686561 -0.027949921536095768 0 -0.035772909918673886 -0.02856169080032071 0 -0.035000413650309051 -0.028365295644108675 0 -0.035876635065031845 -0.027862106306299716 0 -0.034999932501170672 -0.026959026184891571 0 -0.034999995634049513 -0.028365469846142063 0 -0.036119083917074746 -0.027559444658153496 0 -0.03671416591247139 -0.027750794518173978 0 -0.036430086345249225 -0.027941212277015078 0 -0.036416523093235641 -0.028349420878446753 0 -0.036430086345249225 -0.027941212277015078 0 -0.036013929426686561 -0.027949921536095768 0 -0.036416523093235641 -0.028349420878446753 0 -0.036013929426686561 -0.027949921536095768 0 -0.036416523093235641 -0.028349420878446753 0 -0.035772909918673886 -0.02856169080032071 0 -0.035368092861971956 -0.031393495423468094 0 -0.034999899579241892 -0.028365768792321028 0 -0.035697869013516646 -0.029442075637684903 0 -0.036393006297769273 -0.028928084989464933 0 -0.035697869013516646 -0.029442075637684903 0 -0.036629324275616632 -0.029394170019888317 0 -0.035697869013516646 -0.029442075637684903 0 -0.036583327346352605 -0.030143091437443884 0 -0.036629324275616632 -0.029394170019888317 0 -0.034998772453178714 -0.032234462039032838 0 -0.035368092861971956 -0.031393495423468094 0 -0.034999899579241892 -0.028365768792321028 0 -0.036272890348601768 -0.028765522817671269 0 -0.035783509937274499 -0.029349605495977909 0 -0.036416523093235641 -0.028349420878446753 0 -0.035772909918673886 -0.02856169080032071 0 -0.035697869013516646 -0.029442075637684903 0 -0.034999899579241892 -0.028365768792321028 0 -0.035772909918673886 -0.02856169080032071 0 -0.035697869013516646 -0.029442075637684903 0 -0.035368092861971956 -0.031393495423468094 0 -0.035697869013516646 -0.029442075637684903 0 -0.036583327346352605 -0.030143091437443884 0 -0.035531827898368694 -0.031777461889348935 0 -0.035501636828206361 -0.031666155227579248 0 -0.035543477235509997 -0.031699660453953768 0 -0.035501636828206361 -0.031666155227579248 0 -0.035543477235509997 -0.031699660453953768 0 -0.035568006549623297 -0.031608956345985893 0 -0.032865805296010853 -0.03409976156735689 0 -0.033919363885858748 -0.031421835058797531 0 -0.035567212494174126 -0.031760115322824169 0 -0.035543477235509997 -0.031699660453953768 0 -0.035568006549623297 -0.031608956345985893 0 -0.036474229024411171 -0.030626057771461965 0 -0.033919363885858748 -0.031421835058797531 0 -0.02990323959985455 -0.033430800604900661 0 -0.030541896642712552 -0.033336394830663196 0 -0.030014616230547689 -0.033916260714217307 0 -0.030541896642712552 -0.033336394830663196 0 -0.030014616230547689 -0.033916260714217307 0 -0.030385306372937355 -0.034257779514328131 0 -0.026997635353283107 -0.033391482583056867 0 -0.033919363885858748 -0.031421835058797531 0 -0.029790637033326347 -0.034724397932873054 0 -0.030014616230547689 -0.033916260714217307 0 -0.030385306372937355 -0.034257779514328131 0 -0.036583327346352605 -0.030143091437443884 0 -0.036629324275616632 -0.029394170019888317 0 -0.037179604026307697 -0.029360333547766654 0 -0.036864670565566325 -0.028951933400514534 0 -0.036393006297769273 -0.028928084989464933 0 -0.036629324275616632 -0.029394170019888317 0 -0.036864670565566325 -0.028951933400514534 0 -0.036629324275616632 -0.029394170019888317 0 -0.037179604026307697 -0.029360333547766654 0 -0.01815280050597071 -0.037501220508676797 0 -0.017458587678832495 -0.037237576888130522 0 -0.017895396043574895 -0.036900513912228601 0 -0.01815280050597071 -0.037501220508676797 0 -0.017458587678832495 -0.037237576888130522 0 -0.017447318247610751 -0.038001145855023642 0 -0.017458587678832495 -0.037237576888130522 0 -0.017447318247610751 -0.038001145855023642 0 -0.016720763966325675 -0.037102431919562077 0 -0.01815280050597071 -0.037501220508676797 0 -0.018849091047953185 -0.036942616061490095 0 -0.019171069507005034 -0.038272158706440421 0 -0.018849091047953185 -0.036942616061490095 0 -0.019810620318647103 -0.037005842783428555 0 -0.019171069507005034 -0.038272158706440421 0 -0.015918016265587552 -0.035230985268562547 0 -0.019937713933840241 -0.036609268726706348 0 -0.01815280050597071 -0.037501220508676797 0 -0.017447318247610751 -0.038001145855023642 0 -0.019171069507005034 -0.038272158706440421 0 -0.018849091047953185 -0.036942616061490095 0 -0.018875212972372376 -0.036006937786929538 0 -0.019557612286844796 -0.036365636909260722 0 -0.01815280050597071 -0.037501220508676797 0 -0.018849091047953185 -0.036942616061490095 0 -0.017895396043574895 -0.036900513912228601 0 -0.018849091047953185 -0.036942616061490095 0 -0.018185563004045013 -0.0363421236717607 0 -0.017895396043574895 -0.036900513912228601 0 -0.018849091047953185 -0.036942616061490095 0 -0.018185563004045013 -0.0363421236717607 0 -0.018875212972372376 -0.036006937786929538 0 -0.018185563004045013 -0.0363421236717607 0 -0.01741879999068064 -0.036307947158496903 0 -0.017645100051776292 -0.035853692299352091 0 -0.018185563004045013 -0.0363421236717607 0 -0.017895396043574895 -0.036900513912228601 0 -0.01741879999068064 -0.036307947158496903 0 -0.017895396043574895 -0.036900513912228601 0 -0.01741879999068064 -0.036307947158496903 0 -0.017061131880389605 -0.03672851222797395 0 -0.017458587678832495 -0.037237576888130522 0 -0.017895396043574895 -0.036900513912228601 0 -0.017061131880389605 -0.03672851222797395 0 -0.01741879999068064 -0.036307947158496903 0 -0.017645100051776292 -0.035853692299352091 0 -0.017031191620016456 -0.035809473132163178 0 -0.017645100051776292 -0.035853692299352091 0 -0.017446938451641268 -0.035477844648317672 0 -0.017031191620016456 -0.035809473132163178 0 -0.018185563004045013 -0.0363421236717607 0 -0.017645100051776292 -0.035853692299352091 0 -0.018173160282525639 -0.035644681986861076 0 -0.018173160282525639 -0.035644681986861076 0 -0.017750756015560133 -0.034761204667173001 0 -0.01890765748767111 -0.035550854180665246 0 -0.018173160282525639 -0.035644681986861076 0 -0.017446938451641268 -0.035477844648317672 0 -0.017750756015560133 -0.034761204667173001 0 -0.017645100051776292 -0.035853692299352091 0 -0.018173160282525639 -0.035644681986861076 0 -0.017446938451641268 -0.035477844648317672 0 -0.017446938451641268 -0.035477844648317672 0 -0.017750756015560133 -0.034761204667173001 0 -0.016680366860852048 -0.035283187211847235 0 -0.01808278237938565 -0.035746612471856731 0 -0.018155784643967221 -0.035000061747478606 0 -0.017108027950850108 -0.035398329392442272 0 -0.018155784643967221 -0.035000061747478606 0 -0.019989811427513989 -0.035419431377923374 0 -0.020219550290407649 -0.034999484018114486 0 -0.01808278237938565 -0.035746612471856731 0 -0.018155784643967221 -0.035000061747478606 0 -0.019989811427513989 -0.035419431377923374 0 -0.017750756015560133 -0.034761204667173001 0 -0.01890765748767111 -0.035550854180665246 0 -0.019989811427513989 -0.035419431377923374 0 -0.017917156867558813 -0.03528018646629956 0 -0.019830591880475652 -0.035379066442546944 0 -0.01890765748767111 -0.035550854180665246 0 -0.018875212972372376 -0.036006937786929538 0 -0.019631141738184352 -0.035870108652681483 0 -0.01890765748767111 -0.035550854180665246 0 -0.019631141738184352 -0.035870108652681483 0 -0.019989811427513989 -0.035419431377923374 0 -0.018173160282525639 -0.035644681986861076 0 -0.01890765748767111 -0.035550854180665246 0 -0.018875212972372376 -0.036006937786929538 0 -0.018185563004045013