<?xml version="1.0"?>
<VTKFile type="UnstructuredGrid" version="0.1" byte_order="LittleEndian">
<UnstructuredGrid>
<Piece NumberOfPoints="30655" NumberOfCells="10720">
<Points>
<DataArray type="Float64" NumberOfComponents="3" format="ascii">
-0.5 -0.5 0 -0.48113944850806339 -0.48056471521631988 0 -0.50000000000000711 -0.4658100594871909 0 -0.5 -0.5 0 -0.48113944850806339 -0.48056471521631988 0 -0.46046510288576492 -0.5 0 -0.48113944850806339 -0.48056471521631988 0 -0.47181697923608568 -0.46164593814545868 0 -0.50000000000000711 -0.4658100594871909 0 -0.48113944850806339 -0.48056471521631988 0 -0.46193144004422199 -0.47897598145297599 0 -0.47181697923608568 -0.46164593814545868 0 -0.46046510288576492 -0.5 0 -0.46193144004422199 -0.47897598145297599 0 -0.44521843675491368 -0.48987230226349959 0 -0.48113944850806339 -0.48056471521631988 0 -0.46046510288576492 -0.5 0 -0.46193144004422199 -0.47897598145297599 0 -0.46193144004422199 -0.47897598145297599 0 -0.44516659812140491 -0.46815958827145532 0 -0.47181697923608568 -0.46164593814545868 0 -0.46193144004422199 -0.47897598145297599 0 -0.44521843675491368 -0.48987230226349959 0 -0.44516659812140491 -0.46815958827145532 0 -0.44521843675491368 -0.48987230226349959 0 -0.42995391773136421 -0.4715387390879226 0 -0.44521843675491368 -0.48987230226349959 0 -0.44516659812140491 -0.46815958827145532 0 -0.42995391773136421 -0.4715387390879226 0 -0.44092902709703569 -0.43863678752773161 0 -0.44363395847216408 -0.45748181680372862 0 -0.44092902709703569 -0.43863678752773161 0 -0.44363395847216408 -0.45748181680372862 0 -0.45525817794649359 -0.44509323693356118 0 -0.44363395847216408 -0.45748181680372862 0 -0.44516659812140491 -0.46815958827145532 0 -0.43336096825818737 -0.46259633001886208 0 -0.44363395847216408 -0.45748181680372862 0 -0.44516659812140491 -0.46815958827145532 0 -0.44363395847216408 -0.45748181680372862 0 -0.45525817794649359 -0.44509323693356118 0 -0.47181697923608568 -0.46164593814545868 0 -0.44363395847216408 -0.45748181680372862 0 -0.47181697923608568 -0.46164593814545868 0 -0.44363395847216408 -0.45748181680372862 0 -0.44516659812140491 -0.46815958827145532 0 -0.47181697923608568 -0.46164593814545868 0 -0.45525817794649359 -0.44509323693356118 0 -0.47181697923608568 -0.46164593814545868 0 -0.46828043329488001 -0.43492097771962662 0 -0.47181697923608568 -0.46164593814545868 0 -0.5 -0.43631786962744401 0 -0.46828043329488001 -0.43492097771962662 0 -0.47181697923608568 -0.46164593814545868 0 -0.50000000000000711 -0.4658100594871909 0 -0.47181697923608568 -0.46164593814545868 0 -0.50000000000000711 -0.4658100594871909 0 -0.5 -0.43631786962744401 0 -0.5 -0.43631786962744401 0 -0.48152043501152852 -0.41732484028286793 0 -0.46828043329488001 -0.43492097771962662 0 -0.5 -0.43631786962744401 0 -0.5 -0.40682567976769718 0 -0.48152043501152852 -0.41732484028286793 0 -0.48152043501152852 -0.41732484028286793 0 -0.46828043329488001 -0.43492097771962662 0 -0.4611206688355981 -0.41015630141068349 0 -0.5 -0.37733348990795051 0 -0.47851630218636992 -0.39068943291841979 0 -0.48425098247528608 -0.36462304094731629 0 -0.5 -0.40682567976769718 0 -0.48152043501152852 -0.41732484028286793 0 -0.47851630218636992 -0.39068943291841979 0 -0.5 -0.40682567976769718 0 -0.5 -0.37733348990795051 0 -0.47851630218636992 -0.39068943291841979 0 -0.48152043501152852 -0.41732484028286793 0 -0.47851630218636992 -0.39068943291841979 0 -0.4611206688355981 -0.41015630141068349 0 -0.45876884863916229 -0.38830632695912648 0 -0.46388025252233389 -0.36946134457768071 0 -0.44310955625738607 -0.37225968980706758 0 -0.47851630218636992 -0.39068943291841979 0 -0.45876884863916229 -0.38830632695912648 0 -0.46388025252233389 -0.36946134457768071 0 -0.45876884863916229 -0.38830632695912648 0 -0.44612144827359818 -0.39360503905926209 0 -0.4611206688355981 -0.41015630141068349 0 -0.47851630218636992 -0.39068943291841979 0 -0.45876884863916229 -0.38830632695912648 0 -0.4611206688355981 -0.41015630141068349 0 -0.44612144827359818 -0.39360503905926209 0 -0.4611206688355981 -0.41015630141068349 0 -0.43602883345340809 -0.40449755075399219 0 -0.44612144827359818 -0.39360503905926209 0 -0.43383357118490867 -0.38920334325624978 0 -0.43602883345340809 -0.40449755075399219 0 -0.44612144827359818 -0.39360503905926209 0 -0.43383357118490867 -0.38920334325624978 0 -0.44310955625738607 -0.37225968980706758 0 -0.45876884863916229 -0.38830632695912648 0 -0.44612144827359818 -0.39360503905926209 0 -0.44310955625738607 -0.37225968980706758 0 -0.45525817794649359 -0.44509323693356118 0 -0.46828043329488001 -0.43492097771962662 0 -0.45291759324069047 -0.4272993607371337 0 -0.46828043329488001 -0.43492097771962662 0 -0.4611206688355981 -0.41015630141068349 0 -0.45291759324069047 -0.4272993607371337 0 -0.4611206688355981 -0.41015630141068349 0 -0.43822409572191662 -0.41979175825173332 0 -0.45291759324069047 -0.4272993607371337 0 -0.4611206688355981 -0.41015630141068349 0 -0.43822409572191662 -0.41979175825173332 0 -0.4611206688355981 -0.41015630141068349 0 -0.43822409572191662 -0.41979175825173332 0 -0.43602883345340809 -0.40449755075399219 0 -0.44092902709703569 -0.43863678752773161 0 -0.45525817794649359 -0.44509323693356118 0 -0.45291759324069047 -0.4272993607371337 0 -0.44092902709703569 -0.43863678752773161 0 -0.43822409572191662 -0.41979175825173332 0 -0.44092902709703569 -0.43863678752773161 0 -0.43822409572191662 -0.41979175825173332 0 -0.45291759324069047 -0.4272993607371337 0 -0.44092902709703569 -0.43863678752773161 0 -0.43822409572191662 -0.41979175825173332 0 -0.41920917538217067 -0.42779371746895117 0 -0.43822409572191662 -0.41979175825173332 0 -0.41920917538217067 -0.42779371746895117 0 -0.44092902709703569 -0.43863678752773161 0 -0.41920917538217067 -0.42779371746895117 0 -0.42565926478824739 -0.4420486357828749 0 -0.43822409572191662 -0.41979175825173332 0 -0.42167488180506751 -0.41208363647319612 0 -0.41920917538217067 -0.42779371746895117 0 -0.43822409572191662 -0.41979175825173332 0 -0.42167488180506751 -0.41208363647319612 0 -0.43602883345340809 -0.40449755075399219 0 -0.43822409572191662 -0.41979175825173332 0 -0.43602883345340809 -0.40449755075399219 0 -0.42167488180506751 -0.41208363647319612 0 -0.41920917538217067 -0.42779371746895117 0 -0.40510528355032621 -0.41947021251847311 0 -0.42167488180506751 -0.41208363647319612 0 -0.40802671179822703 -0.40221021883265001 0 -0.40510528355032621 -0.41947021251847311 0 -0.41920917538217067 -0.42779371746895117 0 -0.4001942550424239 -0.43579567668616659 0 -0.40510528355032621 -0.41947021251847311 0 -0.41920917538217067 -0.42779371746895117 0 -0.4001942550424239 -0.43579567668616659 0 -0.41920917538217067 -0.42779371746895117 0 -0.4001942550424239 -0.43579567668616659 0 -0.42565926478824739 -0.4420486357828749 0 -0.43383357118490867 -0.38920334325624978 0 -0.4239160825033208 -0.39843150813027411 0 -0.41829380196532889 -0.38054949952976358 0 -0.43383357118490867 -0.38920334325624978 0 -0.41829380196532889 -0.38054949952976358 0 -0.44310955625738607 -0.37225968980706758 0 -0.43383357118490867 -0.38920334325624978 0 -0.4239160825033208 -0.39843150813027411 0 -0.43602883345340809 -0.40449755075399219 0 -0.43383357118490867 -0.38920334325624978 0 -0.43602883345340809 -0.40449755075399219 0 -0.42167488180506751 -0.41208363647319612 0 -0.4239160825033208 -0.39843150813027411 0 -0.43602883345340809 -0.40449755075399219 0 -0.4239160825033208 -0.39843150813027411 0 -0.40802671179822703 -0.40221021883265001 0 -0.41829380196532889 -0.38054949952976358 0 -0.42167488180506751 -0.41208363647319612 0 -0.4239160825033208 -0.39843150813027411 0 -0.40802671179822703 -0.40221021883265001 0 -0.40802671179822703 -0.40221021883265001 0 -0.41829380196532889 -0.38054949952976358 0 -0.39435237826397251 -0.38714214129015262 0 -0.41829380196532889 -0.38054949952976358 0 -0.39435237826397251 -0.38714214129015262 0 -0.39984811069874948 -0.3670637527489099 0 -0.40802671179822703 -0.40221021883265001 0 -0.39435237826397251 -0.38714214129015262 0 -0.38296974127767941 -0.41510804736830992 0 -0.39435237826397251 -0.38714214129015262 0 -0.38296974127767941 -0.41510804736830992 0 -0.36574522751293398 -0.39442041805045369 0 -0.39435237826397251 -0.38714214129015262 0 -0.39984811069874948 -0.3670637527489099 0 -0.37227104331404492 -0.37147264876230612 0 -0.39435237826397251 -0.38714214129015262 0 -0.37227104331404492 -0.37147264876230612 0 -0.36574522751293398 -0.39442041805045369 0 -0.4001942550424239 -0.43579567668616659 0 -0.38296974127767941 -0.41510804736830992 0 -0.4001942550424239 -0.43579567668616659 0 -0.40510528355032621 -0.41947021251847311 0 -0.38296974127767941 -0.41510804736830992 0 -0.40802671179822703 -0.40221021883265001 0 -0.40510528355032621 -0.41947021251847311 0 -0.38296974127767941 -0.41510804736830992 0 -0.4001942550424239 -0.43579567668616659 0 -0.38296974127767941 -0.41510804736830992 0 -0.37360776445756222 -0.43190754127687497 0 -0.39401552711814081 -0.45015055268284898 0 -0.37252491038279989 -0.44743963645972262 0 -0.4001942550424239 -0.43579567668616659 0 -0.37252491038279989 -0.44743963645972262 0 -0.4001942550424239 -0.43579567668616659 0 -0.37252491038279989 -0.44743963645972262 0 -0.37360776445756222 -0.43190754127687497 0 -0.4001942550424239 -0.43579567668616659 0 -0.39401552711814081 -0.45015055268284898 0 -0.37252491038279989 -0.44743963645972262 0 -0.39401552711814081 -0.45015055268284898 0 -0.3880561298873122 -0.46085771673827319 0 -0.37252491038279989 -0.44743963645972262 0 -0.4001942550424239 -0.43579567668616659 0 -0.39401552711814081 -0.45015055268284898 0 -0.41468939870781601 -0.45320517591234483 0 -0.39401552711814081 -0.45015055268284898 0 -0.41468939870781601 -0.45320517591234483 0 -0.39401552711814081 -0.45015055268284898 0 -0.40331080077142362 -0.46119068581389261 0 -0.41468939870781601 -0.45320517591234483 0 -0.39401552711814081 -0.45015055268284898 0 -0.40331080077142362 -0.46119068581389261 0 -0.3880561298873122 -0.46085771673827319 0 -0.40331080077142362 -0
[...]
<PointData Scalars="" Vectors="displacement," Tensors="">
<DataArray type="Float64" Name="displacement" NumberOfComponents="3" format="ascii">
-0.034999187123272373 -1.7308745625347488e-07 0 -0.034013245002164932 -0.00016283020901272584 0 -0.034997370927344583 -2.9701595345908215e-07 0 -0.034999187123272373 -1.7308745625347488e-07 0 -0.034013245002164932 -0.00016283020901272584 0 -0.032232821476088101 -2.2016962318715625e-07 0 -0.034013245002164932 -0.00016283020901272584 0 -0.033779900801671446 -0.00024409032625162129 0 -0.034997370927344583 -2.9701595345908215e-07 0 -0.034013245002164932 -0.00016283020901272584 0 -0.033067921423098508 -0.00013963126626791628 0 -0.033779900801671446 -0.00024409032625162129 0 -0.032232821476088101 -2.2016962318715625e-07 0 -0.033067921423098508 -0.00013963126626791628 0 -0.031493736671089331 0.00011614537742263983 0 -0.034013245002164932 -0.00016283020901272584 0 -0.032232821476088101 -2.2016962318715625e-07 0 -0.033067921423098508 -0.00013963126626791628 0 -0.033067921423098508 -0.00013963126626791628 0 -0.033314664414489513 0.00035697640386793964 0 -0.033779900801671446 -0.00024409032625162129 0 -0.033067921423098508 -0.00013963126626791628 0 -0.031493736671089331 0.00011614537742263983 0 -0.033314664414489513 0.00035697640386793964 0 -0.031376871051574322 0.00014244486069582294 0 -0.031657664472866255 0.00076305825765970255 0 -0.031493736671089331 0.00011614537742263983 0 -0.033314664414489513 0.00035697640386793964 0 -0.033034828598537916 0.0014541868387648402 0 -0.033852522142121387 -5.3899181880709637e-05 0 -0.034001817035617957 0.00040826862876406706 0 -0.03494611164634602 -6.6058810750654583e-05 0 -0.034978828294167222 -5.0314561041448244e-05 0 -0.034965008232656587 -3.2011461473471343e-05 0 -0.034013006731898186 0.00049518421856242561 0 -0.033314664414489513 0.00035697640386793964 0 -0.033658396004550131 0.0011941048218840952 0 -0.034001817035617957 0.00040826862876406706 0 -0.03340701831991618 0.00035818842227909982 0 -0.034978828294167222 -5.0314561041448244e-05 0 -0.034965008232656587 -3.2011461473471343e-05 0 -0.034987437206907966 -7.6380020102464212e-06 0 -0.034001817035617957 0.00040826862876406706 0 -0.034449362754657271 -0.00021143483240206547 0 -0.033599190229199424 0.00039897897344833927 0 -0.033314664414489513 0.00035697640386793964 0 -0.033779900801671446 -0.00024409032625162129 0 -0.034965008232656587 -3.2011461473471343e-05 0 -0.034987437206907966 -7.6380020102464212e-06 0 -0.034959606668745577 -7.9471914709746144e-06 0 -0.034987437206907966 -7.6380020102464212e-06 0 -0.034999951066925369 2.1062745762018963e-08 0 -0.034959606668745577 -7.9471914709746144e-06 0 -0.034449362754657271 -0.00021143483240206547 0 -0.034999717802530673 -1.5993445358149387e-07 0 -0.034987437206907966 -7.6380020102464212e-06 0 -0.035000011123562956 -1.6887558786378801e-08 0 -0.034999951066925369 2.1062745762018963e-08 0 -0.034999951066925369 2.1062745762018963e-08 0 -0.03494471488179076 7.9608583940492329e-06 0 -0.034959606668745577 -7.9471914709746144e-06 0 -0.034999951066925369 2.1062745762018963e-08 0 -0.034999873938713698 2.8658483991706508e-08 0 -0.03494471488179076 7.9608583940492329e-06 0 -0.03494471488179076 7.9608583940492329e-06 0 -0.034959606668745577 -7.9471914709746144e-06 0 -0.034858596255637218 -6.6861510613271028e-06 0 -0.034999782179778956 8.0988939998868578e-09 0 -0.03486353363724639 1.2024931645585633e-05 0 -0.034878823099953028 -8.6771642499115759e-06 0 -0.034999873938713698 2.8658483991706508e-08 0 -0.03494471488179076 7.9608583940492329e-06 0 -0.03486353363724639 1.2024931645585633e-05 0 -0.034999873938713698 2.8658483991706508e-08 0 -0.034999782179778956 8.0988939998868578e-09 0 -0.03486353363724639 1.2024931645585633e-05 0 -0.03494471488179076 7.9608583940492329e-06 0 -0.03486353363724639 1.2024931645585633e-05 0 -0.034858596255637218 -6.6861510613271028e-06 0 -0.034712789897689222 -1.2934328637816428e-05 0 -0.034702860136989991 -1.8854284468512229e-05 0 -0.034469561689326904 -2.5743893827180796e-05 0 -0.03486353363724639 1.2024931645585633e-05 0 -0.034712789897689222 -1.2934328637816428e-05 0 -0.034702860136989991 -1.8854284468512229e-05 0 -0.034712789897689222 -1.2934328637816428e-05 0 -0.03465509807588836 -5.3919733813245875e-05 0 -0.034858596255637218 -6.6861510613271028e-06 0 -0.03486353363724639 1.2024931645585633e-05 0 -0.034712789897689222 -1.2934328637816428e-05 0 -0.034858596255637218 -6.6861510613271028e-06 0 -0.03465509807588836 -5.3919733813245875e-05 0 -0.034858596255637218 -6.6861510613271028e-06 0 -0.034755410272143149 -0.00014344342795635564 0 -0.03465509807588836 -5.3919733813245875e-05 0 -0.034493620337887936 -0.00012283202989761847 0 -0.034755410272143149 -0.00014344342795635564 0 -0.03465509807588836 -5.3919733813245875e-05 0 -0.034493620337887936 -0.00012283202989761847 0 -0.034469561689326904 -2.5743893827180796e-05 0 -0.034712789897689222 -1.2934328637816428e-05 0 -0.03465509807588836 -5.3919733813245875e-05 0 -0.034469561689326904 -2.5743893827180796e-05 0 -0.034965008232656587 -3.2011461473471343e-05 0 -0.034959606668745577 -7.9471914709746144e-06 0 -0.034923302708512849 -3.9585844576619336e-05 0 -0.034959606668745577 -7.9471914709746144e-06 0 -0.034858596255637218 -6.6861510613271028e-06 0 -0.034923302708512849 -3.9585844576619336e-05 0 -0.034858596255637218 -6.6861510613271028e-06 0 -0.034895113308225381 -8.4941114036495116e-05 0 -0.034923302708512849 -3.9585844576619336e-05 0 -0.034983719098742101 -3.8516381626784734e-05 0 -0.034326787235897015 -0.00014191113729373171 0 -0.034858596255637218 -6.6861510613271028e-06 0 -0.034858683024714572 -0.0001329901513328134 0 -0.034755410272143149 -0.00014344342795635564 0 -0.03494611164634602 -6.6058810750654583e-05 0 -0.034965008232656587 -3.2011461473471343e-05 0 -0.034923302708512849 -3.9585844576619336e-05 0 -0.033852522142121387 -5.3899181880709637e-05 0 -0.034326787235897015 -0.00014191113729373171 0 -0.03494611164634602 -6.6058810750654583e-05 0 -0.034895113308225381 -8.4941114036495116e-05 0 -0.034923302708512849 -3.9585844576619336e-05 0 -0.032932752241322402 -2.8084245953006077e-07 0 -0.032893448595614515 -1.2780674455412409e-05 0 -0.032895144488736663 -6.1618649949287673e-05 0 -0.034326787235897015 -0.00014191113729373171 0 -0.033980545788812239 -0.00017522927464301241 0 -0.032932752241322402 -2.8084245953006077e-07 0 -0.032895144488736663 -6.1618649949287673e-05 0 -0.03293353645930816 -4.176978714434842e-05 0 -0.034555186497328444 -0.00010002137865244456 0 -0.034501030977219661 -0.00020651453847345537 0 -0.034627837142580838 -0.00023808841557673301 0 -0.034555186497328444 -0.00010002137865244456 0 -0.034501030977219661 -0.00020651453847345537 0 -0.034461490671520961 -0.00012607243681271731 0 -0.034326787235897015 -0.00014191113729373171 0 -0.034665743977855601 -0.00011952040182830421 0 -0.034501030977219661 -0.00020651453847345537 0 -0.034627837142580838 -0.00023808841557673301 0 -0.03455585918089326 -0.00038332589708705162 0 -0.034501030977219661 -0.00020651453847345537 0 -0.034401501812796068 -0.00032310418953130119 0 -0.03455585918089326 -0.00038332589708705162 0 -0.034627837142580838 -0.00023808841557673301 0 -0.034701874073924548 -0.00044459945253458495 0 -0.03455585918089326 -0.00038332589708705162 0 -0.033980545788812239 -0.00017522927464301241 0 -0.029696502543206937 -0.001066995537612877 0 -0.032895144488736663 -6.1618649949287673e-05 0 -0.032891683293757107 -0.00012068680308002697 0 -0.03293353645930816 -4.176978714434842e-05 0 -0.034493620337887936 -0.00012283202989761847 0 -0.034435572007710968 -0.00016582872797194854 0 -0.034284758854416265 -0.00015955427084676194 0 -0.034493620337887936 -0.00012283202989761847 0 -0.034284758854416265 -0.00015955427084676194 0 -0.034469561689326904 -2.5743893827180796e-05 0 -0.034493620337887936 -0.00012283202989761847 0 -0.034435572007710968 -0.00016582872797194854 0 -0.034461490671520961 -0.00012607243681271731 0 -0.034498978760464961 -0.00013247201361381053 0 -0.034665743977855601 -0.00011952040182830421 0 -0.034501030977219661 -0.00020651453847345537 0 -0.034435572007710968 -0.00016582872797194854 0 -0.034461490671520961 -0.00012607243681271731 0 -0.034435572007710968 -0.00016582872797194854 0 -0.034401501812796068 -0.00032310418953130119 0 -0.034284758854416265 -0.00015955427084676194 0 -0.034501030977219661 -0.00020651453847345537 0 -0.034435572007710968 -0.00016582872797194854 0 -0.034401501812796068 -0.00032310418953130119 0 -0.034401501812796068 -0.00032310418953130119 0 -0.034284758854416265 -0.00015955427084676194 0 -0.034164897944899103 -0.00050240283540267119 0 -0.034284758854416265 -0.00015955427084676194 0 -0.034164897944899103 -0.00050240283540267119 0 -0.033892848606901706 -0.00043152881492992311 0 -0.034401501812796068 -0.00032310418953130119 0 -0.034164897944899103 -0.00050240283540267119 0 -0.034503711344581883 -0.00068525707057278317 0 -0.034164897944899103 -0.00050240283540267119 0 -0.034503711344581883 -0.00068525707057278317 0 -0.034177216454373716 -0.0010204922665791915 0 -0.034164897944899103 -0.00050240283540267119 0 -0.033892848606901706 -0.00043152881492992311 0 -0.033703775434243251 -0.00088551082266775363 0 -0.034164897944899103 -0.00050240283540267119 0 -0.033703775434243251 -0.00088551082266775363 0 -0.034177216454373716 -0.0010204922665791915 0 -0.029696502543206937 -0.001066995537612877 0 -0.029146093862672962 -0.0023757150961114912 0 -0.034701874073924548 -0.00044459945253458495 0 -0.03455585918089326 -0.00038332589708705162 0 -0.034503711344581883 -0.00068525707057278317 0 -0.034401501812796068 -0.00032310418953130119 0 -0.03455585918089326 -0.00038332589708705162 0 -0.034503711344581883 -0.00068525707057278317 0 -0.023974786904037391 -0.0036792325198191072 0 -0.024010262513140337 -0.0036982464160072418 0 -0.023909885444337132 -0.0036436240972062515 0 -0.029896702398776433 -0.00016017235687337266 0 -0.026241576153672761 -0.0016322484859023492 0 -0.029696502543206937 -0.001066995537612877 0 -0.026241576153672761 -0.0016322484859023492 0 -0.023974786904037391 -0.0036792325198191072 0 -0.023878135027004681 -0.0036301232069992405 0 -0.023909885444337132 -0.0036436240972062515 0 -0.028801413001472764 -0.00016967855488529484 0 -0.029579722416988377 -0.00050529754868591402 0 -0.0293972744067671 -0.0016797937488506297 0 -0.029964378360752497 3.3131523659348988e-05 0 -0.030027447762174725 -2.0299239548720434e-06 0 -0.029879451562194095 -0.00016326678017855988 0 -0.028801413001472764 -0.00016967855488529484 0 -0.029579722416988377 -0.00050529754868591402 0 -0.02977474722354894 0.00063162167386307034 0 -0.029896702398776433 -0.00016017235687337266 0 -0.031847382934525409 0.00074689105006871975 0 -0.029964378360752497 3.3131523659348988e-05 0 -0.03002393602130193 5.4386860860877589e-05 0 -0.030040370247076162 5.5324006330895112e-05 0 -0.029964378360752497 3.3131523659348988e-05 0 -0.03002393602130193 5.4386860860877589e-05 0 -0.030027447762174725 -2.0299239548720434e-06 0 -0.03002393602130193 5.4386860860877589e-05 0 -0.030027447762174725 -2.0299239548720434e-06 0 -0.03000837370377336 8.0464466574006556e-05 0 -0.030258371794530847 0.00065552236235110297 0 -0.02973896249184476 7.5560167264181457e-05 0 -0.028496374594563709 0.00043256028472171465 0 -0.026241576153672761 -0.0016322484859023492 0 -0.029638615041820578 0.00038172626700052747 0 -0.029550358245568023 0.00047468171489065196 0 -0.029102857555801925 1.5905877607262936e-06 0 -0.029638615041820578 0.00038172626700052747 0 -0.029550358245568023 0.00047468171489065196 0 -0.029625320924310077 0.00045239944923308636 0 -0.026575416088664178 -9.0275468218057356e-05 0 -0.026636683335540052 -1.7616105116449096e-05 0 -0.026874605942995931 -7.8356436435608908e-06 0 -0.030258371794530847 0.00065552236235110297 0 -0.026241576153672761 -0.0016322484859023492 0 -0.026575416088664178 -9.0275468218057356e-05 0 -0.026636683335540052 -1.7616105116449096e-05 0 -0.026560768958847559 -3.5214808371359013e-05 0 -0.026575416088664178 -9.0275468218057356e-05 0 -0.026600814343130785 -7.3377513478083511e-05 0 -0.026799556326040926 3.7843586764709347e-05 0 -0.028496374594563709 0.00043256028472171465 0 -0.028101859780349014 0.00017230848112889218 0 -0.026600814343130785 -7.3377513478083511e-05 0 -0.026470340569791591 -0.00011781229990721465 0 -0.026799556326040926 3.7843586764709347e-05 0 -0.026575416088664178 -9.0275468218057356e-05 0 -0.026600814343130785 -7.3377513478083511e-05 0 -0.026560768958847559 -3.5214808371359013e-05 0 -0.029638615041820578 0.00038172626700052747 0 -0.029625320924310077 0.00045239944923308636 0 -0.029594132121910258 0.00056333996409126434 0 -0.026600814343130785 -7.3377513478083511e-05 0 -0.026470340569791591 -0.00011781229990721465 0 -0.026560768958847559 -3.5214808371359013e-05 0 -0.026958922885934107 -8.7767295636180814e-07 0 -0.026470340569791591 -0.00011781229990721465 0 -0.026799556326040926 3.7843586764709347e-05 0 -0.026958922885934107 -8.7767295636180814e-07 0 -0.026470340569791591 -0.00011781229990721465 0 -0.025555083346262487 6.5110759025804605e-07 0 -0.028369141131352187 9.9997363869566799e-07 0 -0.029594132121910258 0.00056333996409126434 0 -0.029458914193317021 0.00015198826406118089 0 -0.028365358115380223 1.0929092361208971e-07 0 -0.028101859780349014 0.00017230848112889218 0 -0.026958922885934107 -8.7767295636180814e-07 0 -0.028363498237667786 1.0848660387058211e-06 0 -0.026799556326040926 3.7843586764709347e-05 0 -0.029550358245568023 0.00047468171489065196 0 -0.029625320924310077 0.00045239944923308636 0 -0.029665777725696493 0.00033012069182339874 0 -0.029625320924310077 0.00045239944923308636 0 -0.029594132121910258 0.00056333996409126434 0 -0.029665777725696493 0.00033012069182339874 0 -0.029594132121910258 0.00056333996409126434 0 -0.029665777725696493 0.00033012069182339874 0 -0.029458914193317021 0.00015198826406118089 0 -0.031493736671089331 0.00011614537742263983 0 -0.028369141131352187 9.9997363869566799e-07 0 -0.029823856601754961 -4.456611705493567e-05 0 -0.03000837370377336 8.0464466574006556e-05 0 -0.029823856601754961 -4.456611705493567e-05 0 -0.030039749599573128 3.1172878810183877e-05 0 -0.029823856601754961 -4.456611705493567e-05 0 -0.030074652820380958 -1.2861915720633265e-05 0 -0.030039749599573128 3.1172878810183877e-05 0 -0.032232821476088101 -2.2016962318715625e-07 0 -0.031493736671089331 0.00011614537742263983 0 -0.028369141131352187 9.9997363869566799e-07 0 -0.02973896249184476 7.5560167264181457e-05 0 -0.02981998226922402 1.4254594119525818e-05 0 -0.029665777725696493 0.00033012069182339874 0 -0.029458914193317021 0.00015198826406118089 0 -0.029823856601754961 -4.456611705493567e-05 0 -0.028369141131352187 9.9997363869566799e-07 0 -0.029458914193317021 0.00015198826406118089 0 -0.029823856601754961 -4.456611705493567e-05 0 -0.031493736671089331 0.00011614537742263983 0 -0.029823856601754961 -4.456611705493567e-05 0 -0.030074652820380958 -1.2861915720633265e-05 0 -0.033314664414489513 0.00035697640386793964 0 -0.033034828598537916 0.0014541868387648402 0 -0.033658396004550131 0.0011941048218840952 0 -0.033034828598537916 0.0014541868387648402 0 -0.033658396004550131 0.0011941048218840952 0 -0.0342604556095885 0.0024352621295486146 0 -0.034001817035617957 0.00040826862876406706 0 -0.031847382934525409 0.00074689105006871975 0 -0.034013006731898186 0.00049518421856242561 0 -0.033658396004550131 0.0011941048218840952 0 -0.0342604556095885 0.0024352621295486146 0 -0.031657664472866255 0.00076305825765970255 0 -0.031847382934525409 0.00074689105006871975 0 -0.032932752241322402 -2.8084245953006077e-07 0 -0.032989789821637285 1.4315369885046607e-05 0 -0.03293353645930816 -4.176978714434842e-05 0 -0.032989789821637285 1.4315369885046607e-05 0 -0.03293353645930816 -4.176978714434842e-05 0 -0.03295840600350896 -7.2942914701204327e-05 0 -0.029696502543206937 -0.001066995537612877 0 -0.031847382934525409 0.00074689105006871975 0 -0.032891683293757107 -0.00012068680308002697 0 -0.03293353645930816 -4.176978714434842e-05 0 -0.03295840600350896 -7.2942914701204327e-05 0 -0.030074652820380958 -1.2861915720633265e-05 0 -0.030039749599573128 3.1172878810183877e-05 0 -0.030040370247076162 5.5324006330895112e-05 0 -0.03002393602130193 5.4386860860877589e-05 0 -0.03000837370377336 8.0464466574006556e-05 0 -0.030039749599573128 3.1172878810183877e-05 0 -0.03002393602130193 5.4386860860877589e-05 0 -0.030039749599573128 3.1172878810183877e-05 0 -0.030040370247076162 5.5324006330895112e-05 0 -0.034815502010742641 -0.00081089640574394969 0 -0.03472099325475278 -0.00081458730828114483 0 -0.034780710973760655 -0.00069742696651998819 0 -0.034815502010742641 -0.00081089640574394969 0 -0.03472099325475278 -0.00081458730828114483 0 -0.034709387489776818 -0.00092749582400887564 0 -0.03472099325475278 -0.00081458730828114483 0 -0.034709387489776818 -0.00092749582400887564 0 -0.034630516195190822 -0.0008800144459270038 0 -0.034815502010742641 -0.00081089640574394969 0 -0.034919760468204178 -0.00064867965744172204 0 -0.034985212479491476 -0.00093560045423250878 0 -0.034919760468204178 -0.00064867965744172204 0 -0.035106185898809705 -0.00063245196670878075 0 -0.034985212479491476 -0.00093560045423250878 0 -0.03298159187775878 -0.0015956035566681011 0 -0.034063362982573273 -0.00090419531288547762 0 -0.034815502010742641 -0.00081089640574394969 0 -0.034709387489776818 -0.00092749582400887564 0 -0.034985212479491476 -0.00093560045423250878 0 -0.034919760468204178 -0.00064867965744172204 0 -0.034898883545774612 -0.00038442682680370075 0 -0.03501368637555962 -0.00043717457069087094 0 -0.034815502010742641 -0.00081089640574394969 0 -0.034919760468204178 -0.00064867965744172204 0 -0.034780710973760655 -0.00069742696651998819 0 -0.034919760468204178 -0.00064867965744172204 0 -0.034814821019834234 -0.0005256965010263971 0 -0.034780710973760655 -0.00069742696651998819 0 -0.034919760468204178 -0.00064867965744172204 0 -0.034814821019834234 -0.0005256965010263971 0 -0.034898883545774612 -0.00038442682680370075 0 -0.034814821019834234 -0.0005256965010263971 0 -0.034715299202244476 -0.00057206481427911999 0 -0.034739156388126025 -0.00043201154736367803 0 -0.034814821019834234 -0.0005256965010263971 0 -0.034780710973760655 -0.00069742696651998819 0 -0.034715299202244476 -0.00057206481427911999 0 -0.034780710973760655 -0.00069742696651998819 0 -0.034715299202244476 -0.00057206481427911999 0 -0.034673197505545261 -0.00072813686154163718 0 -0.03472099325475278 -0.00081458730828114483 0 -0.034780710973760655 -0.00069742696651998819 0 -0.034673197505545261 -0.00072813686154163718 0 -0.034715299202244476 -0.00057206481427911999 0 -0.034739156388126025 -0.00043201154736367803 0 -0.03465000079790554 -0.00045022120810241778 0 -0.034739156388126025 -0.00043201154736367803 0 -0.034710578251831513 -0.00035437046138954247 0 -0.03465000079790554 -0.00045022120810241778 0 -0.034814821019834234 -0.0005256965010263971 0 -0.034739156388126025 -0.00043201154736367803 0 -0.034804579717830533 -0.00034556490250831838 0 -0.034804579717830533 -0.00034556490250831838 0 -0.034760374365041355 -0.00022353175716846298 0 -0.034889253090085628 -0.00026059598676448384 0 -0.034804579717830533 -0.00034556490250831838 0 -0.034710578251831513 -0.00035437046138954247 0 -0.034760374365041355 -0.00022353175716846298 0 -0.034739156388126025 -0.00043201154736367803 0 -0.034804579717830533 -0.00034556490250831838 0 -0.034710578251831513 -0.00035437046138954247 0 -0.034710578251831513 -0.00035437046138954247 0 -0.034760374365041355 -0.00022353175716846298 0 -0.03456973917921919 -0.00032037267233753322 0 -0.03499625562233253 -5.4184847212897029e-06 0 -0.034999895723981295 -3.8103382500720137e-09 0 -0.035015769819615634 -2.0239830475764641e-05 0 -0.034999895723981295 -3.8103382500720137e-09 0 -0.035001906573945703 -8.419095433552054e-05 0 -0.035000117275824416 -1.4348746077943654e-07 0 -0.03499625562233253 -5.4184847212897029e-06 0 -0.034999895723981295 -3.8103382500720137e-09 0 -0.035001906573945703 -8.4