<?xml version="1.0"?>
<VTKFile type="UnstructuredGrid" version="0.1" byte_order="LittleEndian">
<UnstructuredGrid>
<Piece NumberOfPoints="30655" NumberOfCells="10720">
<Points>
<DataArray type="Float64" NumberOfComponents="3" format="ascii">
-0.5 -0.5 0 -0.48113944850806339 -0.48056471521631988 0 -0.50000000000000711 -0.4658100594871909 0 -0.5 -0.5 0 -0.48113944850806339 -0.48056471521631988 0 -0.46046510288576492 -0.5 0 -0.48113944850806339 -0.48056471521631988 0 -0.47181697923608568 -0.46164593814545868 0 -0.50000000000000711 -0.4658100594871909 0 -0.48113944850806339 -0.48056471521631988 0 -0.46193144004422199 -0.47897598145297599 0 -0.47181697923608568 -0.46164593814545868 0 -0.46046510288576492 -0.5 0 -0.46193144004422199 -0.47897598145297599 0 -0.44521843675491368 -0.48987230226349959 0 -0.48113944850806339 -0.48056471521631988 0 -0.46046510288576492 -0.5 0 -0.46193144004422199 -0.47897598145297599 0 -0.46193144004422199 -0.47897598145297599 0 -0.44516659812140491 -0.46815958827145532 0 -0.47181697923608568 -0.46164593814545868 0 -0.46193144004422199 -0.47897598145297599 0 -0.44521843675491368 -0.48987230226349959 0 -0.44516659812140491 -0.46815958827145532 0 -0.44521843675491368 -0.48987230226349959 0 -0.42995391773136421 -0.4715387390879226 0 -0.44521843675491368 -0.48987230226349959 0 -0.44516659812140491 -0.46815958827145532 0 -0.42995391773136421 -0.4715387390879226 0 -0.44092902709703569 -0.43863678752773161 0 -0.44363395847216408 -0.45748181680372862 0 -0.44092902709703569 -0.43863678752773161 0 -0.44363395847216408 -0.45748181680372862 0 -0.45525817794649359 -0.44509323693356118 0 -0.44363395847216408 -0.45748181680372862 0 -0.44516659812140491 -0.46815958827145532 0 -0.43336096825818737 -0.46259633001886208 0 -0.44363395847216408 -0.45748181680372862 0 -0.44516659812140491 -0.46815958827145532 0 -0.44363395847216408 -0.45748181680372862 0 -0.45525817794649359 -0.44509323693356118 0 -0.47181697923608568 -0.46164593814545868 0 -0.44363395847216408 -0.45748181680372862 0 -0.47181697923608568 -0.46164593814545868 0 -0.44363395847216408 -0.45748181680372862 0 -0.44516659812140491 -0.46815958827145532 0 -0.47181697923608568 -0.46164593814545868 0 -0.45525817794649359 -0.44509323693356118 0 -0.47181697923608568 -0.46164593814545868 0 -0.46828043329488001 -0.43492097771962662 0 -0.47181697923608568 -0.46164593814545868 0 -0.5 -0.43631786962744401 0 -0.46828043329488001 -0.43492097771962662 0 -0.47181697923608568 -0.46164593814545868 0 -0.50000000000000711 -0.4658100594871909 0 -0.47181697923608568 -0.46164593814545868 0 -0.50000000000000711 -0.4658100594871909 0 -0.5 -0.43631786962744401 0 -0.5 -0.43631786962744401 0 -0.48152043501152852 -0.41732484028286793 0 -0.46828043329488001 -0.43492097771962662 0 -0.5 -0.43631786962744401 0 -0.5 -0.40682567976769718 0 -0.48152043501152852 -0.41732484028286793 0 -0.48152043501152852 -0.41732484028286793 0 -0.46828043329488001 -0.43492097771962662 0 -0.4611206688355981 -0.41015630141068349 0 -0.5 -0.37733348990795051 0 -0.47851630218636992 -0.39068943291841979 0 -0.48425098247528608 -0.36462304094731629 0 -0.5 -0.40682567976769718 0 -0.48152043501152852 -0.41732484028286793 0 -0.47851630218636992 -0.39068943291841979 0 -0.5 -0.40682567976769718 0 -0.5 -0.37733348990795051 0 -0.47851630218636992 -0.39068943291841979 0 -0.48152043501152852 -0.41732484028286793 0 -0.47851630218636992 -0.39068943291841979 0 -0.4611206688355981 -0.41015630141068349 0 -0.45876884863916229 -0.38830632695912648 0 -0.46388025252233389 -0.36946134457768071 0 -0.44310955625738607 -0.37225968980706758 0 -0.47851630218636992 -0.39068943291841979 0 -0.45876884863916229 -0.38830632695912648 0 -0.46388025252233389 -0.36946134457768071 0 -0.45876884863916229 -0.38830632695912648 0 -0.44612144827359818 -0.39360503905926209 0 -0.4611206688355981 -0.41015630141068349 0 -0.47851630218636992 -0.39068943291841979 0 -0.45876884863916229 -0.38830632695912648 0 -0.4611206688355981 -0.41015630141068349 0 -0.44612144827359818 -0.39360503905926209 0 -0.4611206688355981 -0.41015630141068349 0 -0.43602883345340809 -0.40449755075399219 0 -0.44612144827359818 -0.39360503905926209 0 -0.43383357118490867 -0.38920334325624978 0 -0.43602883345340809 -0.40449755075399219 0 -0.44612144827359818 -0.39360503905926209 0 -0.43383357118490867 -0.38920334325624978 0 -0.44310955625738607 -0.37225968980706758 0 -0.45876884863916229 -0.38830632695912648 0 -0.44612144827359818 -0.39360503905926209 0 -0.44310955625738607 -0.37225968980706758 0 -0.45525817794649359 -0.44509323693356118 0 -0.46828043329488001 -0.43492097771962662 0 -0.45291759324069047 -0.4272993607371337 0 -0.46828043329488001 -0.43492097771962662 0 -0.4611206688355981 -0.41015630141068349 0 -0.45291759324069047 -0.4272993607371337 0 -0.4611206688355981 -0.41015630141068349 0 -0.43822409572191662 -0.41979175825173332 0 -0.45291759324069047 -0.4272993607371337 0 -0.4611206688355981 -0.41015630141068349 0 -0.43822409572191662 -0.41979175825173332 0 -0.4611206688355981 -0.41015630141068349 0 -0.43822409572191662 -0.41979175825173332 0 -0.43602883345340809 -0.40449755075399219 0 -0.44092902709703569 -0.43863678752773161 0 -0.45525817794649359 -0.44509323693356118 0 -0.45291759324069047 -0.4272993607371337 0 -0.44092902709703569 -0.43863678752773161 0 -0.43822409572191662 -0.41979175825173332 0 -0.44092902709703569 -0.43863678752773161 0 -0.43822409572191662 -0.41979175825173332 0 -0.45291759324069047 -0.4272993607371337 0 -0.44092902709703569 -0.43863678752773161 0 -0.43822409572191662 -0.41979175825173332 0 -0.41920917538217067 -0.42779371746895117 0 -0.43822409572191662 -0.41979175825173332 0 -0.41920917538217067 -0.42779371746895117 0 -0.44092902709703569 -0.43863678752773161 0 -0.41920917538217067 -0.42779371746895117 0 -0.42565926478824739 -0.4420486357828749 0 -0.43822409572191662 -0.41979175825173332 0 -0.42167488180506751 -0.41208363647319612 0 -0.41920917538217067 -0.42779371746895117 0 -0.43822409572191662 -0.41979175825173332 0 -0.42167488180506751 -0.41208363647319612 0 -0.43602883345340809 -0.40449755075399219 0 -0.43822409572191662 -0.41979175825173332 0 -0.43602883345340809 -0.40449755075399219 0 -0.42167488180506751 -0.41208363647319612 0 -0.41920917538217067 -0.42779371746895117 0 -0.40510528355032621 -0.41947021251847311 0 -0.42167488180506751 -0.41208363647319612 0 -0.40802671179822703 -0.40221021883265001 0 -0.40510528355032621 -0.41947021251847311 0 -0.41920917538217067 -0.42779371746895117 0 -0.4001942550424239 -0.43579567668616659 0 -0.40510528355032621 -0.41947021251847311 0 -0.41920917538217067 -0.42779371746895117 0 -0.4001942550424239 -0.43579567668616659 0 -0.41920917538217067 -0.42779371746895117 0 -0.4001942550424239 -0.43579567668616659 0 -0.42565926478824739 -0.4420486357828749 0 -0.43383357118490867 -0.38920334325624978 0 -0.4239160825033208 -0.39843150813027411 0 -0.41829380196532889 -0.38054949952976358 0 -0.43383357118490867 -0.38920334325624978 0 -0.41829380196532889 -0.38054949952976358 0 -0.44310955625738607 -0.37225968980706758 0 -0.43383357118490867 -0.38920334325624978 0 -0.4239160825033208 -0.39843150813027411 0 -0.43602883345340809 -0.40449755075399219 0 -0.43383357118490867 -0.38920334325624978 0 -0.43602883345340809 -0.40449755075399219 0 -0.42167488180506751 -0.41208363647319612 0 -0.4239160825033208 -0.39843150813027411 0 -0.43602883345340809 -0.40449755075399219 0 -0.4239160825033208 -0.39843150813027411 0 -0.40802671179822703 -0.40221021883265001 0 -0.41829380196532889 -0.38054949952976358 0 -0.42167488180506751 -0.41208363647319612 0 -0.4239160825033208 -0.39843150813027411 0 -0.40802671179822703 -0.40221021883265001 0 -0.40802671179822703 -0.40221021883265001 0 -0.41829380196532889 -0.38054949952976358 0 -0.39435237826397251 -0.38714214129015262 0 -0.41829380196532889 -0.38054949952976358 0 -0.39435237826397251 -0.38714214129015262 0 -0.39984811069874948 -0.3670637527489099 0 -0.40802671179822703 -0.40221021883265001 0 -0.39435237826397251 -0.38714214129015262 0 -0.38296974127767941 -0.41510804736830992 0 -0.39435237826397251 -0.38714214129015262 0 -0.38296974127767941 -0.41510804736830992 0 -0.36574522751293398 -0.39442041805045369 0 -0.39435237826397251 -0.38714214129015262 0 -0.39984811069874948 -0.3670637527489099 0 -0.37227104331404492 -0.37147264876230612 0 -0.39435237826397251 -0.38714214129015262 0 -0.37227104331404492 -0.37147264876230612 0 -0.36574522751293398 -0.39442041805045369 0 -0.4001942550424239 -0.43579567668616659 0 -0.38296974127767941 -0.41510804736830992 0 -0.4001942550424239 -0.43579567668616659 0 -0.40510528355032621 -0.41947021251847311 0 -0.38296974127767941 -0.41510804736830992 0 -0.40802671179822703 -0.40221021883265001 0 -0.40510528355032621 -0.41947021251847311 0 -0.38296974127767941 -0.41510804736830992 0 -0.4001942550424239 -0.43579567668616659 0 -0.38296974127767941 -0.41510804736830992 0 -0.37360776445756222 -0.43190754127687497 0 -0.39401552711814081 -0.45015055268284898 0 -0.37252491038279989 -0.44743963645972262 0 -0.4001942550424239 -0.43579567668616659 0 -0.37252491038279989 -0.44743963645972262 0 -0.4001942550424239 -0.43579567668616659 0 -0.37252491038279989 -0.44743963645972262 0 -0.37360776445756222 -0.43190754127687497 0 -0.4001942550424239 -0.43579567668616659 0 -0.39401552711814081 -0.45015055268284898 0 -0.37252491038279989 -0.44743963645972262 0 -0.39401552711814081 -0.45015055268284898 0 -0.3880561298873122 -0.46085771673827319 0 -0.37252491038279989 -0.44743963645972262 0 -0.4001942550424239 -0.43579567668616659 0 -0.39401552711814081 -0.45015055268284898 0 -0.41468939870781601 -0.45320517591234483 0 -0.39401552711814081 -0.45015055268284898 0 -0.41468939870781601 -0.45320517591234483 0 -0.39401552711814081 -0.45015055268284898 0 -0.40331080077142362 -0.46119068581389261 0 -0.41468939870781601 -0.45320517591234483 0 -0.39401552711814081 -0.45015055268284898 0 -0.40331080077142362 -0.46119068581389261 0 -0.3880561298873122 -0.46085771673827319 0 -0.40331080077142362 -0
[...]
<PointData Scalars="" Vectors="displacement," Tensors="">
<DataArray type="Float64" Name="displacement" NumberOfComponents="3" format="ascii">
-7.6186750043393182e-07 -0.034997604931672102 0 -0.00012375652080562913 -0.034376092687550285 0 1.4869432477434666e-06 -0.032611440213079455 0 -7.6186750043393182e-07 -0.034997604931672102 0 -0.00012375652080562913 -0.034376092687550285 0 -2.9200950005221434e-08 -0.034999955993836776 0 -0.00012375652080562913 -0.034376092687550285 0 0.00052221735919194166 -0.034632893651812754 0 1.4869432477434666e-06 -0.032611440213079455 0 -0.00012375652080562913 -0.034376092687550285 0 8.7850319005996661e-05 -0.034834857990514258 0 0.00052221735919194166 -0.034632893651812754 0 -2.9200950005221434e-08 -0.034999955993836776 0 8.7850319005996661e-05 -0.034834857990514258 0 1.560452981082182e-05 -0.035005331210370992 0 -0.00012375652080562913 -0.034376092687550285 0 -2.9200950005221434e-08 -0.034999955993836776 0 8.7850319005996661e-05 -0.034834857990514258 0 8.7850319005996661e-05 -0.034834857990514258 0 0.0002499553013303751 -0.035020060573096153 0 0.00052221735919194166 -0.034632893651812754 0 8.7850319005996661e-05 -0.034834857990514258 0 1.560452981082182e-05 -0.035005331210370992 0 0.0002499553013303751 -0.035020060573096153 0 -3.7951904828964626e-05 -0.034920815390318868 0 0.00011723773423902984 -0.035306394465244716 0 1.560452981082182e-05 -0.035005331210370992 0 0.0002499553013303751 -0.035020060573096153 0 0.00022377268085333949 -0.03506704088538757 0 0.00028510732925333591 -0.029078353211066443 0 0.00040624188156951232 -0.031947256853552014 0 6.8418190227639286e-05 -0.028092463118685046 0 0.00071679855756370955 -0.028106492209266254 0 0.00024188371691444562 -0.028515549819021244 0 0.00024500869978776925 -0.035026762862156655 0 0.0002499553013303751 -0.035020060573096153 0 0.00024043587706512137 -0.035038719547227835 0 0.00040624188156951232 -0.031947256853552014 0 0.00046625840934161767 -0.033983373391191583 0 0.00071679855756370955 -0.028106492209266254 0 0.00024188371691444562 -0.028515549819021244 0 0.00069411640380368173 -0.029580072009475898 0 0.00040624188156951232 -0.031947256853552014 0 0.00057075796389602232 -0.031990870152720847 0 0.00042229586072016164 -0.035030268764837703 0 0.0002499553013303751 -0.035020060573096153 0 0.00052221735919194166 -0.034632893651812754 0 0.00024188371691444562 -0.028515549819021244 0 0.00069411640380368173 -0.029580072009475898 0 3.7881361367478847e-05 -0.028702898047011812 0 0.00069411640380368173 -0.029580072009475898 0 -1.3710465658074106e-06 -0.03054284722337261 0 3.7881361367478847e-05 -0.028702898047011812 0 0.00057075796389602232 -0.031990870152720847 0 2.3709471046108479e-07 -0.032606576577252418 0 0.00069411640380368173 -0.029580072009475898 0 3.6616329113192877e-06 -0.032601631172632276 0 -1.3710465658074106e-06 -0.03054284722337261 0 -1.3710465658074106e-06 -0.03054284722337261 0 -0.00010934126727103356 -0.02856668845110278 0 3.7881361367478847e-05 -0.028702898047011812 0 -1.3710465658074106e-06 -0.03054284722337261 0 -1.109789417298609e-07 -0.028477074445319807 0 -0.00010934126727103356 -0.02856668845110278 0 -0.00010934126727103356 -0.02856668845110278 0 3.7881361367478847e-05 -0.028702898047011812 0 -6.5244911174533625e-05 -0.027686484875655705 0 -5.5978879872277802e-07 -0.026413594390922824 0 -0.00028056351166407353 -0.027180010451202958 0 -0.00025623625477622168 -0.025783248115654044 0 -1.109789417298609e-07 -0.028477074445319807 0 -0.00010934126727103356 -0.02856668845110278 0 -0.00028056351166407353 -0.027180010451202958 0 -1.109789417298609e-07 -0.028477074445319807 0 -5.5978879872277802e-07 -0.026413594390922824 0 -0.00028056351166407353 -0.027180010451202958 0 -0.00010934126727103356 -0.02856668845110278 0 -0.00028056351166407353 -0.027180010451202958 0 -6.5244911174533625e-05 -0.027686484875655705 0 -0.00038273813739969707 -0.026817309360319046 0 -0.00046154824149550604 -0.026224598023970352 0 -0.00053002890482265635 -0.026326576074143147 0 -0.00028056351166407353 -0.027180010451202958 0 -0.00038273813739969707 -0.026817309360319046 0 -0.00046154824149550604 -0.026224598023970352 0 -0.00038273813739969707 -0.026817309360319046 0 -0.00034041650026449136 -0.026674010083515658 0 -6.5244911174533625e-05 -0.027686484875655705 0 -0.00028056351166407353 -0.027180010451202958 0 -0.00038273813739969707 -0.026817309360319046 0 -6.5244911174533625e-05 -0.027686484875655705 0 -0.00034041650026449136 -0.026674010083515658 0 -6.5244911174533625e-05 -0.027686484875655705 0 -7.4871466648362593e-05 -0.026404106637897527 0 -0.00034041650026449136 -0.026674010083515658 0 -0.00035964682125095985 -0.026339221427594171 0 -7.4871466648362593e-05 -0.026404106637897527 0 -0.00034041650026449136 -0.026674010083515658 0 -0.00035964682125095985 -0.026339221427594171 0 -0.00053002890482265635 -0.026326576074143147 0 -0.00038273813739969707 -0.026817309360319046 0 -0.00034041650026449136 -0.026674010083515658 0 -0.00053002890482265635 -0.026326576074143147 0 0.00024188371691444562 -0.028515549819021244 0 3.7881361367478847e-05 -0.028702898047011812 0 -6.019694904249214e-05 -0.028160787039935992 0 3.7881361367478847e-05 -0.028702898047011812 0 -6.5244911174533625e-05 -0.027686484875655705 0 -6.019694904249214e-05 -0.028160787039935992 0 -6.5244911174533625e-05 -0.027686484875655705 0 -3.6168975544314191e-05 -0.028171238602764097 0 -6.019694904249214e-05 -0.028160787039935992 0 2.0393529898615712e-05 -0.027459964357529332 0 0.00028912504282120838 -0.027927691306500579 0 -6.5244911174533625e-05 -0.027686484875655705 0 0.00060817400622516357 -0.026531245124133733 0 -7.4871466648362593e-05 -0.026404106637897527 0 6.8418190227639286e-05 -0.028092463118685046 0 0.00024188371691444562 -0.028515549819021244 0 -6.019694904249214e-05 -0.028160787039935992 0 0.00028510732925333591 -0.029078353211066443 0 0.00028912504282120838 -0.027927691306500579 0 6.8418190227639286e-05 -0.028092463118685046 0 -3.6168975544314191e-05 -0.028171238602764097 0 -6.019694904249214e-05 -0.028160787039935992 0 0.00047892121786352365 -0.030156057205958087 0 0.000278329815071126 -0.0301066202786422 0 0.00036234799102210792 -0.029911489868239629 0 0.00028912504282120838 -0.027927691306500579 0 0.00028612448926078891 -0.028026579901972215 0 0.00047892121786352365 -0.030156057205958087 0 0.00036234799102210792 -0.029911489868239629 0 0.00051709548546277357 -0.02999425657380719 0 9.798910208589681e-05 -0.026427357041919411 0 -8.9279782035022708e-06 -0.026187792627545996 0 0.00020303111551841284 -0.026166645988434392 0 9.798910208589681e-05 -0.026427357041919411 0 -8.9279782035022708e-06 -0.026187792627545996 0 -0.00011591962554996656 -0.026388192958604954 0 0.00028912504282120838 -0.027927691306500579 0 -0.0001194185498840132 -0.026450559618899673 0 -8.9279782035022708e-06 -0.026187792627545996 0 0.00020303111551841284 -0.026166645988434392 0 9.0747735921457688e-05 -0.025970892750228576 0 -8.9279782035022708e-06 -0.026187792627545996 0 -0.00013664424139227051 -0.025995069440369941 0 9.0747735921457688e-05 -0.025970892750228576 0 0.00020303111551841284 -0.026166645988434392 0 0.00030936215610253328 -0.02591903319398501 0 9.0747735921457688e-05 -0.025970892750228576 0 0.00028612448926078891 -0.028026579901972215 0 0.00028176934513873873 -0.028225947618477701 0 0.00036234799102210792 -0.029911489868239629 0 0.00044754096835915676 -0.029702903698043681 0 0.00051709548546277357 -0.02999425657380719 0 -0.00035964682125095985 -0.026339221427594171 0 -0.00020217517527806235 -0.026205842757043938 0 -0.00040896135276138803 -0.026125967808762588 0 -0.00035964682125095985 -0.026339221427594171 0 -0.00040896135276138803 -0.026125967808762588 0 -0.00053002890482265635 -0.026326576074143147 0 -0.00035964682125095985 -0.026339221427594171 0 -0.00020217517527806235 -0.026205842757043938 0 -0.00011591962554996656 -0.026388192958604954 0 -0.00032140457381276257 -0.026356601160640904 0 -0.0001194185498840132 -0.026450559618899673 0 -8.9279782035022708e-06 -0.026187792627545996 0 -0.00020217517527806235 -0.026205842757043938 0 -0.00011591962554996656 -0.026388192958604954 0 -0.00020217517527806235 -0.026205842757043938 0 -0.00013664424139227051 -0.025995069440369941 0 -0.00040896135276138803 -0.026125967808762588 0 -8.9279782035022708e-06 -0.026187792627545996 0 -0.00020217517527806235 -0.026205842757043938 0 -0.00013664424139227051 -0.025995069440369941 0 -0.00013664424139227051 -0.025995069440369941 0 -0.00040896135276138803 -0.026125967808762588 0 -0.00031784923063924272 -0.025797599858557247 0 -0.00040896135276138803 -0.026125967808762588 0 -0.00031784923063924272 -0.025797599858557247 0 -0.00052359716259517658 -0.025845181218067882 0 -0.00013664424139227051 -0.025995069440369941 0 -0.00031784923063924272 -0.025797599858557247 0 3.0025060051822837e-05 -0.025672068194107958 0 -0.00031784923063924272 -0.025797599858557247 0 3.0025060051822837e-05 -0.025672068194107958 0 -0.0002493534793888632 -0.025442902847401763 0 -0.00031784923063924272 -0.025797599858557247 0 -0.00052359716259517658 -0.025845181218067882 0 -0.00050188636517914051 -0.025493222158290463 0 -0.00031784923063924272 -0.025797599858557247 0 -0.00050188636517914051 -0.025493222158290463 0 -0.0002493534793888632 -0.025442902847401763 0 0.00028176934513873873 -0.028225947618477701 0 -4.4817872027453659e-05 -0.026266086597046032 0 0.00030936215610253328 -0.02591903319398501 0 9.0747735921457688e-05 -0.025970892750228576 0 3.0025060051822837e-05 -0.025672068194107958 0 -0.00013664424139227051 -0.025995069440369941 0 9.0747735921457688e-05 -0.025970892750228576 0 3.0025060051822837e-05 -0.025672068194107958 0 0.00032416913940621858 -0.027626603956986767 0 8.2340168678796358e-06 -0.02733398686954585 0 0.00026468612430655201 -0.027205113981462088 0 -0.00018568259429628791 -0.033057930062023878 0 2.2909636226875588e-06 -0.031170108091671606 0 0.00028176934513873873 -0.028225947618477701 0 2.2909636226875588e-06 -0.031170108091671606 0 0.00032416913940621858 -0.027626603956986767 0 0.00049876021496541689 -0.02720635163559908 0 0.00026468612430655201 -0.027205113981462088 0 -8.5596440853276233e-05 -0.031277856370293476 0 0.00019096171341627104 -0.031169608587090971 0 0.00013551306595072408 -0.030759663160419535 0 -0.00054866051797930753 -0.03442775842347532 0 -0.00028942725972384934 -0.03428633920786895 0 -0.00063084392218672896 -0.033834428179271243 0 -8.5596440853276233e-05 -0.031277856370293476 0 0.00019096171341627104 -0.031169608587090971 0 0.00025619472347878058 -0.031583968470540714 0 -0.00018568259429628791 -0.033057930062023878 0 0.0002076701556791173 -0.032953247419451548 0 -0.00054866051797930753 -0.03442775842347532 0 -0.00030126034441856059 -0.034635602009636703 0 -0.00043154086174053343 -0.034847575634092499 0 -0.00054866051797930753 -0.03442775842347532 0 -0.00030126034441856059 -0.034635602009636703 0 -0.00028942725972384934 -0.03428633920786895 0 -0.00030126034441856059 -0.034635602009636703 0 -0.00028942725972384934 -0.03428633920786895 0 -7.7631849754537951e-05 -0.034671055928843966 0 -0.00018005338443953159 -0.03485383720763164 0 -0.00013428173946205714 -0.034750561680905061 0 -2.4836862613279022e-05 -0.035155085390208667 0 2.2909636226875588e-06 -0.031170108091671606 0 -0.00021489883931589282 -0.034657619544912657 0 -0.00032083873060000779 -0.03475016918077773 0 -0.00066153836243363902 -0.034286640510150547 0 -0.00021489883931589282 -0.034657619544912657 0 -0.00032083873060000779 -0.03475016918077773 0 -0.00013759857078422116 -0.034822947280999349 0 -0.00010820853463846221 -0.034996409185401423 0 -0.00012429609335768265 -0.034954307817050681 0 -0.00019471554640084862 -0.034924123794130714 0 -0.00018005338443953159 -0.03485383720763164 0 2.2909636226875588e-06 -0.031170108091671606 0 -0.00010820853463846221 -0.034996409185401423 0 -0.00012429609335768265 -0.034954307817050681 0 -8.4450967157648124e-05 -0.034960337543897546 0 -0.00010820853463846221 -0.034996409185401423 0 -6.2717493999708967e-05 -0.034989599313575918 0 -3.1891382275701366e-05 -0.035015788662454903 0 -2.4836862613279022e-05 -0.035155085390208667 0 -7.5539592537276796e-05 -0.034904534411231071 0 -6.2717493999708967e-05 -0.034989599313575918 0 -3.3572641586081154e-05 -0.034979753778324983 0 -3.1891382275701366e-05 -0.035015788662454903 0 -0.00010820853463846221 -0.034996409185401423 0 -6.2717493999708967e-05 -0.034989599313575918 0 -8.4450967157648124e-05 -0.034960337543897546 0 -0.00021489883931589282 -0.034657619544912657 0 -0.00013759857078422116 -0.034822947280999349 0 -1.1264825553747731e-05 -0.034883844563800621 0 -6.2717493999708967e-05 -0.034989599313575918 0 -3.3572641586081154e-05 -0.034979753778324983 0 -8.4450967157648124e-05 -0.034960337543897546 0 -3.42775390047198e-08 -0.035000046745821446 0 -3.3572641586081154e-05 -0.034979753778324983 0 -3.1891382275701366e-05 -0.035015788662454903 0 -3.42775390047198e-08 -0.035000046745821446 0 -3.3572641586081154e-05 -0.034979753778324983 0 6.5449476337828674e-08 -0.034999783098063009 0 9.1057299292724414e-08 -0.03499985683398265 0 -1.1264825553747731e-05 -0.034883844563800621 0 -1.3265290179281304e-05 -0.034967132723738373 0 3.6998072345899689e-08 -0.035000006726992251 0 -7.5539592537276796e-05 -0.034904534411231071 0 -3.42775390047198e-08 -0.035000046745821446 0 3.8164426051830175e-09 -0.035000013032647069 0 -3.1891382275701366e-05 -0.035015788662454903 0 -0.00032083873060000779 -0.03475016918077773 0 -0.00013759857078422116 -0.034822947280999349 0 -8.6677215207954088e-05 -0.034964962182991048 0 -0.00013759857078422116 -0.034822947280999349 0 -1.1264825553747731e-05 -0.034883844563800621 0 -8.6677215207954088e-05 -0.034964962182991048 0 -1.1264825553747731e-05 -0.034883844563800621 0 -8.6677215207954088e-05 -0.034964962182991048 0 -1.3265290179281304e-05 -0.034967132723738373 0 1.560452981082182e-05 -0.035005331210370992 0 9.1057299292724414e-08 -0.03499985683398265 0 5.9279945434704853e-06 -0.034978661838220099 0 -7.7631849754537951e-05 -0.034671055928843966 0 5.9279945434704853e-06 -0.034978661838220099 0 -0.00017096480541076565 -0.0348541323093043 0 5.9279945434704853e-06 -0.034978661838220099 0 -0.00010276250592294472 -0.035021301726217119 0 -0.00017096480541076565 -0.0348541323093043 0 -2.9200950005221434e-08 -0.034999955993836776 0 1.560452981082182e-05 -0.035005331210370992 0 9.1057299292724414e-08 -0.03499985683398265 0 -0.00013428173946205714 -0.034750561680905061 0 1.3692927518900382e-05 -0.034972991519584849 0 -8.6677215207954088e-05 -0.034964962182991048 0 -1.3265290179281304e-05 -0.034967132723738373 0 5.9279945434704853e-06 -0.034978661838220099 0 9.1057299292724414e-08 -0.03499985683398265 0 -1.3265290179281304e-05 -0.034967132723738373 0 5.9279945434704853e-06 -0.034978661838220099 0 1.560452981082182e-05 -0.035005331210370992 0 5.9279945434704853e-06 -0.034978661838220099 0 -0.00010276250592294472 -0.035021301726217119 0 0.0002499553013303751 -0.035020060573096153 0 0.00022377268085333949 -0.03506704088538757 0 0.00024043587706512137 -0.035038719547227835 0 0.00022377268085333949 -0.03506704088538757 0 0.00024043587706512137 -0.035038719547227835 0 0.00023787134142377192 -0.03502236855257105 0 0.00040624188156951232 -0.031947256853552014 0 0.0002076701556791173 -0.032953247419451548 0 0.00024500869978776925 -0.035026762862156655 0 0.00024043587706512137 -0.035038719547227835 0 0.00023787134142377192 -0.03502236855257105 0 0.00011723773423902984 -0.035306394465244716 0 0.0002076701556791173 -0.032953247419451548 0 0.00047892121786352365 -0.030156057205958087 0 0.00068548863570396521 -0.030206945445807418 0 0.00051709548546277357 -0.02999425657380719 0 0.00068548863570396521 -0.030206945445807418 0 0.00051709548546277357 -0.02999425657380719 0 0.00064103653895858327 -0.029882849751987437 0 0.00028176934513873873 -0.028225947618477701 0 0.0002076701556791173 -0.032953247419451548 0 0.00044754096835915676 -0.029702903698043681 0 0.00051709548546277357 -0.02999425657380719 0 0.00064103653895858327 -0.029882849751987437 0 -0.00010276250592294472 -0.035021301726217119 0 -0.00017096480541076565 -0.0348541323093043 0 -0.00043154086174053343 -0.034847575634092499 0 -0.00030126034441856059 -0.034635602009636703 0 -7.7631849754537951e-05 -0.034671055928843966 0 -0.00017096480541076565 -0.0348541323093043 0 -0.00030126034441856059 -0.034635602009636703 0 -0.00017096480541076565 -0.0348541323093043 0 -0.00043154086174053343 -0.034847575634092499 0 -0.0011802143081502891 -0.016663022617240234 0 -0.0014215302761853505 -0.016724470386798918 0 -0.0013074065431776477 -0.016880094265400117 0 -0.0011802143081502891 -0.016663022617240234 0 -0.0014215302761853505 -0.016724470386798918 0 -0.001459284984051846 -0.016526757933432716 0 -0.0014215302761853505 -0.016724470386798918 0 -0.001459284984051846 -0.016526757933432716 0 -0.0015148183218489778 -0.016726496870949136 0 -0.0011802143081502891 -0.016663022617240234 0 -0.00086208379152447761 -0.016973357822960736 0 -0.00067138269905310944 -0.016250118298171454 0 -0.00086208379152447761 -0.016973357822960736 0 -0.00014695867861032813 -0.01696128475395765 0 -0.00067138269905310944 -0.016250118298171454 0 -0.00069154347686455661 -0.01602670763502426 0 -6.4082595553882916e-05 -0.020371136650876445 0 -0.0011802143081502891 -0.016663022617240234 0 -0.001459284984051846 -0.016526757933432716 0 -0.00067138269905310944 -0.016250118298171454 0 -0.00086208379152447761 -0.016973357822960736 0 -0.00091438301220006729 -0.017722563656799965 0 -0.00041184646279332547 -0.017661951517335697 0 -0.0011802143081502891 -0.016663022617240234 0 -0.00086208379152447761 -0.016973357822960736 0 -0.0013074065431776477 -0.016880094265400117 0 -0.00086208379152447761 -0.016973357822960736 0 -0.0012386351254982393 -0.017214745399298827 0 -0.0013074065431776477 -0.016880094265400117 0 -0.00086208379152447761 -0.016973357822960736 0 -0.0012386351254982393 -0.017214745399298827 0 -0.00091438301220006729 -0.017722563656799965 0 -0.0012386351254982393 -0.017214745399298827 0 -0.0014663285119757815 -0.016994438512569619 0 -0.0014422239194187805 -0.01723807102939702 0 -0.0012386351254982393 -0.017214745399298827 0 -0.0013074065431776477 -0.016880094265400117 0 -0.0014663285119757815 -0.016994438512569619 0 -0.0013074065431776477 -0.016880094265400117 0 -0.0014663285119757815 -0.016994438512569619 0 -0.0015074395680885317 -0.01680239464748922 0 -0.0014215302761853505 -0.016724470386798918 0 -0.0013074065431776477 -0.016880094265400117 0 -0.0015074395680885317 -0.01680239464748922 0 -0.0014663285119757815 -0.016994438512569619 0 -0.0014422239194187805 -0.01723807102939702 0 -0.0015493854648886197 -0.01698586356511109 0 -0.0014422239194187805 -0.01723807102939702 0 -0.0015125359238065252 -0.017276339307929156 0 -0.0015493854648886197 -0.01698586356511109 0 -0.0012386351254982393 -0.017214745399298827 0 -0.0014422239194187805 -0.01723807102939702 0 -0.0012895230695990853 -0.017597533269347525 0 -0.0012895230695990853 -0.017597533269347525 0 -0.0015391212395502243 -0.01768661698694551 0 -0.00091556087128373119 -0.018177112018160458 0 -0.0012895230695990853 -0.017597533269347525 0 -0.0015125359238065252 -0.017276339307929156 0 -0.0015391212395502243 -0.01768661698694551 0 -0.0014422239194187805 -0.01723807102939702 0 -0.0012895230695990853 -0.017597533269347525 0 -0.0015125359238065252 -0.017276339307929156 0 -0.0015125359238065252 -0.017276339307929156 0 -0.0015391212395502243 -0.01768661698694551 0 -0.001577960181193705 -0.016872705596775346 0 -6.7547046894179687e-06 -0.01800280137565809 0 -2.1135659293279838e-07 -0.018155457497073903 0 -1.6387651689742642e-06 -0.017069596297821388 0 -2.1135659293279838e-07 -0.018155457497073903 0 -0.00019177650169651571 -0.019583244779803277 0 7.2396771625236165e-08 -0.020219139878579442 0 -6.7547046894179687e-06 -0.01800280137565809 0 -2.1135659293279838e-07 -0.018155457497073903 0 -0.00019177650169651571 -0.019583244779803277 0 -0.0015391212395502243 -0.01768661698694551 0 -0.