<?xml version="1.0"?>
<VTKFile type="UnstructuredGrid" version="0.1" byte_order="LittleEndian">
<UnstructuredGrid>
<Piece NumberOfPoints="30881" NumberOfCells="10862">
<Points>
<DataArray type="Float64" NumberOfComponents="3" format="ascii">
-0.49999999999999828 -0.48677703703187492 0 -0.5 -0.5 0 -0.48129281494584059 -0.49338851851593718 0 -0.5 -0.5 0 -0.48129281494584059 -0.49338851851593718 0 -0.46258562989168328 -0.5 0 -0.49999999999999828 -0.48677703703187492 0 -0.48129281494584059 -0.49338851851593718 0 -0.49999999999999828 -0.48677703703187492 0 -0.4824545428279598 -0.47451624516148783 0 -0.48129281494584059 -0.49338851851593718 0 -0.49999999999999828 -0.48677703703187492 0 -0.4824545428279598 -0.47451624516148783 0 -0.5 -0.46599539173150673 0 -0.4824545428279598 -0.47451624516148783 0 -0.46853075243710779 -0.48354990242643758 0 -0.46411508256092049 -0.46598235294430129 0 -0.4824545428279598 -0.47451624516148783 0 -0.48129281494584059 -0.49338851851593718 0 -0.46853075243710779 -0.48354990242643758 0 -0.48129281494584059 -0.49338851851593718 0 -0.46258562989168328 -0.5 0 -0.48129281494584059 -0.49338851851593718 0 -0.46258562989168328 -0.5 0 -0.46853075243710779 -0.48354990242643758 0 -0.46258562989168328 -0.5 0 -0.46853075243710779 -0.48354990242643758 0 -0.45147378687733691 -0.48362213557840178 0 -0.46853075243710779 -0.48354990242643758 0 -0.45147378687733691 -0.48362213557840178 0 -0.46411508256092049 -0.46598235294430129 0 -0.4457251648104853 -0.47020164095208389 0 -0.45147378687733691 -0.48362213557840178 0 -0.46411508256092049 -0.46598235294430129 0 -0.4457251648104853 -0.47020164095208389 0 -0.45147378687733691 -0.48362213557840178 0 -0.43513446131126993 -0.48199891714758791 0 -0.45147378687733691 -0.48362213557840178 0 -0.43275163025255442 -0.5 0 -0.43513446131126993 -0.48199891714758791 0 -0.46258562989168328 -0.5 0 -0.45147378687733691 -0.48362213557840178 0 -0.43275163025255442 -0.5 0 -0.4467190029717853 -0.45478934699519452 0 -0.4422915115958943 -0.43555510214664611 0 -0.43246707723660932 -0.44794326854796312 0 -0.4457251648104853 -0.47020164095208389 0 -0.4467190029717853 -0.45478934699519452 0 -0.46411508256092049 -0.46598235294430129 0 -0.4457251648104853 -0.47020164095208389 0 -0.4467190029717853 -0.45478934699519452 0 -0.43016578207734568 -0.46313500011938619 0 -0.4467190029717853 -0.45478934699519452 0 -0.46411508256092049 -0.46598235294430129 0 -0.47114575579794699 -0.4403844242888923 0 -0.4467190029717853 -0.45478934699519452 0 -0.47114575579794699 -0.4403844242888923 0 -0.4422915115958943 -0.43555510214664611 0 -0.47114575579794699 -0.4403844242888923 0 -0.4422915115958943 -0.43555510214664611 0 -0.46411508256092049 -0.46598235294430129 0 -0.47114575579794699 -0.4403844242888923 0 -0.48354307623736548 -0.45841843211146538 0 -0.4824545428279598 -0.47451624516148783 0 -0.46411508256092049 -0.46598235294430129 0 -0.48354307623736548 -0.45841843211146538 0 -0.4824545428279598 -0.47451624516148783 0 -0.48354307623736548 -0.45841843211146538 0 -0.5 -0.46599539173150673 0 -0.48354307623736548 -0.45841843211146538 0 -0.5 -0.46599539173150673 0 -0.49999999999999972 -0.44521374643113848 0 -0.47114575579794699 -0.4403844242888923 0 -0.49999999999999972 -0.44521374643113848 0 -0.47114575579794699 -0.4403844242888923 0 -0.49999999999999972 -0.44521374643113848 0 -0.48704432221743971 -0.42935617662229603 0 -0.47114575579794699 -0.4403844242888923 0 -0.48354307623736548 -0.45841843211146538 0 -0.49999999999999972 -0.44521374643113848 0 -0.49999999999999972 -0.44521374643113848 0 -0.48704432221743971 -0.42935617662229603 0 -0.5 -0.41591957503128979 0 -0.48704432221743971 -0.42935617662229603 0 -0.5 -0.41591957503128979 0 -0.47703153307181151 -0.41590696073786332 0 -0.5 -0.41591957503128979 0 -0.47703153307181151 -0.41590696073786332 0 -0.48817838912021821 -0.4022119694541284 0 -0.47114575579794699 -0.4403844242888923 0 -0.48704432221743971 -0.42935617662229603 0 -0.47703153307181151 -0.41590696073786332 0 -0.5 -0.38662540363144121 0 -0.47568202340906118 -0.39039593841591919 0 -0.4947615751445838 -0.37332156409002909 0 -0.47568202340906118 -0.39039593841591919 0 -0.4947615751445838 -0.37332156409002909 0 -0.5 -0.38662540363144121 0 -0.48817838912021821 -0.4022119694541284 0 -0.47568202340906118 -0.39039593841591919 0 -0.5 -0.41591957503128979 0 -0.5 -0.38662540363144121 0 -0.48817838912021821 -0.4022119694541284 0 -0.47703153307181151 -0.41590696073786332 0 -0.48817838912021821 -0.4022119694541284 0 -0.47568202340906118 -0.39039593841591919 0 -0.47703153307181151 -0.41590696073786332 0 -0.47568202340906118 -0.39039593841591919 0 -0.45660247167353862 -0.40747031274180939 0 -0.47568202340906118 -0.39039593841591919 0 -0.48030931097003587 -0.37191064435083931 0 -0.46669490250066459 -0.37481721741951951 0 -0.47568202340906118 -0.39039593841591919 0 -0.4947615751445838 -0.37332156409002909 0 -0.48030931097003587 -0.37191064435083931 0 -0.45332061783919553 -0.38729481725706361 0 -0.46669490250066459 -0.37481721741951951 0 -0.45095991715087752 -0.36968037302039969 0 -0.47568202340906118 -0.39039593841591919 0 -0.45332061783919553 -0.38729481725706361 0 -0.46669490250066459 -0.37481721741951951 0 -0.47568202340906118 -0.39039593841591919 0 -0.45660247167353862 -0.40747031274180939 0 -0.47568202340906118 -0.39039593841591919 0 -0.45332061783919553 -0.38729481725706361 0 -0.45660247167353862 -0.40747031274180939 0 -0.44332653075004852 -0.401690115615219 0 -0.44646247228389868 -0.41654464256061052 0 -0.42870657106664078 -0.39987574649354879 0 -0.45332061783919553 -0.38729481725706361 0 -0.44332653075004852 -0.401690115615219 0 -0.43479631603355468 -0.39077639303142497 0 -0.45332061783919553 -0.38729481725706361 0 -0.44332653075004852 -0.401690115615219 0 -0.45660247167353862 -0.40747031274180939 0 -0.45332061783919553 -0.38729481725706361 0 -0.43421362475025049 -0.37527491429266319 0 -0.43479631603355468 -0.39077639303142497 0 -0.45332061783919553 -0.38729481725706361 0 -0.43421362475025049 -0.37527491429266319 0 -0.45095991715087752 -0.36968037302039969 0 -0.47114575579794699 -0.4403844242888923 0 -0.45663439814062529 -0.42533932462455271 0 -0.4422915115958943 -0.43555510214664611 0 -0.47114575579794699 -0.4403844242888923 0 -0.47703153307181151 -0.41590696073786332 0 -0.45663439814062529 -0.42533932462455271 0 -0.45663439814062529 -0.42533932462455271 0 -0.45660247167353862 -0.40747031274180939 0 -0.44646247228389868 -0.41654464256061052 0 -0.47703153307181151 -0.41590696073786332 0 -0.45663439814062529 -0.42533932462455271 0 -0.45660247167353862 -0.40747031274180939 0 -0.44332653075004852 -0.401690115615219 0 -0.45660247167353862 -0.40747031274180939 0 -0.44646247228389868 -0.41654464256061052 0 -0.45660247167353862 -0.40747031274180939 0 -0.44646247228389868 -0.41654464256061052 0 -0.44646247228389868 -0.41654464256061052 0 -0.4375229199380159 -0.42454468706769971 0 -0.45663439814062529 -0.42533932462455271 0 -0.4375229199380159 -0.42454468706769971 0 -0.4422915115958943 -0.43555510214664611 0 -0.45663439814062529 -0.42533932462455271 0 -0.44646247228389868 -0.41654464256061052 0 -0.4375229199380159 -0.42454468706769971 0 -0.4375229199380159 -0.42454468706769971 0 -0.4422915115958943 -0.43555510214664611 0 -0.43077617074680319 -0.43406335077952207 0 -0.43077617074680319 -0.43406335077952207 0 -0.42550232634077589 -0.42345940056268039 0 -0.41950844772475421 -0.43888456563633732 0 -0.4375229199380159 -0.42454468706769971 0 -0.43077617074680319 -0.43406335077952207 0 -0.42550232634077589 -0.42345940056268039 0 -0.44646247228389868 -0.41654464256061052 0 -0.41657232816672918 -0.41306671883907142 0 -0.42870657106664078 -0.39987574649354879 0 -0.44646247228389868 -0.41654464256061052 0 -0.4375229199380159 -0.42454468706769971 0 -0.42550232634077589 -0.42345940056268039 0 -0.44646247228389868 -0.41654464256061052 0 -0.42550232634077589 -0.42345940056268039 0 -0.41657232816672918 -0.41306671883907142 0 -0.44646247228389868 -0.41654464256061052 0 -0.41657232816672918 -0.41306671883907142 0 -0.42550232634077589 -0.42345940056268039 0 -0.41657232816672918 -0.41306671883907142 0 -0.41333489101611293 -0.42699700567040988 0 -0.41657232816672918 -0.41306671883907142 0 -0.41333489101611293 -0.42699700567040988 0 -0.39893236021425188 -0.42931692235905211 0 -0.41333489101611293 -0.42699700567040988 0 -0.39893236021425188 -0.42931692235905211 0 -0.41950844772475421 -0.43888456563633732 0 -0.42550232634077589 -0.42345940056268039 0 -0.41333489101611293 -0.42699700567040988 0 -0.41950844772475421 -0.43888456563633732 0 -0.43421362475025049 -0.37527491429266319 0 -0.42478231784314502 -0.38643128255249681 0 -0.41656514696884139 -0.37636588688318029 0 -0.43421362475025049 -0.37527491429266319 0 -0.42478231784314502 -0.38643128255249681 0 -0.43479631603355468 -0.39077639303142497 0 -0.42478231784314502 -0.38643128255249681 0 -0.43479631603355468 -0.39077639303142497 0 -0.42870657106664078 -0.39987574649354879 0 -0.44332653075004852 -0.401690115615219 0 -0.43479631603355468 -0.39077639303142497 0 -0.42870657106664078 -0.39987574649354879 0 -0.41657232816672918 -0.41306671883907142 0 -0.40962993039643741 -0.3898634720616666 0 -0.3946356370269814 -0.39577424904278191 0 -0.42478231784314502 -0.38643128255249681 0 -0.42870657106664078 -0.39987574649354879 0 -0.40962993039643741 -0.3898634720616666 0 -0.41657232816672918 -0.41306671883907142 0 -0.42870657106664078 -0.39987574649354879 0 -0.40962993039643741 -0.3898634720616666 0 -0.42478231784314502 -0.38643128255249681 0 -0.40962993039643741 -0.3898634720616666 0 -0.41656514696884139 -0.37636588688318029 0 -0.40962993039643741 -0.3898634720616666 0 -0.41656514696884139 -0.37636588688318029 0 -0.40465459864295228 -0.37650109000307358 0 -0.39431275766669582 -0.38061373190328529 0 -0.40465459864295228 -0.37650109000307358 0 -0.3968495855878465 -0.36923685638487008 0 -0.40962993039643741 -0.3898634720616666 0 -0.39431275766669582 -0.38061373190328529 0 -0.40465459864295228 -0.376501090003
[...]
<PointData Scalars="" Vectors="displacement," Tensors="">
<DataArray type="Float64" Name="displacement" NumberOfComponents="3" format="ascii">
-0.063286872163814914 -0.064998922753235627 0 -0.06499657887539971 -0.064999739481097787 0 -0.065513337238878935 -0.062853824076847767 0 -0.06499657887539971 -0.064999739481097787 0 -0.065513337238878935 -0.062853824076847767 0 -0.065000974686698923 -0.060137731136783099 0 -0.063283680408516785 -0.064995527308634782 0 -0.064104195066177608 -0.062520837223353817 0 -0.063275786365496273 -0.064997243245815337 0 -0.061956033636484234 -0.06290978078685619 0 -0.062275746303232717 -0.062051148944203133 0 -0.063275786365496273 -0.064997243245815337 0 -0.061956033636484234 -0.06290978078685619 0 -0.060579985784442382 -0.06499778522579551 0 -0.061956033636484234 -0.06290978078685619 0 -0.062720969323828507 -0.060871142596904682 0 -0.061729970159061238 -0.060808562390461611 0 -0.061956033636484234 -0.06290978078685619 0 -0.062275746303232717 -0.062051148944203133 0 -0.062720969323828507 -0.060871142596904682 0 -0.064104195066177608 -0.062520837223353817 0 -0.064997130771445422 -0.060140448089835409 0 -0.062275746303232717 -0.062051148944203133 0 -0.064991154453946001 -0.06013454172649102 0 -0.062720969323828507 -0.060871142596904682 0 -0.064991154453946001 -0.06013454172649102 0 -0.062720969323828507 -0.060871142596904682 0 -0.063395184218924122 -0.059288866859429995 0 -0.062720969323828507 -0.060871142596904682 0 -0.063395184218924122 -0.059288866859429995 0 -0.061729970159061238 -0.060808562390461611 0 -0.062330377957944896 -0.059200495897257802 0 -0.063395184218924122 -0.059288866859429995 0 -0.061729970159061238 -0.060808562390461611 0 -0.062330377957944896 -0.059200495897257802 0 -0.063395184218924122 -0.059288866859429995 0 -0.063443646736508361 -0.057654927564788329 0 -0.063395184218924122 -0.059288866859429995 0 -0.064998749462894495 -0.056261157486273479 0 -0.063443646736508361 -0.057654927564788329 0 -0.064991154453946001 -0.06013454172649102 0 -0.063395184218924122 -0.059288866859429995 0 -0.064998749462894495 -0.056261157486273479 0 -0.061190499074114821 -0.059865655293934908 0 -0.058960820140247873 -0.060791306240239644 0 -0.060262230402253446 -0.059502908965787013 0 -0.062330377957944896 -0.059200495897257802 0 -0.061190499074114821 -0.059865655293934908 0 -0.061729970159061238 -0.060808562390461611 0 -0.062330377957944896 -0.059200495897257802 0 -0.061190499074114821 -0.059865655293934908 0 -0.061593129912776337 -0.058528357660790217 0 -0.061190499074114821 -0.059865655293934908 0 -0.061729970159061238 -0.060808562390461611 0 -0.061368756904492887 -0.061455678656777139 0 -0.061190499074114821 -0.059865655293934908 0 -0.061368756904492887 -0.061455678656777139 0 -0.058960820140247873 -0.060791306240239644 0 -0.058373083025904847 -0.063405800976579163 0 -0.058528914089472805 -0.062833073550340166 0 -0.061729970159061238 -0.060808562390461611 0 -0.061368756904492887 -0.061455678656777139 0 -0.060645259362066384 -0.063272987147313442 0 -0.061956033636484234 -0.06290978078685619 0 -0.061729970159061238 -0.060808562390461611 0 -0.060645259362066384 -0.063272987147313442 0 -0.061956033636484234 -0.06290978078685619 0 -0.060645259362066384 -0.063272987147313442 0 -0.060579985784442382 -0.06499778522579551 0 -0.060645259362066384 -0.063272987147313442 0 -0.060579985784442382 -0.06499778522579551 0 -0.057886154171371371 -0.064997847964263208 0 -0.058373083025904847 -0.063405800976579163 0 -0.057878658722024863 -0.064997526234215411 0 -0.056069401528192633 -0.065346259255492312 0 -0.057873992703275208 -0.064999559342980656 0 -0.055900080563705414 -0.065450043802577046 0 -0.061368756904492887 -0.061455678656777139 0 -0.060645259362066384 -0.063272987147313442 0 -0.057886154171371371 -0.064997847964263208 0 -0.057873992703275208 -0.064999559342980656 0 -0.055900080563705414 -0.065450043802577046 0 -0.054072132397607345 -0.064998722011660279 0 -0.055900080563705414 -0.065450043802577046 0 -0.054072132397607345 -0.064998722011660279 0 -0.055646494267147746 -0.065450676213346631 0 -0.054072132397607345 -0.064998722011660279 0 -0.055646494267147746 -0.065450676213346631 0 -0.05323206565120521 -0.065444645196531745 0 -0.056069401528192633 -0.065346259255492312 0 -0.055900080563705414 -0.065450043802577046 0 -0.055646494267147746 -0.065450676213346631 0 -0.050263645552680619 -0.064999012719584234 0 -0.052683464064919194 -0.066226035558585902 0 -0.048850591610676307 -0.065534956035449815 0 -0.052544226651331162 -0.065085184957043518 0 -0.051469672629390929 -0.064751055554675904 0 -0.050263645552680619 -0.064999012719584234 0 -0.05323206565120521 -0.065444645196531745 0 -0.052683464064919194 -0.066226035558585902 0 -0.054072132397607345 -0.064998722011660279 0 -0.050263645552680619 -0.064999012719584234 0 -0.05323206565120521 -0.065444645196531745 0 -0.055646494267147746 -0.065450676213346631 0 -0.05323206565120521 -0.065444645196531745 0 -0.052683464064919194 -0.066226035558585902 0 -0.055646494267147746 -0.065450676213346631 0 -0.052683464064919194 -0.066226035558585902 0 -0.056508792647031125 -0.064727926430576857 0 -0.051308901178681664 -0.06770643228158317 0 -0.049209951595171268 -0.06709347753276905 0 -0.050089235130810553 -0.068289071041476176 0 -0.051308901178681664 -0.06770643228158317 0 -0.048850591610676307 -0.065534956035449815 0 -0.049209951595171268 -0.06709347753276905 0 -0.051332001838809531 -0.069056784406120744 0 -0.050089235130810553 -0.068289071041476176 0 -0.050488499421752986 -0.069040570464054554 0 -0.051308901178681664 -0.06770643228158317 0 -0.051332001838809531 -0.069056784406120744 0 -0.050089235130810553 -0.068289071041476176 0 -0.052544226651331162 -0.065085184957043518 0 -0.054394232535049408 -0.064892861414178299 0 -0.051308901178681664 -0.06770643228158317 0 -0.051332001838809531 -0.069056784406120744 0 -0.051813854236307681 -0.069041223043291702 0 -0.051679377499673558 -0.069238010795699551 0 -0.051403327525603802 -0.069337814396245701 0 -0.051643874039129213 -0.068930570226823432 0 -0.051332001838809531 -0.069056784406120744 0 -0.051679377499673558 -0.069238010795699551 0 -0.05194413791246906 -0.069201282457503718 0 -0.051332001838809531 -0.069056784406120744 0 -0.051679377499673558 -0.069238010795699551 0 -0.051813854236307681 -0.069041223043291702 0 -0.051332001838809531 -0.069056784406120744 0 -0.052013647537324501 -0.069382401133298452 0 -0.05194413791246906 -0.069201282457503718 0 -0.051332001838809531 -0.069056784406120744 0 -0.052013647537324501 -0.069382401133298452 0 -0.050488499421752986 -0.069040570464054554 0 -0.056069401528192633 -0.065346259255492312 0 -0.057565935397309816 -0.063594195947216645 0 -0.058960820140247873 -0.060791306240239644 0 -0.056069401528192633 -0.065346259255492312 0 -0.055646494267147746 -0.065450676213346631 0 -0.057565935397309816 -0.063594195947216645 0 -0.057565935397309816 -0.063594195947216645 0 -0.056508792647031125 -0.064727926430576857 0 -0.058081552400430003 -0.062821638855165882 0 -0.055646494267147746 -0.065450676213346631 0 -0.057565935397309816 -0.063594195947216645 0 -0.056508792647031125 -0.064727926430576857 0 -0.051679377499673558 -0.069238010795699551 0 -0.051813854236307681 -0.069041223043291702 0 -0.051403327525603802 -0.069337814396245701 0 -0.054394232535049408 -0.064892861414178299 0 -0.055619561059779409 -0.064563322097948961 0 -0.055619561059779409 -0.064563322097948961 0 -0.055638802241874633 -0.064188960153276339 0 -0.057565935397309816 -0.063594195947216645 0 -0.0590834863635189 -0.060800643211788893 0 -0.058960820140247873 -0.060791306240239644 0 -0.057565935397309816 -0.063594195947216645 0 -0.058081552400430003 -0.062821638855165882 0 -0.0590834863635189 -0.060800643211788893 0 -0.0590834863635189 -0.060800643211788893 0 -0.058960820140247873 -0.060791306240239644 0 -0.059305960332727663 -0.059874445543373678 0 -0.059305960332727663 -0.059874445543373678 0 -0.059315094935405495 -0.059598309339498376 0 -0.059617672170251351 -0.058997510104235831 0 -0.0590834863635189 -0.060800643211788893 0 -0.059305960332727663 -0.059874445543373678 0 -0.059315094935405495 -0.059598309339498376 0 -0.051403327525603802 -0.069337814396245701 0 -0.05056546628490436 -0.06810699559638099 0 -0.051643874039129213 -0.068930570226823432 0 -0.059878324230520717 -0.061505494803664004 0 -0.0590834863635189 -0.060800643211788893 0 -0.059315094935405495 -0.059598309339498376 0 -0.059878324230520717 -0.061505494803664004 0 -0.059315094935405495 -0.059598309339498376 0 -0.059700553111069324 -0.058870228646906032 0 -0.055619561059779409 -0.064563322097948961 0 -0.055172743243812571 -0.063327764694331587 0 -0.059315094935405495 -0.059598309339498376 0 -0.059700553111069324 -0.058870228646906032 0 -0.059283280132441774 -0.058859508559102512 0 -0.059700553111069324 -0.058870228646906032 0 -0.059283280132441774 -0.058859508559102512 0 -0.05894168901401179 -0.058371101824309442 0 -0.059283280132441774 -0.058859508559102512 0 -0.05894168901401179 -0.058371101824309442 0 -0.059617672170251351 -0.058997510104235831 0 -0.059315094935405495 -0.059598309339498376 0 -0.059283280132441774 -0.058859508559102512 0 -0.059617672170251351 -0.058997510104235831 0 -0.052013647537324501 -0.069382401133298452 0 -0.052501801888330105 -0.068866627544646494 0 -0.053465099231357442 -0.068694589782708357 0 -0.052013647537324501 -0.069382401133298452 0 -0.052501801888330105 -0.068866627544646494 0 -0.05194413791246906 -0.069201282457503718 0 -0.052501801888330105 -0.068866627544646494 0 -0.05194413791246906 -0.069201282457503718 0 -0.051643874039129213 -0.068930570226823432 0 -0.051679377499673558 -0.069238010795699551 0 -0.05194413791246906 -0.069201282457503718 0 -0.051643874039129213 -0.068930570226823432 0 -0.05056546628490436 -0.06810699559638099 0 -0.052883025924825154 -0.067376729920794645 0 -0.052707639144952328 -0.064716308343321191 0 -0.052501801888330105 -0.068866627544646494 0 -0.051643874039129213 -0.068930570226823432 0 -0.052883025924825154 -0.067376729920794645 0 -0.05056546628490436 -0.06810699559638099 0 -0.051643874039129213 -0.068930570226823432 0 -0.052883025924825154 -0.067376729920794645 0 -0.052501801888330105 -0.068866627544646494 0 -0.052883025924825154 -0.067376729920794645 0 -0.053465099231357442 -0.068694589782708357 0 -0.052883025924825154 -0.067376729920794645 0 -0.053465099231357442 -0.068694589782708357 0 -0.054550139005093319 -0.066963936741184699 0 -0.054741596132044039 -0.064826129869148263 0 -0.054550139005093319 -0.066963936741184699 0 -0.056461453350540085 -0.065512863431803792 0 -0.052883025924825154 -0.067376729920794645 0 -0.054741596132044039 -0.064826129869148263 0 -0.054550139005093319 -0.066963936741184699 0 -0.052883025924825154 -0.067376729920794645 0 -0.054741596132044039 -0.064826129869148263 0 -0.052707639144952328 -0.064716308343321191 0 -0.052707639144952328 -0.064716308343321191 0 -0.050802273960896371 -0.063110446026630448 0 -0.05364292103611714 -0.060644217841701716 0 -0.052707639144952328 -0.064716308343321191 0 -0.055691001070940958 -0.060653394437050534 0 -0.05364292103611714 -0.060644217841701716 0 -0.054741596132044039 -0.064826129869148263 0 -0.052707639144952328 -0.064716308343321191 0 -0.055691001070940958 -0.060653394437050534 0 -0.054741596132044039 -0.064826129869148263 0 -0.055691001070940958 -0.060653394437050534 0 -0.057112702507042978 -0.062921260016813654 0 -0.059700553111069324 -0.058870228646906032 0 -0.05894168901401179 -0.058371101824309442 0 -0.058096003428434816 -0.058070715181480083 0 -0.05056546628490436 -0.06810699559638099 0 -0.052707639144952328 -0.064716308343321191 0 -0.050802273960896371 -0.063110446026630448 0 -0.055172743243812571 -0.063327764694331587 0 -0.054856110220529455 -0.061700087686113861 0 -0.058096003428434816 -0.058070715181480083 0 -0.058258622218152964 -0.058299550028317042 0 -0.056755393559597515 -0.058385272094996395 0 -0.058258622218152964 -0.058299550028317042 0 -0.059358416191388749 -0.058531890502494188 0 -0.058114767593916219 -0.058626315023424115 0 -0.05894168901401179 -0.058371101824309442 0 -0.058258622218152964 -0.058299550028317042 0 -0.059358416191388749 -0.058531890502494188 0 -0.05894168901401179 -0.058371101824309442 0 -0.058096003428434816 -0.058070715181480083 0 -0.058258622218152964 -0.058299550028317042 0 -0.059358416191388749 -0.058531890502494188 0 -0.060136572439759256 -0.058366441343741249 0 -0.060905309725889992 -0.058549394910793577 0 -0.05894168901401179 -0.058371101824309442 0 -0.059358416191388749 -0.058531890502494188 0 -0.060136572439759256 -0.058366441343741249 0 -0.060136572439759256 -0.058366441343741249 0 -0.060905309725889992 -0.058549394910793577 0 -0.061728073870847652 -0.057907386846923405 0 -0.059358416191388749 -0.058531890502494188 0 -0.060905309725889992 -0.058549394910793577 0 -0.060484524348311988 -0.059173300683151547 0 -0.060905309725889992 -0.058549394910793577 0 -0.062035670699095533 -0.059112419669315637 0 -0.060484524348311988 -0.059173300683151547 0 -0.062035670699095533 -0.059112419669315637 0 -0.063732497425713866 -0.058532380523270623 0 -0.062195749701048783 -0.058295459005763904 0 -0.060905309725889992 -0.058549394910793577 0 -0.062035670699095533 -0.059112419669315637 0 -0.062195749701048783 -0.058295459005763904 0 -0.064411312709658441 -0.052916401107207647 0 -0.06406920305890465 -0.049721015331412842 0 -0.06599603745782319 -0.050880856935479189 0 -0.064997990995191379 -0.052383044379437728 0 -0.065001168808733578 -0.04849871685722093 0 -0.06599603745782319 -0.050880856935479189 0 -0.065731324048048323 -0.048176873632962358 0 -0.065001168808733578 -0.04849871685722093 0 -0.062035670699095533 -0.059112419669315637 0 -0.063732497425713866 -0.058532380523270623 0 -0.063345524393208064 -0.059826196301950192 0 -0.064411312709658441 -0.052916401107207647 0 -0.064498842969479081 -0.053548294041546408 0 -0.063732497425713866 -0.058532380523270623 0 -0.062195749701048783 -0.058295459005763904 0 -0.062906453461361825 -0.057263122704655882 0 -0.06599603745782319 -0.050880856935479189 0 -0.064997990995191379 -0.052383044379437728 0 -0.064841565489959258 -0.055084867474830032 0 -0.063732497425713866 -0.058532380523270623 0 -0.062906453461361825 -0.057263122704655882 0 -0.064841565489959258 -0.055084867474830032 0 -0.060905309725889992 -0.058549394910793577 0 -0.062195749701048783 -0.058295459005763904 0 -0.061728073870847652 -0.057907386846923405 0 -0.062195749701048783 -0.058295459005763904 0 -0.062906453461361825 -0.057263122704655882 0 -0.061728073870847652 -0.057907386846923405 0 -0.061728073870847652 -0.057907386846923405 0 -0.062656854597874262 -0.057092417617522442 0 -0.061214015965466585 -0.05804522138968711 0 -0.062906453461361825 -0.057263122704655882 0 -0.062656854597874262 -0.057092417617522442 0 -0.064841565489959258 -0.055084867474830032 0 -0.062906453461361825 -0.057263122704655882 0 -0.061728073870847652 -0.057907386846923405 0 -0.062656854597874262 -0.057092417617522442 0 -0.062656854597874262 -0.057092417617522442 0 -0.064841565489959258 -0.055084867474830032 0 -0.06409587755912563 -0.056476109065906811 0 -0.064997990995191379 -0.052383044379437728 0 -0.064841565489959258 -0.055084867474830032 0 -0.064998749462894495 -0.056261157486273479 0 -0.064841565489959258 -0.055084867474830032 0 -0.06409587755912563 -0.056476109065906811 0 -0.064998749462894495 -0.056261157486273479 0 -0.06409587755912563 -0.056476109065906811 0 -0.064998749462894495 -0.056261157486273479 0 -0.063443646736508361 -0.057654927564788329 0 -0.062330377957944896 -0.059200495897257802 0 -0.063443646736508361 -0.057654927564788329 0 -0.061593129912776337 -0.058528357660790217 0 -0.062656854597874262 -0.057092417617522442 0 -0.063443646736508361 -0.057654927564788329 0 -0.061593129912776337 -0.058528357660790217 0 -0.062656854597874262 -0.057092417617522442 0 -0.06409587755912563 -0.056476109065906811 0 -0.063443646736508361 -0.057654927564788329 0 -0.061190499074114821 -0.059865655293934908 0 -0.061593129912776337 -0.058528357660790217 0 -0.060262230402253446 -0.059502908965787013 0 -0.061593129912776337 -0.058528357660790217 0 -0.060474323047216831 -0.058661915127265485 0 -0.061214015965466585 -0.05804522138968711 0 -0.061593129912776337 -0.058528357660790217 0 -0.060262230402253446 -0.059502908965787013 0 -0.060474323047216831 -0.058661915127265485 0 -0.058960820140247873 -0.060791306240239644 0 -0.059305960332727663 -0.059874445543373678 0 -0.060262230402253446 -0.059502908965787013 0 -0.059305960332727663 -0.059874445543373678 0 -0.060262230402253446 -0.059502908965787013 0 -0.059617672170251351 -0.058997510104235831 0 -0.060262230402253446 -0.059502908965787013 0 -0.060474323047216831 -0.058661915127265485 0 -0.059617672170251351 -0.058997510104235831 0 -0.05894168901401179 -0.058371101824309442 0 -0.060136572439759256 -0.058366441343741249 0 -0.059617672170251351 -0.058997510104235831 0 -0.060136572439759256 -0.058366441343741249 0 -0.060474323047216831 -0.058661915127265485 0 -0.059617672170251351 -0.058997510104235831 0 -0.060136572439759256 -0.058366441343741249 0 -0.060474323047216831 -0.058661915127265485 0 -0.061214015965466585 -0.05804522138968711 0 -0.060136572439759256 -0.058366441343741249 0 -0.061728073870847652 -0.057907386846923405 0 -0.061214015965466585 -0.05804522138968711 0 -0.062656854597874262 -0.057092417617522442 0 -0.061593129912776337 -0.058528357660790217 0 -0.061214015965466585 -0.05804522138968711 0 -0.033157049914670722 -0.071662952128208252 0 -0.033859351799916997 -0.074529617423067102 0 -0.03179860689676569 -0.073671296701105893 0 -0.033157049914670722 -0.071662952128208252 0 -0.035696544470754342 -0.073417994516771057 0 -0.033859351799916997 -0.074529617423067102 0 -0.033157049914670722 -0.071662952128208252 0 -0.03179860689676569 -0.073671296701105893 0 -0.031759652189804338 -0.071524557380305887 0 -0.033157049914670722 -0.071662952128208252 0 -0.035696544470754342 -0.073417994516771057 0 -0.035314563792266759 -0.069939102065569095 0 -0.035696544470754342 -0.073417994516771057 0 -0.035314563792266759 -0.069939102065569095 0 -0.038342734707929864 -0.071945706264804468 0 -0.035314563792266759 -0.069939102065569095 0 -0.033011280521454182 -0.067346455243561754 0 -0.031938243509402046 -0.06988431389432033 0 -0.033157049914670722 -0.071662952128208252 0 -0.035314563792266759 -0.069939102065569095 0 -0.031938243509402046 -0.06988431389432033 0 -0.033157049914670722 -0.071662952128208252 0 -0.031938243509402046 -0.06988431389432033 0 -0.031759652189804338 -0.071524557380305887 0 -0.033011280521454182 -0.067346455243561754 0 -0.035028531565228185 -0.065000021759903756 0 -0.031218689669853875 -0.064999180696877545 0 -0.033011280521454182 -0.067346455243561754 0 -0.035028531565228185 -0.065000021759903756 0 -0.036548158972615999 -0.067146387308355732 0 -0.035314563792266759 -0.069939102065569095 0 -0.033011280521454182 -0.067346455243561754 0 -0.036548158972615999 -0.067146387308355732 0 -0.035314563792266759 -0.069939102065569095 0 -0.036548158972615999 -0.067146387308355732 0 -0.039063395486447015 -0.068772753025693176 0 -0.036548158972615999 -0.067146387308355732 0 -0.038836811965213651 -0.064999638085235081 0 -0.039063395486447015 -0.068772753025693176 0 -0.035028531565228185 -0.065000021759903756 0 -0.036548158972615999 -0.067146387308355732 0 -0.038836811965213651 -0.064999638085235081 0 -0.038836811965213651 -0.064999638085235081 0 -0.039063395486447015 -0.068772753025693176 0 -0.042589824718644941 -0.067598706763384642 0 -0.039063395486447015 -0.068772753025693176 0 -0.038342734707929864 -0.071945706264804468 0 -0.042859936409844215 -0.071450499993947605 0 -0.035314563792266759 -0.069939102065569095 0 -0.039063395486447015 -0.068772753025693176 0 -0.038342734707929864 -0.071945706264804468 0 -0.035696544470754342 -0.073417994516771057 0 -0.038342734707929864 -0.071945706264804468 0 -0.037960983242065961 -0.074183815760794081 0 -0.038342734707929864 -0.071945706264804468 0 -0.042859936409