<?xml version="1.0"?>
<VTKFile type="UnstructuredGrid" version="0.1" byte_order="LittleEndian">
<UnstructuredGrid>
<Piece NumberOfPoints="30881" NumberOfCells="10862">
<Points>
<DataArray type="Float64" NumberOfComponents="3" format="ascii">
-0.49999999999999828 -0.48677703703187492 0 -0.5 -0.5 0 -0.48129281494584059 -0.49338851851593718 0 -0.5 -0.5 0 -0.48129281494584059 -0.49338851851593718 0 -0.46258562989168328 -0.5 0 -0.49999999999999828 -0.48677703703187492 0 -0.48129281494584059 -0.49338851851593718 0 -0.49999999999999828 -0.48677703703187492 0 -0.4824545428279598 -0.47451624516148783 0 -0.48129281494584059 -0.49338851851593718 0 -0.49999999999999828 -0.48677703703187492 0 -0.4824545428279598 -0.47451624516148783 0 -0.5 -0.46599539173150673 0 -0.4824545428279598 -0.47451624516148783 0 -0.46853075243710779 -0.48354990242643758 0 -0.46411508256092049 -0.46598235294430129 0 -0.4824545428279598 -0.47451624516148783 0 -0.48129281494584059 -0.49338851851593718 0 -0.46853075243710779 -0.48354990242643758 0 -0.48129281494584059 -0.49338851851593718 0 -0.46258562989168328 -0.5 0 -0.48129281494584059 -0.49338851851593718 0 -0.46258562989168328 -0.5 0 -0.46853075243710779 -0.48354990242643758 0 -0.46258562989168328 -0.5 0 -0.46853075243710779 -0.48354990242643758 0 -0.45147378687733691 -0.48362213557840178 0 -0.46853075243710779 -0.48354990242643758 0 -0.45147378687733691 -0.48362213557840178 0 -0.46411508256092049 -0.46598235294430129 0 -0.4457251648104853 -0.47020164095208389 0 -0.45147378687733691 -0.48362213557840178 0 -0.46411508256092049 -0.46598235294430129 0 -0.4457251648104853 -0.47020164095208389 0 -0.45147378687733691 -0.48362213557840178 0 -0.43513446131126993 -0.48199891714758791 0 -0.45147378687733691 -0.48362213557840178 0 -0.43275163025255442 -0.5 0 -0.43513446131126993 -0.48199891714758791 0 -0.46258562989168328 -0.5 0 -0.45147378687733691 -0.48362213557840178 0 -0.43275163025255442 -0.5 0 -0.4467190029717853 -0.45478934699519452 0 -0.4422915115958943 -0.43555510214664611 0 -0.43246707723660932 -0.44794326854796312 0 -0.4457251648104853 -0.47020164095208389 0 -0.4467190029717853 -0.45478934699519452 0 -0.46411508256092049 -0.46598235294430129 0 -0.4457251648104853 -0.47020164095208389 0 -0.4467190029717853 -0.45478934699519452 0 -0.43016578207734568 -0.46313500011938619 0 -0.4467190029717853 -0.45478934699519452 0 -0.46411508256092049 -0.46598235294430129 0 -0.47114575579794699 -0.4403844242888923 0 -0.4467190029717853 -0.45478934699519452 0 -0.47114575579794699 -0.4403844242888923 0 -0.4422915115958943 -0.43555510214664611 0 -0.47114575579794699 -0.4403844242888923 0 -0.4422915115958943 -0.43555510214664611 0 -0.46411508256092049 -0.46598235294430129 0 -0.47114575579794699 -0.4403844242888923 0 -0.48354307623736548 -0.45841843211146538 0 -0.4824545428279598 -0.47451624516148783 0 -0.46411508256092049 -0.46598235294430129 0 -0.48354307623736548 -0.45841843211146538 0 -0.4824545428279598 -0.47451624516148783 0 -0.48354307623736548 -0.45841843211146538 0 -0.5 -0.46599539173150673 0 -0.48354307623736548 -0.45841843211146538 0 -0.5 -0.46599539173150673 0 -0.49999999999999972 -0.44521374643113848 0 -0.47114575579794699 -0.4403844242888923 0 -0.49999999999999972 -0.44521374643113848 0 -0.47114575579794699 -0.4403844242888923 0 -0.49999999999999972 -0.44521374643113848 0 -0.48704432221743971 -0.42935617662229603 0 -0.47114575579794699 -0.4403844242888923 0 -0.48354307623736548 -0.45841843211146538 0 -0.49999999999999972 -0.44521374643113848 0 -0.49999999999999972 -0.44521374643113848 0 -0.48704432221743971 -0.42935617662229603 0 -0.5 -0.41591957503128979 0 -0.48704432221743971 -0.42935617662229603 0 -0.5 -0.41591957503128979 0 -0.47703153307181151 -0.41590696073786332 0 -0.5 -0.41591957503128979 0 -0.47703153307181151 -0.41590696073786332 0 -0.48817838912021821 -0.4022119694541284 0 -0.47114575579794699 -0.4403844242888923 0 -0.48704432221743971 -0.42935617662229603 0 -0.47703153307181151 -0.41590696073786332 0 -0.5 -0.38662540363144121 0 -0.47568202340906118 -0.39039593841591919 0 -0.4947615751445838 -0.37332156409002909 0 -0.47568202340906118 -0.39039593841591919 0 -0.4947615751445838 -0.37332156409002909 0 -0.5 -0.38662540363144121 0 -0.48817838912021821 -0.4022119694541284 0 -0.47568202340906118 -0.39039593841591919 0 -0.5 -0.41591957503128979 0 -0.5 -0.38662540363144121 0 -0.48817838912021821 -0.4022119694541284 0 -0.47703153307181151 -0.41590696073786332 0 -0.48817838912021821 -0.4022119694541284 0 -0.47568202340906118 -0.39039593841591919 0 -0.47703153307181151 -0.41590696073786332 0 -0.47568202340906118 -0.39039593841591919 0 -0.45660247167353862 -0.40747031274180939 0 -0.47568202340906118 -0.39039593841591919 0 -0.48030931097003587 -0.37191064435083931 0 -0.46669490250066459 -0.37481721741951951 0 -0.47568202340906118 -0.39039593841591919 0 -0.4947615751445838 -0.37332156409002909 0 -0.48030931097003587 -0.37191064435083931 0 -0.45332061783919553 -0.38729481725706361 0 -0.46669490250066459 -0.37481721741951951 0 -0.45095991715087752 -0.36968037302039969 0 -0.47568202340906118 -0.39039593841591919 0 -0.45332061783919553 -0.38729481725706361 0 -0.46669490250066459 -0.37481721741951951 0 -0.47568202340906118 -0.39039593841591919 0 -0.45660247167353862 -0.40747031274180939 0 -0.47568202340906118 -0.39039593841591919 0 -0.45332061783919553 -0.38729481725706361 0 -0.45660247167353862 -0.40747031274180939 0 -0.44332653075004852 -0.401690115615219 0 -0.44646247228389868 -0.41654464256061052 0 -0.42870657106664078 -0.39987574649354879 0 -0.45332061783919553 -0.38729481725706361 0 -0.44332653075004852 -0.401690115615219 0 -0.43479631603355468 -0.39077639303142497 0 -0.45332061783919553 -0.38729481725706361 0 -0.44332653075004852 -0.401690115615219 0 -0.45660247167353862 -0.40747031274180939 0 -0.45332061783919553 -0.38729481725706361 0 -0.43421362475025049 -0.37527491429266319 0 -0.43479631603355468 -0.39077639303142497 0 -0.45332061783919553 -0.38729481725706361 0 -0.43421362475025049 -0.37527491429266319 0 -0.45095991715087752 -0.36968037302039969 0 -0.47114575579794699 -0.4403844242888923 0 -0.45663439814062529 -0.42533932462455271 0 -0.4422915115958943 -0.43555510214664611 0 -0.47114575579794699 -0.4403844242888923 0 -0.47703153307181151 -0.41590696073786332 0 -0.45663439814062529 -0.42533932462455271 0 -0.45663439814062529 -0.42533932462455271 0 -0.45660247167353862 -0.40747031274180939 0 -0.44646247228389868 -0.41654464256061052 0 -0.47703153307181151 -0.41590696073786332 0 -0.45663439814062529 -0.42533932462455271 0 -0.45660247167353862 -0.40747031274180939 0 -0.44332653075004852 -0.401690115615219 0 -0.45660247167353862 -0.40747031274180939 0 -0.44646247228389868 -0.41654464256061052 0 -0.45660247167353862 -0.40747031274180939 0 -0.44646247228389868 -0.41654464256061052 0 -0.44646247228389868 -0.41654464256061052 0 -0.4375229199380159 -0.42454468706769971 0 -0.45663439814062529 -0.42533932462455271 0 -0.4375229199380159 -0.42454468706769971 0 -0.4422915115958943 -0.43555510214664611 0 -0.45663439814062529 -0.42533932462455271 0 -0.44646247228389868 -0.41654464256061052 0 -0.4375229199380159 -0.42454468706769971 0 -0.4375229199380159 -0.42454468706769971 0 -0.4422915115958943 -0.43555510214664611 0 -0.43077617074680319 -0.43406335077952207 0 -0.43077617074680319 -0.43406335077952207 0 -0.42550232634077589 -0.42345940056268039 0 -0.41950844772475421 -0.43888456563633732 0 -0.4375229199380159 -0.42454468706769971 0 -0.43077617074680319 -0.43406335077952207 0 -0.42550232634077589 -0.42345940056268039 0 -0.44646247228389868 -0.41654464256061052 0 -0.41657232816672918 -0.41306671883907142 0 -0.42870657106664078 -0.39987574649354879 0 -0.44646247228389868 -0.41654464256061052 0 -0.4375229199380159 -0.42454468706769971 0 -0.42550232634077589 -0.42345940056268039 0 -0.44646247228389868 -0.41654464256061052 0 -0.42550232634077589 -0.42345940056268039 0 -0.41657232816672918 -0.41306671883907142 0 -0.44646247228389868 -0.41654464256061052 0 -0.41657232816672918 -0.41306671883907142 0 -0.42550232634077589 -0.42345940056268039 0 -0.41657232816672918 -0.41306671883907142 0 -0.41333489101611293 -0.42699700567040988 0 -0.41657232816672918 -0.41306671883907142 0 -0.41333489101611293 -0.42699700567040988 0 -0.39893236021425188 -0.42931692235905211 0 -0.41333489101611293 -0.42699700567040988 0 -0.39893236021425188 -0.42931692235905211 0 -0.41950844772475421 -0.43888456563633732 0 -0.42550232634077589 -0.42345940056268039 0 -0.41333489101611293 -0.42699700567040988 0 -0.41950844772475421 -0.43888456563633732 0 -0.43421362475025049 -0.37527491429266319 0 -0.42478231784314502 -0.38643128255249681 0 -0.41656514696884139 -0.37636588688318029 0 -0.43421362475025049 -0.37527491429266319 0 -0.42478231784314502 -0.38643128255249681 0 -0.43479631603355468 -0.39077639303142497 0 -0.42478231784314502 -0.38643128255249681 0 -0.43479631603355468 -0.39077639303142497 0 -0.42870657106664078 -0.39987574649354879 0 -0.44332653075004852 -0.401690115615219 0 -0.43479631603355468 -0.39077639303142497 0 -0.42870657106664078 -0.39987574649354879 0 -0.41657232816672918 -0.41306671883907142 0 -0.40962993039643741 -0.3898634720616666 0 -0.3946356370269814 -0.39577424904278191 0 -0.42478231784314502 -0.38643128255249681 0 -0.42870657106664078 -0.39987574649354879 0 -0.40962993039643741 -0.3898634720616666 0 -0.41657232816672918 -0.41306671883907142 0 -0.42870657106664078 -0.39987574649354879 0 -0.40962993039643741 -0.3898634720616666 0 -0.42478231784314502 -0.38643128255249681 0 -0.40962993039643741 -0.3898634720616666 0 -0.41656514696884139 -0.37636588688318029 0 -0.40962993039643741 -0.3898634720616666 0 -0.41656514696884139 -0.37636588688318029 0 -0.40465459864295228 -0.37650109000307358 0 -0.39431275766669582 -0.38061373190328529 0 -0.40465459864295228 -0.37650109000307358 0 -0.3968495855878465 -0.36923685638487008 0 -0.40962993039643741 -0.3898634720616666 0 -0.39431275766669582 -0.38061373190328529 0 -0.40465459864295228 -0.376501090003
[...]
<PointData Scalars="" Vectors="displacement," Tensors="">
<DataArray type="Float64" Name="displacement" NumberOfComponents="3" format="ascii">
-0.064999610335356756 1.7947635778477405e-07 0 -0.064998713106293779 -3.6257923422545855e-07 0 -0.063054215423907628 6.0933277548061319e-08 0 -0.064998713106293779 -3.6257923422545855e-07 0 -0.063054215423907628 6.0933277548061319e-08 0 -0.060139091538642303 5.4456475276559897e-07 0 -0.064994249410299715 -9.3882924132307859e-07 0 -0.062606688823764509 -8.7004220105987577e-05 0 -0.064996298295389998 -1.1363349793764536e-06 0 -0.063398247937284616 -0.00046687692300342686 0 -0.062443076083986769 -0.00055242772993121299 0 -0.064996298295389998 -1.1363349793764536e-06 0 -0.063398247937284616 -0.00046687692300342686 0 -0.064999038832907252 -8.2939765257867688e-08 0 -0.063398247937284616 -0.00046687692300342686 0 -0.061746292602785871 -0.00039351298082022132 0 -0.06227746934289273 -0.00053763219548077785 0 -0.063398247937284616 -0.00046687692300342686 0 -0.062443076083986769 -0.00055242772993121299 0 -0.061746292602785871 -0.00039351298082022132 0 -0.062606688823764509 -8.7004220105987577e-05 0 -0.06014205442013644 6.1927404577343904e-07 0 -0.062443076083986769 -0.00055242772993121299 0 -0.060135271910716992 -2.0767293915335286e-06 0 -0.061746292602785871 -0.00039351298082022132 0 -0.060135271910716992 -2.0767293915335286e-06 0 -0.061746292602785871 -0.00039351298082022132 0 -0.060151561079247455 -0.00034974897883674672 0 -0.061746292602785871 -0.00039351298082022132 0 -0.060151561079247455 -0.00034974897883674672 0 -0.06227746934289273 -0.00053763219548077785 0 -0.060774720513877153 -0.000296381702906395 0 -0.060151561079247455 -0.00034974897883674672 0 -0.06227746934289273 -0.00053763219548077785 0 -0.060774720513877153 -0.000296381702906395 0 -0.060151561079247455 -0.00034974897883674672 0 -0.058929902040046001 -0.00012054331508830788 0 -0.060151561079247455 -0.00034974897883674672 0 -0.056260827733487964 -4.3632889028682541e-07 0 -0.058929902040046001 -0.00012054331508830788 0 -0.060135271910716992 -2.0767293915335286e-06 0 -0.060151561079247455 -0.00034974897883674672 0 -0.056260827733487964 -4.3632889028682541e-07 0 -0.061834133701567484 -0.0002604068425967507 0 -0.062729868106669223 4.267593062952286e-05 0 -0.061769488919006001 0.00024712523297232752 0 -0.060774720513877153 -0.000296381702906395 0 -0.061834133701567484 -0.0002604068425967507 0 -0.06227746934289273 -0.00053763219548077785 0 -0.060774720513877153 -0.000296381702906395 0 -0.061834133701567484 -0.0002604068425967507 0 -0.060660067295754315 0.00019063402853079512 0 -0.061834133701567484 -0.0002604068425967507 0 -0.06227746934289273 -0.00053763219548077785 0 -0.063102982803869695 -0.00063228431575757644 0 -0.061834133701567484 -0.0002604068425967507 0 -0.063102982803869695 -0.00063228431575757644 0 -0.062729868106669223 4.267593062952286e-05 0 -0.064238640015676585 -0.00024110684688053656 0 -0.063929127301477415 -6.7977630376992145e-05 0 -0.06227746934289273 -0.00053763219548077785 0 -0.063102982803869695 -0.00063228431575757644 0 -0.063784889887109619 -0.00039283907328918806 0 -0.063398247937284616 -0.00046687692300342686 0 -0.06227746934289273 -0.00053763219548077785 0 -0.063784889887109619 -0.00039283907328918806 0 -0.063398247937284616 -0.00046687692300342686 0 -0.063784889887109619 -0.00039283907328918806 0 -0.064999038832907252 -8.2939765257867688e-08 0 -0.063784889887109619 -0.00039283907328918806 0 -0.064999038832907252 -8.2939765257867688e-08 0 -0.064997253488079762 -5.4237568274999778e-07 0 -0.064238640015676585 -0.00024110684688053656 0 -0.064998592007761619 -4.448417324890189e-07 0 -0.064262064972114868 -0.00015532702394642964 0 -0.06499953507456363 -6.6274989406508028e-08 0 -0.064692008813949195 -8.4257216154132113e-05 0 -0.063102982803869695 -0.00063228431575757644 0 -0.063784889887109619 -0.00039283907328918806 0 -0.064997253488079762 -5.4237568274999778e-07 0 -0.06499953507456363 -6.6274989406508028e-08 0 -0.064692008813949195 -8.4257216154132113e-05 0 -0.064999408315534718 -1.634578629587652e-07 0 -0.064692008813949195 -8.4257216154132113e-05 0 -0.064999408315534718 -1.634578629587652e-07 0 -0.064504237909436962 -0.00014332763420085381 0 -0.064999408315534718 -1.634578629587652e-07 0 -0.064504237909436962 -0.00014332763420085381 0 -0.064841931963522406 -9.6446304045625555e-05 0 -0.064262064972114868 -0.00015532702394642964 0 -0.064692008813949195 -8.4257216154132113e-05 0 -0.064504237909436962 -0.00014332763420085381 0 -0.064999440342877135 -1.2912739759819005e-07 0 -0.064848093988052302 -0.00011011164675498617 0 -0.064747700488870991 -8.5129405407409944e-05 0 -0.06356018754646281 0.00034324598962578838 0 -0.063826676329806237 0.00017326065913845015 0 -0.064999440342877135 -1.2912739759819005e-07 0 -0.064841931963522406 -9.6446304045625555e-05 0 -0.064848093988052302 -0.00011011164675498617 0 -0.064999408315534718 -1.634578629587652e-07 0 -0.064999440342877135 -1.2912739759819005e-07 0 -0.064841931963522406 -9.6446304045625555e-05 0 -0.064504237909436962 -0.00014332763420085381 0 -0.064841931963522406 -9.6446304045625555e-05 0 -0.064848093988052302 -0.00011011164675498617 0 -0.064504237909436962 -0.00014332763420085381 0 -0.064848093988052302 -0.00011011164675498617 0 -0.064349292153032658 2.6955740393498992e-06 0 -0.062590131037229893 0.00028242338047273303 0 -0.06404484823385348 0.00020479045041256274 0 -0.06340219515361388 0.00073314478372579176 0 -0.062590131037229893 0.00028242338047273303 0 -0.064747700488870991 -8.5129405407409944e-05 0 -0.06404484823385348 0.00020479045041256274 0 -0.06236594623511578 0.0014622657244892036 0 -0.06340219515361388 0.00073314478372579176 0 -0.063132743869768762 0.0013943103305726736 0 -0.062590131037229893 0.00028242338047273303 0 -0.06236594623511578 0.0014622657244892036 0 -0.06340219515361388 0.00073314478372579176 0 -0.06356018754646281 0.00034324598962578838 0 -0.063075510092151565 0.00074598779149099323 0 -0.062590131037229893 0.00028242338047273303 0 -0.06236594623511578 0.0014622657244892036 0 -0.061341632735102854 0.0013507930633128401 0 -0.061551281843224344 0.0019891607350379457 0 -0.061011182066049406 0.0018982930959871545 0 -0.061562691533945467 0.0025418776845800937 0 -0.06236594623511578 0.0014622657244892036 0 -0.061551281843224344 0.0019891607350379457 0 -0.061833354379784412 0.0023173608411228507 0 -0.06236594623511578 0.0014622657244892036 0 -0.061551281843224344 0.0019891607350379457 0 -0.061341632735102854 0.0013507930633128401 0 -0.06236594623511578 0.0014622657244892036 0 -0.062312894085820164 0.0022869154043101913 0 -0.061833354379784412 0.0023173608411228507 0 -0.06236594623511578 0.0014622657244892036 0 -0.062312894085820164 0.0022869154043101913 0 -0.063132743869768762 0.0013943103305726736 0 -0.064262064972114868 -0.00015532702394642964 0 -0.063765943107429418 -0.00010026399094186554 0 -0.062729868106669223 4.267593062952286e-05 0 -0.064262064972114868 -0.00015532702394642964 0 -0.064504237909436962 -0.00014332763420085381 0 -0.063765943107429418 -0.00010026399094186554 0 -0.063765943107429418 -0.00010026399094186554 0 -0.064349292153032658 2.6955740393498992e-06 0 -0.063827290968602721 0.00015736891677267819 0 -0.064504237909436962 -0.00014332763420085381 0 -0.063765943107429418 -0.00010026399094186554 0 -0.064349292153032658 2.6955740393498992e-06 0 -0.061551281843224344 0.0019891607350379457 0 -0.061341632735102854 0.0013507930633128401 0 -0.061011182066049406 0.0018982930959871545 0 -0.063075510092151565 0.00074598779149099323 0 -0.062824636632284436 0.0010134789957074064 0 -0.062824636632284436 0.0010134789957074064 0 -0.062954876093360118 0.00084449320931423216 0 -0.063765943107429418 -0.00010026399094186554 0 -0.062958984539363258 0.00030413357495565768 0 -0.062729868106669223 4.267593062952286e-05 0 -0.063765943107429418 -0.00010026399094186554 0 -0.063827290968602721 0.00015736891677267819 0 -0.062958984539363258 0.00030413357495565768 0 -0.062958984539363258 0.00030413357495565768 0 -0.062729868106669223 4.267593062952286e-05 0 -0.062423866797656963 0.00040573139816664949 0 -0.062423866797656963 0.00040573139816664949 0 -0.062649936444460194 0.00058640856083830674 0 -0.061913143321478771 0.00074774998028242568 0 -0.062958984539363258 0.00030413357495565768 0 -0.062423866797656963 0.00040573139816664949 0 -0.062649936444460194 0.00058640856083830674 0 -0.061011182066049406 0.0018982930959871545 0 -0.061399490826028885 0.0028315376048699504 0 -0.061562691533945467 0.0025418776845800937 0 -0.063134712133726442 0.00010150701542962436 0 -0.062958984539363258 0.00030413357495565768 0 -0.062649936444460194 0.00058640856083830674 0 -0.063134712133726442 0.00010150701542962436 0 -0.062649936444460194 0.00058640856083830674 0 -0.062687341418584897 0.00085527541616341152 0 -0.062824636632284436 0.0010134789957074064 0 -0.062321207067986925 0.0014602300746783686 0 -0.062649936444460194 0.00058640856083830674 0 -0.062687341418584897 0.00085527541616341152 0 -0.06224799513298248 0.00096924530870215637 0 -0.062687341418584897 0.00085527541616341152 0 -0.06224799513298248 0.00096924530870215637 0 -0.061918003974535799 0.0014457882506945911 0 -0.06224799513298248 0.00096924530870215637 0 -0.061918003974535799 0.0014457882506945911 0 -0.061913143321478771 0.00074774998028242568 0 -0.062649936444460194 0.00058640856083830674 0 -0.06224799513298248 0.00096924530870215637 0 -0.061913143321478771 0.00074774998028242568 0 -0.062312894085820164 0.0022869154043101913 0 -0.061717057636235431 0.0026680548237277509 0 -0.061621701797796767 0.0029838593435557144 0 -0.062312894085820164 0.0022869154043101913 0 -0.061717057636235431 0.0026680548237277509 0 -0.061833354379784412 0.0023173608411228507 0 -0.061717057636235431 0.0026680548237277509 0 -0.061833354379784412 0.0023173608411228507 0 -0.061562691533945467 0.0025418776845800937 0 -0.061551281843224344 0.0019891607350379457 0 -0.061833354379784412 0.0023173608411228507 0 -0.061562691533945467 0.0025418776845800937 0 -0.061399490826028885 0.0028315376048699504 0 -0.061442930160613279 0.002895583477919835 0 -0.061404832061330475 0.0026047657105567621 0 -0.061717057636235431 0.0026680548237277509 0 -0.061562691533945467 0.0025418776845800937 0 -0.061442930160613279 0.002895583477919835 0 -0.061399490826028885 0.0028315376048699504 0 -0.061562691533945467 0.0025418776845800937 0 -0.061442930160613279 0.002895583477919835 0 -0.061717057636235431 0.0026680548237277509 0 -0.061442930160613279 0.002895583477919835 0 -0.061621701797796767 0.0029838593435557144 0 -0.061442930160613279 0.002895583477919835 0 -0.061621701797796767 0.0029838593435557144 0 -0.061160947591179515 0.0029923144056755399 0 -0.060947713631653758 0.0026305066055094372 0 -0.061160947591179515 0.0029923144056755399 0 -0.060560350911660177 0.0027940029697487811 0 -0.061442930160613279 0.002895583477919835 0 -0.060947713631653758 0.0026305066055094372 0 -0.061160947591179515 0.0029923144056755399 0 -0.061442930160613279 0.002895583477919835 0 -0.060947713631653758 0.0026305066055094372 0 -0.061404832061330475 0.0026047657105567621 0 -0.061404832061330475 0.0026047657105567621 0 -0.061707276089314533 0.0023370289287625102 0 -0.061280197966821701 0.0017925294193986072 0 -0.061404832061330475 0.0026047657105567621 0 -0.060532015049785434 0.0017083554464855444 0 -0.061280197966821701 0.0017925294193986072 0 -0.060947713631653758 0.0026305066055094372 0 -0.061404832061330475 0.0026047657105567621 0 -0.060532015049785434 0.0017083554464855444 0 -0.060947713631653758 0.0026305066055094372 0 -0.060532015049785434 0.0017083554464855444 0 -0.060159598285439916 0.0021842000673222331 0 -0.062687341418584897 0.00085527541616341152 0 -0.061918003974535799 0.0014457882506945911 0 -0.062076523181550325 0.0017637863777218165 0 -0.061399490826028885 0.0028315376048699504 0 -0.061404832061330475 0.0026047657105567621 0 -0.061707276089314533 0.0023370289287625102 0 -0.062321207067986925 0.0014602300746783686 0 -0.062067421225938509 0.0016509285651020614 0 -0.062076523181550325 0.0017637863777218165 0 -0.06177689231060926 0.0018176127188997181 0 -0.06173595292843586 0.0016706536201460552 0 -0.06177689231060926 0.0018176127188997181 0 -0.061202415081444896 0.0019528283934526426 0 -0.061555662786372582 0.0019557551380232005 0 -0.061918003974535799 0.0014457882506945911 0 -0.06177689231060926 0.0018176127188997181 0 -0.061202415081444896 0.0019528283934526426 0 -0.061918003974535799 0.0014457882506945911 0 -0.062076523181550325 0.0017637863777218165 0 -0.06177689231060926 0.0018176127188997181 0 -0.061202415081444896 0.0019528283934526426 0 -0.061011948892064183 0.0013177896531301691 0 -0.06002819980928132 0.0019989345507671441 0 -0.061918003974535799 0.0014457882506945911 0 -0.061202415081444896 0.0019528283934526426 0 -0.061011948892064183 0.0013177896531301691 0 -0.061011948892064183 0.0013177896531301691 0 -0.06002819980928132 0.0019989345507671441 0 -0.059443861325804259 0.0014748762807299596 0 -0.061202415081444896 0.0019528283934526426 0 -0.06002819980928132 0.0019989345507671441 0 -0.060324165985108175 0.0024148369298911251 0 -0.06002819980928132 0.0019989345507671441 0 -0.05904380199900975 0.0024973793339241371 0 -0.060324165985108175 0.0024148369298911251 0 -0.05904380199900975 0.0024973793339241371 0 -0.057668212485578255 0.0022237328459353651 0 -0.058818605307339761 0.0019939316713357999 0 -0.06002819980928132 0.0019989345507671441 0 -0.05904380199900975 0.0024973793339241371 0 -0.058818605307339761 0.0019939316713357999 0 -0.050876151189262586 -0.00019248592279093177 0 -0.048683580651535927 0.0010216443993030068 0 -0.051042741780700125 2.1795369992549623e-05 0 -0.052381009421076853 1.8182451748931831e-06 0 -0.048502502874156514 -4.1498931554557852e-07 0 -0.051042741780700125 2.1795369992549623e-05 0 -0.048697578343529148 8.9335022273153114e-05 0 -0.048502502874156514 -4.1498931554557852e-07 0 -0.05904380199900975 0.0024973793339241371 0 -0.057668212485578255 0.0022237328459353651 0 -0.058091289131272886 0.0030201169015945475 0 -0.050876151189262586 -0.00019248592279093177 0 -0.051627477443535782 -0.00085034354028280616 0 -0.057668212485578255 0.0022237328459353651 0 -0.058818605307339761 0.0019939316713357999 0 -0.058007369998789832 0.0014761610654997538 0 -0.051042741780700125 2.1795369992549623e-05 0 -0.052381009421076853 1.8182451748931831e-06 0 -0.055626339306454303 0.00032089217179946108 0 -0.057668212485578255 0.0022237328459353651 0 -0.058007369998789832 0.0014761610654997538 0 -0.055626339306454303 0.00032089217179946108 0 -0.06002819980928132 0.0019989345507671441 0 -0.058818605307339761 0.0019939316713357999 0 -0.059443861325804259 0.0014748762807299596 0 -0.058818605307339761 0.0019939316713357999 0 -0.058007369998789832 0.0014761610654997538 0 -0.059443861325804259 0.0014748762807299596 0 -0.059443861325804259 0.0014748762807299596 0 -0.058949811923647864 0.00049592358388261522 0 -0.06033617247125158 0.000815674475646769 0 -0.058007369998789832 0.0014761610654997538 0 -0.058949811923647864 0.00049592358388261522 0 -0.055626339306454303 0.00032089217179946108 0 -0.058007369998789832 0.0014761610654997538 0 -0.059443861325804259 0.0014748762807299596 0 -0.058949811923647864 0.00049592358388261522 0 -0.058949811923647864 0.00049592358388261522 0 -0.055626339306454303 0.00032089217179946108 0 -0.0573495732683586 0.00012342802300600891 0 -0.052381009421076853 1.8182451748931831e-06 0 -0.055626339306454303 0.00032089217179946108 0 -0.056260827733487964 -4.3632889028682541e-07 0 -0.055626339306454303 0.00032089217179946108 0 -0.0573495732683586 0.00012342802300600891 0 -0.056260827733487964 -4.3632889028682541e-07 0 -0.0573495732683586 0.00012342802300600891 0 -0.056260827733487964 -4.3632889028682541e-07 0 -0.058929902040046001 -0.00012054331508830788 0 -0.060774720513877153 -0.000296381702906395 0 -0.058929902040046001 -0.00012054331508830788 0 -0.060660067295754315 0.00019063402853079512 0 -0.058949811923647864 0.00049592358388261522 0 -0.058929902040046001 -0.00012054331508830788 0 -0.060660067295754315 0.00019063402853079512 0 -0.058949811923647864 0.00049592358388261522 0 -0.0573495732683586 0.00012342802300600891 0 -0.058929902040046001 -0.00012054331508830788 0 -0.061834133701567484 -0.0002604068425967507 0 -0.060660067295754315 0.00019063402853079512 0 -0.061769488919006001 0.00024712523297232752 0 -0.060660067295754315 0.00019063402853079512 0 -0.061201722253903648 0.00065406646460365093 0 -0.06033617247125158 0.000815674475646769 0 -0.060660067295754315 0.00019063402853079512 0 -0.061769488919006001 0.00024712523297232752 0 -0.061201722253903648 0.00065406646460365093 0 -0.062729868106669223 4.267593062952286e-05 0 -0.062423866797656963 0.00040573139816664949 0 -0.061769488919006001 0.00024712523297232752 0 -0.062423866797656963 0.00040573139816664949 0 -0.061769488919006001 0.00024712523297232752 0 -0.061913143321478771 0.00074774998028242568 0 -0.061769488919006001 0.00024712523297232752 0 -0.061201722253903648 0.00065406646460365093 0 -0.061913143321478771 0.00074774998028242568 0 -0.061918003974535799 0.0014457882506945911 0 -0.061011948892064183 0.0013177896531301691 0 -0.061913143321478771 0.00074774998028242568 0 -0.061011948892064183 0.0013177896531301691 0 -0.061201722253903648 0.00065406646460365093 0 -0.061913143321478771 0.00074774998028242568 0 -0.061011948892064183 0.0013177896531301691 0 -0.061201722253903648 0.00065406646460365093 0 -0.06033617247125158 0.000815674475646769 0 -0.061011948892064183 0.0013177896531301691 0 -0.059443861325804259 0.0014748762807299596 0 -0.06033617247125158 0.000815674475646769 0 -0.058949811923647864 0.00049592358388261522 0 -0.060660067295754315 0.00019063402853079512 0 -0.06033617247125158 0.000815674475646769 0 -0.064794552683407836 -5.9338459900041295e-05 0 -0.064806779600221923 -1.2702471856025703e-05 0 -0.064790266052876772 -4.4317890389743106e-05 0 -0.064794552683407836 -5.9338459900041295e-05 0 -0.064841363471300095 1.7987760414833791e-05 0 -0.064806779600221923 -1.2702471856025703e-05 0 -0.064794552683407836 -5.9338459900041295e-05 0 -0.064790266052876772 -4.4317890389743106e-05 0 -0.06474625815171188 -0.00010545743782126311 0 -0.064794552683407836 -5.9338459900041295e-05 0 -0.064841363471300095 1.7987760414833791e-05 0 -0.064893103043542469 2.0410032882050215e-05 0 -0.064841363471300095 1.7987760414833791e-05 0 -0.064893103043542469 2.0410032882050215e-05 0 -0.064900903722660955 0.00010907669096457599 0 -0.064893103043542469 2.0410032882050215e-05 0 -0.064867840645352906 4.0224484884716491e-05 0 -0.064752695935090615 -8.3816683689623143e-05 0 -0.064794552683407836 -5.9338459900041295e-05 0 -0.064893103043542469 2.0410032882050215e-05 0 -0.064752695935090615 -8.3816683689623143e-05 0 -0.064794552683407836 -5.9338459900041295e-05 0 -0.064752695935090615 -8.3816683689623143e-05 0 -0.06474625815171188 -0.00010545743782126311 0 -0.064867840645352906 4.0224484884716491e-05 0 -0.064999998198030082 -2.6064216717253895e-08 0 -0.064999356093172145 3.8410761324240885e-07 0 -0.064867840645352906 4.0224484884716491e-05 0 -0.064999998198030082 -2.6064216717253895e-08 0 -0.064965066358861775 4.8389467197697027e-05 0 -0.064893103043542469 2.0410032882050215e-05 0 -0.064867840645352906 4.0224484884716491e-05 0 -0.064965066358861775 4.8389467197697027e-05 0 -0.064893103043542469 2.0410032882050215e-05 0 -0.064965066358861775 4.8389467197697027e-05 0 -0.06495412894930698 0.00011237195755186936 0 -0.064965066358861775 4.8389467197697027e-05 0 -0.064999944494266423 7.2188512598574032e-08 0 -0.06495412894930698 0.00011237195755186936 0 -0.064999998198030082 -2.6064216717253895e-08 0 -0.064965066358861775 4.8389467197697027e-05 0 -0.064999944494266423 7.2188512598574032e-08 0 -0.064999944494266423 7.2188512598574032e-08 0 -0.06495412894930698 0.00011237195755186936 0 -0.064947223649693242 0.00015624364315602543 0 -0.06495412894930698 0.00011237195755186936 0 -0.064900903722660955 0.0001090766909645