<?xml version="1.0"?>
<VTKFile type="UnstructuredGrid" version="0.1" byte_order="LittleEndian">
<UnstructuredGrid>
<Piece NumberOfPoints="30881" NumberOfCells="10862">
<Points>
<DataArray type="Float64" NumberOfComponents="3" format="ascii">
-0.49999999999999828 -0.48677703703187492 0 -0.5 -0.5 0 -0.48129281494584059 -0.49338851851593718 0 -0.5 -0.5 0 -0.48129281494584059 -0.49338851851593718 0 -0.46258562989168328 -0.5 0 -0.49999999999999828 -0.48677703703187492 0 -0.48129281494584059 -0.49338851851593718 0 -0.49999999999999828 -0.48677703703187492 0 -0.4824545428279598 -0.47451624516148783 0 -0.48129281494584059 -0.49338851851593718 0 -0.49999999999999828 -0.48677703703187492 0 -0.4824545428279598 -0.47451624516148783 0 -0.5 -0.46599539173150673 0 -0.4824545428279598 -0.47451624516148783 0 -0.46853075243710779 -0.48354990242643758 0 -0.46411508256092049 -0.46598235294430129 0 -0.4824545428279598 -0.47451624516148783 0 -0.48129281494584059 -0.49338851851593718 0 -0.46853075243710779 -0.48354990242643758 0 -0.48129281494584059 -0.49338851851593718 0 -0.46258562989168328 -0.5 0 -0.48129281494584059 -0.49338851851593718 0 -0.46258562989168328 -0.5 0 -0.46853075243710779 -0.48354990242643758 0 -0.46258562989168328 -0.5 0 -0.46853075243710779 -0.48354990242643758 0 -0.45147378687733691 -0.48362213557840178 0 -0.46853075243710779 -0.48354990242643758 0 -0.45147378687733691 -0.48362213557840178 0 -0.46411508256092049 -0.46598235294430129 0 -0.4457251648104853 -0.47020164095208389 0 -0.45147378687733691 -0.48362213557840178 0 -0.46411508256092049 -0.46598235294430129 0 -0.4457251648104853 -0.47020164095208389 0 -0.45147378687733691 -0.48362213557840178 0 -0.43513446131126993 -0.48199891714758791 0 -0.45147378687733691 -0.48362213557840178 0 -0.43275163025255442 -0.5 0 -0.43513446131126993 -0.48199891714758791 0 -0.46258562989168328 -0.5 0 -0.45147378687733691 -0.48362213557840178 0 -0.43275163025255442 -0.5 0 -0.4467190029717853 -0.45478934699519452 0 -0.4422915115958943 -0.43555510214664611 0 -0.43246707723660932 -0.44794326854796312 0 -0.4457251648104853 -0.47020164095208389 0 -0.4467190029717853 -0.45478934699519452 0 -0.46411508256092049 -0.46598235294430129 0 -0.4457251648104853 -0.47020164095208389 0 -0.4467190029717853 -0.45478934699519452 0 -0.43016578207734568 -0.46313500011938619 0 -0.4467190029717853 -0.45478934699519452 0 -0.46411508256092049 -0.46598235294430129 0 -0.47114575579794699 -0.4403844242888923 0 -0.4467190029717853 -0.45478934699519452 0 -0.47114575579794699 -0.4403844242888923 0 -0.4422915115958943 -0.43555510214664611 0 -0.47114575579794699 -0.4403844242888923 0 -0.4422915115958943 -0.43555510214664611 0 -0.46411508256092049 -0.46598235294430129 0 -0.47114575579794699 -0.4403844242888923 0 -0.48354307623736548 -0.45841843211146538 0 -0.4824545428279598 -0.47451624516148783 0 -0.46411508256092049 -0.46598235294430129 0 -0.48354307623736548 -0.45841843211146538 0 -0.4824545428279598 -0.47451624516148783 0 -0.48354307623736548 -0.45841843211146538 0 -0.5 -0.46599539173150673 0 -0.48354307623736548 -0.45841843211146538 0 -0.5 -0.46599539173150673 0 -0.49999999999999972 -0.44521374643113848 0 -0.47114575579794699 -0.4403844242888923 0 -0.49999999999999972 -0.44521374643113848 0 -0.47114575579794699 -0.4403844242888923 0 -0.49999999999999972 -0.44521374643113848 0 -0.48704432221743971 -0.42935617662229603 0 -0.47114575579794699 -0.4403844242888923 0 -0.48354307623736548 -0.45841843211146538 0 -0.49999999999999972 -0.44521374643113848 0 -0.49999999999999972 -0.44521374643113848 0 -0.48704432221743971 -0.42935617662229603 0 -0.5 -0.41591957503128979 0 -0.48704432221743971 -0.42935617662229603 0 -0.5 -0.41591957503128979 0 -0.47703153307181151 -0.41590696073786332 0 -0.5 -0.41591957503128979 0 -0.47703153307181151 -0.41590696073786332 0 -0.48817838912021821 -0.4022119694541284 0 -0.47114575579794699 -0.4403844242888923 0 -0.48704432221743971 -0.42935617662229603 0 -0.47703153307181151 -0.41590696073786332 0 -0.5 -0.38662540363144121 0 -0.47568202340906118 -0.39039593841591919 0 -0.4947615751445838 -0.37332156409002909 0 -0.47568202340906118 -0.39039593841591919 0 -0.4947615751445838 -0.37332156409002909 0 -0.5 -0.38662540363144121 0 -0.48817838912021821 -0.4022119694541284 0 -0.47568202340906118 -0.39039593841591919 0 -0.5 -0.41591957503128979 0 -0.5 -0.38662540363144121 0 -0.48817838912021821 -0.4022119694541284 0 -0.47703153307181151 -0.41590696073786332 0 -0.48817838912021821 -0.4022119694541284 0 -0.47568202340906118 -0.39039593841591919 0 -0.47703153307181151 -0.41590696073786332 0 -0.47568202340906118 -0.39039593841591919 0 -0.45660247167353862 -0.40747031274180939 0 -0.47568202340906118 -0.39039593841591919 0 -0.48030931097003587 -0.37191064435083931 0 -0.46669490250066459 -0.37481721741951951 0 -0.47568202340906118 -0.39039593841591919 0 -0.4947615751445838 -0.37332156409002909 0 -0.48030931097003587 -0.37191064435083931 0 -0.45332061783919553 -0.38729481725706361 0 -0.46669490250066459 -0.37481721741951951 0 -0.45095991715087752 -0.36968037302039969 0 -0.47568202340906118 -0.39039593841591919 0 -0.45332061783919553 -0.38729481725706361 0 -0.46669490250066459 -0.37481721741951951 0 -0.47568202340906118 -0.39039593841591919 0 -0.45660247167353862 -0.40747031274180939 0 -0.47568202340906118 -0.39039593841591919 0 -0.45332061783919553 -0.38729481725706361 0 -0.45660247167353862 -0.40747031274180939 0 -0.44332653075004852 -0.401690115615219 0 -0.44646247228389868 -0.41654464256061052 0 -0.42870657106664078 -0.39987574649354879 0 -0.45332061783919553 -0.38729481725706361 0 -0.44332653075004852 -0.401690115615219 0 -0.43479631603355468 -0.39077639303142497 0 -0.45332061783919553 -0.38729481725706361 0 -0.44332653075004852 -0.401690115615219 0 -0.45660247167353862 -0.40747031274180939 0 -0.45332061783919553 -0.38729481725706361 0 -0.43421362475025049 -0.37527491429266319 0 -0.43479631603355468 -0.39077639303142497 0 -0.45332061783919553 -0.38729481725706361 0 -0.43421362475025049 -0.37527491429266319 0 -0.45095991715087752 -0.36968037302039969 0 -0.47114575579794699 -0.4403844242888923 0 -0.45663439814062529 -0.42533932462455271 0 -0.4422915115958943 -0.43555510214664611 0 -0.47114575579794699 -0.4403844242888923 0 -0.47703153307181151 -0.41590696073786332 0 -0.45663439814062529 -0.42533932462455271 0 -0.45663439814062529 -0.42533932462455271 0 -0.45660247167353862 -0.40747031274180939 0 -0.44646247228389868 -0.41654464256061052 0 -0.47703153307181151 -0.41590696073786332 0 -0.45663439814062529 -0.42533932462455271 0 -0.45660247167353862 -0.40747031274180939 0 -0.44332653075004852 -0.401690115615219 0 -0.45660247167353862 -0.40747031274180939 0 -0.44646247228389868 -0.41654464256061052 0 -0.45660247167353862 -0.40747031274180939 0 -0.44646247228389868 -0.41654464256061052 0 -0.44646247228389868 -0.41654464256061052 0 -0.4375229199380159 -0.42454468706769971 0 -0.45663439814062529 -0.42533932462455271 0 -0.4375229199380159 -0.42454468706769971 0 -0.4422915115958943 -0.43555510214664611 0 -0.45663439814062529 -0.42533932462455271 0 -0.44646247228389868 -0.41654464256061052 0 -0.4375229199380159 -0.42454468706769971 0 -0.4375229199380159 -0.42454468706769971 0 -0.4422915115958943 -0.43555510214664611 0 -0.43077617074680319 -0.43406335077952207 0 -0.43077617074680319 -0.43406335077952207 0 -0.42550232634077589 -0.42345940056268039 0 -0.41950844772475421 -0.43888456563633732 0 -0.4375229199380159 -0.42454468706769971 0 -0.43077617074680319 -0.43406335077952207 0 -0.42550232634077589 -0.42345940056268039 0 -0.44646247228389868 -0.41654464256061052 0 -0.41657232816672918 -0.41306671883907142 0 -0.42870657106664078 -0.39987574649354879 0 -0.44646247228389868 -0.41654464256061052 0 -0.4375229199380159 -0.42454468706769971 0 -0.42550232634077589 -0.42345940056268039 0 -0.44646247228389868 -0.41654464256061052 0 -0.42550232634077589 -0.42345940056268039 0 -0.41657232816672918 -0.41306671883907142 0 -0.44646247228389868 -0.41654464256061052 0 -0.41657232816672918 -0.41306671883907142 0 -0.42550232634077589 -0.42345940056268039 0 -0.41657232816672918 -0.41306671883907142 0 -0.41333489101611293 -0.42699700567040988 0 -0.41657232816672918 -0.41306671883907142 0 -0.41333489101611293 -0.42699700567040988 0 -0.39893236021425188 -0.42931692235905211 0 -0.41333489101611293 -0.42699700567040988 0 -0.39893236021425188 -0.42931692235905211 0 -0.41950844772475421 -0.43888456563633732 0 -0.42550232634077589 -0.42345940056268039 0 -0.41333489101611293 -0.42699700567040988 0 -0.41950844772475421 -0.43888456563633732 0 -0.43421362475025049 -0.37527491429266319 0 -0.42478231784314502 -0.38643128255249681 0 -0.41656514696884139 -0.37636588688318029 0 -0.43421362475025049 -0.37527491429266319 0 -0.42478231784314502 -0.38643128255249681 0 -0.43479631603355468 -0.39077639303142497 0 -0.42478231784314502 -0.38643128255249681 0 -0.43479631603355468 -0.39077639303142497 0 -0.42870657106664078 -0.39987574649354879 0 -0.44332653075004852 -0.401690115615219 0 -0.43479631603355468 -0.39077639303142497 0 -0.42870657106664078 -0.39987574649354879 0 -0.41657232816672918 -0.41306671883907142 0 -0.40962993039643741 -0.3898634720616666 0 -0.3946356370269814 -0.39577424904278191 0 -0.42478231784314502 -0.38643128255249681 0 -0.42870657106664078 -0.39987574649354879 0 -0.40962993039643741 -0.3898634720616666 0 -0.41657232816672918 -0.41306671883907142 0 -0.42870657106664078 -0.39987574649354879 0 -0.40962993039643741 -0.3898634720616666 0 -0.42478231784314502 -0.38643128255249681 0 -0.40962993039643741 -0.3898634720616666 0 -0.41656514696884139 -0.37636588688318029 0 -0.40962993039643741 -0.3898634720616666 0 -0.41656514696884139 -0.37636588688318029 0 -0.40465459864295228 -0.37650109000307358 0 -0.39431275766669582 -0.38061373190328529 0 -0.40465459864295228 -0.37650109000307358 0 -0.3968495855878465 -0.36923685638487008 0 -0.40962993039643741 -0.3898634720616666 0 -0.39431275766669582 -0.38061373190328529 0 -0.40465459864295228 -0.376501090003
[...]
<PointData Scalars="" Vectors="displacement," Tensors="">
<DataArray type="Float64" Name="displacement" NumberOfComponents="3" format="ascii">
9.0404729519741435e-07 -0.063286669134988677 0 -6.028905798972169e-07 -0.064996372292336443 0 2.9372667230935901e-07 -0.06494833388006048 0 -6.028905798972169e-07 -0.064996372292336443 0 2.9372667230935901e-07 -0.06494833388006048 0 2.990955976083031e-07 -0.065001597453434729 0 2.0640602911971495e-07 -0.063282351502059492 0 -6.8074577011077149e-06 -0.064096091441047331 0 -2.5804709781215495e-07 -0.063277039791047901 0 -0.00034941245896081413 -0.06230175944733491 0 -0.0003305912885917451 -0.062932266657182254 0 -2.5804709781215495e-07 -0.063277039791047901 0 -0.00034941245896081413 -0.06230175944733491 0 -1.9071842733196378e-06 -0.060580034280043139 0 -0.00034941245896081413 -0.06230175944733491 0 -0.00021191641207554644 -0.063592159370579118 0 -0.0002944237615004567 -0.063139710759554865 0 -0.00034941245896081413 -0.06230175944733491 0 -0.0003305912885917451 -0.062932266657182254 0 -0.00021191641207554644 -0.063592159370579118 0 -6.8074577011077149e-06 -0.064096091441047331 0 -3.0737320063048267e-07 -0.064998469031372921 0 -0.0003305912885917451 -0.062932266657182254 0 -2.2260813241004676e-06 -0.064995607319620174 0 -0.00021191641207554644 -0.063592159370579118 0 -2.2260813241004676e-06 -0.064995607319620174 0 -0.00021191641207554644 -0.063592159370579118 0 -0.00021113631385774091 -0.064171774077959154 0 -0.00021191641207554644 -0.063592159370579118 0 -0.00021113631385774091 -0.064171774077959154 0 -0.0002944237615004567 -0.063139710759554865 0 -0.00032893676871907954 -0.063673134880466595 0 -0.00021113631385774091 -0.064171774077959154 0 -0.0002944237615004567 -0.063139710759554865 0 -0.00032893676871907954 -0.063673134880466595 0 -0.00021113631385774091 -0.064171774077959154 0 -0.00016435007492070385 -0.064206417422767587 0 -0.00021113631385774091 -0.064171774077959154 0 5.6726475370778189e-07 -0.064999078643067101 0 -0.00016435007492070385 -0.064206417422767587 0 -2.2260813241004676e-06 -0.064995607319620174 0 -0.00021113631385774091 -0.064171774077959154 0 5.6726475370778189e-07 -0.064999078643067101 0 -0.00041168030434258449 -0.063066632665979852 0 -0.0013178639908911452 -0.061996548747405497 0 -0.00089071258167448613 -0.06283382837771076 0 -0.00032893676871907954 -0.063673134880466595 0 -0.00041168030434258449 -0.063066632665979852 0 -0.0002944237615004567 -0.063139710759554865 0 -0.00032893676871907954 -0.063673134880466595 0 -0.00041168030434258449 -0.063066632665979852 0 -0.00051856916970005129 -0.063443834980184452 0 -0.00041168030434258449 -0.063066632665979852 0 -0.0002944237615004567 -0.063139710759554865 0 0.00048405181653059519 -0.062703143149804491 0 -0.00041168030434258449 -0.063066632665979852 0 0.00048405181653059519 -0.062703143149804491 0 -0.0013178639908911452 -0.061996548747405497 0 -0.00028015082323715971 -0.059425244418002794 0 -0.00040638389209832275 -0.060434169850696835 0 -0.0002944237615004567 -0.063139710759554865 0 0.00048405181653059519 -0.062703143149804491 0 -0.00032353432443781054 -0.061359621229721925 0 -0.00034941245896081413 -0.06230175944733491 0 -0.0002944237615004567 -0.063139710759554865 0 -0.00032353432443781054 -0.061359621229721925 0 -0.00034941245896081413 -0.06230175944733491 0 -0.00032353432443781054 -0.061359621229721925 0 -1.9071842733196378e-06 -0.060580034280043139 0 -0.00032353432443781054 -0.061359621229721925 0 -1.9071842733196378e-06 -0.060580034280043139 0 3.5992351057868042e-06 -0.057883976298991877 0 -0.00028015082323715971 -0.059425244418002794 0 -6.982785995493604e-07 -0.057879384172712087 0 -0.0015345093923229258 -0.056085770080328307 0 -4.323494290888398e-07 -0.05787148965786728 0 -0.00062739433712214929 -0.055796176268061909 0 0.00048405181653059519 -0.062703143149804491 0 -0.00032353432443781054 -0.061359621229721925 0 3.5992351057868042e-06 -0.057883976298991877 0 -4.323494290888398e-07 -0.05787148965786728 0 -0.00062739433712214929 -0.055796176268061909 0 -1.622295444972823e-06 -0.054071799393085956 0 -0.00062739433712214929 -0.055796176268061909 0 -1.622295444972823e-06 -0.054071799393085956 0 -6.1084498387228636e-05 -0.055371145782595728 0 -1.622295444972823e-06 -0.054071799393085956 0 -6.1084498387228636e-05 -0.055371145782595728 0 0.00015182595382222321 -0.053358161797265068 0 -0.0015345093923229258 -0.056085770080328307 0 -0.00062739433712214929 -0.055796176268061909 0 -6.1084498387228636e-05 -0.055371145782595728 0 2.8462642849370901e-06 -0.050261069843872533 0 0.0012175441520811266 -0.054152938311825362 0 0.00043921938953720151 -0.04825112535301164 0 -6.9645902910634783e-05 -0.051132391815230958 0 -3.4823882283095068e-05 -0.050680483473258334 0 2.8462642849370901e-06 -0.050261069843872533 0 0.00015182595382222321 -0.053358161797265068 0 0.0012175441520811266 -0.054152938311825362 0 -1.622295444972823e-06 -0.054071799393085956 0 2.8462642849370901e-06 -0.050261069843872533 0 0.00015182595382222321 -0.053358161797265068 0 -6.1084498387228636e-05 -0.055371145782595728 0 0.00015182595382222321 -0.053358161797265068 0 0.0012175441520811266 -0.054152938311825362 0 -6.1084498387228636e-05 -0.055371145782595728 0 0.0012175441520811266 -0.054152938311825362 0 0.0011823962428344804 -0.057896119271804963 0 0.00043839586462371161 -0.044254548560842398 0 0.0002285215035772429 -0.045234633485260162 0 0.00031235963362468479 -0.044412743126308017 0 0.00043839586462371161 -0.044254548560842398 0 0.00043921938953720151 -0.04825112535301164 0 0.0002285215035772429 -0.045234633485260162 0 -0.00038241410125047602 -0.044955343380344279 0 0.00031235963362468479 -0.044412743126308017 0 0.00043913524471543049 -0.044912027962106332 0 0.00043839586462371161 -0.044254548560842398 0 -0.00038241410125047602 -0.044955343380344279 0 0.00031235963362468479 -0.044412743126308017 0 -6.9645902910634783e-05 -0.051132391815230958 0 -0.00052798214005231423 -0.05265800566746448 0 0.00043839586462371161 -0.044254548560842398 0 -0.00038241410125047602 -0.044955343380344279 0 -0.0021011848677665985 -0.044731792310650303 0 -0.0019128547265304221 -0.045844664256946187 0 -0.0034010866466509912 -0.045531296689635695 0 -0.0020958090360602873 -0.047340208203924997 0 -0.00038241410125047602 -0.044955343380344279 0 -0.0019128547265304221 -0.045844664256946187 0 -0.00099485669644848234 -0.046599190992728114 0 -0.00038241410125047602 -0.044955343380344279 0 -0.0019128547265304221 -0.045844664256946187 0 -0.0021011848677665985 -0.044731792310650303 0 -0.00038241410125047602 -0.044955343380344279 0 0.00032348429214647224 -0.046419009052531247 0 -0.00099485669644848234 -0.046599190992728114 0 -0.00038241410125047602 -0.044955343380344279 0 0.00032348429214647224 -0.046419009052531247 0 0.00043913524471543049 -0.044912027962106332 0 -0.0015345093923229258 -0.056085770080328307 0 -0.00026595441876442043 -0.058567363460751351 0 -0.0013178639908911452 -0.061996548747405497 0 -0.0015345093923229258 -0.056085770080328307 0 -6.1084498387228636e-05 -0.055371145782595728 0 -0.00026595441876442043 -0.058567363460751351 0 -0.00026595441876442043 -0.058567363460751351 0 0.0011823962428344804 -0.057896119271804963 0 0.0007310896527269416 -0.060127349554376583 0 -6.1084498387228636e-05 -0.055371145782595728 0 -0.00026595441876442043 -0.058567363460751351 0 0.0011823962428344804 -0.057896119271804963 0 -0.0019128547265304221 -0.045844664256946187 0 -0.0021011848677665985 -0.044731792310650303 0 -0.0034010866466509912 -0.045531296689635695 0 -0.00052798214005231423 -0.05265800566746448 0 -0.00080313116227742902 -0.053765185080131186 0 -0.00080313116227742902 -0.053765185080131186 0 -0.0013653314636695717 -0.054871467541987275 0 -0.00026595441876442043 -0.058567363460751351 0 -0.00060853578777067053 -0.062263406706768609 0 -0.0013178639908911452 -0.061996548747405497 0 -0.00026595441876442043 -0.058567363460751351 0 0.0007310896527269416 -0.060127349554376583 0 -0.00060853578777067053 -0.062263406706768609 0 -0.00060853578777067053 -0.062263406706768609 0 -0.0013178639908911452 -0.061996548747405497 0 -0.0010681834439319185 -0.062596721060242555 0 -0.0010681834439319185 -0.062596721060242555 0 -0.0010183345457736802 -0.062567172873175897 0 -0.0010808933063114938 -0.062803685539416676 0 -0.00060853578777067053 -0.062263406706768609 0 -0.0010681834439319185 -0.062596721060242555 0 -0.0010183345457736802 -0.062567172873175897 0 -0.0034010866466509912 -0.045531296689635695 0 -0.003994135244386559 -0.048848721362040229 0 -0.0020958090360602873 -0.047340208203924997 0 -0.00043798123561995041 -0.062156874347113839 0 -0.00060853578777067053 -0.062263406706768609 0 -0.0010183345457736802 -0.062567172873175897 0 -0.00043798123561995041 -0.062156874347113839 0 -0.0010183345457736802 -0.062567172873175897 0 -0.0013527610193435841 -0.062686822005402709 0 -0.00080313116227742902 -0.053765185080131186 0 -0.0019601756579930292 -0.055694444418212169 0 -0.0010183345457736802 -0.062567172873175897 0 -0.0013527610193435841 -0.062686822005402709 0 -0.001253382642009354 -0.062622499859632905 0 -0.0013527610193435841 -0.062686822005402709 0 -0.001253382642009354 -0.062622499859632905 0 -0.0014634455477194825 -0.062352050461612817 0 -0.001253382642009354 -0.062622499859632905 0 -0.0014634455477194825 -0.062352050461612817 0 -0.0010808933063114938 -0.062803685539416676 0 -0.0010183345457736802 -0.062567172873175897 0 -0.001253382642009354 -0.062622499859632905 0 -0.0010808933063114938 -0.062803685539416676 0 0.00032348429214647224 -0.046419009052531247 0 -0.00063457838572043282 -0.047706684286753225 0 0.0004724349470834119 -0.048618376107959563 0 0.00032348429214647224 -0.046419009052531247 0 -0.00063457838572043282 -0.047706684286753225 0 -0.00099485669644848234 -0.046599190992728114 0 -0.00063457838572043282 -0.047706684286753225 0 -0.00099485669644848234 -0.046599190992728114 0 -0.0020958090360602873 -0.047340208203924997 0 -0.0019128547265304221 -0.045844664256946187 0 -0.00099485669644848234 -0.046599190992728114 0 -0.0020958090360602873 -0.047340208203924997 0 -0.003994135244386559 -0.048848721362040229 0 -0.0010823133086991668 -0.0498446192077081 0 -0.0019419729545544122 -0.05235545327963536 0 -0.00063457838572043282 -0.047706684286753225 0 -0.0020958090360602873 -0.047340208203924997 0 -0.0010823133086991668 -0.0498446192077081 0 -0.003994135244386559 -0.048848721362040229 0 -0.0020958090360602873 -0.047340208203924997 0 -0.0010823133086991668 -0.0498446192077081 0 -0.00063457838572043282 -0.047706684286753225 0 -0.0010823133086991668 -0.0498446192077081 0 0.0004724349470834119 -0.048618376107959563 0 -0.0010823133086991668 -0.0498446192077081 0 0.0004724349470834119 -0.048618376107959563 0 0.00068226540644114413 -0.050588568159521494 0 0.00024438653897833232 -0.052409715774772929 0 0.00068226540644114413 -0.050588568159521494 0 0.0019008160728643862 -0.051973785960916973 0 -0.0010823133086991668 -0.0498446192077081 0 0.00024438653897833232 -0.052409715774772929 0 0.00068226540644114413 -0.050588568159521494 0 -0.0010823133086991668 -0.0498446192077081 0 0.00024438653897833232 -0.052409715774772929 0 -0.0019419729545544122 -0.05235545327963536 0 -0.0019419729545544122 -0.05235545327963536 0 -0.0042725893872251931 -0.053697616221094584 0 -0.0018741232526497042 -0.056085396906482912 0 -0.0019419729545544122 -0.05235545327963536 0 0.00041845310469001371 -0.055871622734683518 0 -0.0018741232526497042 -0.056085396906482912 0 0.00024438653897833232 -0.052409715774772929 0 -0.0019419729545544122 -0.05235545327963536 0 0.00041845310469001371 -0.055871622734683518 0 0.00024438653897833232 -0.052409715774772929 0 0.00041845310469001371 -0.055871622734683518 0 0.0018667920074800857 -0.053992951924252443 0 -0.0013527610193435841 -0.062686822005402709 0 -0.0014634455477194825 -0.062352050461612817 0 -0.0024564289422483771 -0.061890035601728594 0 -0.003994135244386559 -0.048848721362040229 0 -0.0019419729545544122 -0.05235545327963536 0 -0.0042725893872251931 -0.053697616221094584 0 -0.0019601756579930292 -0.055694444418212169 0 -0.0025525285896784255 -0.057414104611682698 0 -0.0024564289422483771 -0.061890035601728594 0 -0.0017783983278616613 -0.061553260768598753 0 -0.0022926051620285361 -0.060367453218823704 0 -0.0017783983278616613 -0.061553260768598753 0 -0.001176380470440899 -0.061778815270460197 0 -0.0017303076781800268 -0.060840927573281932 0 -0.0014634455477194825 -0.062352050461612817 0 -0.0017783983278616613 -0.061553260768598753 0 -0.001176380470440899 -0.061778815270460197 0 -0.0014634455477194825 -0.062352050461612817 0 -0.0024564289422483771 -0.061890035601728594 0 -0.0017783983278616613 -0.061553260768598753 0 -0.001176380470440899 -0.061778815270460197 0 -0.0009210646873124 -0.062709522532264375 0 -0.00055999997552063252 -0.06223592679348209 0 -0.0014634455477194825 -0.062352050461612817 0 -0.001176380470440899 -0.061778815270460197 0 -0.0009210646873124 -0.062709522532264375 0 -0.0009210646873124 -0.062709522532264375 0 -0.00055999997552063252 -0.06223592679348209 0 -0.00036964955130817359 -0.063008768159370426 0 -0.001176380470440899 -0.061778815270460197 0 -0.00055999997552063252 -0.06223592679348209 0 -0.00064621002293079239 -0.061410695508919901 0 -0.00055999997552063252 -0.06223592679348209 0 3.1866082515736346e-05 -0.061807914327522105 0 -0.00064621002293079239 -0.061410695508919901 0 3.1866082515736346e-05 -0.061807914327522105 0 0.00084478404358269323 -0.062491334579536414 0 -8.0235307077302151e-05 -0.062594274109474976 0 -0.00055999997552063252 -0.06223592679348209 0 3.1866082515736346e-05 -0.061807914327522105 0 -8.0235307077302151e-05 -0.062594274109474976 0 1.9085046899623732e-05 -0.063961146293406823 0 -0.0002025961307198478 -0.064483510184521753 0 3.7546454067641474e-05 -0.065062218963854251 0 -2.8023847261216282e-09 -0.064998862760262621 0 6.8838134169917146e-08 -0.065000753327853281 0 3.7546454067641474e-05 -0.065062218963854251 0 -1.445000334380179e-05 -0.064994280989972675 0 6.8838134169917146e-08 -0.065000753327853281 0 3.1866082515736346e-05 -0.061807914327522105 0 0.00084478404358269323 -0.062491334579536414 0 0.00092673378353628512 -0.061310945429805176 0 1.9085046899623732e-05 -0.063961146293406823 0 6.2807694851026581e-05 -0.064008191008569595 0 0.00084478404358269323 -0.062491334579536414 0 -8.0235307077302151e-05 -0.062594274109474976 0 -6.7112374304810148e-07 -0.063383128469818639 0 3.7546454067641474e-05 -0.065062218963854251 0 -2.8023847261216282e-09 -0.064998862760262621 0 0.00020679026720608914 -0.06450347322561073 0 0.00084478404358269323 -0.062491334579536414 0 -6.7112374304810148e-07 -0.063383128469818639 0 0.00020679026720608914 -0.06450347322561073 0 -0.00055999997552063252 -0.06223592679348209 0 -8.0235307077302151e-05 -0.062594274109474976 0 -0.00036964955130817359 -0.063008768159370426 0 -8.0235307077302151e-05 -0.062594274109474976 0 -6.7112374304810148e-07 -0.063383128469818639 0 -0.00036964955130817359 -0.063008768159370426 0 -0.00036964955130817359 -0.063008768159370426 0 -0.00024962288281184805 -0.06381511699092185 0 -0.00061062430883975232 -0.063242473185320905 0 -6.7112374304810148e-07 -0.063383128469818639 0 -0.00024962288281184805 -0.06381511699092185 0 0.00020679026720608914 -0.06450347322561073 0 -6.7112374304810148e-07 -0.063383128469818639 0 -0.00036964955130817359 -0.063008768159370426 0 -0.00024962288281184805 -0.06381511699092185 0 -0.00024962288281184805 -0.06381511699092185 0 0.00020679026720608914 -0.06450347322561073 0 -2.6592300635272772e-05 -0.064400589975528402 0 -2.8023847261216282e-09 -0.064998862760262621 0 0.00020679026720608914 -0.06450347322561073 0 5.6726475370778189e-07 -0.064999078643067101 0 0.00020679026720608914 -0.06450347322561073 0 -2.6592300635272772e-05 -0.064400589975528402 0 5.6726475370778189e-07 -0.064999078643067101 0 -2.6592300635272772e-05 -0.064400589975528402 0 5.6726475370778189e-07 -0.064999078643067101 0 -0.00016435007492070385 -0.064206417422767587 0 -0.00032893676871907954 -0.063673134880466595 0 -0.00016435007492070385 -0.064206417422767587 0 -0.00051856916970005129 -0.063443834980184452 0 -0.00024962288281184805 -0.06381511699092185 0 -0.00016435007492070385 -0.064206417422767587 0 -0.00051856916970005129 -0.063443834980184452 0 -0.00024962288281184805 -0.06381511699092185 0 -2.6592300635272772e-05 -0.064400589975528402 0 -0.00016435007492070385 -0.064206417422767587 0 -0.00041168030434258449 -0.063066632665979852 0 -0.00051856916970005129 -0.063443834980184452 0 -0.00089071258167448613 -0.06283382837771076 0 -0.00051856916970005129 -0.063443834980184452 0 -0.00084368198292561806 -0.063037677274985923 0 -0.00061062430883975232 -0.063242473185320905 0 -0.00051856916970005129 -0.063443834980184452 0 -0.00089071258167448613 -0.06283382837771076 0 -0.00084368198292561806 -0.063037677274985923 0 -0.0013178639908911452 -0.061996548747405497 0 -0.0010681834439319185 -0.062596721060242555 0 -0.00089071258167448613 -0.06283382837771076 0 -0.0010681834439319185 -0.062596721060242555 0 -0.00089071258167448613 -0.06283382837771076 0 -0.0010808933063114938 -0.062803685539416676 0 -0.00089071258167448613 -0.06283382837771076 0 -0.00084368198292561806 -0.063037677274985923 0 -0.0010808933063114938 -0.062803685539416676 0 -0.0014634455477194825 -0.062352050461612817 0 -0.0009210646873124 -0.062709522532264375 0 -0.0010808933063114938 -0.062803685539416676 0 -0.0009210646873124 -0.062709522532264375 0 -0.00084368198292561806 -0.063037677274985923 0 -0.0010808933063114938 -0.062803685539416676 0 -0.0009210646873124 -0.062709522532264375 0 -0.00084368198292561806 -0.063037677274985923 0 -0.00061062430883975232 -0.063242473185320905 0 -0.0009210646873124 -0.062709522532264375 0 -0.00036964955130817359 -0.063008768159370426 0 -0.00061062430883975232 -0.063242473185320905 0 -0.00024962288281184805 -0.06381511699092185 0 -0.00051856916970005129 -0.063443834980184452 0 -0.00061062430883975232 -0.063242473185320905 0 -0.00021278450171745053 -0.037220182741335088 0 -0.00030199930850470687 -0.038281016122812435 0 0.00030440141032217596 -0.03802409947825193 0 -0.00021278450171745053 -0.037220182741335088 0 -0.00063996479014622484 -0.03816556603344301 0 -0.00030199930850470687 -0.038281016122812435 0 -0.00021278450171745053 -0.037220182741335088 0 0.00030440141032217596 -0.03802409947825193 0 0.00034509593961310804 -0.036904942213964141 0 -0.00021278450171745053 -0.037220182741335088 0 -0.00063996479014622484 -0.03816556603344301 0 -0.0006475774496152646 -0.037227804576462978 0 -0.00063996479014622484 -0.03816556603344301 0 -0.0006475774496152646 -0.037227804576462978 0 -0.00079651678673516393 -0.038585684604668193 0 -0.0006475774496152646 -0.037227804576462978 0 -0.00020262897205679207 -0.034591269216187215 0 9.4062848240928271e-05 -0.035800061378777448 0 -0.00021278450171745053 -0.037220182741335088 0 -0.0006475774496152646 -0.037227804576462978 0 9.4062848240928271e-05 -0.035800061378777448 0 -0.00021278450171745053 -0.037220182741335088 0 9.4062848240928271e-05 -0.035800061378777448 0 0.00034509593961310804 -0.036904942213964141 0 -0.00020262897205679207 -0.034591269216187215 0 -6.8623386404103526e-07 -0.035029341047346195 0 -5.0712143676371521e-07 -0.031219639956202 0 -0.00020262897205679207 -0.034591269216187215 0 -6.8623386404103526e-07 -0.035029341047346195 0 -0.0004359602957897919 -0.037080954232312058 0 -0.0006475774496152646 -0.037227804576462978 0 -0.00020262897205679207 -0.034591269216187215 0 -0.0004359602957897919 -0.037080954232312058 0 -0.0006475774496152646 -0.037227804576462978 0 -0.0004359602957897919 -0.037080954232312058 0 -0.00060865683938688374 -0.039028697051149773 0 -0.0004359602957897919 -0.037080954232312058 0 -1.0389871786428518e-06 -0.038836965090344976 0 -0.00060865683938688374 -0.039028697051149773 0 -6.8623386404103526e-07 -0.035029341047346195 0 -0.0004359602957897919 -0.037080954232312058 0 -1.0389871786428518e-06 -0.038836965090344976 0 -1.0389871786428518e-06 -0.038836965090344976 0 