<?xml version="1.0"?>
<VTKFile type="UnstructuredGrid" version="0.1" byte_order="LittleEndian">
<UnstructuredGrid>
<Piece NumberOfPoints="31898" NumberOfCells="11152">
<Points>
<DataArray type="Float64" NumberOfComponents="3" format="ascii">
-0.5 -0.5 0 -0.47620991077874902 -0.44978878706170539 0 -0.49999999999999473 -0.42132396840504388 0 -0.5 -0.5 0 -0.47160970827802529 -0.4793630013852106 0 -0.47620991077874902 -0.44978878706170539 0 -0.5 -0.5 0 -0.47160970827802529 -0.4793630013852106 0 -0.44860394795025399 -0.5 0 -0.47160970827802529 -0.4793630013852106 0 -0.44860394795025399 -0.5 0 -0.4490820238307246 -0.45820516232899983 0 -0.44860394795025399 -0.5 0 -0.4490820238307246 -0.45820516232899983 0 -0.42881687682924802 -0.47781464288736519 0 -0.4490820238307246 -0.45820516232899983 0 -0.45555437223955858 -0.42914059360647611 0 -0.4490820238307246 -0.45820516232899983 0 -0.45555437223955858 -0.42914059360647611 0 -0.43867285131603428 -0.4271457417558665 0 -0.4490820238307246 -0.45820516232899983 0 -0.43867285131603428 -0.4271457417558665 0 -0.4263356171060747 -0.44269880333887462 0 -0.47160970827802529 -0.4793630013852106 0 -0.4490820238307246 -0.45820516232899983 0 -0.47620991077874902 -0.44978878706170539 0 -0.4490820238307246 -0.45820516232899983 0 -0.47620991077874902 -0.44978878706170539 0 -0.45555437223955858 -0.42914059360647611 0 -0.47620991077874902 -0.44978878706170539 0 -0.48101336032419229 -0.41069999664450008 0 -0.45555437223955858 -0.42914059360647611 0 -0.47620991077874902 -0.44978878706170539 0 -0.49999999999999473 -0.42132396840504388 0 -0.48101336032419229 -0.41069999664450008 0 -0.49999999999999473 -0.42132396840504388 0 -0.48101336032419229 -0.41069999664450008 0 -0.5 -0.393886241813306 0 -0.49999999999999473 -0.42132396840504388 0 -0.48101336032419229 -0.41069999664450008 0 -0.5 -0.393886241813306 0 -0.47854472220918332 -0.38978458738689759 0 -0.48422759779560409 -0.37130120630367158 0 -0.5 -0.393886241813306 0 -0.5 -0.36644851522156802 0 -0.48422759779560409 -0.37130120630367158 0 -0.48101336032419229 -0.41069999664450008 0 -0.5 -0.393886241813306 0 -0.47854472220918332 -0.38978458738689759 0 -0.48101336032419229 -0.41069999664450008 0 -0.47854472220918332 -0.38978458738689759 0 -0.46202672064839212 -0.40007602488395211 0 -0.48101336032419229 -0.41069999664450008 0 -0.46202672064839212 -0.40007602488395211 0 -0.47854472220918332 -0.38978458738689759 0 -0.46725442735267431 -0.37660061361585562 0 -0.46202672064839212 -0.40007602488395211 0 -0.47854472220918332 -0.38978458738689759 0 -0.46725442735267431 -0.37660061361585562 0 -0.48422759779560409 -0.37130120630367158 0 -0.46725442735267431 -0.37660061361585562 0 -0.46202672064839212 -0.40007602488395211 0 -0.46725442735267431 -0.37660061361585562 0 -0.45645674801697989 -0.38644133236760531 0 -0.46202672064839212 -0.40007602488395211 0 -0.46725442735267431 -0.37660061361585562 0 -0.45645674801697989 -0.38644133236760531 0 -0.4540003998136638 -0.37455519391687309 0 -0.45645674801697989 -0.38644133236760531 0 -0.46202672064839212 -0.40007602488395211 0 -0.44257020456291563 -0.38918913383950271 0 -0.46202672064839212 -0.40007602488395211 0 -0.44257020456291563 -0.38918913383950271 0 -0.44727608925983742 -0.41095911152778891 0 -0.46202672064839212 -0.40007602488395211 0 -0.44257020456291563 -0.38918913383950271 0 -0.44257020456291563 -0.38918913383950271 0 -0.44727608925983742 -0.41095911152778891 0 -0.43479358559901082 -0.4041454901736512 0 -0.44257020456291563 -0.38918913383950271 0 -0.4540003998136638 -0.37455519391687309 0 -0.44172858264042247 -0.37082207246888088 0 -0.45645674801697989 -0.38644133236760531 0 -0.44257020456291563 -0.38918913383950271 0 -0.4540003998136638 -0.37455519391687309 0 -0.46202672064839212 -0.40007602488395211 0 -0.45555437223955858 -0.42914059360647611 0 -0.44727608925983742 -0.41095911152778891 0 -0.46202672064839212 -0.40007602488395211 0 -0.45555437223955858 -0.42914059360647611 0 -0.48101336032419229 -0.41069999664450008 0 -0.46202672064839212 -0.40007602488395211 0 -0.45555437223955858 -0.42914059360647611 0 -0.44727608925983742 -0.41095911152778891 0 -0.43867285131603428 -0.4271457417558665 0 -0.43676601469929588 -0.41441201227470881 0 -0.44727608925983742 -0.41095911152778891 0 -0.43676601469929588 -0.41441201227470881 0 -0.43479358559901082 -0.4041454901736512 0 -0.45555437223955858 -0.42914059360647611 0 -0.44727608925983742 -0.41095911152778891 0 -0.43867285131603428 -0.4271457417558665 0 -0.43867285131603428 -0.4271457417558665 0 -0.42681803064840879 -0.42717069814352421 0 -0.4263356171060747 -0.44269880333887462 0 -0.42681803064840879 -0.42717069814352421 0 -0.41531815884496182 -0.42985383783075998 0 -0.4263356171060747 -0.44269880333887462 0 -0.42681803064840879 -0.42717069814352421 0 -0.42624289495594048 -0.42089725947505818 0 -0.42083332353326591 -0.42146747131641099 0 -0.42681803064840879 -0.42717069814352421 0 -0.43096994786351572 -0.41951492446283251 0 -0.42624289495594048 -0.42089725947505818 0 -0.43867285131603428 -0.4271457417558665 0 -0.42681803064840879 -0.42717069814352421 0 -0.43096994786351572 -0.41951492446283251 0 -0.43867285131603428 -0.4271457417558665 0 -0.43676601469929588 -0.41441201227470881 0 -0.43096994786351572 -0.41951492446283251 0 -0.43676601469929588 -0.41441201227470881 0 -0.43096994786351572 -0.41951492446283251 0 -0.42907264086257813 -0.41311715872526122 0 -0.43676601469929588 -0.41441201227470881 0 -0.42907264086257813 -0.41311715872526122 0 -0.43479358559901082 -0.4041454901736512 0 -0.42907264086257813 -0.41311715872526122 0 -0.43479358559901082 -0.4041454901736512 0 -0.42460885511582858 -0.40417321677700252 0 -0.42907264086257813 -0.41311715872526122 0 -0.41997834854398469 -0.41180534796019508 0 -0.42907264086257813 -0.41311715872526122 0 -0.42635027777857132 -0.41543594397746519 0 -0.41997834854398469 -0.41180534796019508 0 -0.42907264086257813 -0.41311715872526122 0 -0.41997834854398469 -0.41180534796019508 0 -0.42460885511582858 -0.40417321677700252 0 -0.42635027777857132 -0.41543594397746519 0 -0.41997834854398469 -0.41180534796019508 0 -0.42635027777857132 -0.41543594397746519 0 -0.42083332353326591 -0.42146747131641099 0 -0.41997834854398469 -0.41180534796019508 0 -0.43096994786351572 -0.41951492446283251 0 -0.42624289495594048 -0.42089725947505818 0 -0.42635027777857132 -0.41543594397746519 0 -0.43096994786351572 -0.41951492446283251 0 -0.42907264086257813 -0.41311715872526122 0 -0.42635027777857132 -0.41543594397746519 0 -0.42624289495594048 -0.42089725947505818 0 -0.42635027777857132 -0.41543594397746519 0 -0.42083332353326591 -0.42146747131641099 0 -0.42083332353326591 -0.42146747131641099 0 -0.41997834854398469 -0.41180534796019508 0 -0.40992282953163789 -0.42011435591993562 0 -0.41997834854398469 -0.41180534796019508 0 -0.39756877647335259 -0.40857286797681719 0 -0.41997834854398469 -0.41180534796019508 0 -0.40992282953163789 -0.42011435591993562 0 -0.39756877647335259 -0.40857286797681719 0 -0.40992282953163789 -0.42011435591993562 0 -0.41531815884496182 -0.42985383783075998 0 -0.39591554026262499 -0.42887225451549271 0 -0.41531815884496182 -0.42985383783075998 0 -0.39591554026262499 -0.42887225451549271 0 -0.41160927495564159 -0.44339431233754628 0 -0.42083332353326591 -0.42146747131641099 0 -0.40992282953163789 -0.42011435591993562 0 -0.41531815884496182 -0.42985383783075998 0 -0.42681803064840879 -0.42717069814352421 0 -0.42083332353326591 -0.42146747131641099 0 -0.41531815884496182 -0.42985383783075998 0 -0.44257020456291563 -0.38918913383950271 0 -0.42311368847744002 -0.37830224279505142 0 -0.42594061475171041 -0.39368797999533162 0 -0.44257020456291563 -0.38918913383950271 0 -0.42311368847744002 -0.37830224279505142 0 -0.44172858264042247 -0.37082207246888088 0 -0.44257020456291563 -0.38918913383950271 0 -0.42311368847744002 -0.37830224279505142 0 -0.42311368847744002 -0.37830224279505142 0 -0.42594061475171041 -0.39368797999533162 0 -0.416587075656149 -0.38785930376960043 0 -0.44257020456291563 -0.38918913383950271 0 -0.42594061475171041 -0.39368797999533162 0 -0.43479358559901082 -0.4041454901736512 0 -0.42594061475171041 -0.39368797999533162 0 -0.43479358559901082 -0.4041454901736512 0 -0.42460885511582858 -0.40417321677700252 0 -0.41997834854398469 -0.41180534796019508 0 -0.41325908582185972 -0.39811010703057192 0 -0.39770572831670092 -0.39911486077581648 0 -0.41997834854398469 -0.41180534796019508 0 -0.39770572831670092 -0.39911486077581648 0 -0.42594061475171041 -0.39368797999533162 0 -0.42460885511582858 -0.40417321677700252 0 -0.41325908582185972 -0.39811010703057192 0 -0.41997834854398469 -0.41180534796019508 0 -0.42460885511582858 -0.40417321677700252 0 -0.41325908582185972 -0.39811010703057192 0 -0.42594061475171041 -0.39368797999533162 0 -0.41325908582185972 -0.39811010703057192 0 -0.416587075656149 -0.38785930376960043 0 -0.41325908582185972 -0.39811010703057192 0 -0.416587075656149 -0.38785930376960043 0 -0.40403491357358612 -0.38133688525744702 0 -0.42311368847744002 -0.37830224279505142 0 -0.40403491357358612 -0.38133688525744702 0 -0.40365717239196519 -0.36741535175059892 0 -0.42311368847744002 -0.37830224279505142 0 -0.416587075656149 -0.38785930376960043 0 -0.40403491357358612 -0.38133688525744702 0 -0.40403491357358612 -0.38133688525744702 0 -0.39190790742475001 -0.38540387676521748 0 -0.39770572831670092 -0.39911486077581648 0 -0.40403491357358612 -0.38133688525744702 0 -0.39190790742475001 -0.38540387676521748 0 -0.3904578797192948 -0.37473938743617019 0 -0.41325908582185972 -0.39811010703057192 0 -0.40403491357358612 -0.38133688525744702 0 -0.39770572831670092 -0.39911486077581648 0 -0.39770572831670092 -0.39911486077581648 0 -0.37543310808941849 -0.38642437359143528 0 -0.39770572831670092 -0.39911486077581648 0 -0.37515920440272033 -0.40534038799344108 0 -0.37543310808941849 -0.38642437359143528 0 -0.39770572831670092 -0.39911486077581648 0 -0.37515920440272033 -0.40534038799344108 0 -0.39756877647335259 -0.40857286797681719
[...]
<PointData Scalars="" Vectors="displacement," Tensors="">
<DataArray type="Float64" Name="displacement" NumberOfComponents="3" format="ascii">
-1.6955641065553003e-06 -0.03499680048246942 0 -0.00017013646404322668 -0.0327198094275069 0 3.5868651659284176e-06 -0.029500830028471425 0 -1.6955641065553003e-06 -0.03499680048246942 0 -0.00015648651738552305 -0.034199405705806964 0 -0.00017013646404322668 -0.0327198094275069 0 -1.6955641065553003e-06 -0.03499680048246942 0 -0.00015648651738552305 -0.034199405705806964 0 8.010613310706133e-09 -0.034999137514014116 0 -0.00015648651738552305 -0.034199405705806964 0 8.010613310706133e-09 -0.034999137514014116 0 -8.615686474063971e-05 -0.03419592616894538 0 8.010613310706133e-09 -0.034999137514014116 0 -8.615686474063971e-05 -0.03419592616894538 0 -6.7644104506027629e-05 -0.034758799935970287 0 -0.00030590742935185773 -0.032063159786091755 0 -8.0589195382011487e-06 -0.031158685397968382 0 -8.615686474063971e-05 -0.03419592616894538 0 0.00037711374514532467 -0.034172925705660127 0 0.00040605118306691389 -0.034347102664384579 0 -8.615686474063971e-05 -0.03419592616894538 0 0.00040605118306691389 -0.034347102664384579 0 0.00019973225577161799 -0.034564976742052687 0 -0.00015648651738552305 -0.034199405705806964 0 -8.615686474063971e-05 -0.03419592616894538 0 -0.00017013646404322668 -0.0327198094275069 0 -8.615686474063971e-05 -0.03419592616894538 0 -0.00017013646404322668 -0.0327198094275069 0 0.00062096403037367807 -0.033371382405952082 0 -0.00017013646404322668 -0.0327198094275069 0 0.0013203751319530489 -0.031620573551861791 0 0.00062096403037367807 -0.033371382405952082 0 -0.00017013646404322668 -0.0327198094275069 0 3.5868651659284176e-06 -0.029500830028471425 0 0.0013203751319530489 -0.031620573551861791 0 1.9790150800179479e-06 -0.029489654481586216 0 0.00030104686441619793 -0.027195151701390211 0 -8.3513273307420072e-07 -0.027572047549040333 0 1.1709631802515835e-06 -0.029491561733311675 0 0.00049052910301023702 -0.028978809281748164 0 -8.3513273307420072e-07 -0.027572047549040333 0 -7.9244557021528609e-05 -0.026489574122288452 0 -0.00016738462692183798 -0.025781791945888546 0 -8.3513273307420072e-07 -0.027572047549040333 0 -2.5445448238144404e-07 -0.025651173834703972 0 -0.00016738462692183798 -0.025781791945888546 0 0.00030104686441619793 -0.027195151701390211 0 -8.3513273307420072e-07 -0.027572047549040333 0 -7.9244557021528609e-05 -0.026489574122288452 0 0.00030104686441619793 -0.027195151701390211 0 -7.9244557021528609e-05 -0.026489574122288452 0 0.00013210172117274083 -0.026232417747534816 0 0.00049052910301023702 -0.028978809281748164 0 0.00069677235461141685 -0.02794085237987675 0 -7.9244557021528609e-05 -0.026489574122288452 0 -0.00020587312147082821 -0.026003945246504727 0 0.00013210172117274083 -0.026232417747534816 0 -7.9244557021528609e-05 -0.026489574122288452 0 -0.00020587312147082821 -0.026003945246504727 0 -0.00016738462692183798 -0.025781791945888546 0 0.00046828816914849325 -0.025374665442529996 0 0.00069677235461141685 -0.02794085237987675 0 0.00060353483797538404 -0.020435913436128616 0 0.00028573080335859735 -0.020763179094543126 0 -0.0001301124797075675 -0.020604796509998319 0 0.00060353483797538404 -0.020435913436128616 0 0.00028573080335859735 -0.020763179094543126 0 0.00062988167408021959 -0.020818675989430314 0 0.00028573080335859735 -0.020763179094543126 0 -0.0001301124797075675 -0.020604796509998319 0 0.00019156886409182411 -0.021185228984672573 0 0.00048839386333617951 -0.034270804466747865 0 0.00038331983046925453 -0.034316009410939645 0 0.00048539058863077464 -0.034285687380081122 0 0.00069677235461141685 -0.02794085237987675 0 0.00054054169624803076 -0.027650543197832781 0 0.00038331983046925453 -0.034316009410939645 0 0.00048539058863077464 -0.034285687380081122 0 0.00048002875682424869 -0.034289843425504195 0 0.00019156886409182411 -0.021185228984672573 0 0.00062988167408021959 -0.020818675989430314 0 0.00073477686996818812 -0.021199897790689357 0 0.00028573080335859735 -0.020763179094543126 0 0.00019156886409182411 -0.021185228984672573 0 0.00062988167408021959 -0.020818675989430314 0 0.00048839386333617951 -0.034270804466747865 0 0.00037711374514532467 -0.034172925705660127 0 0.00048539058863077464 -0.034285687380081122 0 0.00069677235461141685 -0.02794085237987675 0 -8.0589195382011487e-06 -0.031158685397968382 0 0.0013203751319530489 -0.031620573551861791 0 0.0020367068711465448 -0.032788019183501924 0 0.00062096403037367807 -0.033371382405952082 0 0.00048539058863077464 -0.034285687380081122 0 0.00040605118306691389 -0.034347102664384579 0 0.00050025913612661548 -0.034323851948941185 0 0.00048539058863077464 -0.034285687380081122 0 0.00050025913612661548 -0.034323851948941185 0 0.00048002875682424869 -0.034289843425504195 0 0.00037711374514532467 -0.034172925705660127 0 0.00048539058863077464 -0.034285687380081122 0 0.00040605118306691389 -0.034347102664384579 0 0.00040605118306691389 -0.034347102664384579 0 0.0003855786101612925 -0.034487184556766949 0 0.00019973225577161799 -0.034564976742052687 0 0.0003855786101612925 -0.034487184556766949 0 0.00034755073201646054 -0.034653547709091993 0 0.00019973225577161799 -0.034564976742052687 0 0.0003855786101612925 -0.034487184556766949 0 0.00045633889063773325 -0.034461548775216282 0 0.0004463878370347318 -0.034553153387446252 0 0.0003855786101612925 -0.034487184556766949 0 0.00047323663867095085 -0.03438323868556168 0 0.00045633889063773325 -0.034461548775216282 0 0.00040605118306691389 -0.034347102664384579 0 0.0003855786101612925 -0.034487184556766949 0 0.00047323663867095085 -0.03438323868556168 0 0.00040605118306691389 -0.034347102664384579 0 0.00050025913612661548 -0.034323851948941185 0 0.00047323663867095085 -0.03438323868556168 0 0.00050025913612661548 -0.034323851948941185 0 0.00047323663867095085 -0.03438323868556168 0 0.00056334358037348278 -0.034327788972818227 0 0.00050025913612661548 -0.034323851948941185 0 0.00056334358037348278 -0.034327788972818227 0 0.00048002875682424869 -0.034289843425504195 0 0.00056334358037348278 -0.034327788972818227 0 0.00048002875682424869 -0.034289843425504195 0 0.00049028771807628545 -0.034181375287196253 0 0.0012065340831589509 -0.033560845913824335 0 0.0012180272479292539 -0.033467135775003778 0 0.00056334358037348278 -0.034327788972818227 0 0.0005222940488079609 -0.034425601542660549 0 0.00064181297867873914 -0.034616620268004668 0 0.00056334358037348278 -0.034327788972818227 0 0.00062392527071542751 -0.034106058139072068 0 0.00049028771807628545 -0.034181375287196253 0 0.0012195224428628762 -0.033516017659306001 0 0.0012180272479292539 -0.033467135775003778 0 0.0005222940488079609 -0.034425601542660549 0 0.0004463878370347318 -0.034553153387446252 0 0.00058390868248991425 -0.034561661787912264 0 0.00047323663867095085 -0.03438323868556168 0 0.00045633889063773325 -0.034461548775216282 0 0.0005222940488079609 -0.034425601542660549 0 0.00047323663867095085 -0.03438323868556168 0 0.00056334358037348278 -0.034327788972818227 0 0.0005222940488079609 -0.034425601542660549 0 0.00045633889063773325 -0.034461548775216282 0 0.0005222940488079609 -0.034425601542660549 0 0.0004463878370347318 -0.034553153387446252 0 0.0004463878370347318 -0.034553153387446252 0 0.00058390868248991425 -0.034561661787912264 0 0.00046506292535106381 -0.034705286343030342 0 0.0012180272479292539 -0.033467135775003778 0 0.0010135345746515036 -0.033278319822454452 0 0.00058390868248991425 -0.034561661787912264 0 0.00046506292535106381 -0.034705286343030342 0 0.00060058670702274912 -0.034853728213836248 0 0.00046506292535106381 -0.034705286343030342 0 0.00034755073201646054 -0.034653547709091993 0 0.00036128755765897007 -0.034876188359799998 0 0.00034755073201646054 -0.034653547709091993 0 0.00036128755765897007 -0.034876188359799998 0 0.00019652731505635616 -0.03473004577200061 0 0.0004463878370347318 -0.034553153387446252 0 0.00046506292535106381 -0.034705286343030342 0 0.00034755073201646054 -0.034653547709091993 0 0.0003855786101612925 -0.034487184556766949 0 0.0004463878370347318 -0.034553153387446252 0 0.00034755073201646054 -0.034653547709091993 0 0.00038331983046925453 -0.034316009410939645 0 0.00010588605994176358 -0.034107289572699533 0 0.00036410775634911579 -0.034166054546319012 0 0.00019156886409182411 -0.021185228984672573 0 0.00050315203575007443 -0.021787441235284716 0 0.00073477686996818812 -0.021199897790689357 0 0.00054054169624803076 -0.027650543197832781 0 0.00058393298801351693 -0.027478392729283384 0 0.00010588605994176358 -0.034107289572699533 0 0.00036410775634911579 -0.034166054546319012 0 0.00025573634841046715 -0.033994317275541044 0 0.00038331983046925453 -0.034316009410939645 0 0.00036410775634911579 -0.034166054546319012 0 0.00048002875682424869 -0.034289843425504195 0 0.00036410775634911579 -0.034166054546319012 0 0.00048002875682424869 -0.034289843425504195 0 0.00049028771807628545 -0.034181375287196253 0 0.00062392527071542751 -0.034106058139072068 0 0.00042645912943801875 -0.03394922589356348 0 0.00047929313738941207 -0.033618440340629621 0 0.0012180272479292539 -0.033467135775003778 0 0.0012483289424682713 -0.032370946270066002 0 0.00036410775634911579 -0.034166054546319012 0 0.00049028771807628545 -0.034181375287196253 0 0.00042645912943801875 -0.03394922589356348 0 0.00062392527071542751 -0.034106058139072068 0 0.00049028771807628545 -0.034181375287196253 0 0.00042645912943801875 -0.03394922589356348 0 0.00036410775634911579 -0.034166054546319012 0 0.00042645912943801875 -0.03394922589356348 0 0.00025573634841046715 -0.033994317275541044 0 0.00042645912943801875 -0.03394922589356348 0 0.00025573634841046715 -0.033994317275541044 0 0.00012074790572066584 -0.033743565143160341 0 0.00010588605994176358 -0.034107289572699533 0 0.00012074790572066584 -0.033743565143160341 0 -0.00013936497740807717 -0.033723514538465407 0 0.00010588605994176358 -0.034107289572699533 0 0.00025573634841046715 -0.033994317275541044 0 0.00012074790572066584 -0.033743565143160341 0 0.00012074790572066584 -0.033743565143160341 0 0.00019685215282912188 -0.033465316079786395 0 0.00047929313738941207 -0.033618440340629621 0 0.00012074790572066584 -0.033743565143160341 0 0.00019685215282912188 -0.033465316079786395 0 -4.6774290409335817e-05 -0.033418774283350342 0 0.00042645912943801875 -0.03394922589356348 0 0.00012074790572066584 -0.033743565143160341 0 0.00047929313738941207 -0.033618440340629621 0 0.0012483289424682713 -0.032370946270066002 0 0.0011293809365374074 -0.030249954690484627 0 0.0012106125583667684 -0.032334527710539747 0 0.0014439769073893831 -0.031485507462484033 0 0.00073445519058693769 -0.031493019840059838 0 0.0012106125583667684 -0.032334527710539747 0 0.0014439769073893831 -0.031485507462484033 0 0.001566266961305472 -0.032330325947426221 0 0.00069687609087071452 -0.032392051051030796 0 0.0011293809365374074 -0.030249954690484627 0 0.00022809304646328633 -0.033070291179257687 0 -4.6774290409335817e-05 -0.033418774283350342 0 -0.00017818799994605023 -0.033057818447097542 0 0.00019685215282912188 -0.033465316079786395 0 0.00022809304646328633 -0.033070291179257687 0 -4.6774290409335817e-05 -0.033418774283350342 0 0.0011293809365374074 -0.030249954690484627 0 0.00073322765006526413 -0.028384536842821786 0 0.00019685215282912188 -0.033465316079786395 0 0.00047929313738941207 -0.033618440340629621 0 0.00022809304646328633 -0.033070291179257687 0 0.0016875898421013277 -0.033177137772837179 0 0.0012106125583667684 -0.032334527710539747 0 0.001566266961305472 -0.032330325947426221 0 0.00046506292535106381 -0.034705286343030342 0 0.00036128755765897007 -0.034876188359799998 0 0.00060058670702274912 -0.034853728213836248 0 0.00063139994269148048 -0.035100103332308952 0 0.00036128755765897007 -0.034876188359799998 0 0.00060058670702274912 -0.034853728213836248 0 0.00069687609087071452 -0.032392051051030796 0 0.0010135345746515036 -0.033278319822454452 0 0.00063139994269148048 -0.035100103332308952 0 0.00036128755765897007 -0.034876188359799998 0 0.00029056344707420332 -0.035104039488007339 0 0.00036128755765897007 -0.034876188359799998 0 0.00017221950107042215 -0.034910775529315569 0 0.00029056344707420332 -0.035104039488007339 0 0.00017221950107042215 -0.034910775529315569 0 -2.3970116270939795e-05 -0.035104221232940221 0 0.00029056344707420332 -0.035104039488007339 0 0.00036128755765897007 -0.034876188359799998 0 0.00017221950107042215 -0.034910775529315569 0 0.00019652731505635616 -0.03473004577200061 0 0.00017221950107042215 -0.034910775529315569 0 6.1345918926744542e-05 -0.034802878854078935 0 0.00019652731505635616 -0.03473004577200061 0 4.6234715908446354e-05 -0.034854988918014099 0 -2.2040323591637592e-05 -0.034947365000330008 0 -2.288844084803091e-05 -0.034827513001746864 0 6.7362787320201676e-06 -0.0349923784591804 0 5.4091006479114133e-06 -0.034996491061980731 0 1.0909301546333097e-06 -0.034996550318804706 0 6.9692175313274405e-05 -0.034876704682331061 0 5.0654640656738202e-06 -0.034956464356339798 0 6.9692175313274405e-05 -0.034876704682331061 0 6.9732124354244678e-05 -0.034876278039657253 0 6.9692175313274405e-05 -0.034876704682331061 0 7.6309170750485763e-05 -0.034825710352230095 0 0.00017221950107042215 -0.034910775529315569 0 6.1345918926744542e-05 -0.034802878854078935 0 1.8531538111199875e-05 -0.034951225354470025 0 0.00017221950107042215 -0.034910775529315569 0 1.8531538111199875e-05 -0.034951225354470025 0 -2.3970116270939795e-05 -0.035104221232940221 0 7.6309170750485763e-05 -0.034825710352230095 0 0.00012372554784743776 -0.034641696683940335 0 5.4091006479114133e-06 -0.034996491061980731 0 2.6585522580101564e-06 -0.0349977631644958 0 4.2144586784596165e-06 -0.034999569435083346 0 2.6585522580101564e-06 -0.0349977631644958 0 1.0909301546333097e-06 -0.034996550318804706 0 8.3226397541424743e-07 -0.034999471594083377 0 1.0909301546333097e-06 -0.034996550318804706 0 3.423302841910721e-07 -0.034999678067701989 0 8.3226397541424743e-07 -0.034999471594083377 0 2.6585522580101564e-06 -0.0349977631644958 0 8.3226397541424743e-07 -0.034999471594083377 0 4.2144586784596165e-06 -0.034999569435083346 0 5.4091006479114133e-06 -0.034996491061980731 0 2.6585522580101564e-06 -0.0349977631644958 0 1.0909301546333097e-06 -0.034996550318804706 0 -2.9752703150589097e-08 -0.034999933032772372 0 5.0654640656738202e-06 -0.034956464356339798 0 -2.1330509179385139e-09 -0.034999996914839231 0 1.0909301546333097e-06 -0.034996550318804706 0 3.423302841910721e-07 -0.034999678067701989 0 5.7047498511265998e-08 -0.03499998409509561 0 -2.2040323591637592e-05 -0.034947365000330008 0 -1.418734793113131e-07 -0.034999868465663976 0 -2.2040323591637592e-05 -0.034947365000330008 0 -2.288844084803091e-05 -0.034827513001746864 0 -1.418734793113131e-07 -0.034999868465663976 0 -2.288844084803091e-05 -0.034827513001746864 0 -1.418734793113131e-07 -0.034999868465663976 0 -6.7644104506027629e-05 -0.034758799935970287 0 8.010613310706133e-09 -0.034999137514014116 0 -1.418734793113131e-07 -0.034999868465663976 0 -6.7644104506027629e-05 -0.034758799935970287 0 -2.288844084803091e-05 -0.034827513001746864 0 -6.7644104506027629e-05 -0.034758799935970287 0 6.6167442854425651e-07 -0.034640836758777396 0 -8.615686474063971e-05 -0.03419592616894538 0 -6.7644104506027629e-05 -0.034758799935970287 0 6.6167442854425651e-07 -0.034640836758777396 0 -8.615686474063971e-05 -0.03419592616894538 0 6.6167442854425651e-07 -0.034640836758777396 0 0.00019973225577161799 -0.034564976742052687 0 6.6167442854425651e-07 -0.034640836758777396 0 0.00019973225577161799 -0.034564976742052687 0 7.7329689040916668e-05 -0.034721146174765835 0 0.00019973225577161799 -0.034564976742052687 0 0.00019652731505635616 -0.03473004577200061 0 7.7329689040916668e-05 -0.034721146174765835 0 0.00034755073201646054 -0.034653547709091993 0 0.00019973225577161799 -0.034564976742052687 0 0.00019652731505635616 -0.03473004577200061 0 4.728159449947877e-05 -0.034868064725902877 0 0.00019652731505635616 -0.03473004577200061 0 5.369558093580263e-05 -0.034833412789291411 0 0.00019652731505635616 -0.03473004577200061 0 5.369558093580263e-05 -0.034833412789291411 0 7.7329689040916668e-05 -0.034721146174765835 0 6.9692175313274405e-05 -0.034876704682331061 0 9.6304324417044449e-05 -0.034855678846169462 0 -2.288844084803091e-05 -0.034827513001746864 0 5.369558093580263e-05 -0.034833412789291411 0 7.7329689040916668e-05 -0.034721146174765835 0 4.6234715908446354e-05 -0.034854988918014099 0 -2.288844084803091e-05 -0.034827513001746864 0 5.369558093580263e-05 -0.034833412789291411 0 -2.288844084803091e-05 -0.034827513001746864 0 6.6167442854425651e-07 -0.034640836758777396 0 7.7329689040916668e-05 -0.034721146174765835 0 0.0010854114852033609 -0.018042969170278339 0 0.0015245267438146999 -0.01722751006315823 0 0.0005134053497812351 -0.017543344303749063 0 0.00060645151372321418 -0.016976354371699646 0 0.00033833179295427774 -0.017356393004500627 0 -0.00011581198821992728 -0.019608125809194934 0 0.00015913902111232891 -0.019561325967619649 0 9.1751199944051776e-05 -0.019697539224673575 0 -0.00011581198821992728 -0.019608125809194934 0 -6.4870443569199824e-05 -0.019646135368450699 0 9.1751199944051776e-05 -0.019697539224673575 0 -0.00011581198821992728 -0.019608125809194934 0 -6.9555070296217246e-05 -0.019549107270600167 0 -6.4870443569199824e-05 -0.019646135368450699 0 -0.00011581198821992728 -0.019608125809194934 0 -0.00010589869090204073 -0.019324552139873268 0 -0.00017864695550908773 -0.019668637381664463 0 -0.00011581198821992728 -0.019608125809194934 0 -0.00010589869090204073 -0.019324552139873268 0 0.00015913902111232891 -0.019561325967619649 0 0.0010854114852033609 -0.018042969170278339 0 0.00093794372168042582 -0.018190603235241902 0 -0.00010589869090204073 -0.019324552139873268 0 0.00015913902111232891 -0.019561325967619649 0 0.00014976472553590025 -0.018504637033360409 0 0.0005134053497812351 -0.017543344303749063 0 0.00014976472553590025 -0.018504637033360409 0 5.3803466276837561e-05 -0.017808861071651222 0 0.00014976472553590025 -0.018504637033360409 0 -3.9614814819425829e-07 -0.017968591668008738 0 -0.00011951162988032599 -0.019267415609407666 0 0.00014976472553590025 -0.018504637033360409 0 -3.9614814819425829e-07 -0.017968591668008738 0 -2.0676184676419647e-05 -0.017563843761373956 0 -3.9614814819425829e-07 -0.017968591668008738 0 -0.00011951162988032599 -0.019267415609407666 0 -3.6057996896488329e-07 -0.019889472437363831 0 -0.00010589869090204073 -0.019324552139873268 0 0.00014976472553590025 -0.018504637033360409 0 -0.00011951162988032599 -0.019267415609407666 0 -0.00010589869090204073 -0.019324552139873268 0 -0.00011951162988032599 -0.019267415609407666 0 -0.00017864695550908773 -0.019668637381664463 0 -0.00017864695550908773 -0.019668637381664463 0 -7.5836609463054701e-05 -0.020272922230298827 0 -2.3841705504301119e-05 -0.020158524189577073 0 -0.00011951162988032599 -0.019267415609407666 0 -0.00017864695550908773 -0.019668637381664463 0 -7.5836609463054701e-05 -0.020272922230298827 0 -3.6057996896488329e-07 -0.019889472437363831 0 -7.5836609463054701e-05 -0.020272922230298827 0 4.5516685113141084e-07 -0.021809983175195453 0 -0.00011951162988032599 -0.019267415609407666 0 -3.6057996896488329e-07 -0.019889472437363831 0 -7.5836609463054701e-05 -0.020272922230298827 0 -7.5836609463054701e-05 -0.020272922230298827 0 4.5516685113141084e-07 -0.021809983175195453 0 0.00014633147531162231 -0.021050364822818891 0 0.00014633147531162231 -0.021050364822818891 0 -2.3841705504301119e-05 -0.020158524189577073 0 0.00054182117831031286 -0.020399246848142271 0 -7.5836609463054701e-05 -0.020272922230298827 0 0.00014633147531162231 -0.021050364822818891 0 -2.3841705504301119e-05 -0.020158524189577073 0 -2.3841705504301119e-05 -0.020158524189577073 0 0.00025263276962776449 -0.019936213318959714 0 0.00054182117831031286 -0.020399246848142271 0 0.00025263276962776449 -0.019936213318959714 0 0.00017908655062764207 -0.019616263646313203 0 0.0004