<?xml version="1.0"?>
<VTKFile type="UnstructuredGrid" version="0.1" byte_order="LittleEndian">
<UnstructuredGrid>
<Piece NumberOfPoints="31898" NumberOfCells="11152">
<Points>
<DataArray type="Float64" NumberOfComponents="3" format="ascii">
-0.5 -0.5 0 -0.47620991077874902 -0.44978878706170539 0 -0.49999999999999473 -0.42132396840504388 0 -0.5 -0.5 0 -0.47160970827802529 -0.4793630013852106 0 -0.47620991077874902 -0.44978878706170539 0 -0.5 -0.5 0 -0.47160970827802529 -0.4793630013852106 0 -0.44860394795025399 -0.5 0 -0.47160970827802529 -0.4793630013852106 0 -0.44860394795025399 -0.5 0 -0.4490820238307246 -0.45820516232899983 0 -0.44860394795025399 -0.5 0 -0.4490820238307246 -0.45820516232899983 0 -0.42881687682924802 -0.47781464288736519 0 -0.4490820238307246 -0.45820516232899983 0 -0.45555437223955858 -0.42914059360647611 0 -0.4490820238307246 -0.45820516232899983 0 -0.45555437223955858 -0.42914059360647611 0 -0.43867285131603428 -0.4271457417558665 0 -0.4490820238307246 -0.45820516232899983 0 -0.43867285131603428 -0.4271457417558665 0 -0.4263356171060747 -0.44269880333887462 0 -0.47160970827802529 -0.4793630013852106 0 -0.4490820238307246 -0.45820516232899983 0 -0.47620991077874902 -0.44978878706170539 0 -0.4490820238307246 -0.45820516232899983 0 -0.47620991077874902 -0.44978878706170539 0 -0.45555437223955858 -0.42914059360647611 0 -0.47620991077874902 -0.44978878706170539 0 -0.48101336032419229 -0.41069999664450008 0 -0.45555437223955858 -0.42914059360647611 0 -0.47620991077874902 -0.44978878706170539 0 -0.49999999999999473 -0.42132396840504388 0 -0.48101336032419229 -0.41069999664450008 0 -0.49999999999999473 -0.42132396840504388 0 -0.48101336032419229 -0.41069999664450008 0 -0.5 -0.393886241813306 0 -0.49999999999999473 -0.42132396840504388 0 -0.48101336032419229 -0.41069999664450008 0 -0.5 -0.393886241813306 0 -0.47854472220918332 -0.38978458738689759 0 -0.48422759779560409 -0.37130120630367158 0 -0.5 -0.393886241813306 0 -0.5 -0.36644851522156802 0 -0.48422759779560409 -0.37130120630367158 0 -0.48101336032419229 -0.41069999664450008 0 -0.5 -0.393886241813306 0 -0.47854472220918332 -0.38978458738689759 0 -0.48101336032419229 -0.41069999664450008 0 -0.47854472220918332 -0.38978458738689759 0 -0.46202672064839212 -0.40007602488395211 0 -0.48101336032419229 -0.41069999664450008 0 -0.46202672064839212 -0.40007602488395211 0 -0.47854472220918332 -0.38978458738689759 0 -0.46725442735267431 -0.37660061361585562 0 -0.46202672064839212 -0.40007602488395211 0 -0.47854472220918332 -0.38978458738689759 0 -0.46725442735267431 -0.37660061361585562 0 -0.48422759779560409 -0.37130120630367158 0 -0.46725442735267431 -0.37660061361585562 0 -0.46202672064839212 -0.40007602488395211 0 -0.46725442735267431 -0.37660061361585562 0 -0.45645674801697989 -0.38644133236760531 0 -0.46202672064839212 -0.40007602488395211 0 -0.46725442735267431 -0.37660061361585562 0 -0.45645674801697989 -0.38644133236760531 0 -0.4540003998136638 -0.37455519391687309 0 -0.45645674801697989 -0.38644133236760531 0 -0.46202672064839212 -0.40007602488395211 0 -0.44257020456291563 -0.38918913383950271 0 -0.46202672064839212 -0.40007602488395211 0 -0.44257020456291563 -0.38918913383950271 0 -0.44727608925983742 -0.41095911152778891 0 -0.46202672064839212 -0.40007602488395211 0 -0.44257020456291563 -0.38918913383950271 0 -0.44257020456291563 -0.38918913383950271 0 -0.44727608925983742 -0.41095911152778891 0 -0.43479358559901082 -0.4041454901736512 0 -0.44257020456291563 -0.38918913383950271 0 -0.4540003998136638 -0.37455519391687309 0 -0.44172858264042247 -0.37082207246888088 0 -0.45645674801697989 -0.38644133236760531 0 -0.44257020456291563 -0.38918913383950271 0 -0.4540003998136638 -0.37455519391687309 0 -0.46202672064839212 -0.40007602488395211 0 -0.45555437223955858 -0.42914059360647611 0 -0.44727608925983742 -0.41095911152778891 0 -0.46202672064839212 -0.40007602488395211 0 -0.45555437223955858 -0.42914059360647611 0 -0.48101336032419229 -0.41069999664450008 0 -0.46202672064839212 -0.40007602488395211 0 -0.45555437223955858 -0.42914059360647611 0 -0.44727608925983742 -0.41095911152778891 0 -0.43867285131603428 -0.4271457417558665 0 -0.43676601469929588 -0.41441201227470881 0 -0.44727608925983742 -0.41095911152778891 0 -0.43676601469929588 -0.41441201227470881 0 -0.43479358559901082 -0.4041454901736512 0 -0.45555437223955858 -0.42914059360647611 0 -0.44727608925983742 -0.41095911152778891 0 -0.43867285131603428 -0.4271457417558665 0 -0.43867285131603428 -0.4271457417558665 0 -0.42681803064840879 -0.42717069814352421 0 -0.4263356171060747 -0.44269880333887462 0 -0.42681803064840879 -0.42717069814352421 0 -0.41531815884496182 -0.42985383783075998 0 -0.4263356171060747 -0.44269880333887462 0 -0.42681803064840879 -0.42717069814352421 0 -0.42624289495594048 -0.42089725947505818 0 -0.42083332353326591 -0.42146747131641099 0 -0.42681803064840879 -0.42717069814352421 0 -0.43096994786351572 -0.41951492446283251 0 -0.42624289495594048 -0.42089725947505818 0 -0.43867285131603428 -0.4271457417558665 0 -0.42681803064840879 -0.42717069814352421 0 -0.43096994786351572 -0.41951492446283251 0 -0.43867285131603428 -0.4271457417558665 0 -0.43676601469929588 -0.41441201227470881 0 -0.43096994786351572 -0.41951492446283251 0 -0.43676601469929588 -0.41441201227470881 0 -0.43096994786351572 -0.41951492446283251 0 -0.42907264086257813 -0.41311715872526122 0 -0.43676601469929588 -0.41441201227470881 0 -0.42907264086257813 -0.41311715872526122 0 -0.43479358559901082 -0.4041454901736512 0 -0.42907264086257813 -0.41311715872526122 0 -0.43479358559901082 -0.4041454901736512 0 -0.42460885511582858 -0.40417321677700252 0 -0.42907264086257813 -0.41311715872526122 0 -0.41997834854398469 -0.41180534796019508 0 -0.42907264086257813 -0.41311715872526122 0 -0.42635027777857132 -0.41543594397746519 0 -0.41997834854398469 -0.41180534796019508 0 -0.42907264086257813 -0.41311715872526122 0 -0.41997834854398469 -0.41180534796019508 0 -0.42460885511582858 -0.40417321677700252 0 -0.42635027777857132 -0.41543594397746519 0 -0.41997834854398469 -0.41180534796019508 0 -0.42635027777857132 -0.41543594397746519 0 -0.42083332353326591 -0.42146747131641099 0 -0.41997834854398469 -0.41180534796019508 0 -0.43096994786351572 -0.41951492446283251 0 -0.42624289495594048 -0.42089725947505818 0 -0.42635027777857132 -0.41543594397746519 0 -0.43096994786351572 -0.41951492446283251 0 -0.42907264086257813 -0.41311715872526122 0 -0.42635027777857132 -0.41543594397746519 0 -0.42624289495594048 -0.42089725947505818 0 -0.42635027777857132 -0.41543594397746519 0 -0.42083332353326591 -0.42146747131641099 0 -0.42083332353326591 -0.42146747131641099 0 -0.41997834854398469 -0.41180534796019508 0 -0.40992282953163789 -0.42011435591993562 0 -0.41997834854398469 -0.41180534796019508 0 -0.39756877647335259 -0.40857286797681719 0 -0.41997834854398469 -0.41180534796019508 0 -0.40992282953163789 -0.42011435591993562 0 -0.39756877647335259 -0.40857286797681719 0 -0.40992282953163789 -0.42011435591993562 0 -0.41531815884496182 -0.42985383783075998 0 -0.39591554026262499 -0.42887225451549271 0 -0.41531815884496182 -0.42985383783075998 0 -0.39591554026262499 -0.42887225451549271 0 -0.41160927495564159 -0.44339431233754628 0 -0.42083332353326591 -0.42146747131641099 0 -0.40992282953163789 -0.42011435591993562 0 -0.41531815884496182 -0.42985383783075998 0 -0.42681803064840879 -0.42717069814352421 0 -0.42083332353326591 -0.42146747131641099 0 -0.41531815884496182 -0.42985383783075998 0 -0.44257020456291563 -0.38918913383950271 0 -0.42311368847744002 -0.37830224279505142 0 -0.42594061475171041 -0.39368797999533162 0 -0.44257020456291563 -0.38918913383950271 0 -0.42311368847744002 -0.37830224279505142 0 -0.44172858264042247 -0.37082207246888088 0 -0.44257020456291563 -0.38918913383950271 0 -0.42311368847744002 -0.37830224279505142 0 -0.42311368847744002 -0.37830224279505142 0 -0.42594061475171041 -0.39368797999533162 0 -0.416587075656149 -0.38785930376960043 0 -0.44257020456291563 -0.38918913383950271 0 -0.42594061475171041 -0.39368797999533162 0 -0.43479358559901082 -0.4041454901736512 0 -0.42594061475171041 -0.39368797999533162 0 -0.43479358559901082 -0.4041454901736512 0 -0.42460885511582858 -0.40417321677700252 0 -0.41997834854398469 -0.41180534796019508 0 -0.41325908582185972 -0.39811010703057192 0 -0.39770572831670092 -0.39911486077581648 0 -0.41997834854398469 -0.41180534796019508 0 -0.39770572831670092 -0.39911486077581648 0 -0.42594061475171041 -0.39368797999533162 0 -0.42460885511582858 -0.40417321677700252 0 -0.41325908582185972 -0.39811010703057192 0 -0.41997834854398469 -0.41180534796019508 0 -0.42460885511582858 -0.40417321677700252 0 -0.41325908582185972 -0.39811010703057192 0 -0.42594061475171041 -0.39368797999533162 0 -0.41325908582185972 -0.39811010703057192 0 -0.416587075656149 -0.38785930376960043 0 -0.41325908582185972 -0.39811010703057192 0 -0.416587075656149 -0.38785930376960043 0 -0.40403491357358612 -0.38133688525744702 0 -0.42311368847744002 -0.37830224279505142 0 -0.40403491357358612 -0.38133688525744702 0 -0.40365717239196519 -0.36741535175059892 0 -0.42311368847744002 -0.37830224279505142 0 -0.416587075656149 -0.38785930376960043 0 -0.40403491357358612 -0.38133688525744702 0 -0.40403491357358612 -0.38133688525744702 0 -0.39190790742475001 -0.38540387676521748 0 -0.39770572831670092 -0.39911486077581648 0 -0.40403491357358612 -0.38133688525744702 0 -0.39190790742475001 -0.38540387676521748 0 -0.3904578797192948 -0.37473938743617019 0 -0.41325908582185972 -0.39811010703057192 0 -0.40403491357358612 -0.38133688525744702 0 -0.39770572831670092 -0.39911486077581648 0 -0.39770572831670092 -0.39911486077581648 0 -0.37543310808941849 -0.38642437359143528 0 -0.39770572831670092 -0.39911486077581648 0 -0.37515920440272033 -0.40534038799344108 0 -0.37543310808941849 -0.38642437359143528 0 -0.39770572831670092 -0.39911486077581648 0 -0.37515920440272033 -0.40534038799344108 0 -0.39756877647335259 -0.40857286797681719
[...]
<PointData Scalars="" Vectors="displacement," Tensors="">
<DataArray type="Float64" Name="displacement" NumberOfComponents="3" format="ascii">
-0.034997452465743636 -0.034998022786080156 0 -0.032624247124374499 -0.034367062935289648 0 -0.029503290178073339 -0.034995323420137274 0 -0.034997452465743636 -0.034998022786080156 0 -0.034433463640039401 -0.033714674413517928 0 -0.032624247124374499 -0.034367062935289648 0 -0.034997452465743636 -0.034998022786080156 0 -0.034433463640039401 -0.033714674413517928 0 -0.034998037326118531 -0.031405267499594484 0 -0.034433463640039401 -0.033714674413517928 0 -0.034998037326118531 -0.031405267499594484 0 -0.034632574582107993 -0.033200778779669357 0 -0.034998037326118531 -0.031405267499594484 0 -0.034632574582107993 -0.033200778779669357 0 -0.035101631361409882 -0.030761198953285458 0 -0.033883806275030411 -0.034122851915563093 0 -0.033718362793862901 -0.034393586459037714 0 -0.034632574582107993 -0.033200778779669357 0 -0.037485843236505001 -0.033406021633499629 0 -0.037712885020655923 -0.032006430840754434 0 -0.034632574582107993 -0.033200778779669357 0 -0.037712885020655923 -0.032006430840754434 0 -0.036534447775763111 -0.030908515882788031 0 -0.034433463640039401 -0.033714674413517928 0 -0.034632574582107993 -0.033200778779669357 0 -0.032624247124374499 -0.034367062935289648 0 -0.034632574582107993 -0.033200778779669357 0 -0.032624247124374499 -0.034367062935289648 0 -0.031849000735709031 -0.034955579017882182 0 -0.032624247124374499 -0.034367062935289648 0 -0.030376273656674124 -0.034616613216712916 0 -0.031849000735709031 -0.034955579017882182 0 -0.032624247124374499 -0.034367062935289648 0 -0.029503290178073339 -0.034995323420137274 0 -0.030376273656674124 -0.034616613216712916 0 -0.029492666013818065 -0.034999994858747475 0 -0.02874767251391052 -0.03631796002608477 0 -0.027572042727366262 -0.034999992915039684 0 -0.029493614735297571 -0.035000395097834459 0 -0.029925383241868147 -0.035149605699104268 0 -0.027572042727366262 -0.034999992915039684 0 -0.027288099532590794 -0.036488982427095182 0 -0.0259938070597324 -0.036095064311860318 0 -0.027572042727366262 -0.034999992915039684 0 -0.025651399375659707 -0.034999991927351461 0 -0.0259938070597324 -0.036095064311860318 0 -0.02874767251391052 -0.03631796002608477 0 -0.027572042727366262 -0.034999992915039684 0 -0.027288099532590794 -0.036488982427095182 0 -0.02874767251391052 -0.03631796002608477 0 -0.027288099532590794 -0.036488982427095182 0 -0.028009962816130139 -0.037631658550713404 0 -0.029925383241868147 -0.035149605699104268 0 -0.030881247705041765 -0.034527299293834045 0 -0.027288099532590794 -0.036488982427095182 0 -0.026367382926831297 -0.037273959653900422 0 -0.028009962816130139 -0.037631658550713404 0 -0.027288099532590794 -0.036488982427095182 0 -0.026367382926831297 -0.037273959653900422 0 -0.0259938070597324 -0.036095064311860318 0 -0.026521809032027388 -0.035422800415352881 0 -0.030881247705041765 -0.034527299293834045 0 -0.024298286590889485 -0.036938169524100888 0 -0.024182328658353063 -0.03686610714807291 0 -0.024073964910787154 -0.036914050493757254 0 -0.024298286590889485 -0.036938169524100888 0 -0.024182328658353063 -0.03686610714807291 0 -0.024244729302904628 -0.036870029569239827 0 -0.024182328658353063 -0.03686610714807291 0 -0.024073964910787154 -0.036914050493757254 0 -0.024131670615183936 -0.036741630663230739 0 -0.039378858732202239 -0.033496097793378997 0 -0.039877927368638384 -0.032233556867199045 0 -0.038733130379297875 -0.032609255614872656 0 -0.030881247705041765 -0.034527299293834045 0 -0.031092427489422064 -0.033933523406655453 0 -0.039877927368638384 -0.032233556867199045 0 -0.038733130379297875 -0.032609255614872656 0 -0.039106012384116914 -0.031798422099699304 0 -0.024131670615183936 -0.036741630663230739 0 -0.024244729302904628 -0.036870029569239827 0 -0.024263653609969682 -0.036734314928804433 0 -0.024182328658353063 -0.03686610714807291 0 -0.024131670615183936 -0.036741630663230739 0 -0.024244729302904628 -0.036870029569239827 0 -0.039378858732202239 -0.033496097793378997 0 -0.037485843236505001 -0.033406021633499629 0 -0.038733130379297875 -0.032609255614872656 0 -0.030881247705041765 -0.034527299293834045 0 -0.033718362793862901 -0.034393586459037714 0 -0.030376273656674124 -0.034616613216712916 0 -0.030230337057852486 -0.035129398246642636 0 -0.031849000735709031 -0.034955579017882182 0 -0.038733130379297875 -0.032609255614872656 0 -0.037712885020655923 -0.032006430840754434 0 -0.038544838263605552 -0.031897843193632924 0 -0.038733130379297875 -0.032609255614872656 0 -0.038544838263605552 -0.031897843193632924 0 -0.039106012384116914 -0.031798422099699304 0 -0.037485843236505001 -0.033406021633499629 0 -0.038733130379297875 -0.032609255614872656 0 -0.037712885020655923 -0.032006430840754434 0 -0.037712885020655923 -0.032006430840754434 0 -0.037678059230486186 -0.031079556521049281 0 -0.036534447775763111 -0.030908515882788031 0 -0.037678059230486186 -0.031079556521049281 0 -0.037478462080513912 -0.030200995028863815 0 -0.036534447775763111 -0.030908515882788031 0 -0.037678059230486186 -0.031079556521049281 0 -0.038122339783459691 -0.031083214362905905 0 -0.038077957247107407 -0.03065051238157513 0 -0.037678059230486186 -0.031079556521049281 0 -0.03822346456382214 -0.031467799694779384 0 -0.038122339783459691 -0.031083214362905905 0 -0.037712885020655923 -0.032006430840754434 0 -0.037678059230486186 -0.031079556521049281 0 -0.03822346456382214 -0.031467799694779384 0 -0.037712885020655923 -0.032006430840754434 0 -0.038544838263605552 -0.031897843193632924 0 -0.03822346456382214 -0.031467799694779384 0 -0.038544838263605552 -0.031897843193632924 0 -0.03822346456382214 -0.031467799694779384 0 -0.038679768005926846 -0.031406669786881475 0 -0.038544838263605552 -0.031897843193632924 0 -0.038679768005926846 -0.031406669786881475 0 -0.039106012384116914 -0.031798422099699304 0 -0.038679768005926846 -0.031406669786881475 0 -0.039106012384116914 -0.031798422099699304 0 -0.039094776021168939 -0.031286287631294971 0 -0.037393351072315235 -0.029438141097308534 0 -0.037371863102696648 -0.029210845052911997 0 -0.038679768005926846 -0.031406669786881475 0 -0.038510420883204492 -0.031134719721841668 0 -0.038855762449801212 -0.030544152921927827 0 -0.038679768005926846 -0.031406669786881475 0 -0.038786592631091778 -0.031085522180812845 0 -0.039094776021168939 -0.031286287631294971 0 -0.037370878258196828 -0.029295687990701345 0 -0.037371863102696648 -0.029210845052911997 0 -0.038510420883204492 -0.031134719721841668 0 -0.038077957247107407 -0.03065051238157513 0 -0.038802752166205899 -0.030586517216978137 0 -0.03822346456382214 -0.031467799694779384 0 -0.038122339783459691 -0.031083214362905905 0 -0.038510420883204492 -0.031134719721841668 0 -0.03822346456382214 -0.031467799694779384 0 -0.038679768005926846 -0.031406669786881475 0 -0.038510420883204492 -0.031134719721841668 0 -0.038122339783459691 -0.031083214362905905 0 -0.038510420883204492 -0.031134719721841668 0 -0.038077957247107407 -0.03065051238157513 0 -0.038077957247107407 -0.03065051238157513 0 -0.038802752166205899 -0.030586517216978137 0 -0.038180870205525047 -0.029828815063498937 0 -0.037371863102696648 -0.029210845052911997 0 -0.037621558449096357 -0.027966149657530501 0 -0.038802752166205899 -0.030586517216978137 0 -0.038180870205525047 -0.029828815063498937 0 -0.039005047516079638 -0.028933605400164226 0 -0.038180870205525047 -0.029828815063498937 0 -0.037478462080513912 -0.030200995028863815 0 -0.037562353636169922 -0.028819978689599391 0 -0.037478462080513912 -0.030200995028863815 0 -0.037562353636169922 -0.028819978689599391 0 -0.036553946266101658 -0.029906775312460769 0 -0.038077957247107407 -0.03065051238157513 0 -0.038180870205525047 -0.029828815063498937 0 -0.037478462080513912 -0.030200995028863815 0 -0.037678059230486186 -0.031079556521049281 0 -0.038077957247107407 -0.03065051238157513 0 -0.037478462080513912 -0.030200995028863815 0 -0.039877927368638384 -0.032233556867199045 0 -0.040149896263876578 -0.031245471235948969 0 -0.039559837556064077 -0.031373647300422081 0 -0.024131670615183936 -0.036741630663230739 0 -0.024189194503568063 -0.03650663514319534 0 -0.024263653609969682 -0.036734314928804433 0 -0.031092427489422064 -0.033933523406655453 0 -0.031024855103215333 -0.032914406955714924 0 -0.040149896263876578 -0.031245471235948969 0 -0.039559837556064077 -0.031373647300422081 0 -0.039750761363902334 -0.030980627327856957 0 -0.039877927368638384 -0.032233556867199045 0 -0.039559837556064077 -0.031373647300422081 0 -0.039106012384116914 -0.031798422099699304 0 -0.039559837556064077 -0.031373647300422081 0 -0.039106012384116914 -0.031798422099699304 0 -0.039094776021168939 -0.031286287631294971 0 -0.038786592631091778 -0.031085522180812845 0 -0.039352434391645749 -0.030839722853619786 0 -0.03933747326091501 -0.030275250510162385 0 -0.037371863102696648 -0.029210845052911997 0 -0.037093966547272428 -0.028089861313434134 0 -0.039559837556064077 -0.031373647300422081 0 -0.039094776021168939 -0.031286287631294971 0 -0.039352434391645749 -0.030839722853619786 0 -0.038786592631091778 -0.031085522180812845 0 -0.039094776021168939 -0.031286287631294971 0 -0.039352434391645749 -0.030839722853619786 0 -0.039559837556064077 -0.031373647300422081 0 -0.039352434391645749 -0.030839722853619786 0 -0.039750761363902334 -0.030980627327856957 0 -0.039352434391645749 -0.030839722853619786 0 -0.039750761363902334 -0.030980627327856957 0 -0.039935566069414334 -0.03048082659650625 0 -0.040149896263876578 -0.031245471235948969 0 -0.039935566069414334 -0.03048082659650625 0 -0.040473300808204403 -0.030469180951251895 0 -0.040149896263876578 -0.031245471235948969 0 -0.039750761363902334 -0.030980627327856957 0 -0.039935566069414334 -0.03048082659650625 0 -0.039935566069414334 -0.03048082659650625 0 -0.03977023849183 -0.030121240301374981 0 -0.03933747326091501 -0.030275250510162385 0 -0.039935566069414334 -0.03048082659650625 0 -0.03977023849183 -0.030121240301374981 0 -0.04005480032432248 -0.030087656392653754 0 -0.039352434391645749 -0.030839722853619786 0 -0.039935566069414334 -0.03048082659650625 0 -0.03933747326091501 -0.030275250510162385 0 -0.037093966547272428 -0.028089861313434134 0 -0.03625169528926768 -0.026183832326747748 0 -0.037420392149434663 -0.027567036039200167 0 -0.037129821459637696 -0.026514561386936145 0 -0.038005587911773608 -0.026526362546539197 0 -0.037420392149434663 -0.027567036039200167 0 -0.037129821459637696 -0.026514561386936145 0 -0.036980366138829344 -0.027561426318185308 0 -0.037768993412833365 -0.026166276413669268 0 -0.03625169528926768 -0.026183832326747748 0 -0.039739291673839376 -0.02966630471253439 0 -0.04005480032432248 -0.030087656392653754 0 -0.04017781475059698 -0.029702252765842183 0 -0.03977023849183 -0.030121240301374981 0 -0.039739291673839376 -0.02966630471253439 0 -0.04005480032432248 -0.030087656392653754 0 -0.03625169528926768 -0.026183832326747748 0 -0.034284857138603485 -0.026849478980933875 0 -0.03977023849183 -0.030121240301374981 0 -0.03933747326091501 -0.030275250510162385 0 -0.039739291673839376 -0.02966630471253439 0 -0.036833045653231783 -0.028613487441512306 0 -0.037420392149434663 -0.027567036039200167 0 -0.036980366138829344 -0.027561426318185308 0 -0.038180870205525047 -0.029828815063498937 0 -0.037562353636169922 -0.028819978689599391 0 -0.039005047516079638 -0.028933605400164226 0 -0.03922413305448038 -0.027351704978957031 0 -0.037562353636169922 -0.028819978689599391 0 -0.039005047516079638 -0.028933605400164226 0 -0.037768993412833365 -0.026166276413669268 0 -0.037621558449096357 -0.027966149657530501 0 -0.03922413305448038 -0.027351704978957031 0 -0.037562353636169922 -0.028819978689599391 0 -0.037105173714114016 -0.027333743495673239 0 -0.037562353636169922 -0.028819978689599391 0 -0.036335063751752342 -0.028611849508206583 0 -0.037105173714114016 -0.027333743495673239 0 -0.036335063751752342 -0.028611849508206583 0 -0.035018508873439116 -0.02730752071930969 0 -0.037105173714114016 -0.027333743495673239 0 -0.037562353636169922 -0.028819978689599391 0 -0.036335063751752342 -0.028611849508206583 0 -0.036553946266101658 -0.029906775312460769 0 -0.036335063751752342 -0.028611849508206583 0 -0.035574680792198277 -0.029370596136485981 0 -0.036553946266101658 -0.029906775312460769 0 -0.035995864677045346 -0.029371377407240225 0 -0.035588008863193181 -0.028192205651941544 0 -0.035556258587264897 -0.029652104879740349 0 -0.037883655237145764 -0.028196132949083252 0 -0.03761650211239953 -0.027203938789514808 0 -0.036460914283755023 -0.027432748247992019 0 -0.036649325414828939 -0.027877327749506717 0 -0.03586748450596821 -0.02737871413398927 0 -0.036649325414828939 -0.027877327749506717 0 -0.036650158284526752 -0.027891561823511424 0 -0.036649325414828939 -0.027877327749506717 0 -0.036643234281921608 -0.027323646862107774 0 -0.036335063751752342 -0.028611849508206583 0 -0.035574680792198277 -0.029370596136485981 0 -0.035296732078187967 -0.02833916581026431 0 -0.036335063751752342 -0.028611849508206583 0 -0.035296732078187967 -0.02833916581026431 0 -0.035018508873439116 -0.02730752071930969 0 -0.036643234281921608 -0.027323646862107774 0 -0.036606521895172897 -0.026435641986122464 0 -0.03761650211239953 -0.027203938789514808 0 -0.036943974421170617 -0.02684358733347211 0 -0.03734892397899655 -0.026202554472385869 0 -0.036943974421170617 -0.02684358733347211 0 -0.036460914283755023 -0.027432748247992019 0 -0.036559443025332136 -0.026185416007106083 0 -0.036460914283755023 -0.027432748247992019 0 -0.035707654174830496 -0.026067149874347294 0 -0.036559443025332136 -0.026185416007106083 0 -0.036943974421170617 -0.02684358733347211 0 -0.036559443025332136 -0.026185416007106083 0 -0.03734892397899655 -0.026202554472385869 0 -0.03761650211239953 -0.027203938789514808 0 -0.036943974421170617 -0.02684358733347211 0 -0.036460914283755023 -0.027432748247992019 0 -0.035000627385134729 -0.026667194336643461 0 -0.03586748450596821 -0.02737871413398927 0 -0.035000003637226787 -0.026666249090466079 0 -0.036460914283755023 -0.027432748247992019 0 -0.035707654174830496 -0.026067149874347294 0 -0.034999878334605647 -0.026667512378041637 0 -0.035588008863193181 -0.028192205651941544 0 -0.034999128515754249 -0.028699113017258082 0 -0.035588008863193181 -0.028192205651941544 0 -0.035556258587264897 -0.029652104879740349 0 -0.034999128515754249 -0.028699113017258082 0 -0.035556258587264897 -0.029652104879740349 0 -0.034999128515754249 -0.028699113017258082 0 -0.035101631361409882 -0.030761198953285458 0 -0.034998037326118531 -0.031405267499594484 0 -0.034999128515754249 -0.028699113017258082 0 -0.035101631361409882 -0.030761198953285458 0 -0.035556258587264897 -0.029652104879740349 0 -0.035101631361409882 -0.030761198953285458 0 -0.035477453392610214 -0.030850475774928821 0 -0.034632574582107993 -0.033200778779669357 0 -0.035101631361409882 -0.030761198953285458 0 -0.035477453392610214 -0.030850475774928821 0 -0.034632574582107993 -0.033200778779669357 0 -0.035477453392610214 -0.030850475774928821 0 -0.036534447775763111 -0.030908515882788031 0 -0.035477453392610214 -0.030850475774928821 0 -0.036534447775763111 -0.030908515882788031 0 -0.035987720211512204 -0.030143552085579794 0 -0.036534447775763111 -0.030908515882788031 0 -0.036553946266101658 -0.029906775312460769 0 -0.035987720211512204 -0.030143552085579794 0 -0.037478462080513912 -0.030200995028863815 0 -0.036534447775763111 -0.030908515882788031 0 -0.036553946266101658 -0.029906775312460769 0 -0.035959308367022109 -0.029383133539941805 0 -0.036553946266101658 -0.029906775312460769 0 -0.035985139028504406 -0.029517988242809469 0 -0.036553946266101658 -0.029906775312460769 0 -0.035985139028504406 -0.029517988242809469 0 -0.035987720211512204 -0.030143552085579794 0 -0.036649325414828939 -0.027877327749506717 0 -0.036709141909108088 -0.028107258590634347 0 -0.035556258587264897 -0.029652104879740349 0 -0.035985139028504406 -0.029517988242809469 0 -0.035987720211512204 -0.030143552085579794 0 -0.035995864677045346 -0.029371377407240225 0 -0.035556258587264897 -0.029652104879740349 0 -0.035985139028504406 -0.029517988242809469 0 -0.035556258587264897 -0.029652104879740349 0 -0.035477453392610214 -0.030850475774928821 0 -0.035987720211512204 -0.030143552085579794 0 -0.015057485662405517 -0.036650274251730376 0 -0.013533560407983364 -0.034764706567075178 0 -0.017577430131095483 -0.037674813604445002 0 -0.017479963519477667 -0.039709831326312402 0 -0.016396307574083575 -0.038149047107117362 0 -0.019229267397384696 -0.038235243840318192 0 -0.017913923035707661 -0.037802507415987202 0 -0.017802864763918323 -0.039276921860754682 0 -0.019229267397384696 -0.038235243840318192 0 -0.019156889511817727 -0.039518618343219979 0 -0.017802864763918323 -0.039276921860754682 0 -0.019229267397384696 -0.038235243840318192 0 -0.020427816040306638 -0.03878720940692152 0 -0.019156889511817727 -0.039518618343219979 0 -0.019229267397384696 -0.038235243840318192 0 -0.018727134839562662 -0.037098499703810003 0 -0.019773042611925119 -0.036969745306068981 0 -0.019229267397384696 -0.038235243840318192 0 -0.018727134839562662 -0.037098499703810003 0 -0.017913923035707661 -0.037802507415987202 0 -0.015057485662405517 -0.036650274251730376 0 -0.015556513113836708 -0.036572836624527962 0 -0.018727134839562662 -0.037098499703810003 0 -0.017913923035707661 -0.037802507415987202 0 -0.017932095832117273 -0.036251031165490895 0 -0.017577430131095483 -0.037674813604445002 0 -0.017932095832117273 -0.036251031165490895 0 -0.016172754060853355 -0.036589855308909382 0 -0.017932095832117273 -0.036251031165490895 0 -0.017968633276167587 -0.034999667974104573 0 -0.019146222586131446 -0.036002845864572496 0 -0.017932095832117273 -0.036251031165490895 0 -0.017968633276167587 -0.034999667974104573 0 -0.016800433517371691 -0.035659829626486061 0 -0.017968633276167587 -0.034999667974104573 0 -0.019146222586131446 -0.036002845864572496 0 -0.019889422093497602 -0.034999942956885299 0 -0.018727134839562662 -0.037098499703810003 0 -0.017932095832117273 -0.036251031165490895 0 -0.019146222586131446 -0.036002845864572496 0 -0.018727134839562662 -0.037098499703810003 0 -0.019146222586131446 -0.036002845864572496 0 -0.019773042611925119 -0.036969745306068981 0 -0.019773042611925119 -0.036969745306068981 0 -0.020403345437787743 -0.03590254057944417 0 -0.020844183304734656 -0.036807444656212135 0 -0.019146222586131446 -0.036002845864572496 0 -0.019773042611925119 -0.036969745306068981 0 -0.020403345437787743 -0.03590254057944417 0 -0.019889422093497602 -0.034999942956885299 0 -0.020403345437787743 -0.03590254057944417 0 -0.021810022248354679 -0.03499993266373351 0 -0.019146222586131446 -0.036002845864572496 0 -0.019889422093497602 -0.034999942956885299 0 -0.020403345437787743 -0.03590254057944417 0 -0.020403345437787743 -0.03590254057944417 0 -0.021810022248354679 -0.03499993266373351 0 -0.021385217251714252 -0.036109261774380459 0 -0.021385217251714252 -0.036109261774380459 0 -0.020844183304734656 -0.036807444656212135 0 -0.021944771632605307 -0.036760212465637432 0 -0.020403345437787743 -0.03590254057944417 0 -0.021385217251714252 -0.036109261774380459 0 -0.020844183304734656 -0.036807444656212135 0 -0.020844183304734656 -0.036807444656212135 0 -0.021383687056732093 -0.037473492896785338 0 -0.021944771632605307 -0.036760212465637432 0 -0.021383687056732093 -0.037473492896785338 0 -0.021164610618503242 -0.038370070346964345 0 -0.021867654528822351 -0.038020009523815818 0 -0.021383687056732093 -0.037473492896785338 0 -0.020449497904602626 -0.037767304954521734 0 -0.021164610618503242 -0.038370070346964345 0 -0.020844183304734656 -0.036807444656212135 0 -0.021383687056732093 -0.037473492896785338 0 -0.020449497904602626 -0.037767304954521734 0 -0.019229267397384696 -0.038235243840318192 0 -0.019773042611925119 -0.036969745306068981 0 -0.020449497904602626 -0.037767304954521734 0 -0.019773042611925119 -0.0369697