<?xml version="1.0"?>
<VTKFile type="UnstructuredGrid" version="0.1" byte_order="LittleEndian">
<UnstructuredGrid>
<Piece NumberOfPoints="31898" NumberOfCells="11152">
<Points>
<DataArray type="Float64" NumberOfComponents="3" format="ascii">
-0.5 -0.5 0 -0.47620991077874902 -0.44978878706170539 0 -0.49999999999999473 -0.42132396840504388 0 -0.5 -0.5 0 -0.47160970827802529 -0.4793630013852106 0 -0.47620991077874902 -0.44978878706170539 0 -0.5 -0.5 0 -0.47160970827802529 -0.4793630013852106 0 -0.44860394795025399 -0.5 0 -0.47160970827802529 -0.4793630013852106 0 -0.44860394795025399 -0.5 0 -0.4490820238307246 -0.45820516232899983 0 -0.44860394795025399 -0.5 0 -0.4490820238307246 -0.45820516232899983 0 -0.42881687682924802 -0.47781464288736519 0 -0.4490820238307246 -0.45820516232899983 0 -0.45555437223955858 -0.42914059360647611 0 -0.4490820238307246 -0.45820516232899983 0 -0.45555437223955858 -0.42914059360647611 0 -0.43867285131603428 -0.4271457417558665 0 -0.4490820238307246 -0.45820516232899983 0 -0.43867285131603428 -0.4271457417558665 0 -0.4263356171060747 -0.44269880333887462 0 -0.47160970827802529 -0.4793630013852106 0 -0.4490820238307246 -0.45820516232899983 0 -0.47620991077874902 -0.44978878706170539 0 -0.4490820238307246 -0.45820516232899983 0 -0.47620991077874902 -0.44978878706170539 0 -0.45555437223955858 -0.42914059360647611 0 -0.47620991077874902 -0.44978878706170539 0 -0.48101336032419229 -0.41069999664450008 0 -0.45555437223955858 -0.42914059360647611 0 -0.47620991077874902 -0.44978878706170539 0 -0.49999999999999473 -0.42132396840504388 0 -0.48101336032419229 -0.41069999664450008 0 -0.49999999999999473 -0.42132396840504388 0 -0.48101336032419229 -0.41069999664450008 0 -0.5 -0.393886241813306 0 -0.49999999999999473 -0.42132396840504388 0 -0.48101336032419229 -0.41069999664450008 0 -0.5 -0.393886241813306 0 -0.47854472220918332 -0.38978458738689759 0 -0.48422759779560409 -0.37130120630367158 0 -0.5 -0.393886241813306 0 -0.5 -0.36644851522156802 0 -0.48422759779560409 -0.37130120630367158 0 -0.48101336032419229 -0.41069999664450008 0 -0.5 -0.393886241813306 0 -0.47854472220918332 -0.38978458738689759 0 -0.48101336032419229 -0.41069999664450008 0 -0.47854472220918332 -0.38978458738689759 0 -0.46202672064839212 -0.40007602488395211 0 -0.48101336032419229 -0.41069999664450008 0 -0.46202672064839212 -0.40007602488395211 0 -0.47854472220918332 -0.38978458738689759 0 -0.46725442735267431 -0.37660061361585562 0 -0.46202672064839212 -0.40007602488395211 0 -0.47854472220918332 -0.38978458738689759 0 -0.46725442735267431 -0.37660061361585562 0 -0.48422759779560409 -0.37130120630367158 0 -0.46725442735267431 -0.37660061361585562 0 -0.46202672064839212 -0.40007602488395211 0 -0.46725442735267431 -0.37660061361585562 0 -0.45645674801697989 -0.38644133236760531 0 -0.46202672064839212 -0.40007602488395211 0 -0.46725442735267431 -0.37660061361585562 0 -0.45645674801697989 -0.38644133236760531 0 -0.4540003998136638 -0.37455519391687309 0 -0.45645674801697989 -0.38644133236760531 0 -0.46202672064839212 -0.40007602488395211 0 -0.44257020456291563 -0.38918913383950271 0 -0.46202672064839212 -0.40007602488395211 0 -0.44257020456291563 -0.38918913383950271 0 -0.44727608925983742 -0.41095911152778891 0 -0.46202672064839212 -0.40007602488395211 0 -0.44257020456291563 -0.38918913383950271 0 -0.44257020456291563 -0.38918913383950271 0 -0.44727608925983742 -0.41095911152778891 0 -0.43479358559901082 -0.4041454901736512 0 -0.44257020456291563 -0.38918913383950271 0 -0.4540003998136638 -0.37455519391687309 0 -0.44172858264042247 -0.37082207246888088 0 -0.45645674801697989 -0.38644133236760531 0 -0.44257020456291563 -0.38918913383950271 0 -0.4540003998136638 -0.37455519391687309 0 -0.46202672064839212 -0.40007602488395211 0 -0.45555437223955858 -0.42914059360647611 0 -0.44727608925983742 -0.41095911152778891 0 -0.46202672064839212 -0.40007602488395211 0 -0.45555437223955858 -0.42914059360647611 0 -0.48101336032419229 -0.41069999664450008 0 -0.46202672064839212 -0.40007602488395211 0 -0.45555437223955858 -0.42914059360647611 0 -0.44727608925983742 -0.41095911152778891 0 -0.43867285131603428 -0.4271457417558665 0 -0.43676601469929588 -0.41441201227470881 0 -0.44727608925983742 -0.41095911152778891 0 -0.43676601469929588 -0.41441201227470881 0 -0.43479358559901082 -0.4041454901736512 0 -0.45555437223955858 -0.42914059360647611 0 -0.44727608925983742 -0.41095911152778891 0 -0.43867285131603428 -0.4271457417558665 0 -0.43867285131603428 -0.4271457417558665 0 -0.42681803064840879 -0.42717069814352421 0 -0.4263356171060747 -0.44269880333887462 0 -0.42681803064840879 -0.42717069814352421 0 -0.41531815884496182 -0.42985383783075998 0 -0.4263356171060747 -0.44269880333887462 0 -0.42681803064840879 -0.42717069814352421 0 -0.42624289495594048 -0.42089725947505818 0 -0.42083332353326591 -0.42146747131641099 0 -0.42681803064840879 -0.42717069814352421 0 -0.43096994786351572 -0.41951492446283251 0 -0.42624289495594048 -0.42089725947505818 0 -0.43867285131603428 -0.4271457417558665 0 -0.42681803064840879 -0.42717069814352421 0 -0.43096994786351572 -0.41951492446283251 0 -0.43867285131603428 -0.4271457417558665 0 -0.43676601469929588 -0.41441201227470881 0 -0.43096994786351572 -0.41951492446283251 0 -0.43676601469929588 -0.41441201227470881 0 -0.43096994786351572 -0.41951492446283251 0 -0.42907264086257813 -0.41311715872526122 0 -0.43676601469929588 -0.41441201227470881 0 -0.42907264086257813 -0.41311715872526122 0 -0.43479358559901082 -0.4041454901736512 0 -0.42907264086257813 -0.41311715872526122 0 -0.43479358559901082 -0.4041454901736512 0 -0.42460885511582858 -0.40417321677700252 0 -0.42907264086257813 -0.41311715872526122 0 -0.41997834854398469 -0.41180534796019508 0 -0.42907264086257813 -0.41311715872526122 0 -0.42635027777857132 -0.41543594397746519 0 -0.41997834854398469 -0.41180534796019508 0 -0.42907264086257813 -0.41311715872526122 0 -0.41997834854398469 -0.41180534796019508 0 -0.42460885511582858 -0.40417321677700252 0 -0.42635027777857132 -0.41543594397746519 0 -0.41997834854398469 -0.41180534796019508 0 -0.42635027777857132 -0.41543594397746519 0 -0.42083332353326591 -0.42146747131641099 0 -0.41997834854398469 -0.41180534796019508 0 -0.43096994786351572 -0.41951492446283251 0 -0.42624289495594048 -0.42089725947505818 0 -0.42635027777857132 -0.41543594397746519 0 -0.43096994786351572 -0.41951492446283251 0 -0.42907264086257813 -0.41311715872526122 0 -0.42635027777857132 -0.41543594397746519 0 -0.42624289495594048 -0.42089725947505818 0 -0.42635027777857132 -0.41543594397746519 0 -0.42083332353326591 -0.42146747131641099 0 -0.42083332353326591 -0.42146747131641099 0 -0.41997834854398469 -0.41180534796019508 0 -0.40992282953163789 -0.42011435591993562 0 -0.41997834854398469 -0.41180534796019508 0 -0.39756877647335259 -0.40857286797681719 0 -0.41997834854398469 -0.41180534796019508 0 -0.40992282953163789 -0.42011435591993562 0 -0.39756877647335259 -0.40857286797681719 0 -0.40992282953163789 -0.42011435591993562 0 -0.41531815884496182 -0.42985383783075998 0 -0.39591554026262499 -0.42887225451549271 0 -0.41531815884496182 -0.42985383783075998 0 -0.39591554026262499 -0.42887225451549271 0 -0.41160927495564159 -0.44339431233754628 0 -0.42083332353326591 -0.42146747131641099 0 -0.40992282953163789 -0.42011435591993562 0 -0.41531815884496182 -0.42985383783075998 0 -0.42681803064840879 -0.42717069814352421 0 -0.42083332353326591 -0.42146747131641099 0 -0.41531815884496182 -0.42985383783075998 0 -0.44257020456291563 -0.38918913383950271 0 -0.42311368847744002 -0.37830224279505142 0 -0.42594061475171041 -0.39368797999533162 0 -0.44257020456291563 -0.38918913383950271 0 -0.42311368847744002 -0.37830224279505142 0 -0.44172858264042247 -0.37082207246888088 0 -0.44257020456291563 -0.38918913383950271 0 -0.42311368847744002 -0.37830224279505142 0 -0.42311368847744002 -0.37830224279505142 0 -0.42594061475171041 -0.39368797999533162 0 -0.416587075656149 -0.38785930376960043 0 -0.44257020456291563 -0.38918913383950271 0 -0.42594061475171041 -0.39368797999533162 0 -0.43479358559901082 -0.4041454901736512 0 -0.42594061475171041 -0.39368797999533162 0 -0.43479358559901082 -0.4041454901736512 0 -0.42460885511582858 -0.40417321677700252 0 -0.41997834854398469 -0.41180534796019508 0 -0.41325908582185972 -0.39811010703057192 0 -0.39770572831670092 -0.39911486077581648 0 -0.41997834854398469 -0.41180534796019508 0 -0.39770572831670092 -0.39911486077581648 0 -0.42594061475171041 -0.39368797999533162 0 -0.42460885511582858 -0.40417321677700252 0 -0.41325908582185972 -0.39811010703057192 0 -0.41997834854398469 -0.41180534796019508 0 -0.42460885511582858 -0.40417321677700252 0 -0.41325908582185972 -0.39811010703057192 0 -0.42594061475171041 -0.39368797999533162 0 -0.41325908582185972 -0.39811010703057192 0 -0.416587075656149 -0.38785930376960043 0 -0.41325908582185972 -0.39811010703057192 0 -0.416587075656149 -0.38785930376960043 0 -0.40403491357358612 -0.38133688525744702 0 -0.42311368847744002 -0.37830224279505142 0 -0.40403491357358612 -0.38133688525744702 0 -0.40365717239196519 -0.36741535175059892 0 -0.42311368847744002 -0.37830224279505142 0 -0.416587075656149 -0.38785930376960043 0 -0.40403491357358612 -0.38133688525744702 0 -0.40403491357358612 -0.38133688525744702 0 -0.39190790742475001 -0.38540387676521748 0 -0.39770572831670092 -0.39911486077581648 0 -0.40403491357358612 -0.38133688525744702 0 -0.39190790742475001 -0.38540387676521748 0 -0.3904578797192948 -0.37473938743617019 0 -0.41325908582185972 -0.39811010703057192 0 -0.40403491357358612 -0.38133688525744702 0 -0.39770572831670092 -0.39911486077581648 0 -0.39770572831670092 -0.39911486077581648 0 -0.37543310808941849 -0.38642437359143528 0 -0.39770572831670092 -0.39911486077581648 0 -0.37515920440272033 -0.40534038799344108 0 -0.37543310808941849 -0.38642437359143528 0 -0.39770572831670092 -0.39911486077581648 0 -0.37515920440272033 -0.40534038799344108 0 -0.39756877647335259 -0.40857286797681719
[...]
<PointData Scalars="" Vectors="displacement," Tensors="">
<DataArray type="Float64" Name="displacement" NumberOfComponents="3" format="ascii">
-0.034997113048659115 -2.6487730674895224e-07 0 -0.034111201907280154 -0.00017467265044791307 0 -0.034997652355532337 -7.370007093267307e-07 0 -0.034997113048659115 -2.6487730674895224e-07 0 -0.033464144653812276 -0.00011435773580906777 0 -0.034111201907280154 -0.00017467265044791307 0 -0.034997113048659115 -2.6487730674895224e-07 0 -0.033464144653812276 -0.00011435773580906777 0 -0.031404206873408225 -2.4718176399681152e-07 0 -0.033464144653812276 -0.00011435773580906777 0 -0.031404206873408225 -2.4718176399681152e-07 0 -0.032832746892160973 9.4728801207486578e-05 0 -0.031404206873408225 -2.4718176399681152e-07 0 -0.032832746892160973 9.4728801207486578e-05 0 -0.031202454504190801 -6.7154498738905387e-05 0 -0.033148300221825869 0.00023402810976629106 0 -0.033310372470152061 0.00023594221121482915 0 -0.032832746892160973 9.4728801207486578e-05 0 -0.032178777945901023 0.00038817344105737472 0 -0.032120131191581816 0.00012521147363473128 0 -0.032832746892160973 9.4728801207486578e-05 0 -0.032120131191581816 0.00012521147363473128 0 -0.032197414031356855 8.1601974744278162e-06 0 -0.033464144653812276 -0.00011435773580906777 0 -0.032832746892160973 9.4728801207486578e-05 0 -0.034111201907280154 -0.00017467265044791307 0 -0.032832746892160973 9.4728801207486578e-05 0 -0.034111201907280154 -0.00017467265044791307 0 -0.034442644141535181 0.00027886460492975801 0 -0.034111201907280154 -0.00017467265044791307 0 -0.034886227820386716 -2.544515612861981e-05 0 -0.034442644141535181 0.00027886460492975801 0 -0.034111201907280154 -0.00017467265044791307 0 -0.034997652355532337 -7.370007093267307e-07 0 -0.034886227820386716 -2.544515612861981e-05 0 -0.034999998396113112 1.3843330738908646e-10 0 -0.0349980247633533 -4.69015804903003e-07 0 -0.034999997511114427 -6.1337273390183999e-10 0 -0.034998877187269822 4.4666457152220816e-07 0 -0.034444834172455974 0.00014389404952790214 0 -0.034999997511114427 -6.1337273390183999e-10 0 -0.03499767495361901 -8.8732254315875949e-07 0 -0.034998965383492085 -1.5004395414546102e-06 0 -0.034999997511114427 -6.1337273390183999e-10 0 -0.034999996175871594 -2.3445971026885709e-09 0 -0.034998965383492085 -1.5004395414546102e-06 0 -0.0349980247633533 -4.69015804903003e-07 0 -0.034999997511114427 -6.1337273390183999e-10 0 -0.03499767495361901 -8.8732254315875949e-07 0 -0.0349980247633533 -4.69015804903003e-07 0 -0.03499767495361901 -8.8732254315875949e-07 0 -0.034995179483090243 -6.2754067515751317e-07 0 -0.034444834172455974 0.00014389404952790214 0 -0.03358849220304197 0.00017374965672615754 0 -0.03499767495361901 -8.8732254315875949e-07 0 -0.034997082708973282 -9.2578997518790234e-07 0 -0.034995179483090243 -6.2754067515751317e-07 0 -0.03499767495361901 -8.8732254315875949e-07 0 -0.034997082708973282 -9.2578997518790234e-07 0 -0.034998965383492085 -1.5004395414546102e-06 0 -0.034104615412909031 7.7933633090509027e-05 0 -0.03358849220304197 0.00017374965672615754 0 -0.033319417863219972 0.00017015985933923266 0 -0.033142215206455071 0.00038511388103216663 0 -0.032887225771807652 0.00028168636554692645 0 -0.033319417863219972 0.00017015985933923266 0 -0.033142215206455071 0.00038511388103216663 0 -0.033373085361779617 0.00043807824756840794 0 -0.033142215206455071 0.00038511388103216663 0 -0.032887225771807652 0.00028168636554692645 0 -0.033096565820523428 0.0006469075577379338 0 -0.031813732718428453 0.00046393529685123756 0 -0.031671526383069297 0.00023273818125251191 0 -0.031949043825695952 0.00027551392421368374 0 -0.03358849220304197 0.00017374965672615754 0 -0.032679188735867212 0.00037298626890541503 0 -0.031671526383069297 0.00023273818125251191 0 -0.031949043825695952 0.00027551392421368374 0 -0.031868355864280079 0.00013336081899538351 0 -0.033096565820523428 0.0006469075577379338 0 -0.033373085361779617 0.00043807824756840794 0 -0.033442803155823993 0.00066402443343092075 0 -0.033142215206455071 0.00038511388103216663 0 -0.033096565820523428 0.0006469075577379338 0 -0.033373085361779617 0.00043807824756840794 0 -0.031813732718428453 0.00046393529685123756 0 -0.032178777945901023 0.00038817344105737472 0 -0.031949043825695952 0.00027551392421368374 0 -0.03358849220304197 0.00017374965672615754 0 -0.033310372470152061 0.00023594221121482915 0 -0.034886227820386716 -2.544515612861981e-05 0 -0.035009501731799231 0.00024760720052786949 0 -0.034442644141535181 0.00027886460492975801 0 -0.031949043825695952 0.00027551392421368374 0 -0.032120131191581816 0.00012521147363473128 0 -0.032003436904351236 0.0001468490609228668 0 -0.031949043825695952 0.00027551392421368374 0 -0.032003436904351236 0.0001468490609228668 0 -0.031868355864280079 0.00013336081899538351 0 -0.032178777945901023 0.00038817344105737472 0 -0.031949043825695952 0.00027551392421368374 0 -0.032120131191581816 0.00012521147363473128 0 -0.032120131191581816 0.00012521147363473128 0 -0.032117922350315721 6.5074750512468166e-05 0 -0.032197414031356855 8.1601974744278162e-06 0 -0.032117922350315721 6.5074750512468166e-05 0 -0.032126197378100969 9.5647664990987054e-05 0 -0.032197414031356855 8.1601974744278162e-06 0 -0.032117922350315721 6.5074750512468166e-05 0 -0.032082475786443909 6.8782284514233428e-05 0 -0.032092700470949323 7.4428030076741038e-05 0 -0.032117922350315721 6.5074750512468166e-05 0 -0.032066787330963818 8.933906501771454e-05 0 -0.032082475786443909 6.8782284514233428e-05 0 -0.032120131191581816 0.00012521147363473128 0 -0.032117922350315721 6.5074750512468166e-05 0 -0.032066787330963818 8.933906501771454e-05 0 -0.032120131191581816 0.00012521147363473128 0 -0.032003436904351236 0.0001468490609228668 0 -0.032066787330963818 8.933906501771454e-05 0 -0.032003436904351236 0.0001468490609228668 0 -0.032066787330963818 8.933906501771454e-05 0 -0.032006997007422683 7.3328089446346705e-05 0 -0.032003436904351236 0.0001468490609228668 0 -0.032006997007422683 7.3328089446346705e-05 0 -0.031868355864280079 0.00013336081899538351 0 -0.032006997007422683 7.3328089446346705e-05 0 -0.031868355864280079 0.00013336081899538351 0 -0.031866373040740893 7.3015293475677159e-07 0 -0.028824085023540003 0.00078058412073654887 0 -0.028719482737250435 0.00083345558642088135 0 -0.032006997007422683 7.3328089446346705e-05 0 -0.032050360191905831 5.5796972408859264e-05 0 -0.032011283420894425 -9.4960791391544296e-06 0 -0.032006997007422683 7.3328089446346705e-05 0 -0.031976383399830485 -6.4146939518837625e-05 0 -0.031866373040740893 7.3015293475677159e-07 0 -0.028819737358658316 0.0008687857970214849 0 -0.028719482737250435 0.00083345558642088135 0 -0.032050360191905831 5.5796972408859264e-05 0 -0.032092700470949323 7.4428030076741038e-05 0 -0.03208833411820583 7.8251368041464757e-05 0 -0.032066787330963818 8.933906501771454e-05 0 -0.032082475786443909 6.8782284514233428e-05 0 -0.032050360191905831 5.5796972408859264e-05 0 -0.032066787330963818 8.933906501771454e-05 0 -0.032006997007422683 7.3328089446346705e-05 0 -0.032050360191905831 5.5796972408859264e-05 0 -0.032082475786443909 6.8782284514233428e-05 0 -0.032050360191905831 5.5796972408859264e-05 0 -0.032092700470949323 7.4428030076741038e-05 0 -0.032092700470949323 7.4428030076741038e-05 0 -0.03208833411820583 7.8251368041464757e-05 0 -0.032097929862439173 9.495402977565785e-05 0 -0.028719482737250435 0.00083345558642088135 0 -0.027947941007251915 0.00063577759661310551 0 -0.03208833411820583 7.8251368041464757e-05 0 -0.032097929862439173 9.495402977565785e-05 0 -0.032095501084331228 0.00011305464466558948 0 -0.032097929862439173 9.495402977565785e-05 0 -0.032126197378100969 9.5647664990987054e-05 0 -0.032094317875473219 0.00012041579320225384 0 -0.032126197378100969 9.5647664990987054e-05 0 -0.032094317875473219 0.00012041579320225384 0 -0.032122207872033452 0.00016088834881269992 0 -0.032092700470949323 7.4428030076741038e-05 0 -0.032097929862439173 9.495402977565785e-05 0 -0.032126197378100969 9.5647664990987054e-05 0 -0.032117922350315721 6.5074750512468166e-05 0 -0.032092700470949323 7.4428030076741038e-05 0 -0.032126197378100969 9.5647664990987054e-05 0 -0.031671526383069297 0.00023273818125251191 0 -0.031496842624455408 -1.9324116852037554e-05 0 -0.031718557125462774 1.7600043447895663e-05 0 -0.033096565820523428 0.0006469075577379338 0 -0.033304021333770535 0.00099473425183476544 0 -0.033442803155823993 0.00066402443343092075 0 -0.032679188735867212 0.00037298626890541503 0 -0.031981499228808934 0.00069647969258037257 0 -0.031496842624455408 -1.9324116852037554e-05 0 -0.031718557125462774 1.7600043447895663e-05 0 -0.031627497683661868 -0.00010977161828011895 0 -0.031671526383069297 0.00023273818125251191 0 -0.031718557125462774 1.7600043447895663e-05 0 -0.031868355864280079 0.00013336081899538351 0 -0.031718557125462774 1.7600043447895663e-05 0 -0.031868355864280079 0.00013336081899538351 0 -0.031866373040740893 7.3015293475677159e-07 0 -0.031976383399830485 -6.4146939518837625e-05 0 -0.031774680591615055 -0.00015755276592274703 0 -0.031784491411865679 -0.00038121159126791408 0 -0.028719482737250435 0.00083345558642088135 0 -0.028059891795331238 0.00089923103612482265 0 -0.031718557125462774 1.7600043447895663e-05 0 -0.031866373040740893 7.3015293475677159e-07 0 -0.031774680591615055 -0.00015755276592274703 0 -0.031976383399830485 -6.4146939518837625e-05 0 -0.031866373040740893 7.3015293475677159e-07 0 -0.031774680591615055 -0.00015755276592274703 0 -0.031718557125462774 1.7600043447895663e-05 0 -0.031774680591615055 -0.00015755276592274703 0 -0.031627497683661868 -0.00010977161828011895 0 -0.031774680591615055 -0.00015755276592274703 0 -0.031627497683661868 -0.00010977161828011895 0 -0.031520649064208275 -0.00028140944409156044 0 -0.031496842624455408 -1.9324116852037554e-05 0 -0.031520649064208275 -0.00028140944409156044 0 -0.031333843378394927 -0.00028386647604824636 0 -0.031496842624455408 -1.9324116852037554e-05 0 -0.031627497683661868 -0.00010977161828011895 0 -0.031520649064208275 -0.00028140944409156044 0 -0.031520649064208275 -0.00028140944409156044 0 -0.031571318438028212 -0.00047380866697775421 0 -0.031784491411865679 -0.00038121159126791408 0 -0.031520649064208275 -0.00028140944409156044 0 -0.031571318438028212 -0.00047380866697775421 0 -0.031397433029172812 -0.00049768455186623671 0 -0.031774680591615055 -0.00015755276592274703 0 -0.031520649064208275 -0.00028140944409156044 0 -0.031784491411865679 -0.00038121159126791408 0 -0.028059891795331238 0.00089923103612482265 0 -0.0263187392991154 0.0010116919045706728 0 -0.02739209812620344 0.00079717260515491703 0 -0.027486668596474792 0.00044188042255474479 0 -0.027188205310556879 0.00044664631246397872 0 -0.02739209812620344 0.00079717260515491703 0 -0.027486668596474792 0.00044188042255474479 0 -0.027541617759001668 0.00079482505597252098 0 -0.02633200179235486 0.0003685444589524095 0 -0.0263187392991154 0.0010116919045706728 0 -0.031579764007505104 -0.00073813119660809119 0 -0.031397433029172812 -0.00049768455186623671 0 -0.031298024576492771 -0.00073942969300880334 0 -0.031571318438028212 -0.00047380866697775421 0 -0.031579764007505104 -0.00073813119660809119 0 -0.031397433029172812 -0.00049768455186623671 0 -0.0263187392991154 0.0010116919045706728 0 -0.027827541919894092 0.00089298111893395258 0 -0.031571318438028212 -0.00047380866697775421 0 -0.031784491411865679 -0.00038121159126791408 0 -0.031579764007505104 -0.00073813119660809119 0 -0.027598269912045666 0.0011471424019609544 0 -0.02739209812620344 0.00079717260515491703 0 -0.027541617759001668 0.00079482505597252098 0 -0.032097929862439173 9.495402977565785e-05 0 -0.032094317875473219 0.00012041579320225384 0 -0.032095501084331228 0.00011305464466558948 0 -0.03207987776439538 0.00012045726048735304 0 -0.032094317875473219 0.00012041579320225384 0 -0.032095501084331228 0.00011305464466558948 0 -0.02633200179235486 0.0003685444589524095 0 -0.027947941007251915 0.00063577759661310551 0 -0.03207987776439538 0.00012045726048735304 0 -0.032094317875473219 0.00012041579320225384 0 -0.032086926990321313 0.0001236683219647573 0 -0.032094317875473219 0.00012041579320225384 0 -0.032100801583817951 0.00013031215373586082 0 -0.032086926990321313 0.0001236683219647573 0 -0.032100801583817951 0.00013031215373586082 0 -0.032085729598618377 0.00013156545521120759 0 -0.032086926990321313 0.0001236683219647573 0 -0.032094317875473219 0.00012041579320225384 0 -0.032100801583817951 0.00013031215373586082 0 -0.032122207872033452 0.00016088834881269992 0 -0.032100801583817951 0.00013031215373586082 0 -0.032106920879192452 0.00014165914555174417 0 -0.032122207872033452 0.00016088834881269992 0 -0.031663146498790165 0.00060420279591015503 0 -0.029695957828582826 0.00072672053800991844 0 -0.031054767571220835 0.00020549936339072874 0 -0.023806751226528772 0.0016205586617386242 0 -0.024010961980872915 0.00083746523860337818 0 -0.024934171011264022 0.0010325565591755863 0 -0.02828817207039927 -0.00057092367116428147 0 -0.027400011557119765 -5.1536388494039004e-05 0 -0.02828817207039927 -0.00057092367116428147 0 -0.028297500596883806 -0.00056755150121507673 0 -0.02828817207039927 -0.00057092367116428147 0 -0.027517490223507579 0.00016468742689566989 0 -0.032100801583817951 0.00013031215373586082 0 -0.032106920879192452 0.00014165914555174417 0 -0.032094943253007026 0.00013163316168331035 0 -0.032100801583817951 0.00013031215373586082 0 -0.032094943253007026 0.00013163316168331035 0 -0.032085729598618377 0.00013156545521120759 0 -0.027517490223507579 0.00016468742689566989 0 -0.026671656775202054 0.0007294941317483424 0 -0.024010961980872915 0.00083746523860337818 0 -0.024544239877183668 0.00054786223163390746 0 -0.024218211754317879 2.9345984350676881e-05 0 -0.024544239877183668 0.00054786223163390746 0 -0.024934171011264022 0.0010325565591755863 0 -0.024849421450487658 7.1588686070030641e-06 0 -0.024934171011264022 0.0010325565591755863 0 -0.025533785617223883 -0.00012652996693446051 0 -0.024849421450487658 7.1588686070030641e-06 0 -0.024544239877183668 0.00054786223163390746 0 -0.024849421450487658 7.1588686070030641e-06 0 -0.024218211754317879 2.9345984350676881e-05 0 -0.024010961980872915 0.00083746523860337818 0 -0.024544239877183668 0.00054786223163390746 0 -0.024934171011264022 0.0010325565591755863 0 -0.026667557404880707 1.7473977637321889e-07 0 -0.027400011557119765 -5.1536388494039004e-05 0 -0.026663343324124927 1.7748009132523364e-06 0 -0.024934171011264022 0.0010325565591755863 0 -0.025533785617223883 -0.00012652996693446051 0 -0.026669733438867856 2.8189054370812304e-06 0 -0.029695957828582826 0.00072672053800991844 0 -0.028698735472065889 -5.1593979261388865e-07 0 -0.029695957828582826 0.00072672053800991844 0 -0.031054767571220835 0.00020549936339072874 0 -0.028698735472065889 -5.1593979261388865e-07 0 -0.031054767571220835 0.00020549936339072874 0 -0.028698735472065889 -5.1593979261388865e-07 0 -0.031202454504190801 -6.7154498738905387e-05 0 -0.031404206873408225 -2.4718176399681152e-07 0 -0.028698735472065889 -5.1593979261388865e-07 0 -0.031202454504190801 -6.7154498738905387e-05 0 -0.031054767571220835 0.00020549936339072874 0 -0.031202454504190801 -6.7154498738905387e-05 0 -0.031917353062386203 2.3423109862309767e-05 0 -0.032832746892160973 9.4728801207486578e-05 0 -0.031202454504190801 -6.7154498738905387e-05 0 -0.031917353062386203 2.3423109862309767e-05 0 -0.032832746892160973 9.4728801207486578e-05 0 -0.031917353062386203 2.3423109862309767e-05 0 -0.032197414031356855 8.1601974744278162e-06 0 -0.031917353062386203 2.3423109862309767e-05 0 -0.032197414031356855 8.1601974744278162e-06 0 -0.031915498996879593 0.00013198917739829652 0 -0.032197414031356855 8.1601974744278162e-06 0 -0.032122207872033452 0.00016088834881269992 0 -0.031915498996879593 0.00013198917739829652 0 -0.032126197378100969 9.5647664990987054e-05 0 -0.032197414031356855 8.1601974744278162e-06 0 -0.032122207872033452 0.00016088834881269992 0 -0.031703981850197238 0.00057189774411564858 0 -0.032122207872033452 0.00016088834881269992 0 -0.031722432041779575 0.00047206994535750748 0 -0.032122207872033452 0.00016088834881269992 0 -0.031722432041779575 0.00047206994535750748 0 -0.031915498996879593 0.00013198917739829652 0 -0.02828817207039927 -0.00057092367116428147 0 -0.029215259149103348 -0.00079950139073571536 0 -0.031054767571220835 0.00020549936339072874 0 -0.031722432041779575 0.00047206994535750748 0 -0.031915498996879593 0.00013198917739829652 0 -0.031663146498790165 0.00060420279591015503 0 -0.031054767571220835 0.00020549936339072874 0 -0.031722432041779575 0.00047206994535750748 0 -0.031054767571220835 0.00020549936339072874 0 -0.031917353062386203 2.3423109862309767e-05 0 -0.031915498996879593 0.00013198917739829652 0 -0.03227689404430089 0.00032214571148309404 0 -0.030764959441568495 0.0011422434055013504 0 -0.034771979156942884 -0.00036409905544888566 0 -0.03482224837371431 -0.0015600359160465962 0 -0.034185279582829763 -0.00059485931384884458 0 -0.034929292595867585 0.0001277441368735366 0 -0.034961024828988829 9.8016103774762199e-05 0 -0.034966114183150529 0.00016899200714847259 0 -0.034929292595867585 0.0001277441368735366 0 -0.034922098819042548 0.00018773431755907818 0 -0.034966114183150529 0.00016899200714847259 0 -0.034929292595867585 0.0001277441368735366 0 -0.034887943355080032 0.00018036791378849338 0 -0.034922098819042548 0.00018773431755907818 0 -0.034929292595867585 0.0001277441368735366 0 -0.034937330951665832 6.8135502708777232e-05 0 -0.034937773306691344 6.3120082037563068e-05 0 -0.034929292595867585 0.0001277441368735366 0 -0.034937330951665832 6.8135502708777232e-05 0 -0.034961024828988829 9.8016103774762199e-05 0 -0.03227689404430089 0.00032214571148309404 0 -0.032730829562898592 0.00024716675691759099 0 -0.034937330951665832 6.8135502708777232e-05 0 -0.034961024828988829 9.8016103774762199e-05 0 -0.034891190440222888 5.9934590040885663e-05 0 -0.034771979156942884 -0.00036409905544888566 0 -0.034891190440222888 5.9934590040885663e-05 0 -0.034254805449541202 4.7997452816133481e-05 0 -0.034891190440222888 5.9934590040885663e-05 0 -0.034999904209563441 1.1831952622398315e-07 0 -0.034956679617899611 3.8094744115333992e-05 0 -0.034891190440222888 5.9934590040885663e-05 0 -0.034999904209563441 1.1831952622398315e-07 0 -0.034713825421289701 7.2083581917077304e-05 0 -0.034999904209563441 1.1831952622398315e-07 0 -0.034956679617899611 3.8094744115333992e-05 0 -0.034999921273728467 -5.5062156017819115e-09 0 -0.034937330951665832 6.8135502708777232e-05 0 -0.034891190440222888 5.9934590040885663e-05 0 -0.034956679617899611 3.8094744115333992e-05 0 -0.034937330951665832 6.8135502708777232e-05 0 -0.034956679617899611 3.8094744115333992e-05 0 -0.034937773306691344 6.3120082037563068e-05 0 -0.034937773306691344 6.3120082037563068e-05 0 -0.034958154147241273 1.0424883618424299e-05 0 -0.034918207555241491 4.7564405064247851e-05 0 -0.034956679617899611 3.8094744115333992e-05 0 -0.034937773306691344 6.3120082037563068e-05 0 -0.034958154147241273 1.0424883618424299e-05 0 -0.034999921273728467 -5.5062156017819115e-09 0 -0.034958154147241273 1.0424883618424299e-05 0 -0.0349999124587815 1.0347716230853043e-08 0 -0.034956679617899611 3.8094744115333992e-05 0 -0.034999921273728467 -5.5062156017819115e-09 0 -0.034958154147241273 1.0424883618424299e-05 0 -0.034958154147241273 1.0424883618424299e-05 0 -0.0349999124587815 1.0347716230853043e-08 0 -0.034936868530625824 -1.1950807639301749e-05 0 -0.034936868530625824 -1.1950807639301749e-05 0 -0.034918207555241491 4.7564405064247851e-05 0 -0.034815109118801799 4.0406863229543625e-05 0 -0.034958154147241273 1.0424883618424299e-05 0 -0.034936868530625824 -1.1950807639301749e-05 0 -0.034918207555241491 4.7564405064247851e-05 0 -0.034918207555241491 4.7564405064247851e-05 0 -0.034845888230644148 0.00011095926865568892 0 -0.034815109118801799 4.0406863229543625e-05 0 -0.034845888230644148 0.00011095926865568892 0 -0.034840