<?xml version="1.0"?>
<VTKFile type="UnstructuredGrid" version="0.1" byte_order="LittleEndian">
<UnstructuredGrid>
<Piece NumberOfPoints="32093" NumberOfCells="11278">
<Points>
<DataArray type="Float64" NumberOfComponents="3" format="ascii">
-0.49353598294489598 -0.49999999999999478 0 -0.5 -0.5 0 -0.49999999999999878 -0.48625435921187088 0 -0.49353598294489598 -0.49999999999999478 0 -0.49999999999999878 -0.48625435921187088 0 -0.4907839594629918 -0.4793646687725106 0 -0.49353598294489598 -0.49999999999999478 0 -0.4907839594629918 -0.4793646687725106 0 -0.49353598294489598 -0.49999999999999478 0 -0.4907839594629918 -0.4793646687725106 0 -0.47576688520169869 -0.4843186201085109 0 -0.49999999999999878 -0.48625435921187088 0 -0.4907839594629918 -0.4793646687725106 0 -0.4910163548431481 -0.47033554422381818 0 -0.49999999999999878 -0.48625435921187088 0 -0.4910163548431481 -0.47033554422381818 0 -0.5 -0.46364873571071691 0 -0.49999999999999878 -0.48625435921187088 0 -0.4907839594629918 -0.4793646687725106 0 -0.4907839594629918 -0.4793646687725106 0 -0.48941176788088198 -0.46907564762478071 0 -0.4910163548431481 -0.47033554422381818 0 -0.4907839594629918 -0.4793646687725106 0 -0.48941176788088198 -0.46907564762478071 0 -0.4907839594629918 -0.4793646687725106 0 -0.48941176788088198 -0.46907564762478071 0 -0.47626051405911107 -0.46850728999429192 0 -0.48941176788088198 -0.46907564762478071 0 -0.4910163548431481 -0.47033554422381818 0 -0.4907839594629918 -0.4793646687725106 0 -0.47576688520169869 -0.4843186201085109 0 -0.47626051405911107 -0.46850728999429192 0 -0.47576688520169869 -0.4843186201085109 0 -0.46442498561532619 -0.47216644566591448 0 -0.47626051405911107 -0.46850728999429192 0 -0.4907839594629918 -0.4793646687725106 0 -0.47626051405911107 -0.46850728999429192 0 -0.49353598294489598 -0.49999999999999478 0 -0.47576688520169869 -0.4843186201085109 0 -0.47160240841159079 -0.5 0 -0.47576688520169869 -0.4843186201085109 0 -0.47160240841159079 -0.5 0 -0.46255168284065162 -0.48617275431254497 0 -0.47160240841159079 -0.5 0 -0.46255168284065162 -0.48617275431254497 0 -0.4496688338782856 -0.49999999999999939 0 -0.46255168284065162 -0.48617275431254497 0 -0.45129530109635702 -0.47437870578829983 0 -0.4496688338782856 -0.49999999999999939 0 -0.47576688520169869 -0.4843186201085109 0 -0.46255168284065162 -0.48617275431254497 0 -0.46442498561532619 -0.47216644566591448 0 -0.46255168284065162 -0.48617275431254497 0 -0.46442498561532619 -0.47216644566591448 0 -0.45129530109635702 -0.47437870578829983 0 -0.45129530109635702 -0.47437870578829983 0 -0.44257567317293428 -0.4609629024148213 0 -0.43674545504113932 -0.48386303657440838 0 -0.45129530109635702 -0.47437870578829983 0 -0.4496688338782856 -0.49999999999999939 0 -0.43674545504113932 -0.48386303657440838 0 -0.45129530109635702 -0.47437870578829983 0 -0.4496688338782856 -0.49999999999999939 0 -0.4617023166380973 -0.44731861967745001 0 -0.43974845313021721 -0.43008078924523269 0 -0.4617023166380973 -0.44731861967745001 0 -0.45318233276682512 -0.44465281086790392 0 -0.43974845313021721 -0.43008078924523269 0 -0.45292176831443087 -0.44875741157660048 0 -0.44090099397356691 -0.44249659385012768 0 -0.42887522546349749 -0.45269770889985977 0 -0.45292176831443087 -0.44875741157660048 0 -0.42887522546349749 -0.45269770889985977 0 -0.45292176831443087 -0.44875741157660048 0 -0.45318233276682512 -0.44465281086790392 0 -0.45292176831443087 -0.44875741157660048 0 -0.44090099397356691 -0.44249659385012768 0 -0.45318233276682512 -0.44465281086790392 0 -0.44090099397356691 -0.44249659385012768 0 -0.45318233276682512 -0.44465281086790392 0 -0.43974845313021721 -0.43008078924523269 0 -0.45129530109635702 -0.47437870578829983 0 -0.45292176831443087 -0.44875741157660048 0 -0.45129530109635702 -0.47437870578829983 0 -0.45292176831443087 -0.44875741157660048 0 -0.44257567317293428 -0.4609629024148213 0 -0.45292176831443087 -0.44875741157660048 0 -0.44257567317293428 -0.4609629024148213 0 -0.42887522546349749 -0.45269770889985977 0 -0.45129530109635702 -0.47437870578829983 0 -0.45292176831443087 -0.44875741157660048 0 -0.46173706865523029 -0.45764991121607329 0 -0.46442498561532619 -0.47216644566591448 0 -0.45129530109635702 -0.47437870578829983 0 -0.46173706865523029 -0.45764991121607329 0 -0.46442498561532619 -0.47216644566591448 0 -0.46173706865523029 -0.45764991121607329 0 -0.47626051405911107 -0.46850728999429192 0 -0.46173706865523029 -0.45764991121607329 0 -0.4617023166380973 -0.44731861967745001 0 -0.47555704225948958 -0.45819713365111542 0 -0.4617023166380973 -0.44731861967745001 0 -0.47555704225948958 -0.45819713365111542 0 -0.45292176831443087 -0.44875741157660048 0 -0.46173706865523029 -0.45764991121607329 0 -0.4617023166380973 -0.44731861967745001 0 -0.45292176831443087 -0.44875741157660048 0 -0.4617023166380973 -0.44731861967745001 0 -0.45292176831443087 -0.44875741157660048 0 -0.4617023166380973 -0.44731861967745001 0 -0.45318233276682512 -0.44465281086790392 0 -0.4617023166380973 -0.44731861967745001 0 -0.47555704225948958 -0.45819713365111542 0 -0.48597961071921808 -0.44334051116194401 0 -0.4617023166380973 -0.44731861967745001 0 -0.48597961071921808 -0.44334051116194401 0 -0.4617023166380973 -0.44731861967745001 0 -0.48597961071921808 -0.44334051116194401 0 -0.47289287998629148 -0.42707468931144882 0 -0.48941176788088198 -0.46907564762478071 0 -0.47555704225948958 -0.45819713365111542 0 -0.48597961071921808 -0.44334051116194401 0 -0.46173706865523029 -0.45764991121607329 0 -0.47626051405911107 -0.46850728999429192 0 -0.47555704225948958 -0.45819713365111542 0 -0.46173706865523029 -0.45764991121607329 0 -0.47626051405911107 -0.46850728999429192 0 -0.48941176788088198 -0.46907564762478071 0 -0.47555704225948958 -0.45819713365111542 0 -0.48941176788088198 -0.46907564762478071 0 -0.47626051405911107 -0.46850728999429192 0 -0.47555704225948958 -0.45819713365111542 0 -0.48941176788088198 -0.46907564762478071 0 -0.48597961071921808 -0.44334051116194401 0 -0.48941176788088198 -0.46907564762478071 0 -0.48597961071921808 -0.44334051116194401 0 -0.49465367120772141 -0.4523459239601399 0 -0.48941176788088198 -0.46907564762478071 0 -0.5 -0.46364873571071691 0 -0.49465367120772141 -0.4523459239601399 0 -0.48941176788088198 -0.46907564762478071 0 -0.4910163548431481 -0.47033554422381818 0 -0.5 -0.46364873571071691 0 -0.5 -0.46364873571071691 0 -0.49465367120772141 -0.4523459239601399 0 -0.50000000000000178 -0.44104311220956283 0 -0.48597961071921808 -0.44334051116194401 0 -0.49465367120772141 -0.4523459239601399 0 -0.50000000000000178 -0.44104311220956283 0 -0.48597961071921808 -0.44334051116194401 0 -0.50000000000000178 -0.44104311220956283 0 -0.48597961071921808 -0.44334051116194401 0 -0.50000000000000178 -0.44104311220956283 0 -0.49210831062448229 -0.43275067285582008 0 -0.48597961071921808 -0.44334051116194401 0 -0.49210831062448229 -0.43275067285582008 0 -0.48245363177870748 -0.41690187652929511 0 -0.50000000000000178 -0.44104311220956283 0 -0.50000000000000155 -0.42971719152247928 0 -0.49210831062448229 -0.43275067285582008 0 -0.50000000000000155 -0.42971719152247928 0 -0.49210831062448229 -0.43275067285582008 0 -0.48245363177870748 -0.41690187652929511 0 -0.50000000000000155 -0.42971719152247928 0 -0.48245363177870748 -0.41690187652929511 0 -0.49999999999999539 -0.40712958022303319 0 -0.48245363177870748 -0.41690187652929511 0 -0.48206165123668249 -0.41396271253861627 0 -0.50000000000000155 -0.42971719152247928 0 -0.49999999999999539 -0.40712958022303319 0 -0.48245363177870748 -0.41690187652929511 0 -0.49999999999999539 -0.40712958022303319 0 -0.48206165123668249 -0.41396271253861627 0 -0.47967445279592902 -0.41487205168819269 0 -0.46057043339181403 -0.40091907730557758 0 -0.47967445279592902 -0.41487205168819269 0 -0.48206165123668249 -0.41396271253861627 0 -0.47913229878992752 -0.39199772625918089 0 -0.48245363177870748 -0.41690187652929511 0 -0.47967445279592902 -0.41487205168819269 0 -0.47289287998629148 -0.42707468931144882 0 -0.47967445279592902 -0.41487205168819269 0 -0.47289287998629148 -0.42707468931144882 0 -0.45971145296307298 -0.42247642046671269 0 -0.47967445279592902 -0.41487205168819269 0 -0.45971145296307298 -0.42247642046671269 0 -0.48245363177870748 -0.41690187652929511 0 -0.47967445279592902 -0.41487205168819269 0 -0.47967445279592902 -0.41487205168819269 0 -0.48206165123668249 -0.41396271253861627 0 -0.48245363177870748 -0.41690187652929511 0 -0.48206165123668249 -0.41396271253861627 0 -0.48245363177870748 -0.41690187652929511 0 -0.47967445279592902 -0.41487205168819269 0 -0.48206165123668249 -0.41396271253861627 0 -0.48597961071921808 -0.44334051116194401 0 -0.48245363177870748 -0.41690187652929511 0 -0.47289287998629148 -0.42707468931144882 0 -0.48597961071921808 -0.44334051116194401 0 -0.48245363177870748 -0.41690187652929511 0 -0.5 -0.3828085923039275 0 -0.48560960346607318 -0.37610309221948068 0 -0.47913229878992752 -0.39199772625918089 0 -0.49999999999999539 -0.40712958022303319 0 -0.48206165123668249 -0.41396271253861627 0 -0.47913229878992752 -0.39199772625918089 0 -0.49999999999999539 -0.40712958022303319 0 -0.5 -0.3828085923039275 0 -0.47913229878992752 -0.39199772625918089 0 -0.47967445279592902 -0.41487205168819269 0 -0.47913229878992752 -0.39199772625918089 0 -0.46057043339181403 -0.40091907730557758 0 -0.48206165123668249 -0.41396271253861627 0 -0.47913229878992752 -0.39199772625918089 0 -0.48560960346607318 -0.37610309221948068 0 -0.47913229878992752 -0.39199772625918089 0 -0.47620294634317839 -0.37003273997974501 0 -0.47913229878992752 -0.39199772625918089 0 -0.47620294634317839 -0.37003273997974501 0 -0.47913229878992752 -0.39199772625918089 0 -0.46449592648411392 -0.38360017740490182 0 -0.47620294634317839 -0.37003273997974501 0 -0.45368604497059872 -0.38102085393360607 0 -0.47620294634317839 -0.37003273997974501 0 -0.45453777512005322 -0.374581925743807 0 -0.45368604497059872 -0.38102085393360607 0 -0.46449592648411392 -0.38360017740490182 0 -0
[...]
<PointData Scalars="" Vectors="displacement," Tensors="">
<DataArray type="Float64" Name="displacement" NumberOfComponents="3" format="ascii">
-0.034999945687815705 -0.03455048477266888 0 -0.034999319986960986 -0.034998570440904611 0 -0.03403923413818008 -0.034999884723495266 0 -0.034999945687815705 -0.03455048477266888 0 -0.03403923413818008 -0.034999884723495266 0 -0.033689093792839929 -0.035513482061470293 0 -0.034999869218841836 -0.034547733445115421 0 -0.034978679335407263 -0.034845679133132988 0 -0.034999979460920844 -0.03454743519065543 0 -0.036381131478446502 -0.03431764035269079 0 -0.036051060147790456 -0.03329131517440545 0 -0.034037806400485933 -0.034999994299510589 0 -0.033559232686453166 -0.035637381490603172 0 -0.032928073174095629 -0.035620877002251534 0 -0.034037806400485933 -0.034999994299510589 0 -0.032928073174095629 -0.035620877002251534 0 -0.032455422726204421 -0.034999989692590876 0 -0.034037609937279591 -0.035000805520493658 0 -0.034978679335407263 -0.034845679133132988 0 -0.033559232686453166 -0.035637381490603172 0 -0.032841200934026669 -0.035731427340132044 0 -0.032928073174095629 -0.035620877002251534 0 -0.034978679335407263 -0.034845679133132988 0 -0.034176809310685813 -0.034639498460483996 0 -0.035841553232159144 -0.034758639436531326 0 -0.036750100944335153 -0.034636601082104243 0 -0.036816358533435962 -0.033491055526571306 0 -0.034176809310685813 -0.034639498460483996 0 -0.034017702210728855 -0.034817466313364881 0 -0.036381131478446502 -0.03431764035269079 0 -0.036051060147790456 -0.03329131517440545 0 -0.037092490228068972 -0.033311162616741108 0 -0.036051060147790456 -0.03329131517440545 0 -0.036844100901474088 -0.032521627115065607 0 -0.037092490228068972 -0.033311162616741108 0 -0.034978679335407263 -0.034845679133132988 0 -0.037076352837314926 -0.033261965793651302 0 -0.034999979460920844 -0.03454743519065543 0 -0.036051060147790456 -0.03329131517440545 0 -0.034999965594303149 -0.033012156778557657 0 -0.036051060147790456 -0.03329131517440545 0 -0.034999965594303149 -0.033012156778557657 0 -0.035926133998484572 -0.032390310883860234 0 -0.034999965594303149 -0.033012156778557657 0 -0.035926133998484572 -0.032390310883860234 0 -0.03499999663398267 -0.031476931271030503 0 -0.035926133998484572 -0.032390310883860234 0 -0.036697676816092692 -0.031656664581464149 0 -0.03499999663398267 -0.031476931271030503 0 -0.036051060147790456 -0.03329131517440545 0 -0.035926133998484572 -0.032390310883860234 0 -0.036844100901474088 -0.032521627115065607 0 -0.035926133998484572 -0.032390310883860234 0 -0.036844100901474088 -0.032521627115065607 0 -0.036697676816092692 -0.031656664581464149 0 -0.036693729697258815 -0.031491619337122335 0 -0.037586361446017874 -0.030892576883054818 0 -0.036061087176594238 -0.030527005000547398 0 -0.036693729697258815 -0.031491619337122335 0 -0.034999957576664659 -0.031476628056286447 0 -0.036061087176594238 -0.030527005000547398 0 -0.036813669127819582 -0.03170128758188142 0 -0.0350001019510724 -0.031476765095230813 0 -0.035920573341062217 -0.031350179857078012 0 -0.036938212129649838 -0.028514292945928565 0 -0.037566243171728769 -0.02925910957221568 0 -0.037670893607670314 -0.028907341841985245 0 -0.038236869137059849 -0.02835381828951631 0 -0.03750965358611355 -0.028891223573602236 0 -0.037765918639373536 -0.028409077997346766 0 -0.037426390359631648 -0.02794978192078619 0 -0.037823109682465307 -0.030547868428618931 0 -0.037794842074166973 -0.028894300415167794 0 -0.037823109682465307 -0.030547868428618931 0 -0.037695596394668088 -0.030291804565305159 0 -0.03750965358611355 -0.028891223573602236 0 -0.037765918639373536 -0.028409077997346766 0 -0.037670893607670314 -0.028907341841985245 0 -0.037765918639373536 -0.028409077997346766 0 -0.037670893607670314 -0.028907341841985245 0 -0.038236869137059849 -0.02835381828951631 0 -0.036813669127819582 -0.03170128758188142 0 -0.037823109682465307 -0.030547868428618931 0 -0.036693729697258815 -0.031491619337122335 0 -0.038403442615390436 -0.031582046066646594 0 -0.037586361446017874 -0.030892576883054818 0 -0.038403442615390436 -0.031582046066646594 0 -0.037586361446017874 -0.030892576883054818 0 -0.038145940656141748 -0.029949207150019464 0 -0.036697676816092692 -0.031656664581464149 0 -0.038361990675720423 -0.031749873183379518 0 -0.037763664577841673 -0.032345425066970454 0 -0.036844100901474088 -0.032521627115065607 0 -0.036697676816092692 -0.031656664581464149 0 -0.037763664577841673 -0.032345425066970454 0 -0.036844100901474088 -0.032521627115065607 0 -0.037763664577841673 -0.032345425066970454 0 -0.037092490228068972 -0.033311162616741108 0 -0.037763664577841673 -0.032345425066970454 0 -0.038492229835823011 -0.032345077853311748 0 -0.037689683842420295 -0.033430229351698509 0 -0.035920573341062217 -0.031350179857078012 0 -0.036000386558729648 -0.033290113238128027 0 -0.038361990675720423 -0.031749873183379518 0 -0.037763664577841673 -0.032345425066970454 0 -0.038492229835823011 -0.032345077853311748 0 -0.037823109682465307 -0.030547868428618931 0 -0.035920573341062217 -0.031350179857078012 0 -0.037504344788753433 -0.028900457998184952 0 -0.037566243171728769 -0.02925910957221568 0 -0.037670893607670314 -0.028907341841985245 0 -0.034820688483267387 -0.032471701340697455 0 -0.034206737955285074 -0.033257648606017196 0 -0.035024184095625154 -0.033842595033562767 0 -0.035920573341062217 -0.031350179857078012 0 -0.032570292409424703 -0.034547475325280512 0 -0.033285360227919801 -0.031286868189244373 0 -0.033594456443201345 -0.033306789874999652 0 -0.034942464890793182 -0.032217389306196914 0 -0.033602595254142102 -0.03403585446274101 0 -0.034206737955285074 -0.033257648606017196 0 -0.035024184095625154 -0.033842595033562767 0 -0.037763664577841673 -0.032345425066970454 0 -0.036816358533435962 -0.033491055526571306 0 -0.037689683842420295 -0.033430229351698509 0 -0.037633198875927892 -0.032510826373338596 0 -0.037076352837314926 -0.033261965793651302 0 -0.034176809310685813 -0.034639498460483996 0 -0.036000386558729648 -0.033290113238128027 0 -0.036750100944335153 -0.034636601082104243 0 -0.036816358533435962 -0.033491055526571306 0 -0.037689683842420295 -0.033430229351698509 0 -0.034176809310685813 -0.034639498460483996 0 -0.032570292409424703 -0.034547475325280512 0 -0.032840089821079957 -0.035732061738120789 0 -0.031046483556012441 -0.035965903739189287 0 -0.031668341855574482 -0.035369097405375284 0 -0.032840089821079957 -0.035732061738120789 0 -0.032455422726204421 -0.034999989692590876 0 -0.031668341855574482 -0.035369097405375284 0 -0.032840089821079957 -0.035732061738120789 0 -0.032928073174095629 -0.035620877002251534 0 -0.032455422726204421 -0.034999989692590876 0 -0.032455422726204421 -0.034999989692590876 0 -0.031668341855574482 -0.035369097405375284 0 -0.03087304989075253 -0.03499998732075197 0 -0.031046483556012441 -0.035965903739189287 0 -0.031668341855574482 -0.035369097405375284 0 -0.03087304989075253 -0.03499998732075197 0 -0.032570292409424703 -0.034547475325280512 0 -0.030873566149497416 -0.035000894723046475 0 -0.030979075170607388 -0.035881286702543175 0 -0.030872781555539464 -0.034999980200993631 0 -0.030308648535980649 -0.035500756963656045 0 -0.030979075170607388 -0.035881286702543175 0 -0.030308648535980649 -0.035500756963656045 0 -0.029349350710173777 -0.036083309802528933 0 -0.030872781555539464 -0.034999980200993631 0 -0.030080504231086228 -0.034999978021562989 0 -0.030308648535980649 -0.035500756963656045 0 -0.030080504231086228 -0.034999978021562989 0 -0.030308648535980649 -0.035500756963656045 0 -0.029349350710173777 -0.036083309802528933 0 -0.03007787648571059 -0.035002644817937557 0 -0.031839625421360755 -0.034751461923591902 0 -0.028499137926856266 -0.034999983354958131 0 -0.029199976422950462 -0.036199868917870595 0 -0.028998185213467621 -0.036225809310466178 0 -0.030080173302037758 -0.034999989690756524 0 -0.028499137926856266 -0.034999983354958131 0 -0.029199976422950462 -0.036199868917870595 0 -0.028499122784937939 -0.035001138803983714 0 -0.031658063539863154 -0.034428783764666085 0 -0.03383740527406167 -0.032735571443485316 0 -0.035966602848753172 -0.030355430877474061 0 -0.032269825743322295 -0.032350090369324312 0 -0.032291830309671983 -0.032413445857781477 0 -0.032852956144685141 -0.032333590863243826 0 -0.035762299043858754 -0.033008565571577927 0 -0.035930745456098992 -0.032779248885408119 0 -0.034942464890793182 -0.032217389306196914 0 -0.035930745456098992 -0.032779248885408119 0 -0.034942464890793182 -0.032217389306196914 0 -0.035339745596626962 -0.031118849525135422 0 -0.03383740527406167 -0.032735571443485316 0 -0.036943480989273386 -0.030100684594213931 0 -0.031839625421360755 -0.034751461923591902 0 -0.03383740527406167 -0.032735571443485316 0 -0.03383740527406167 -0.032735571443485316 0 -0.031658063539863154 -0.034428783764666085 0 -0.031839625421360755 -0.034751461923591902 0 -0.031658063539863154 -0.034428783764666085 0 -0.033176395126159761 -0.034530590541384264 0 -0.032886725544161929 -0.034926289746233831 0 -0.032754647088030178 -0.034585203859010941 0 -0.033594456443201345 -0.033306789874999652 0 -0.035762299043858754 -0.033008565571577927 0 -0.034942464890793182 -0.032217389306196914 0 -0.032570292409424703 -0.034547475325280512 0 -0.031839625421360755 -0.034751461923591902 0 -0.026796622635776611 -0.034999971978114032 0 -0.026348799637795284 -0.035981786629396224 0 -0.0274621693623288 -0.036426674398065677 0 -0.028499085993211579 -0.034999971056328509 0 -0.028991804800607878 -0.036221056835829428 0 -0.0274621693623288 -0.036426674398065677 0 -0.028499085993211579 -0.034999971056328509 0 -0.026796622635776611 -0.034999971978114032 0 -0.0274621693623288 -0.036426674398065677 0 -0.032269825743322295 -0.032350090369324312 0 -0.032852956144685141 -0.032333590863243826 0 -0.032639704330242832 -0.031836227820634139 0 -0.031658063539863154 -0.034428783764666085 0 -0.030174828693079792 -0.034359667710543412 0 -0.026348799637795284 -0.035981786629396224 0 -0.0274621693623288 -0.036426674398065677 0 -0.025940905891013909 -0.036624077560390558 0 -0.030174828693079792 -0.034359667710543412 0 -0.028579796645273634 -0.034586968159063723 0 -0.032852956144685141 -0.032333590863243826 0 -0.033080965180129422 -0.03194694779857931 0 -0.033388984449866904 -0.032265276414511629 0 -0.031289765359880525 -0.032262175466391006 0 -0.031690139797962015 -0.033243208775762131 0 -0.031553598262448725 -0.032300907252063603 0 -0.033167859731623624 -0.031655739381663071 0 -0.033080965180129422 -0.03194694779857931 0 -0.033388984449866904 -0.032265276414511629 0 -0.032852956144685141 -0.032333590863243826 0 -0.033080965180129422 -0.03194694779857931 0 -0.032914340155626443 -0.031824112189136895 0 -0.03433263608008863 -0.031493025338266804 0 -0.028579796645273634 -0.034586968159063723 0 -0.03433263608008863 -0.031493025338266804 0 -0.032997791575885504 -0.030992508782908986 0 -0.03433263608008863 -0.031493025338266804 0 -0.034009908829600421 -0.031474960618585533 0 -0.033080965180129422 -0.03194694779857931 0 -0.032914340155626443 -0.031824112189136895 0 -0.033099987468134431 -0.031640387816391329 0 -0.033167859731623624 -0.031655739381663071 0 -0.033080965180129422 -0.03194694779857931 0 -0.033099987468134431 -0.031640387816391329 0 -0.032852956144685141 -0.032333590863243826 0 -0.032914340155626443 -0.031824112189136895 0 -0.032639704330242832 -0.031836227820634139 0 -0.032914340155626443 -0.031824112189136895 0 -0.032639704330242832 -0.031836227820634139 0 -0.033034183551618232 -0.031297332059725312 0 -0.039034362151163363 -0.029200235245135802 0 -0.039164481852657453 -0.028364646310652799 0 -0.038816347627708872 -0.028265936620039421 0 -0.039034362151163363 -0.029200235245135802 0 -0.039164481852657453 -0.028364646310652799 0 -0.039550882630544675 -0.028429255221853932 0 -0.035966602848753172 -0.030355430877474061 0 -0.037110763183997399 -0.029088142575886239 0 -0.032914340155626443 -0.031824112189136895 0 -0.033099987468134431 -0.031640387816391329 0 -0.033034183551618232 -0.031297332059725312 0 -0.03433263608008863 -0.031493025338266804 0 -0.037110763183997399 -0.029088142575886239 0 -0.033182436169562277 -0.031650934838512938 0 -0.033099987468134431 -0.031640387816391329 0 -0.033034183551618232 -0.031297332059725312 0 -0.039210018311730752 -0.028383096004387955 0 -0.039536038019602586 -0.028422735363446978 0 -0.039547992260691368 -0.028055290137015604 0 -0.034408305568902918 -0.028952866355444161 0 -0.032997791575885504 -0.030992508782908986 0 -0.039367405485040918 -0.028805413530055949 0 -0.039536038019602586 -0.028422735363446978 0 -0.039570903615538305 -0.028836788014687656 0 -0.039367405485040918 -0.028805413530055949 0 -0.039210018311730752 -0.028383096004387955 0 -0.039536038019602586 -0.028422735363446978 0 -0.033285360227919801 -0.031286868189244373 0 -0.034942464890793182 -0.032217389306196914 0 -0.035339745596626962 -0.031118849525135422 0 -0.033285360227919801 -0.031286868189244373 0 -0.035339745596626962 -0.031118849525135422 0 -0.034733840567019995 -0.029446912973255503 0 -0.039034362151163363 -0.029200235245135802 0 -0.038182926293744805 -0.029172732586739445 0 -0.038400372945860108 -0.028636560264972973 0 -0.03843995355169906 -0.030025607713397549 0 -0.039034362151163363 -0.029200235245135802 0 -0.038182926293744805 -0.029172732586739445 0 -0.039034362151163363 -0.029200235245135802 0 -0.038400372945860108 -0.028636560264972973 0 -0.038816347627708872 -0.028265936620039421 0 -0.036943480989273386 -0.030100684594213931 0 -0.036938212129649838 -0.028514292945928565 0 -0.038182926293744805 -0.029172732586739445 0 -0.038400372945860108 -0.028636560264972973 0 -0.037942756402448853 -0.028372433708549884 0 -0.037765918639373536 -0.028409077997346766 0 -0.038236869137059849 -0.02835381828951631 0 -0.03813071604273801 -0.028097909748025975 0 -0.038400372945860108 -0.028636560264972973 0 -0.037942756402448853 -0.028372433708549884 0 -0.038514194779978195 -0.027787001966652 0 -0.036938212129649838 -0.028514292945928565 0 -0.037378484638564892 -0.028447810981112261 0 -0.03813071604273801 -0.028097909748025975 0 -0.038213464137549148 -0.027727543883804141 0 -0.037865552698398169 -0.027951638996317169 0 -0.038213464137549148 -0.027727543883804141 0 -0.037865552698398169 -0.027951638996317169 0 -0.037911869512134738 -0.027517711246439411 0 -0.03813071604273801 -0.028097909748025975 0 -0.038213464137549148 -0.027727543883804141 0 -0.038514194779978195 -0.027787001966652 0 -0.038198151938481154 -0.028281003388188043 0 -0.03813071604273801 -0.028097909748025975 0 -0.038514194779978195 -0.027787001966652 0 -0.036938212129649838 -0.028514292945928565 0 -0.038701115104362506 -0.027636387322764758 0 -0.038400372945860108 -0.028636560264972973 0 -0.038816347627708872 -0.028265936620039421 0 -0.038514194779978195 -0.027787001966652 0 -0.038816347627708872 -0.028265936620039421 0 -0.038514194779978195 -0.027787001966652 0 -0.038905030217077058 -0.027749980289866156 0 -0.038514194779978195 -0.027787001966652 0 -0.038783305250928067 -0.027499057169366157 0 -0.038471834970566672 -0.02737496618815808 0 -0.038514194779978195 -0.027787001966652 0 -0.038783305250928067 -0.027499057169366157 0 -0.038905030217077058 -0.027749980289866156 0 -0.038783305250928067 -0.027499057169366157 0 -0.039101122379082483 -0.02748165619924257 0 -0.038918457538698353 -0.027159293643167555 0 -0.038783305250928067 -0.027499057169366157 0 -0.038471834970566672 -0.02737496618815808 0 -0.038918457538698353 -0.027159293643167555 0 -0.038213464137549148 -0.027727543883804141 0 -0.038471834970566672 -0.02737496618815808 0 -0.037911869512134738 -0.027517711246439411 0 -0.038471834970566672 -0.02737496618815808 0 -0.038190476075774346 -0.027028072497286004 0 -0.037911869512134738 -0.027517711246439411 0 -0.038213464137549148 -0.027727543883804141 0 -0.038514194779978195 -0.027787001966652 0 -0.038471834970566672 -0.02737496618815808 0 -0.039536038019602586 -0.028422735363446978 0 -0.039581495794531261 -0.027875036495833155 0 -0.039547992260691368 -0.028055290137015604 0 -0.032308126075540081 -0.028554271096437409 0 -0.03235884677842174 -0.02861863742815671 0 -0.03228544430813704 -0.028599442408169789 0 -0.034408305568902918 -0.028952866355444161 0 -0.035954137359079728 -0.028350394430027771 0 -0.03235884677842174 -0.02861863742815671 0 -0.032426806059686612 -0.028665573189247475 0 -0.03228544430813704 -0.028599442408169789 0 -0.039581495794531261 -0.027875036495833155 0 -0.039547992260691368 -0.028055290137015604 0 -0.039445598681443754 -0.027982739923092692 0 -0.039407535501927916 -0.028226444477647751 0 -0.039445598681443754 -0.027982739923092692 0 -0.039321194639433892 -0.028006286605480782 0 -0.037110763183997399 -0.029088142575886239 0 -0.039403551823646112 -0.027606347782208839 0 -0.039407535501927916 -0.028226444477647751 0 -0.039547992260691368 -0.028055290137015604 0 -0.039445598681443754 -0.027982739923092692 0 -0.037110763183997399 -0.029088142575886239 0 -0.038793220470459515 -0.028425365460329772 0 -0.039445598681443754 -0.027982739923092692 0 -0.039378480121358077 -0.027837429938321175 0 -0.039321194639433892 -0.028006286605480782 0 -0.039581495794531261 -0.027875036495833155 0 -0.039445598681443754 -0.027982739923092692 0 -0.039378480121358077 -0.027837429938321175 0 -0.039581495794531261 -0.027875036495833155 0 -0.039378480121358077 -0.027837429938321175 0 -0.039349888710250094 -0.027551513608297312 0 -0.039378480121358077 -0.027837429938321175 0 -0.03916314841823143 -0.027799961174817527 0 -0.039321194639433892 -0.028006286605480782 0 -0.039378480121358077 -0.027837429938321175 0 -0.03916314841823143 -0.027799961174817527 0 -0.039349888710250094 -0.027551513608297312 0 -0.039164481852657453 -0.028364646310652799 0 -0.039550882630544675 -0.028429255221853932 0 -0.039321194639433892 -0.028006286605480782 0 -0.038816347627708872 -0.028265936620039421 0 -0.03916314841823143 -0.027799961174817527 0 -0.039321194639433892 -0.028006286605480782 0 -0.039164481852657453 -0.028364646310652799 0 -0.038816347627708872 -0.028265936620039421 0 -0.039321194639433892 -0.028006286605480782 0 -0.038816347627708872 -0.028265936620039421 0 -0.03916314841823143 -0.027799961174817527 0 -0.038905030217077058 -0.027749980289866156 0 -0.03916314841823143 -0.027799961174817527 0 -0.038905030217077058 -0.027749980289866156 0 -0.039101122379082483 -0.02748165619924257 0 -0.038783305250928067 -0.027499057169366157 0 -0.038905030217077058 -0.027749980289866156 0 -0.039101122379082483 -0.02748165619924257 0 -0.039101122379082483 -0.02748165619924257 0 -0.039205327954990897 -0.027125919977260819 0 -0.038918457538698353 -0.027159293643167555 0 -0.039101122379082483 -0.02748165619924257 0 -0.039349888710250094 -0.027551513608297312 0 -0.039205327954990897 -0.027125919977260819 0 -0.03916314841823143 -0.027799961174817527 0 -0.039101122379082483 -0.02748165619924257 0 -0.039349888710250094 -0.027551513608297312 0 -0.039349888710250094 -0.027551513608297312 0 -0.039520678689348721 -0.027275426265256437 0 -0.038912258308352946 -0.026577578233490409 0 -0.035954137359079728 -0.028350394430027771 0 -0.034708133165539709 -0.027417205571647701 0 -0.034708133165539709 -0.027417205571647701 0 -0.030458109911433398 -0.027847494582153139 0 -0.039581495794531261 -0.027875036495833155 0 -0.039349888710250094 -0.027551513608297312 0 -0.039520678689348721 -0.027275426265256437 0 -0.029009218933804558 -0.027088936941654186 0 -0.02897599153427792 -0.026592654093140218 0 -0.029236370291413381 -0.026712064079836166 0 -0.039202036277364065 -0.027233956400799345 0 -0.038912258308352946 -0.026577578233490409 0 -0.03902206299033132 -0.02617155006089281 0 -0.034708133165539709 -0.027417205571647701 0 -0.034173230237915776 -0.026339247433808648 0 -0.034708133165539709 -0.027417205571647701 0 -0.039076245204482531 -0.027347311602266795 0 -0.039181340432178247 -0.027381772044638555 0 -0.039467980511792795 -0.026499099240270878 0 -0.039205327954990897 -0.027125919977260819 0 -0.