<?xml version="1.0"?>
<VTKFile type="UnstructuredGrid" version="0.1" byte_order="LittleEndian">
<UnstructuredGrid>
<Piece NumberOfPoints="31813" NumberOfCells="11180">
<Points>
<DataArray type="Float64" NumberOfComponents="3" format="ascii">
-0.49139343443251582 -0.49999999999999839 0 -0.5 -0.5 0 -0.50000000000000056 -0.47562667174827022 0 -0.49139343443251582 -0.49999999999999839 0 -0.50000000000000056 -0.47562667174827022 0 -0.47850263425084882 -0.48525027758814371 0 -0.49139343443251582 -0.49999999999999839 0 -0.50000000000000056 -0.47562667174827022 0 -0.50000000000000056 -0.47562667174827022 0 -0.47850263425084882 -0.48525027758814371 0 -0.48434419105359161 -0.4651705384935732 0 -0.47054422082893821 -0.46977730108729387 0 -0.47850263425084882 -0.48525027758814371 0 -0.48434419105359161 -0.4651705384935732 0 -0.49139343443251582 -0.49999999999999839 0 -0.47850263425084882 -0.48525027758814371 0 -0.46580362415586668 -0.5 0 -0.47850263425084882 -0.48525027758814371 0 -0.46580362415586668 -0.5 0 -0.45448878248193902 -0.48114293740516451 0 -0.46580362415586668 -0.5 0 -0.45448878248193902 -0.48114293740516451 0 -0.44021381387921771 -0.5 0 -0.47054422082893821 -0.46977730108729387 0 -0.45448878248193902 -0.48114293740516451 0 -0.45599111851540708 -0.45922452501911287 0 -0.47054422082893821 -0.46977730108729387 0 -0.47850263425084882 -0.48525027758814371 0 -0.45448878248193902 -0.48114293740516451 0 -0.45448878248193902 -0.48114293740516451 0 -0.43956037519421548 -0.46422026953265022 0 -0.43189849771334943 -0.48186974677089522 0 -0.45448878248193902 -0.48114293740516451 0 -0.44021381387921771 -0.5 0 -0.43189849771334943 -0.48186974677089522 0 -0.44327742225890632 -0.44774107078683789 0 -0.44738440085003378 -0.4333050043561712 0 -0.43119929719675892 -0.43314373550882362 0 -0.44327742225890632 -0.44774107078683789 0 -0.45599111851540708 -0.45922452501911287 0 -0.45540181014027381 -0.44384343399733361 0 -0.44327742225890632 -0.44774107078683789 0 -0.45540181014027381 -0.44384343399733361 0 -0.44738440085003378 -0.4333050043561712 0 -0.45448878248193902 -0.48114293740516451 0 -0.43956037519421548 -0.46422026953265022 0 -0.45599111851540708 -0.45922452501911287 0 -0.44327742225890632 -0.44774107078683789 0 -0.43956037519421548 -0.46422026953265022 0 -0.45599111851540708 -0.45922452501911287 0 -0.47054422082893821 -0.46977730108729387 0 -0.45599111851540708 -0.45922452501911287 0 -0.47267410018816991 -0.44862213730539791 0 -0.45540181014027381 -0.44384343399733361 0 -0.47267410018816991 -0.44862213730539791 0 -0.46248478419179118 -0.43142547585537111 0 -0.45599111851540708 -0.45922452501911287 0 -0.45540181014027381 -0.44384343399733361 0 -0.47267410018816991 -0.44862213730539791 0 -0.47267410018816991 -0.44862213730539791 0 -0.5 -0.44657630473876031 0 -0.47920769610045699 -0.42772424494715588 0 -0.47054422082893821 -0.46977730108729387 0 -0.47267410018816991 -0.44862213730539791 0 -0.48434419105359161 -0.4651705384935732 0 -0.50000000000000056 -0.47562667174827022 0 -0.48434419105359161 -0.4651705384935732 0 -0.5 -0.44657630473876031 0 -0.47267410018816991 -0.44862213730539791 0 -0.48434419105359161 -0.4651705384935732 0 -0.5 -0.44657630473876031 0 -0.5 -0.44657630473876031 0 -0.5 -0.41752593772925028 0 -0.47920769610045699 -0.42772424494715588 0 -0.5 -0.41752593772925028 0 -0.48534793553653249 -0.41005112990957748 0 -0.47920769610045699 -0.42772424494715588 0 -0.48534793553653249 -0.41005112990957748 0 -0.46923544402122158 -0.41730895764522469 0 -0.47081121050442382 -0.40235441825306412 0 -0.48534793553653249 -0.41005112990957748 0 -0.46923544402122158 -0.41730895764522469 0 -0.47920769610045699 -0.42772424494715588 0 -0.46923544402122158 -0.41730895764522469 0 -0.47920769610045699 -0.42772424494715588 0 -0.46248478419179118 -0.43142547585537111 0 -0.47267410018816991 -0.44862213730539791 0 -0.47920769610045699 -0.42772424494715588 0 -0.46248478419179118 -0.43142547585537111 0 -0.5 -0.38847557071974043 0 -0.48295555290768682 -0.39479589828087203 0 -0.48203682752202581 -0.38420413469909931 0 -0.5 -0.38847557071974043 0 -0.48203682752202581 -0.38420413469909931 0 -0.48481916321343949 -0.37255726279857859 0 -0.48534793553653249 -0.41005112990957748 0 -0.5 -0.38847557071974043 0 -0.48295555290768682 -0.39479589828087203 0 -0.5 -0.41752593772925028 0 -0.48534793553653249 -0.41005112990957748 0 -0.5 -0.38847557071974043 0 -0.47081121050442382 -0.40235441825306412 0 -0.47520950664356632 -0.39045303366665018 0 -0.46963832642687919 -0.38568932188692762 0 -0.48534793553653249 -0.41005112990957748 0 -0.47081121050442382 -0.40235441825306412 0 -0.48295555290768682 -0.39479589828087203 0 -0.47081121050442382 -0.40235441825306412 0 -0.48295555290768682 -0.39479589828087203 0 -0.47520950664356632 -0.39045303366665018 0 -0.46963832642687919 -0.38568932188692762 0 -0.46751478583854977 -0.38021634328338277 0 -0.48481916321343949 -0.37255726279857859 0 -0.48295555290768682 -0.39479589828087203 0 -0.48203682752202581 -0.38420413469909931 0 -0.47520950664356632 -0.39045303366665018 0 -0.48203682752202581 -0.38420413469909931 0 -0.47520950664356632 -0.39045303366665018 0 -0.46963832642687919 -0.38568932188692762 0 -0.46963832642687919 -0.38568932188692762 0 -0.48481916321343949 -0.37255726279857859 0 -0.48203682752202581 -0.38420413469909931 0 -0.46963832642687919 -0.38568932188692762 0 -0.48481916321343949 -0.37255726279857859 0 -0.46751478583854977 -0.38021634328338277 0 -0.45450916059225221 -0.39300806230202973 0 -0.46236315574057119 -0.37381909956812109 0 -0.46751478583854977 -0.38021634328338277 0 -0.46236315574057119 -0.37381909956812109 0 -0.46963832642687919 -0.38568932188692762 0 -0.46751478583854977 -0.38021634328338277 0 -0.45450916059225221 -0.39300806230202973 0 -0.46963832642687919 -0.38568932188692762 0 -0.45450916059225221 -0.39300806230202973 0 -0.46963832642687919 -0.38568932188692762 0 -0.44797295585072228 -0.4044307740596359 0 -0.46963832642687919 -0.38568932188692762 0 -0.45450916059225221 -0.39300806230202973 0 -0.44797295585072228 -0.4044307740596359 0 -0.47081121050442382 -0.40235441825306412 0 -0.46963832642687919 -0.38568932188692762 0 -0.44797295585072228 -0.4044307740596359 0 -0.45450916059225221 -0.39300806230202973 0 -0.44797295585072228 -0.4044307740596359 0 -0.43870872886004669 -0.40065152788093772 0 -0.45450916059225221 -0.39300806230202973 0 -0.43870872886004669 -0.40065152788093772 0 -0.43776516026735618 -0.3889005012942427 0 -0.45450916059225221 -0.39300806230202973 0 -0.43870872886004669 -0.40065152788093772 0 -0.44797295585072228 -0.4044307740596359 0 -0.43870872886004669 -0.40065152788093772 0 -0.43915974222813392 -0.40626836392262911 0 -0.43870872886004669 -0.40065152788093772 0 -0.43915974222813392 -0.40626836392262911 0 -0.43870872886004669 -0.40065152788093772 0 -0.43776516026735618 -0.3889005012942427 0 -0.43776516026735618 -0.3889005012942427 0 -0.46236315574057119 -0.37381909956812109 0 -0.44648350541528198 -0.37181574165404191 0 -0.43776516026735618 -0.3889005012942427 0 -0.44648350541528198 -0.37181574165404191 0 -0.43594652692611602 -0.3662515821699337 0 -0.45450916059225221 -0.39300806230202973 0 -0.43776516026735618 -0.3889005012942427 0 -0.46236315574057119 -0.37381909956812109 0 -0.43776516026735618 -0.3889005012942427 0 -0.46236315574057119 -0.37381909956812109 0 -0.46923544402122158 -0.41730895764522469 0 -0.46248478419179118 -0.43142547585537111 0 -0.45100525385059131 -0.41774907688094393 0 -0.46248478419179118 -0.43142547585537111 0 -0.45100525385059131 -0.41774907688094393 0 -0.44738440085003378 -0.4333050043561712 0 -0.45540181014027381 -0.44384343399733361 0 -0.46248478419179118 -0.43142547585537111 0 -0.44738440085003378 -0.4333050043561712 0 -0.47081121050442382 -0.40235441825306412 0 -0.45100525385059131 -0.41774907688094393 0 -0.47081121050442382 -0.40235441825306412 0 -0.44797295585072228 -0.4044307740596359 0 -0.45100525385059131 -0.41774907688094393 0 -0.46923544402122158 -0.41730895764522469 0 -0.47081121050442382 -0.40235441825306412 0 -0.45100525385059131 -0.41774907688094393 0 -0.45100525385059131 -0.41774907688094393 0 -0.44526084636181013 -0.41067579395599629 0 -0.44290543351779282 -0.4142549609607763 0 -0.44797295585072228 -0.4044307740596359 0 -0.45100525385059131 -0.41774907688094393 0 -0.44526084636181013 -0.41067579395599629 0 -0.44526084636181013 -0.41067579395599629 0 -0.43915974222813392 -0.40626836392262911 0 -0.44290543351779282 -0.4142549609607763 0 -0.43915974222813392 -0.40626836392262911 0 -0.44290543351779282 -0.4142549609607763 0 -0.43584666185464249 -0.41251727139330568 0 -0.44797295585072228 -0.4044307740596359 0 -0.44526084636181013 -0.41067579395599629 0 -0.43915974222813392 -0.40626836392262911 0 -0.43870872886004669 -0.40065152788093772 0 -0.43915974222813392 -0.40626836392262911 0 -0.43584666185464249 -0.41251727139330568 0 -0.45100525385059131 -0.41774907688094393 0 -0.44290543351779282 -0.4142549609607763 0 -0.43622485872243949 -0.42001567757339148 0 -0.44290543351779282 -0.4142549609607763 0 -0.43622485872243949 -0.42001567757339148 0 -0.43584666185464249 -0.41251727139330568 0 -0.45100525385059131 -0.41774907688094393 0 -0.43119929719675892 -0.43314373550882362 0 -0.45100525385059131 -0.41774907688094393 0 -0.44738440085003378 -0.4333050043561712 0 -0.43119929719675892 -0.43314373550882362 0 -0.45100525385059131 -0.41774907688094393 0 -0.43119929719675892 -0.43314373550882362 0 -0.43622485872243949 -0.42001567757339148 0 -0.43119929719675892 -0.43314373550882362 0 -0.42219929698725189 -0.42095684271133033 0 -0.4176116377209616 -0.43586553649527909 0 -0.43119929719675892 -0.43314373550882362 0 -0.43622485872243949 -0.42001567757339148 0 -0.42219929698725189 -0.42095684271133033 0 -0.43870872886004669 -0.40065152788093772 0 -0.43584666185464249 -0.41251727139330568 0 -0.42219929698725189 -0.42095684271133033 0 -0.43870872886004669 -0.40065152788093772 0 -0.42219929698725189 -0.42095684271133033 0 -0.41509500708480401 -0.41207467584537028 0 -
[...]
<PointData Scalars="" Vectors="displacement," Tensors="">
<DataArray type="Float64" Name="displacement" NumberOfComponents="3" format="ascii">
1.9250124784911231e-10 -0.05500070067522006 0 -1.2832261341250728e-09 -0.054998587126064279 0 1.7842418443714357e-09 -0.052321057265875645 0 -5.5996084362293469e-07 -0.054996110605932513 0 -1.100991678275341e-06 -0.052318312297309884 0 -0.00019111127645960499 -0.053746911206364746 0 -1.6202180592928766e-07 -0.054999019239982884 0 1.5867081011255321e-07 -0.052319912905855297 0 -1.100991678275341e-06 -0.052318312297309884 0 -0.00019111127645960499 -0.053746911206364746 0 -0.00020626347565736374 -0.051753398877724968 0 -0.00029621432036488403 -0.052676804957772147 0 -0.00019111127645960499 -0.053746911206364746 0 -0.00020626347565736374 -0.051753398877724968 0 -5.5996084362293469e-07 -0.054996110605932513 0 -0.00019111127645960499 -0.053746911206364746 0 -2.1205552432857339e-07 -0.054998571531343091 0 -0.00019111127645960499 -0.053746911206364746 0 -2.1205552432857339e-07 -0.054998571531343091 0 -0.00030558184188891397 -0.053889643424823441 0 -2.1205552432857339e-07 -0.054998571531343091 0 -0.00030558184188891397 -0.053889643424823441 0 -3.4157601745010025e-07 -0.054998767300257108 0 -0.00029621432036488403 -0.052676804957772147 0 -0.00030558184188891397 -0.053889643424823441 0 -0.0002819703794054439 -0.052553049750845779 0 -0.00029621432036488403 -0.052676804957772147 0 -0.00019111127645960499 -0.053746911206364746 0 -0.00030558184188891397 -0.053889643424823441 0 -0.00030558184188891397 -0.053889643424823441 0 -0.00027743009576999898 -0.05351257920496208 0 -0.00024482939985566454 -0.054386294052635148 0 -0.00030558184188891397 -0.053889643424823441 0 -3.4157601745010025e-07 -0.054998767300257108 0 -0.00024482939985566454 -0.054386294052635148 0 -5.4347458938037984e-05 -0.052679736486836375 0 0.00038543341865848323 -0.05185769572078501 0 0.00062351604278832037 -0.053229293508568483 0 -5.4347458938037984e-05 -0.052679736486836375 0 -0.0002819703794054439 -0.052553049750845779 0 -4.3204673626150041e-05 -0.051670648989466543 0 -5.4347458938037984e-05 -0.052679736486836375 0 -4.3204673626150041e-05 -0.051670648989466543 0 0.00038543341865848323 -0.05185769572078501 0 -0.00030558184188891397 -0.053889643424823441 0 -0.00027743009576999898 -0.05351257920496208 0 -0.0002819703794054439 -0.052553049750845779 0 -5.4347458938037984e-05 -0.052679736486836375 0 -0.00027743009576999898 -0.05351257920496208 0 -0.0002819703794054439 -0.052553049750845779 0 -0.00029621432036488403 -0.052676804957772147 0 -0.0002819703794054439 -0.052553049750845779 0 -0.00016835495241639557 -0.050874827248318703 0 -4.3204673626150041e-05 -0.051670648989466543 0 -0.00016835495241639557 -0.050874827248318703 0 0.00014777015747128479 -0.050315835614971709 0 -0.0002819703794054439 -0.052553049750845779 0 -4.3204673626150041e-05 -0.051670648989466543 0 -0.00016835495241639557 -0.050874827248318703 0 -0.00016835495241639557 -0.050874827248318703 0 -2.9258411319296642e-07 -0.049124287891644247 0 6.6535878303449161e-05 -0.048574856858706598 0 -0.00029621432036488403 -0.052676804957772147 0 -0.00016835495241639557 -0.050874827248318703 0 -0.00020626347565736374 -0.051753398877724968 0 -1.100991678275341e-06 -0.052318312297309884 0 -0.00020626347565736374 -0.051753398877724968 0 -2.9258411319296642e-07 -0.049124287891644247 0 -0.00016835495241639557 -0.050874827248318703 0 -0.00020626347565736374 -0.051753398877724968 0 -2.9258411319296642e-07 -0.049124287891644247 0 -2.9258411319296642e-07 -0.049124287891644247 0 3.4787353300371007e-07 -0.045929120925715154 0 6.6535878303449161e-05 -0.048574856858706598 0 3.4787353300371007e-07 -0.045929120925715154 0 0.00021185360783529394 -0.046469964082967934 0 6.6535878303449161e-05 -0.048574856858706598 0 0.00021185360783529394 -0.046469964082967934 0 0.00046159194637855676 -0.048571560355545176 0 0.00067087561595487145 -0.047053515038885059 0 0.00021185360783529394 -0.046469964082967934 0 0.00046159194637855676 -0.048571560355545176 0 6.6535878303449161e-05 -0.048574856858706598 0 0.00046159194637855676 -0.048571560355545176 0 6.6535878303449161e-05 -0.048574856858706598 0 0.00014777015747128479 -0.050315835614971709 0 -0.00016835495241639557 -0.050874827248318703 0 6.6535878303449161e-05 -0.048574856858706598 0 0.00014777015747128479 -0.050315835614971709 0 5.7628570429778808e-08 -0.042733694472535534 0 0.00035167095533073639 -0.04542387037338913 0 0.00057155564722640481 -0.0447182142492192 0 5.7628570429778808e-08 -0.042733694472535534 0 0.00057155564722640481 -0.0447182142492192 0 0.00083861685378285099 -0.043485937281583564 0 0.00021185360783529394 -0.046469964082967934 0 5.7628570429778808e-08 -0.042733694472535534 0 0.00035167095533073639 -0.04542387037338913 0 3.4787353300371007e-07 -0.045929120925715154 0 0.00021185360783529394 -0.046469964082967934 0 5.7628570429778808e-08 -0.042733694472535534 0 0.00067087561595487145 -0.047053515038885059 0 0.00059695908411950215 -0.045996601645221451 0 0.00079073596287984691 -0.04644629075690955 0 0.00021185360783529394 -0.046469964082967934 0 0.00067087561595487145 -0.047053515038885059 0 0.00035167095533073639 -0.04542387037338913 0 0.00067087561595487145 -0.047053515038885059 0 0.00035167095533073639 -0.04542387037338913 0 0.00059695908411950215 -0.045996601645221451 0 -0.00056979774455972088 -0.040390007964348433 0 -0.00040183363337149153 -0.040445290134290789 0 -0.00023510699107549886 -0.039940722573397577 0 0.00035167095533073639 -0.04542387037338913 0 0.00057155564722640481 -0.0447182142492192 0 0.00059695908411950215 -0.045996601645221451 0 0.00057155564722640481 -0.0447182142492192 0 0.00059695908411950215 -0.045996601645221451 0 0.00079073596287984691 -0.04644629075690955 0 0.00055974188392895997 -0.044493458862827823 0 0.00012046850242275386 -0.041707454419888462 0 0.00057155564722640481 -0.0447182142492192 0 0.00079073596287984691 -0.04644629075690955 0 0.00083861685378285099 -0.043485937281583564 0 -0.00040183363337149153 -0.040445290134290789 0 -0.0008092350858637554 -0.040928473017837849 0 -0.00016441803754333579 -0.040630017444626569 0 0.00013604385601518435 -0.039894389460974358 0 0.00033256153556899723 -0.039198431303355825 0 -0.00056979774455972088 -0.040390007964348433 0 -0.00040183363337149153 -0.040445290134290789 0 -0.0008092350858637554 -0.040928473017837849 0 0.00055974188392895997 -0.044493458862827823 0 0.00014443607295130148 -0.043875684608349196 0 0.00055974188392895997 -0.044493458862827823 0 0.00066065325569818526 -0.04779962057308447 0 0.0012900794287605878 -0.046333733767412857 0 0.0010556308047307804 -0.046925363554284158 0 0.00067012214103956966 -0.047188213720038681 0 0.00067087561595487145 -0.047053515038885059 0 0.00079073596287984691 -0.04644629075690955 0 0.00067012214103956966 -0.047188213720038681 0 0.0010556308047307804 -0.046925363554284158 0 0.00067012214103956966 -0.047188213720038681 0 0.00078733073867041925 -0.047422402921765743 0 -0.0008092350858637554 -0.040928473017837849 0 -0.0010515553131706637 -0.041494598009134465 0 -0.00064708954550574886 -0.041514804858659438 0 0.00014443607295130148 -0.043875684608349196 0 0.0010464437995635085 -0.044399533431019891 0 0.00067012214103956966 -0.047188213720038681 0 0.00078733073867041925 -0.047422402921765743 0 0.00066962505631838591 -0.047380096776473049 0 0.0010464437995635085 -0.044399533431019891 0 0.00092067126647279768 -0.045179415452974381 0 0.0010464437995635085 -0.044399533431019891 0 0.0014022691654319681 -0.040905352102219697 0 0.0011080603235811802 -0.039508844196599002 0 0.0014089611859643112 -0.038992456539276396 0 0.0014566577882669917 -0.039319709400340228 0 0.0011080603235811802 -0.039508844196599002 0 0.0014566577882669917 -0.039319709400340228 0 0.0015757641930354861 -0.039533607782620633 0 -0.0008092350858637554 -0.040928473017837849 0 -0.00064708954550574886 -0.041514804858659438 0 -0.00016441803754333579 -0.040630017444626569 0 0.0014022691654319681 -0.040905352102219697 0 0.00033256153556899723 -0.039198431303355825 0 0.00046159194637855676 -0.048571560355545176 0 0.00014777015747128479 -0.050315835614971709 0 0.0010905689750180523 -0.051011758552928194 0 0.00014777015747128479 -0.050315835614971709 0 0.0010905689750180523 -0.051011758552928194 0 0.00038543341865848323 -0.05185769572078501 0 -4.3204673626150041e-05 -0.051670648989466543 0 0.00014777015747128479 -0.050315835614971709 0 0.00038543341865848323 -0.05185769572078501 0 0.00073919448100074291 -0.047429400687846561 0 0.00066884332798844979 -0.049083960912531449 0 0.00067087561595487145 -0.047053515038885059 0 0.00067012214103956966 -0.047188213720038681 0 0.00051058734605339585 -0.047181025310117877 0 0.00046159194637855676 -0.048571560355545176 0 0.00067087561595487145 -0.047053515038885059 0 0.0010905689750180523 -0.051011758552928194 0 0.00051058734605339585 -0.047181025310117877 0 0.00059355880031444817 -0.047258244359919384 0 0.00054246422193966423 -0.047310375325030102 0 0.00067012214103956966 -0.047188213720038681 0 0.00051058734605339585 -0.047181025310117877 0 0.00059355880031444817 -0.047258244359919384 0 0.00059355880031444817 -0.047258244359919384 0 0.00066962505631838591 -0.047380096776473049 0 0.00054246422193966423 -0.047310375325030102 0 0.00066962505631838591 -0.047380096776473049 0 0.00054246422193966423 -0.047310375325030102 0 0.00056956189520387024 -0.047439665218636254 0 0.00067012214103956966 -0.047188213720038681 0 0.00059355880031444817 -0.047258244359919384 0 0.00066962505631838591 -0.047380096776473049 0 0.00076549963355450736 -0.047377655918733962 0 0.00066962505631838591 -0.047380096776473049 0 0.00056956189520387024 -0.047439665218636254 0 0.00051058734605339585 -0.047181025310117877 0 0.00054246422193966423 -0.047310375325030102 0 0.00044833560434348027 -0.047438990374320554 0 0.00054246422193966423 -0.047310375325030102 0 0.00044833560434348027 -0.047438990374320554 0 0.00056956189520387024 -0.047439665218636254 0 0.00066884332798844979 -0.049083960912531449 0 0.00039949025918971322 -0.05038669834870152 0 0.0010905689750180523 -0.051011758552928194 0 0.00038543341865848323 -0.05185769572078501 0 0.00062351604278832037 -0.053229293508568483 0 0.00051058734605339585 -0.047181025310117877 0 0.00021551269898252115 -0.047544401816483263 0 0.00044833560434348027 -0.047438990374320554 0 0.00021551269898252115 -0.047544401816483263 0 0.00043135421570151145 -0.047687868482349648 0 0.00017845941121945289 -0.047771070246115155 0 0.00021551269898252115 -0.047544401816483263 0 0.00044833560434348027 -0.047438990374320554 0 0.00043135421570151145 -0.047687868482349648 0 0.00076549963355450736 -0.047377655918733962 0 0.00056956189520387024 -0.047439665218636254 0 0.00043135421570151145 -0.047687868482349648 0 0.0026591147494075709 -0.045563215521416123 0 0.0016630129157574596 -0.046422321076718266 0 0.0021107984813115328 -0.04677215072315679 0 0.00044833560434348027 -0.047438990374320554 0 0.00056956189520387024 -0.047439665218636254 0 0.00043135421570151145 -0.047687868482349648 0 0.0010464437995635085 -0.044399533431019891 0 0.001063683753939997 -0.04734631413518145 0 0.0010464437995635085 -0.044399533431019891 0 0.002212204270995422 -0.044108126641560663 0 0.0019235344240790184 -0.041820818835387644 0 0.0019543588693191794 -0.041814375704335813 0 0.0019013337204264898 -0.041953476913231223 0 0.0016630129157574596 -0.046422321076718266 0 0.0021107984813115328 -0.04677215072315679 0 0.0014505217142887314 -0.047170175063703142 0 0.0026070191256400447 -0.041102788488300554 0 0.0021172501210934493 -0.041608040473400748 0 0.00043135421570151145 -0.047687868482349648 0 0.00017845941121945289 -0.047771070246115155 0 9.3278856998684227e-05 -0.047963644448460074 0 0.0016630129157574596 -0.046422321076718266 0 0.0014505217142887314 -0.047170175063703142 0 0.00070980972305767682 -0.047282595960065621 0 0.001063683753939997 -0.04734631413518145 0 0.00041510941801664429 -0.04758038462221352 0 0.0014022691654319681 -0.040905352102219697 0 0.0029894244541279723 -0.039737865749395015 0 0.0033157159046340442 -0.040017242445731779 0 0.0034582022116601144 -0.040454656229563256 0 0.0039222450396568086 -0.040070915942539857 0 0.0019466878926394694 -0.041832127185636246 0 0.0019348697249929312 -0.041828011976509823 0 0.0019543588693191794 -0.041814375704335813 0 0.0014022691654319681 -0.040905352102219697 0 0.0026070191256400447 -0.041102788488300554 0 0.0033157159046340442 -0.040017242445731779 0 0.0029822441728257244 -0.04051389108295602 0 0.0034582022116601144 -0.040454656229563256 0 0.0019466878926394694 -0.041832127185636246 0 0.0019235344240790184 -0.041820818835387644 0 0.0019543588693191794 -0.041814375704335813 0 0.0029822441728257244 -0.04051389108295602 0 0.0034582022116601144 -0.040454656229563256 0 0.0032564138007798783 -0.040893842776426069 0 0.0029822441728257244 -0.04051389108295602 0 0.0029301022555674864 -0.04095903791810393 0 0.0023977963175693304 -0.041140377200535559 0 0.0029822441728257244 -0.04051389108295602 0 0.0032564138007798783 -0.040893842776426069 0 0.0029301022555674864 -0.04095903791810393 0 0.0034582022116601144 -0.040454656229563256 0 0.0036540698609223098 -0.040880515550305391 0 0.003901032983387702 -0.040512893528158248 0 0.0034582022116601144 -0.040454656229563256 0 0.0036540698609223098 -0.040880515550305391 0 0.0032564138007798783 -0.040893842776426069 0 0.0036540698609223098 -0.040880515550305391 0 0.0034438952814940596 -0.041281616785559021 0 0.0038700159633997524 -0.041262232478732994 0 0.0036540698609223098 -0.040880515550305391 0 0.0034438952814940596 -0.041281616785559021 0 0.0032564138007798783 -0.040893842776426069 0 0.0034438952814940596 -0.041281616785559021 0 0.0032564138007798783 -0.040893842776426069 0 0.0030370539031181168 -0.041321239488401613 0 0.0032564138007798783 -0.040893842776426069 0 0.0029301022555674864 -0.04095903791810393 0 0.0030370539031181168 -0.041321239488401613 0 0.0029301022555674864 -0.04095903791810393 0 0.0030370539031181168 -0.041321239488401613 0 0.0023977963175693304 -0.041140377200535559 0 0.0030370539031181168 -0.041321239488401613 0 0.0031721115654729541 -0.041600224821774785 0 0.0027019809341386879 -0.041717970571907272 0 0.0029992054416851689 -0.041392409693745032 0 0.0025915450640288966 -0.042210174396507157 0 0.0034438952814940596 -0.041281616785559021 0 0.0030370539031181168 -0.041321239488401613 0 0.0031721115654729541 -0.041600224821774785 0 0.0034438952814940596 -0.041281616785559021 0 0.0038700159633997524 -0.041262232478732994 0 0.0036617171474725959 -0.041688298474412661 0 0.0034438952814940596 -0.041281616785559021 0 0.0031721115654729541 -0.041600224821774785 0 0.0036617171474725959 -0.041688298474412661 0 0.0015416731023578736 -0.047953405251530051 0 0.0011192035367639701 -0.047554609894744353 0 0.0007105609949568805 -0.048239225403630522 0 0.0014505217142887314 -0.047170175063703142 0 0.0015416731023578736 -0.047953405251530051 0 0.0011192035367639701 -0.047554609894744353 0 0.0014505217142887314 -0.047170175063703142 0 0.0011192035367639701 -0.047554609894744353 0 0.00070980972305767682 -0.047282595960065621 0 0.0021107984813115328 -0.04677215072315679 0 0.0014505217142887314 -0.047170175063703142 0 0.0015416731023578736 -0.047953405251530051 0 0.002212204270995422 -0.044108126641560663 0 0.0015856265566696396 -0.045055021599114467 0 0.0019235344240790184 -0.041820818835387644 0 0.0017181262586621969 -0.042052199704661675 0 0.0019013337204264898 -0.041953476913231223 0 0.0030370539031181168 -0.041321239488401613 0 0.0023977963175693304 -0.041140377200535559 0 0.0023981652254208207 -0.041899008871224323 0 0.0023977963175693304 -0.041140377200535559 0 0.0023981652254208207 -0.041899008871224323 0 0.0016371996072829552 -0.042447466455249577 0 0.0021172501210934493 -0.041608040473400748 0 0.0016796154951658981 -0.042362855997273921 0 0.0017181262586621969 -0.042052199704661675 0 0.0019013337204264898 -0.041953476913231223 0 0.0016371996072829552 -0.042447466455249577 0 0.0030370539031181168 -0.041321239488401613 0 0.0023981652254208207 -0.041899008871224323 0 0.0024984021568182921 -0.042702559412563824 0 0.0023981652254208207 -0.041899008871224323 0 0.0016371996072829552 -0.042447466455249577 0 0.0024984021568182921 -0.042702559412563824 0 0.0015416731023578736 -0.047953405251530051 0 0.0007105609949568805 -0.048239225403630522 0 0.00097616677587824565 -0.049025576052248845 0 0.0015856265566696396 -0.045055021599114467 0 0.001131449464472703 -0.045950913172363064 0 0.0017181262586621969 -0.042052199704661675 0 0.0016371996072829552 -0.042447466455249577 0 0.0012240982390996601 -0.042854672584198998 0 0.0007105609949568805 -0.048239225403630522 0 0.00013044700195297324 -0.048400225838662887 0 0.00021675357845444987 -0.048916491905576849 0 0.0007105609949568805 -0.048239225403630522 0 0.00041059054777218374 -0.047972015320372506 0 0.00013044700195297324 -0.048400225838662887 0 0.00041059054777218374 -0.047972015320372506 0 0.00070980972305767682 -0.047282595960065621 0 -0.00016834575683939232 -0.048155238919273979 0 0.0007105609949568805 -0.048239225403630522 0 0.00073781614474010225 -0.047765057670729132 0 0.00041059054777218374 -0.047972015320372506 0 0.0011192035367639701 -0.047554609894744353 0 0.0007105609949568805 -0.048239225403630522 0 0.00073781614474010225 -0.047765057670729132 0 0.00073781614474010225 -0.047765057670729132 0 0.00041059054777218374 -0.047972015320372506 0 0.00070980972305767682 -0.047282595960065621 0 9.3278856998684227e-05 -0.047963644448460074 0 -0.00016834575683939232 -0.048155238919273979 0 -1.5073949772944744e-05 -0.047886457548838551 0 0.00041510941801664429 -0.04758038462221352 0 -0.00014367625293414826 -0.048131228603948008 0 0.0011192035367639701 -0.047554609894744353 0 0.00073781614474010225 -0.047765057670729132 0 0.00070980972305767682 -0.047282595960065621 0 -0.00024757047990211351 -0.048098594352404475 0 -0.00016834575683939232 -0.048155238919273979 0 -1.5073949772944744e-05 -0.047886457548838551 0 -0.00014783026285980605 -0.051247023703360144 0 6.0620571065521781e-05 -0.051158033224254752 0 -5.6588236996202795e-05 -0.054589100265260669 0 -7.7045918570029615e-05 -0.054788137472076198 0 0.00019002377607123946 -0.054381351456767271 0 -5.6588236996202795e-05 -0.054589100265260669 0 -9.9832486352048941e-05 -0.054707455485032884 0 -0.00013058745760728205 -0.054656456789315667 0 -9.9832486352048941e-05 -0.054707455485032884 0 -7.7045918570029615e-05 -0.054788137472076198 0 -0.0001185578593452148 -0.054785815637534006 0 -5.6588236996202795e-05 -0.054589100265260669 0 -9.9832486352048941e-05 -0.054707455485032884 0 -7.7045918570029615e-05 -0.054788137472076198 0 -0.00024757047990211351 -0.048098594352404475 0 -0.00016834575683939232 -0.048155238919273979 0 -0.00035602020216155277 -0.048711830108928024 0 0.00041059054777218374 -0.047972015320372506 0 -0.00016834575683939232 -0.048155238919273979 0 0.00013044700195297324 -0.048400225838662887 0 -0.00016834575683939232 -0.048155238919273979 0 0.00013044700195297324 -0.048400225838662887 0 -0.00035602020216155277 -0.048711830108928024 0 0.00013044700195297324 -0.048400225838662887 0 -0.00035602020216155277 -0.048711830108928024 0 0.00021675357845444987 -0.048916491905576849 0 -7.7045918570029615e-05 -0.054788137472076198 0 -0.0001185578593452148 -0.054785815637534006 0 -0.0001133978142946346 -0.0548021303984534 0 -0.0001185578593452148 -0.054785815637534006 0 -0.00011726058966741807 -0.05482975328711133 0 -0.0001133978142946346 -0.0548021303984534 0 -0.00024757047990211351 -0.048098594352404475 0 -0.00035602020216155277 -0.048711830108928024 0 -0.00092346589675804949 -0.048907911579242389 0 -0.00014783026285980605 -0.051247023703360144 0 -0.00019918147070116095 -0.053105535586772216 0 -1.1509510135951682e-07 -0.054999432933227586 0 -0.00011726058966741807 -0.05482975328711133 0 -0.0001133978142946346 -0.0548021303984534 0 -1.3090439607699806e-09 -0.055000014834238539 0 -4.098803230974523e-06 -0.05