<?xml version="1.0"?>
<VTKFile type="UnstructuredGrid" version="0.1" byte_order="LittleEndian">
<UnstructuredGrid>
<Piece NumberOfPoints="30618" NumberOfCells="10744">
<Points>
<DataArray type="Float64" NumberOfComponents="3" format="ascii">
-0.49427958746526202 -0.49999999999999512 0 -0.4943900888896422 -0.47349089190363358 0 -0.49427958746526202 -0.49999999999999512 0 -0.5 -0.5 0 -0.4943900888896422 -0.47349089190363358 0 -0.5 -0.5 0 -0.4943900888896422 -0.47349089190363358 0 -0.5 -0.44150235328842258 0 -0.49427958746526202 -0.49999999999999512 0 -0.4943900888896422 -0.47349089190363358 0 -0.48436842240857858 -0.48714093788813112 0 -0.49427958746526202 -0.49999999999999512 0 -0.47650045540741742 -0.5 0 -0.48436842240857858 -0.48714093788813112 0 -0.4943900888896422 -0.47349089190363358 0 -0.47066899942757451 -0.47576530412887819 0 -0.48436842240857858 -0.48714093788813112 0 -0.47066899942757451 -0.47576530412887819 0 -0.47650045540741742 -0.5 0 -0.48436842240857858 -0.48714093788813112 0 -0.47066899942757451 -0.47576530412887819 0 -0.45872132334957288 -0.49999999999999928 0 -0.45242967983978871 -0.4846708604340636 0 -0.47066899942757451 -0.47576530412887819 0 -0.47650045540741742 -0.5 0 -0.45872132334957288 -0.49999999999999928 0 -0.47066899942757451 -0.47576530412887819 0 -0.45872132334957288 -0.49999999999999928 0 -0.47066899942757451 -0.47576530412887819 0 -0.45242967983978871 -0.4846708604340636 0 -0.45249717469141032 -0.46588444847215849 0 -0.43763952177061649 -0.47770500498713542 0 -0.45242967983978871 -0.4846708604340636 0 -0.45249717469141032 -0.46588444847215849 0 -0.43763952177061649 -0.47770500498713542 0 -0.44291044788006362 -0.49999999999999939 0 -0.45242967983978871 -0.4846708604340636 0 -0.43763952177061649 -0.47770500498713542 0 -0.44291044788006362 -0.49999999999999939 0 -0.45872132334957288 -0.49999999999999928 0 -0.44291044788006362 -0.49999999999999939 0 -0.45242967983978871 -0.4846708604340636 0 -0.44838221886832419 -0.4464230337388379 0 -0.4323685956611692 -0.45541000997427139 0 -0.435988539966085 -0.44148905847597392 0 -0.44838221886832419 -0.4464230337388379 0 -0.44213238819953832 -0.43491600865963681 0 -0.435988539966085 -0.44148905847597392 0 -0.44838221886832419 -0.4464230337388379 0 -0.45249717469141032 -0.46588444847215849 0 -0.45755175660874181 -0.45423607616472811 0 -0.44838221886832419 -0.4464230337388379 0 -0.45249717469141032 -0.46588444847215849 0 -0.4323685956611692 -0.45541000997427139 0 -0.43763952177061649 -0.47770500498713542 0 -0.45249717469141032 -0.46588444847215849 0 -0.4323685956611692 -0.45541000997427139 0 -0.47066899942757451 -0.47576530412887819 0 -0.45249717469141032 -0.46588444847215849 0 -0.4675747862741928 -0.45726336772241771 0 -0.45249717469141032 -0.46588444847215849 0 -0.45755175660874181 -0.45423607616472811 0 -0.4675747862741928 -0.45726336772241771 0 -0.44838221886832419 -0.4464230337388379 0 -0.46897642374787268 -0.44262015471777721 0 -0.45660235518767722 -0.42786105997071933 0 -0.44838221886832419 -0.4464230337388379 0 -0.45755175660874181 -0.45423607616472811 0 -0.46897642374787268 -0.44262015471777721 0 -0.45755175660874181 -0.45423607616472811 0 -0.4675747862741928 -0.45726336772241771 0 -0.46897642374787268 -0.44262015471777721 0 -0.4943900888896422 -0.47349089190363358 0 -0.5 -0.44150235328842258 0 -0.49450059031402238 -0.44698178380727199 0 -0.46897642374787268 -0.44262015471777721 0 -0.48473746643246862 -0.43972512984246093 0 -0.48043585850414389 -0.43127077967876992 0 -0.46897642374787268 -0.44262015471777721 0 -0.4826166755055763 -0.45153060825775743 0 -0.48473746643246862 -0.43972512984246093 0 -0.4675747862741928 -0.45726336772241771 0 -0.46897642374787268 -0.44262015471777721 0 -0.4826166755055763 -0.45153060825775743 0 -0.47066899942757451 -0.47576530412887819 0 -0.4826166755055763 -0.45153060825775743 0 -0.4943900888896422 -0.47349089190363358 0 -0.47066899942757451 -0.47576530412887819 0 -0.4826166755055763 -0.45153060825775743 0 -0.47066899942757451 -0.47576530412887819 0 -0.4675747862741928 -0.45726336772241771 0 -0.4826166755055763 -0.45153060825775743 0 -0.4943900888896422 -0.47349089190363358 0 -0.49450059031402238 -0.44698178380727199 0 -0.4943900888896422 -0.47349089190363358 0 -0.4826166755055763 -0.45153060825775743 0 -0.49450059031402238 -0.44698178380727199 0 -0.4826166755055763 -0.45153060825775743 0 -0.48473746643246862 -0.43972512984246093 0 -0.49450059031402238 -0.44698178380727199 0 -0.5 -0.44150235328842258 0 -0.49461109173840262 -0.42047267571091063 0 -0.5 -0.39656953661894012 0 -0.49450059031402238 -0.44698178380727199 0 -0.49461109173840262 -0.42047267571091063 0 -0.48473746643246862 -0.43972512984246093 0 -0.49461109173840262 -0.42047267571091063 0 -0.48043585850414389 -0.43127077967876992 0 -0.5 -0.44150235328842258 0 -0.49450059031402238 -0.44698178380727199 0 -0.49461109173840262 -0.42047267571091063 0 -0.48473746643246862 -0.43972512984246093 0 -0.49450059031402238 -0.44698178380727199 0 -0.49461109173840262 -0.42047267571091063 0 -0.49461109173840262 -0.42047267571091063 0 -0.4947215931627828 -0.39396356761454909 0 -0.49461109173840262 -0.42047267571091063 0 -0.48393842445605872 -0.40713040098299402 0 -0.4947215931627828 -0.39396356761454909 0 -0.49461109173840262 -0.42047267571091063 0 -0.48393842445605872 -0.40713040098299402 0 -0.47214510592166908 -0.41939033492402211 0 -0.48393842445605872 -0.40713040098299402 0 -0.47214510592166908 -0.41939033492402211 0 -0.47427590700138023 -0.39469502568249409 0 -0.46897642374787268 -0.44262015471777721 0 -0.47214510592166908 -0.41939033492402211 0 -0.48043585850414389 -0.43127077967876992 0 -0.49461109173840262 -0.42047267571091063 0 -0.47214510592166908 -0.41939033492402211 0 -0.48043585850414389 -0.43127077967876992 0 -0.5 -0.39656953661894012 0 -0.4947215931627828 -0.39396356761454909 0 -0.48030453056746109 -0.36861144308094029 0 -0.49461109173840262 -0.42047267571091063 0 -0.5 -0.39656953661894012 0 -0.4947215931627828 -0.39396356761454909 0 -0.48393842445605872 -0.40713040098299402 0 -0.4947215931627828 -0.39396356761454909 0 -0.47427590700138023 -0.39469502568249409 0 -0.47427590700138023 -0.39469502568249409 0 -0.48030453056746109 -0.36861144308094029 0 -0.4947215931627828 -0.39396356761454909 0 -0.47427590700138023 -0.39469502568249409 0 -0.48030453056746109 -0.36861144308094029 0 -0.47427590700138023 -0.39469502568249409 0 -0.46334377193483078 -0.37842983215876019 0 -0.48030453056746109 -0.36861144308094029 0 -0.46334377193483078 -0.37842983215876019 0 -0.45726543839001688 -0.40541672899881109 0 -0.44416021803808919 -0.38243724496113263 0 -0.47427590700138023 -0.39469502568249409 0 -0.46334377193483078 -0.37842983215876019 0 -0.45726543839001688 -0.40541672899881109 0 -0.45726543839001688 -0.40541672899881109 0 -0.43814282409564848 -0.40387353522152758 0 -0.44416021803808919 -0.38243724496113263 0 -0.43814282409564848 -0.40387353522152758 0 -0.44416021803808919 -0.38243724496113263 0 -0.4329908326547659 -0.40007252460533121 0 -0.43814282409564848 -0.40387353522152758 0 -0.44416021803808919 -0.38243724496113263 0 -0.46897642374787268 -0.44262015471777721 0 -0.47214510592166908 -0.41939033492402211 0 -0.45660235518767722 -0.42786105997071933 0 -0.47214510592166908 -0.41939033492402211 0 -0.47427590700138023 -0.39469502568249409 0 -0.45726543839001688 -0.40541672899881109 0 -0.47214510592166908 -0.41939033492402211 0 -0.45726543839001688 -0.40541672899881109 0 -0.45660235518767722 -0.42786105997071933 0 -0.45726543839001688 -0.40541672899881109 0 -0.45660235518767722 -0.42786105997071933 0 -0.44309263043645408 -0.41812298423377797 0 -0.45726543839001688 -0.40541672899881109 0 -0.43814282409564848 -0.40387353522152758 0 -0.44309263043645408 -0.41812298423377797 0 -0.43814282409564848 -0.40387353522152758 0 -0.44309263043645408 -0.41812298423377797 0 -0.43209373842114163 -0.42530092927673752 0 -0.44838221886832419 -0.4464230337388379 0 -0.45660235518767722 -0.42786105997071933 0 -0.44213238819953832 -0.43491600865963681 0 -0.45660235518767722 -0.42786105997071933 0 -0.44213238819953832 -0.43491600865963681 0 -0.43132710435572019 -0.42815377149591122 0 -0.45660235518767722 -0.42786105997071933 0 -0.44309263043645408 -0.41812298423377797 0 -0.43132710435572019 -0.42815377149591122 0 -0.45660235518767722 -0.42786105997071933 0 -0.43132710435572019 -0.42815377149591122 0 -0.44213238819953832 -0.43491600865963681 0 -0.42986244815509678 -0.43337144475258638 0 -0.435988539966085 -0.44148905847597392 0 -0.44213238819953832 -0.43491600865963681 0 -0.42986244815509678 -0.43337144475258638 0 -0.43132710435572019 -0.42815377149591122 0 -0.42986244815509678 -0.43337144475258638 0 -0.43132710435572019 -0.42815377149591122 0 -0.42986244815509678 -0.43337144475258638 0 -0.42494843276815808 -0.42822764260015772 0 -0.42026026496879931 -0.43681168621285732 0 -0.42986244815509678 -0.43337144475258638 0 -0.42494843276815808 -0.42822764260015772 0 -0.43132710435572019 -0.42815377149591122 0 -0.42494843276815808 -0.42822764260015772 0 -0.43209373842114163 -0.42530092927673752 0 -0.42214799869492048 -0.41876725226122891 0 -0.42494843276815808 -0.42822764260015772 0 -0.43209373842114163 -0.42530092927673752 0 -0.42494843276815808 -0.42822764260015772 0 -0.43209373842114163 -0.42530092927673752 0 -0.43132710435572019 -0.42815377149591122 0 -0.42494843276815808 -0.42822764260015772 0 -0.43132710435572019 -0.42815377149591122 0 -0.44309263043645408 -0.41812298423377797 0 -0.43209373842114163 -0.42530092927673752 0 -0.43132710435572019 -0.42815377149591122 0 -0.43209373842114163 -0.42530092927673752 0 -0.43132710435572019 -0.42815377149591122 0 -0.43814282409564848 -0.40387353522152758 0 -0.43209373842114163 -0.42530092927673752 0 -0.43814282409564848 -0.40387353522152758 0 -0.43209373842114163 -0.42530092927673752 0 -0.42736227186559528 -0.41250939947999687 0 -0.43814282409564848 -0.40387353522152758 0 -0.42736227186559528 -0.41250939947999687 0 -0.42798743510346321 -0.40461924019690898 0
[...]
<PointData Scalars="" Vectors="displacement," Tensors="">
<DataArray type="Float64" Name="displacement" NumberOfComponents="3" format="ascii">
5.9199947659354991e-08 0.01499976444938707 0 4.2075063226379854e-05 0.014363306992787615 0 -9.7642016952374436e-11 0.014999767768348833 0 3.9571327944130903e-10 0.014999962847938458 0 9.8179527911734791e-08 0.014206256691435682 0 3.9571327944130903e-10 0.014999962847938458 0 9.8179527911734791e-08 0.014206256691435682 0 2.567053626781044e-09 0.013244949122775579 0 4.0593025012962856e-08 0.014999790527794651 0 5.0103889104536764e-05 0.014530017099265513 0 3.1416408485667789e-05 0.014800209124661422 0 4.0593025012962856e-08 0.014999790527794651 0 4.7711778564391168e-08 0.014999663082163949 0 3.1416408485667789e-05 0.014800209124661422 0 5.0103889104536764e-05 0.014530017099265513 0 3.892081646820772e-05 0.014703000720839337 0 3.1416408485667789e-05 0.014800209124661422 0 3.892081646820772e-05 0.014703000720839337 0 4.7711778564391168e-08 0.014999663082163949 0 3.1416408485667789e-05 0.014800209124661422 0 0.00019879215738090021 0.014402466025411944 0 2.7842266988061571e-07 0.014999631422324678 0 0.0001325497658051341 0.014721637381707968 0 3.892081646820772e-05 0.014703000720839337 0 4.7711778564391168e-08 0.014999663082163949 0 -1.6359153049416187e-08 0.015000031198119988 0 0.00011402585726347073 0.014537203485990701 0 -3.3807105457943861e-09 0.014999818060985555 0 0.00019879215738090021 0.014402466025411944 0 0.0001325497658051341 0.014721637381707968 0 0.00019382468352372343 0.01443754680711873 0 0.0001955622417253397 0.014609957939973417 0 0.0001325497658051341 0.014721637381707968 0 0.00019382468352372343 0.01443754680711873 0 0.0001955622417253397 0.014609957939973417 0 5.4431963944869149e-09 0.014999473452931447 0 0.0001325497658051341 0.014721637381707968 0 0.00013209515468365013 0.014762294357864324 0 8.0296808758362017e-08 0.014999884485220624 0 2.7842266988061571e-07 0.014999631422324678 0 5.4431963944869149e-09 0.014999473452931447 0 0.0001325497658051341 0.014721637381707968 0 0.00011278171635358461 0.014264129093887863 0 0.00012985348982601528 0.014632666630055682 0 3.4017507529166802e-05 0.014474688052707751 0 0.00011278171635358461 0.014264129093887863 0 -8.594479185329848e-06 0.014281052566704307 0 3.4017507529166802e-05 0.014474688052707751 0 0.00011278171635358461 0.014264129093887863 0 0.00019382468352372343 0.01443754680711873 0 0.00015576951139634779 0.014230292173041809 0 0.00011278171635358461 0.014264129093887863 0 0.00019382468352372343 0.01443754680711873 0 0.00012985348982601528 0.014632666630055682 0 0.0001955622417253397 0.014609957939973417 0 0.00019382468352372343 0.01443754680711873 0 0.00012985348982601528 0.014632666630055682 0 0.00019879215738090021 0.014402466025411944 0 0.00019382468352372343 0.01443754680711873 0 0.0001565496965531229 0.014169178345185617 0 0.00019382468352372343 0.01443754680711873 0 0.00015576951139634779 0.014230292173041809 0 0.0001565496965531229 0.014169178345185617 0 0.00011278171635358461 0.014264129093887863 0 0.00013970352171175483 0.013889373011250305 0 4.111625901074636e-05 0.01377940869524732 0 0.00011278171635358461 0.014264129093887863 0 0.00015576951139634779 0.014230292173041809 0 0.00013970352171175483 0.013889373011250305 0 0.00015576951139634779 0.014230292173041809 0 0.0001565496965531229 0.014169178345185617 0 0.00013970352171175483 0.013889373011250305 0 9.8179527911734791e-08 0.014206256691435682 0 2.567053626781044e-09 0.013244949122775579 0 -4.0747604864582155e-07 0.013410609521988139 0 0.00013970352171175483 0.013889373011250305 0 0.00016335173221843186 0.013752476648689334 0 0.00016399993404967659 0.013568287107495212 0 0.00013970352171175483 0.013889373011250305 0 0.00013056904734564331 0.014031935017991876 0 0.00016335173221843186 0.013752476648689334 0 0.0001565496965531229 0.014169178345185617 0 0.00013970352171175483 0.013889373011250305 0 0.00013056904734564331 0.014031935017991876 0 0.00011402585726347073 0.014537203485990701 0 0.00012775983854228858 0.014123512550403713 0 5.0103889104536764e-05 0.014530017099265513 0 3.892081646820772e-05 0.014703000720839337 0 0.00013056904734564331 0.014031935017991876 0 0.00019879215738090021 0.014402466025411944 0 0.0001565496965531229 0.014169178345185617 0 0.00013056904734564331 0.014031935017991876 0 4.2075063226379854e-05 0.014363306992787615 0 8.1158358287561496e-05 0.013669741190840867 0 5.0103889104536764e-05 0.014530017099265513 0 0.00013056904734564331 0.014031935017991876 0 0.00014995109703838246 0.013938333000146578 0 0.00013056904734564331 0.014031935017991876 0 0.00016335173221843186 0.013752476648689334 0 0.00014995109703838246 0.013938333000146578 0 2.567053626781044e-09 0.013244949122775579 0 8.601867898263927e-06 0.012615547155766996 0 1.1752420658954246e-07 0.011897659727027018 0 8.1158358287561496e-05 0.013669741190840867 0 7.9393788563436666e-05 0.01285281554100455 0 0.00016335173221843186 0.013752476648689334 0 0.00018484976387989237 0.013147552180358801 0 0.00016399993404967659 0.013568287107495212 0 2.567053626781044e-09 0.013244949122775579 0 -4.0747604864582155e-07 0.013410609521988139 0 8.601867898263927e-06 0.012615547155766996 0 0.00016335173221843186 0.013752476648689334 0 0.00014995109703838246 0.013938333000146578 0 0.00018484976387989237 0.013147552180358801 0 7.9393788563436666e-05 0.01285281554100455 0 -3.1838310822805335e-05 0.012143651418639125 0 0.00018484976387989237 0.013147552180358801 0 9.8004615766238894e-05 0.012818861014679042 0 -8.3910078286422092e-06 0.011978147037270357 0 0.00018484976387989237 0.013147552180358801 0 9.8004615766238894e-05 0.012818861014679042 0 0.00013381300067831292 0.013377203239252483 0 9.8004615766238894e-05 0.012818861014679042 0 0.00013381300067831292 0.013377203239252483 0 -8.4029598896898496e-05 0.012760207488654798 0 0.00013970352171175483 0.013889373011250305 0 0.00013381300067831292 0.013377203239252483 0 0.00016399993404967659 0.013568287107495212 0 0.00018484976387989237 0.013147552180358801 0 0.00013381300067831292 0.013377203239252483 0 0.00016399993404967659 0.013568287107495212 0 1.1752420658954246e-07 0.011897659727027018 0 -8.3910078286422092e-06 0.011978147037270357 0 -9.7455148715657662e-05 0.011545893805463985 0 8.601867898263927e-06 0.012615547155766996 0 1.1752420658954246e-07 0.011897659727027018 0 -8.3910078286422092e-06 0.011978147037270357 0 9.8004615766238894e-05 0.012818861014679042 0 -8.3910078286422092e-06 0.011978147037270357 0 -8.4029598896898496e-05 0.012760207488654798 0 -3.533963305948913e-05 0.012628996220028174 0 -0.00042707455671416186 0.012233984715345585 0 -8.3910078286422092e-06 0.011978147037270357 0 -8.4029598896898496e-05 0.012760207488654798 0 -9.7455148715657662e-05 0.011545893805463985 0 -8.4029598896898496e-05 0.012760207488654798 0 -0.00056543038924086145 0.013106805962440925 0 -0.00084463776251598977 0.012586784969235194 0 -0.00056543038924086145 0.013106805962440925 0 3.6947014790435814e-05 0.013427715309584146 0 -0.00045334780593197491 0.013612972510661866 0 -8.4029598896898496e-05 0.012760207488654798 0 -0.00056543038924086145 0.013106805962440925 0 3.6947014790435814e-05 0.013427715309584146 0 3.6947014790435814e-05 0.013427715309584146 0 -1.6535429537153598e-05 0.013718310160240719 0 -0.00045334780593197491 0.013612972510661866 0 0.00035805988808818278 0.011899257945665901 0 4.7690838516537623e-05 0.011794252850846296 0 0.0002989521836420876 0.011976542451457581 0 0.00020422558958611327 0.012748443383940896 0 -0.00022920908769064508 0.012867089370391884 0 0.00013970352171175483 0.013889373011250305 0 0.00013381300067831292 0.013377203239252483 0 4.111625901074636e-05 0.01377940869524732 0 0.00013381300067831292 0.013377203239252483 0 -8.4029598896898496e-05 0.012760207488654798 0 3.6947014790435814e-05 0.013427715309584146 0 0.00013381300067831292 0.013377203239252483 0 3.6947014790435814e-05 0.013427715309584146 0 4.111625901074636e-05 0.01377940869524732 0 3.6947014790435814e-05 0.013427715309584146 0 4.111625901074636e-05 0.01377940869524732 0 7.3609575726747098e-05 0.013674025938416299 0 3.6947014790435814e-05 0.013427715309584146 0 -1.6535429537153598e-05 0.013718310160240719 0 7.3609575726747098e-05 0.013674025938416299 0 -1.6535429537153598e-05 0.013718310160240719 0 7.3609575726747098e-05 0.013674025938416299 0 7.3436100202616041e-05 0.013661901572689839 0 0.00011278171635358461 0.014264129093887863 0 4.111625901074636e-05 0.01377940869524732 0 -8.594479185329848e-06 0.014281052566704307 0 4.111625901074636e-05 0.01377940869524732 0 -8.594479185329848e-06 0.014281052566704307 0 -0.00026038845801042848 0.014584999343273779 0 4.111625901074636e-05 0.01377940869524732 0 7.3609575726747098e-05 0.013674025938416299 0 6.676821386369327e-05 0.013655671971565444 0 -1.0873777473977424e-05 0.013916825763897578 0 2.4418524124181683e-05 0.013892643643908974 0 -8.594479185329848e-06 0.014281052566704307 0 -0.00010964821375210024 0.014612112167296422 0 3.4017507529166802e-05 0.014474688052707751 0 -8.594479185329848e-06 0.014281052566704307 0 -0.00010964821375210024 0.014612112167296422 0 -0.00026038845801042848 0.014584999343273779 0 -7.8927132532146199e-06 0.014070110242960591 0 2.4418524124181683e-05 0.013892643643908974 0 -0.00010964821375210024 0.014612112167296422 0 -0.00016693202545428083 0.014677924372798896 0 -6.8487046123145569e-05 0.014733247476234454 0 -0.00010964821375210024 0.014612112167296422 0 -0.00016693202545428083 0.014677924372798896 0 -0.00017192700967101838 0.014593806999344962 0 0.00076953584632846153 0.012130918610523605 0 0.00071958854581498583 0.012010297664773021 0 0.00061219312498309454 0.01217277278467014 0 9.0977884942489154e-05 0.01366818975197978 0 6.7033239604531237e-05 0.013442401536377758 0 0.0001566224380326425 0.013675552115867053 0 0.00013705905266459141 0.013628924223617755 0 0.00015574928660525217 0.013634104637070731 0 9.0977884942489154e-05 0.01366818975197978 0 2.4418524124181683e-05 0.013892643643908974 0 7.3609575726747098e-05 0.013674025938416299 0 7.3436100202616041e-05 0.013661901572689839 0 6.676821386369327e-05 0.013655671971565444 0 6.7033239604531237e-05 0.013442401536377758 0 2.4418524124181683e-05 0.013892643643908974 0 0.00020422558958611327 0.012748443383940896 0 6.7033239604531237e-05 0.013442401536377758 0 0.00035805988808818278 0.011899257945665901 0 0.00071958854581498583 0.012010297664773021 0 0.00050597748310594632 0.012081276053233194 0 0.00035805988808818278 0.011899257945665901 0 0.00050597748310594632 0.012081276053233194 0 0.00037483989131446632 0.012064509683457996 0 0.00050597748310594632 0.012081276053233194 0 0.00061219312498309454 0.01217277278467014 0 0.00046631079224998545 0.012263675751067137 0 0.00050597748310594632 0.012081276053233194 0 0.00046631079224998545 0.012263675751067137 0 0.00037483989131446632 0.012064509683457996 0 0.00071958854581498583 0.012010297664773021 0 0.00050597748310594632 0.012081276053233194 0 0.00061219312498309454 0.01217277278467014 0 0.00046631079224998545 0.012263675751067137 0 0.00062941400049041382 0.012324276793039286 0 0.00051455137543543841 0.012536457707718284 0 0.00046631079224998545 0.012263675751067137 0 0.00033142072925730674 0.012467415994950232 0 0.00051455137543543841 0.012536457707718284 0 0.00061219312498309454 0.01217277278467014 0 0.00046631079224998545 0.012263675751067137 0 0.00062941400049041382 0.012324276793039286 0 -0.00016693202545428083 0.014677924372798896 0 -6.8487046123145569e-05 0.014733247476234454 0 -5.2086936942459553e-05 0.014891154084618944 0 9.0977884942489154e-05 0.01366818975197978 0 -4.09980610033637e-05 0.014805598996476439 0 -0.00016480561730655539 0.014124407361124278 0 -3.4290243105874243e-05 0.014475186465112488 0 -0.00015921022924820648 0.01450324110229894 0 9.0977884942489154e-05 0.01366818975197978 0 0.00033096688799081107 0.013390620653103331 0 0.00076953584632846153 0.012130918610523605 0 0.00062941400049041382 0.012324276793039286 0 0.00078139272476969999 0.012521994362768846 0 0.00076953584632846153 0.012130918610523605 0 0.00061219312498309454 0.01217277278467014 0 0.00062941400049041382 0.012324276793039286 0 9.656401447144914e-06 0.012398847517619067 0 0.0004035741109526747 0.010873350240393745 0 0.0002989521836420876 0.011976542451457581 0 0.00015500721493963697 0.012223006511202903 0 -6.1337992751685531e-05 0.012198988189819942 0 4.377335452396474e-05 0.011958238792008998 0 0.0002989521836420876 0.011976542451457581 0 -2.757865534792593e-05 0.012136809333291717 0 4.7690838516537623e-05 0.011794252850846296 0 4.377335452396474e-05 0.011958238792008998 0 0.0002989521836420876 0.011976542451457581 0 4.377335452396474e-05 0.011958238792008998 0 -2.757865534792593e-05 0.012136809333291717 0 -0.00014352104386557434 0.011922443197189729 0 4.7690838516537623e-05 0.011794252850846296 0 4.377335452396474e-05 0.011958238792008998 0 -0.00014352104386557434 0.011922443197189729 0 0.0002989521836420876 0.011976542451457581 0 0.00031985075845158663 0.012168128227861676 0 0.00015500721493963697 0.012223006511202903 0 0.00035805988808818278 0.011899257945665901 0 0.0002989521836420876 0.011976542451457581 0 0.00037483989131446632 0.012064509683457996 0 0.0002989521836420876 0.011976542451457581 0 0.00037483989131446632 0.012064509683457996 0 0.00031985075845158663 0.012168128227861676 0 0.00046631079224998545 0.012263675751067137 0 0.00037483989131446632 0.012064509683457996 0 0.00031985075845158663 0.012168128227861676 0 0.00021798133803314413 0.012431373370072579 0 0.00015500721493963697 0.012223006511202903 0 5.6518928717661101e-05 0.012518829516692248 0 0.00046631079224998545 0.012263675751067137 0 0.00031985075845158663 0.012168128227861676 0 0.00029820263551255129 0.012310296918755828 0 0.00046631079224998545 0.012263675751067137 0 0.00029820263551255129 0.012310296918755828 0 0.00033142072925730674 0.012467415994950232 0 0.00029820263551255129 0.012310296918755828 0 0.00021798133803314413 0.012431373370072579 0 0.00033142072925730674 0.012467415994950232 0 0.00029820263551255129 0.012310296918755828 0 0.00021798133803314413 0.012431373370072579 0 0.00015500721493963697 0.012223006511202903 0 0.00031985075845158663 0.012168128227861676 0 0.00029820263551255129 0.012310296918755828 0 0.00015500721493963697 0.012223006511202903 0 0.00010496370026689767 0.012374594596852541 0 0.00035053191033954724 0.012166391505248298 0 0.00015500721493963697 0.012223006511202903 0 1.3828546645706217e-05 0.012327296508439051 0 7.7166857545185523e-05 0.012447547819240807 0 0.00015500721493963697 0.012223006511202903 0 1.0562358042869406e-05 0.012245587033994915 0 -6.1337992751685531e-05 0.012198988189819942 0 0.00015500721493963697 0.012223006511202903 0 1.237105392633658e-05 0.012291719970158498 0 1.0562358042869406e-05 0.012245587033994915 0 0.00015500721493963697 0.012223006511202903 0 1.237105392633658e-05 0.012291719970158498 0 1.3828546645706217e-05 0.012327296508439051 0 0.0004601448946733435 0.011387455970313173 0 0.00047585598599127112 0.011748752434447283 0 1.237105392633658e-05 0.012291719970158498 0 -1.4492337586939021e-05 0.012272174919577813 0 1.4059028264090702e-05 0.012323700064075549 0 0.00082296563056589783 0.011298322306262799 0 0.00079216305744083814 0.011237323852651832 0 0.0010280360058345433 0.01110320859157741 0 0.00044833292748629232 0.011868193771915295 0 0.00047585598599127112 0.011748752434447283 0 0.0004601448946733435 0.011387455970313173 0 0.0004035741109526747 0.010873350240393745 0 -1.949143131002884e-05 0.012272909522683013 0 1.0562358042869406e-05 0.012245587033994915 0 -6.1337992751685531e-05 0.012198988189819942 0 1.237105392633658e-05 0.012291719970158498 0 -1.4492337586939021e-05 0.012272174919577813 0 1.0562358042869406e-05 0.012245587033994915 0 0.0004601448946733435 0.011387455970313173 0 0.00030280388699073665 0.011568171330681897 0 0.00066246971719735191 0.011909439459611645 0 0.00066502265994456496 0.011465455259745965 0 0.00055927887631409558 0.01170296715596207 0 0.00053350828221376584 0.011910269932315521 0 0.00056939072449815453 0.011826121056473703 0 0.0006581895360915082 0.011996937314551322 0 0.00079216305744083814 0.011237323852651832 0 0.00079276214154233463 0.01094603013038113 0 0.0010280360058345433 0.01110320859157741 0 0.00047585598599127112 0.011748752434447283 0 0.0009374878129513939 0.01124746130784496 0 0.00047585598599127112 0.011748752434447283 0 0.00035053191033954724 0.012166391505248298 0 0.0009374878129513939 0.01124746130784496 0 0.00035053191033954724 0.012166391505248298 0 5.6518928717661101e-05 0.012518829516692248 0 0.00023829789567209023 0.012630171641095464 0 0.00023376129773846187 0.012858891067446315 0 0.00035053191033954724 0.012166391505248298 0 0.00063392119138234451 0.012217581036956839 0 0.00021798133803314413 0.012431373370072579 0 0.00023829789567209023 0.012630171641095464 0 0.00033142072925730674 0.012467415994950232 0 0.00021798133803314413 0.012431373370072579 0 5.6518928717661101e-05 0.012518829516692248 0 0.00023829789567209023 0.012630171641095464 0 0.00023829789567209023 0.012630171641095464 0 0.00033142072925730674 0.012467415994950232 0 0.0003550508849180666 0.012606116560483133 0 0.00033142072925730674 0.012467415994950232 0 0.0003550508849180666 0.012606116560483133 0 0.00051455137543543841 0.012536457707718284 0 0.0003550508849180666 0.012606116560483133 0 0.00030776668319643991 0.012761662559715847 0 0.00042350266415336368 0.012724330276332222 0 0.00023829789567209023 0.012630171641095464 0 0.0003550508849180666 0.012606116560483133 0 0.00030776668319643991 0.012761662559715847 0 0.00040191202102821453 0.012861820830631388 0 0.00035594076718484073 0.012856537695518477 0 0.00042350266415336368 0.012724330276332222 0 0.00035594076718484073 0.012856537695518477 0 0.00028162318988131271 0.012883017558015375 0 0.00042350266415336368 0.012724330276332222 0 0.00030776668319643991 0.012761662559715847 0 0.00026625339240726086 0.012880007986958444 0 0.00042350266415336368 0.012724330276332222 0 0.00057817392881466794 0.01232654047357565 0 0.00027362884158818834 0.012837416529978149 0 0.00057817392881466794 0.01232654047357565 0 0.00085255556532279776 0.012287048512029809 0 0.00033550776654514298 0.012937888173632056 0 0.00028363270680125411 0.012881936325682467 0 0.00032875803788271992 0.012998267295246895 0 0.00040191202102821453 0.012861820830631388 0 0.00035594076718484073 0.012856537695518477 0 0.00036127038066969186 0.012905202669888975 0 0.00040191202102821453 0.012861820830631388 0 0.00039786848492240329 0.0129428273627799 0 0.00036127038066969186 0.012905202669888975 0 0.00039786848492240329 0.0129428273627799 0 0.00036127038066969186 0.012905202669888975 0 0.00033550776654514298 0.012937888173632056 0 0.00036127038066969186 0.012905202669888975 0 0.00033550776654514298 0.012937888173632056 0 0.00031184943570458889 0.012901313155902131 0 0.00033550776654514298 0.012937888173632056 0 0.00031184943570458889 0.012901313155902131 0 0.00028363270680125411 0.012881936325682467 0 0.00057415099075963606 0.012362817306162914 0 0.00057817392881466794 0.01232654047357565 0 0.00035594076718484073 0.012856537695518477 0 0.00031184943570458889 0.012901313155902131 0 0.00028162318988131271 0.012883017558015375 0 0.00035594076718484073 0.012856537695518477 0 0.00036127038066969186 0.012905202669888975 0 0.00031184943570458889 0.012901313155902131 0 0.00078563943024119356 0.011989431030794162 0 0.00071150950661802469 0.012065163294068018 0 0.00084014001505393278 0.012142409975420865 0 0.0011169461225850473 0.011543734597526707 0 0.0010842196071846543 0.011633567463162922 0 0.00087473545834301151 0.011503975125471704 0 0.0011169461225850473 0.011543734597526707 0 0.001149575965543272 0.011567003631229082 0 0.0010842196071846543 0.011633567463162922 0 0.00063392119138234451 0.012217581036956839 0 0.00057817392881466794 0.01232654047357565 0 0.00057817392881466794 0.01232654047357565 0 0.0011040191618926639 0.01172017377714824 0