<?xml version="1.0"?>
<VTKFile type="UnstructuredGrid" version="0.1" byte_order="LittleEndian">
<UnstructuredGrid>
<Piece NumberOfPoints="31898" NumberOfCells="11152">
<Points>
<DataArray type="Float64" NumberOfComponents="3" format="ascii">
-0.5 -0.5 0 -0.47620991077874902 -0.44978878706170539 0 -0.49999999999999473 -0.42132396840504388 0 -0.5 -0.5 0 -0.47160970827802529 -0.4793630013852106 0 -0.47620991077874902 -0.44978878706170539 0 -0.5 -0.5 0 -0.47160970827802529 -0.4793630013852106 0 -0.44860394795025399 -0.5 0 -0.47160970827802529 -0.4793630013852106 0 -0.44860394795025399 -0.5 0 -0.4490820238307246 -0.45820516232899983 0 -0.44860394795025399 -0.5 0 -0.4490820238307246 -0.45820516232899983 0 -0.42881687682924802 -0.47781464288736519 0 -0.4490820238307246 -0.45820516232899983 0 -0.45555437223955858 -0.42914059360647611 0 -0.4490820238307246 -0.45820516232899983 0 -0.45555437223955858 -0.42914059360647611 0 -0.43867285131603428 -0.4271457417558665 0 -0.4490820238307246 -0.45820516232899983 0 -0.43867285131603428 -0.4271457417558665 0 -0.4263356171060747 -0.44269880333887462 0 -0.47160970827802529 -0.4793630013852106 0 -0.4490820238307246 -0.45820516232899983 0 -0.47620991077874902 -0.44978878706170539 0 -0.4490820238307246 -0.45820516232899983 0 -0.47620991077874902 -0.44978878706170539 0 -0.45555437223955858 -0.42914059360647611 0 -0.47620991077874902 -0.44978878706170539 0 -0.48101336032419229 -0.41069999664450008 0 -0.45555437223955858 -0.42914059360647611 0 -0.47620991077874902 -0.44978878706170539 0 -0.49999999999999473 -0.42132396840504388 0 -0.48101336032419229 -0.41069999664450008 0 -0.49999999999999473 -0.42132396840504388 0 -0.48101336032419229 -0.41069999664450008 0 -0.5 -0.393886241813306 0 -0.49999999999999473 -0.42132396840504388 0 -0.48101336032419229 -0.41069999664450008 0 -0.5 -0.393886241813306 0 -0.47854472220918332 -0.38978458738689759 0 -0.48422759779560409 -0.37130120630367158 0 -0.5 -0.393886241813306 0 -0.5 -0.36644851522156802 0 -0.48422759779560409 -0.37130120630367158 0 -0.48101336032419229 -0.41069999664450008 0 -0.5 -0.393886241813306 0 -0.47854472220918332 -0.38978458738689759 0 -0.48101336032419229 -0.41069999664450008 0 -0.47854472220918332 -0.38978458738689759 0 -0.46202672064839212 -0.40007602488395211 0 -0.48101336032419229 -0.41069999664450008 0 -0.46202672064839212 -0.40007602488395211 0 -0.47854472220918332 -0.38978458738689759 0 -0.46725442735267431 -0.37660061361585562 0 -0.46202672064839212 -0.40007602488395211 0 -0.47854472220918332 -0.38978458738689759 0 -0.46725442735267431 -0.37660061361585562 0 -0.48422759779560409 -0.37130120630367158 0 -0.46725442735267431 -0.37660061361585562 0 -0.46202672064839212 -0.40007602488395211 0 -0.46725442735267431 -0.37660061361585562 0 -0.45645674801697989 -0.38644133236760531 0 -0.46202672064839212 -0.40007602488395211 0 -0.46725442735267431 -0.37660061361585562 0 -0.45645674801697989 -0.38644133236760531 0 -0.4540003998136638 -0.37455519391687309 0 -0.45645674801697989 -0.38644133236760531 0 -0.46202672064839212 -0.40007602488395211 0 -0.44257020456291563 -0.38918913383950271 0 -0.46202672064839212 -0.40007602488395211 0 -0.44257020456291563 -0.38918913383950271 0 -0.44727608925983742 -0.41095911152778891 0 -0.46202672064839212 -0.40007602488395211 0 -0.44257020456291563 -0.38918913383950271 0 -0.44257020456291563 -0.38918913383950271 0 -0.44727608925983742 -0.41095911152778891 0 -0.43479358559901082 -0.4041454901736512 0 -0.44257020456291563 -0.38918913383950271 0 -0.4540003998136638 -0.37455519391687309 0 -0.44172858264042247 -0.37082207246888088 0 -0.45645674801697989 -0.38644133236760531 0 -0.44257020456291563 -0.38918913383950271 0 -0.4540003998136638 -0.37455519391687309 0 -0.46202672064839212 -0.40007602488395211 0 -0.45555437223955858 -0.42914059360647611 0 -0.44727608925983742 -0.41095911152778891 0 -0.46202672064839212 -0.40007602488395211 0 -0.45555437223955858 -0.42914059360647611 0 -0.48101336032419229 -0.41069999664450008 0 -0.46202672064839212 -0.40007602488395211 0 -0.45555437223955858 -0.42914059360647611 0 -0.44727608925983742 -0.41095911152778891 0 -0.43867285131603428 -0.4271457417558665 0 -0.43676601469929588 -0.41441201227470881 0 -0.44727608925983742 -0.41095911152778891 0 -0.43676601469929588 -0.41441201227470881 0 -0.43479358559901082 -0.4041454901736512 0 -0.45555437223955858 -0.42914059360647611 0 -0.44727608925983742 -0.41095911152778891 0 -0.43867285131603428 -0.4271457417558665 0 -0.43867285131603428 -0.4271457417558665 0 -0.42681803064840879 -0.42717069814352421 0 -0.4263356171060747 -0.44269880333887462 0 -0.42681803064840879 -0.42717069814352421 0 -0.41531815884496182 -0.42985383783075998 0 -0.4263356171060747 -0.44269880333887462 0 -0.42681803064840879 -0.42717069814352421 0 -0.42624289495594048 -0.42089725947505818 0 -0.42083332353326591 -0.42146747131641099 0 -0.42681803064840879 -0.42717069814352421 0 -0.43096994786351572 -0.41951492446283251 0 -0.42624289495594048 -0.42089725947505818 0 -0.43867285131603428 -0.4271457417558665 0 -0.42681803064840879 -0.42717069814352421 0 -0.43096994786351572 -0.41951492446283251 0 -0.43867285131603428 -0.4271457417558665 0 -0.43676601469929588 -0.41441201227470881 0 -0.43096994786351572 -0.41951492446283251 0 -0.43676601469929588 -0.41441201227470881 0 -0.43096994786351572 -0.41951492446283251 0 -0.42907264086257813 -0.41311715872526122 0 -0.43676601469929588 -0.41441201227470881 0 -0.42907264086257813 -0.41311715872526122 0 -0.43479358559901082 -0.4041454901736512 0 -0.42907264086257813 -0.41311715872526122 0 -0.43479358559901082 -0.4041454901736512 0 -0.42460885511582858 -0.40417321677700252 0 -0.42907264086257813 -0.41311715872526122 0 -0.41997834854398469 -0.41180534796019508 0 -0.42907264086257813 -0.41311715872526122 0 -0.42635027777857132 -0.41543594397746519 0 -0.41997834854398469 -0.41180534796019508 0 -0.42907264086257813 -0.41311715872526122 0 -0.41997834854398469 -0.41180534796019508 0 -0.42460885511582858 -0.40417321677700252 0 -0.42635027777857132 -0.41543594397746519 0 -0.41997834854398469 -0.41180534796019508 0 -0.42635027777857132 -0.41543594397746519 0 -0.42083332353326591 -0.42146747131641099 0 -0.41997834854398469 -0.41180534796019508 0 -0.43096994786351572 -0.41951492446283251 0 -0.42624289495594048 -0.42089725947505818 0 -0.42635027777857132 -0.41543594397746519 0 -0.43096994786351572 -0.41951492446283251 0 -0.42907264086257813 -0.41311715872526122 0 -0.42635027777857132 -0.41543594397746519 0 -0.42624289495594048 -0.42089725947505818 0 -0.42635027777857132 -0.41543594397746519 0 -0.42083332353326591 -0.42146747131641099 0 -0.42083332353326591 -0.42146747131641099 0 -0.41997834854398469 -0.41180534796019508 0 -0.40992282953163789 -0.42011435591993562 0 -0.41997834854398469 -0.41180534796019508 0 -0.39756877647335259 -0.40857286797681719 0 -0.41997834854398469 -0.41180534796019508 0 -0.40992282953163789 -0.42011435591993562 0 -0.39756877647335259 -0.40857286797681719 0 -0.40992282953163789 -0.42011435591993562 0 -0.41531815884496182 -0.42985383783075998 0 -0.39591554026262499 -0.42887225451549271 0 -0.41531815884496182 -0.42985383783075998 0 -0.39591554026262499 -0.42887225451549271 0 -0.41160927495564159 -0.44339431233754628 0 -0.42083332353326591 -0.42146747131641099 0 -0.40992282953163789 -0.42011435591993562 0 -0.41531815884496182 -0.42985383783075998 0 -0.42681803064840879 -0.42717069814352421 0 -0.42083332353326591 -0.42146747131641099 0 -0.41531815884496182 -0.42985383783075998 0 -0.44257020456291563 -0.38918913383950271 0 -0.42311368847744002 -0.37830224279505142 0 -0.42594061475171041 -0.39368797999533162 0 -0.44257020456291563 -0.38918913383950271 0 -0.42311368847744002 -0.37830224279505142 0 -0.44172858264042247 -0.37082207246888088 0 -0.44257020456291563 -0.38918913383950271 0 -0.42311368847744002 -0.37830224279505142 0 -0.42311368847744002 -0.37830224279505142 0 -0.42594061475171041 -0.39368797999533162 0 -0.416587075656149 -0.38785930376960043 0 -0.44257020456291563 -0.38918913383950271 0 -0.42594061475171041 -0.39368797999533162 0 -0.43479358559901082 -0.4041454901736512 0 -0.42594061475171041 -0.39368797999533162 0 -0.43479358559901082 -0.4041454901736512 0 -0.42460885511582858 -0.40417321677700252 0 -0.41997834854398469 -0.41180534796019508 0 -0.41325908582185972 -0.39811010703057192 0 -0.39770572831670092 -0.39911486077581648 0 -0.41997834854398469 -0.41180534796019508 0 -0.39770572831670092 -0.39911486077581648 0 -0.42594061475171041 -0.39368797999533162 0 -0.42460885511582858 -0.40417321677700252 0 -0.41325908582185972 -0.39811010703057192 0 -0.41997834854398469 -0.41180534796019508 0 -0.42460885511582858 -0.40417321677700252 0 -0.41325908582185972 -0.39811010703057192 0 -0.42594061475171041 -0.39368797999533162 0 -0.41325908582185972 -0.39811010703057192 0 -0.416587075656149 -0.38785930376960043 0 -0.41325908582185972 -0.39811010703057192 0 -0.416587075656149 -0.38785930376960043 0 -0.40403491357358612 -0.38133688525744702 0 -0.42311368847744002 -0.37830224279505142 0 -0.40403491357358612 -0.38133688525744702 0 -0.40365717239196519 -0.36741535175059892 0 -0.42311368847744002 -0.37830224279505142 0 -0.416587075656149 -0.38785930376960043 0 -0.40403491357358612 -0.38133688525744702 0 -0.40403491357358612 -0.38133688525744702 0 -0.39190790742475001 -0.38540387676521748 0 -0.39770572831670092 -0.39911486077581648 0 -0.40403491357358612 -0.38133688525744702 0 -0.39190790742475001 -0.38540387676521748 0 -0.3904578797192948 -0.37473938743617019 0 -0.41325908582185972 -0.39811010703057192 0 -0.40403491357358612 -0.38133688525744702 0 -0.39770572831670092 -0.39911486077581648 0 -0.39770572831670092 -0.39911486077581648 0 -0.37543310808941849 -0.38642437359143528 0 -0.39770572831670092 -0.39911486077581648 0 -0.37515920440272033 -0.40534038799344108 0 -0.37543310808941849 -0.38642437359143528 0 -0.39770572831670092 -0.39911486077581648 0 -0.37515920440272033 -0.40534038799344108 0 -0.39756877647335259 -0.40857286797681719
[...]
<PointData Scalars="" Vectors="displacement," Tensors="">
<DataArray type="Float64" Name="displacement" NumberOfComponents="3" format="ascii">
0.054995474859084438 4.2071531757174515e-07 0 0.053608556246216507 0.000279297251096283 0 0.054996317333260193 1.1650454940792426e-06 0 0.054995474859084438 4.2071531757174515e-07 0 0.052592941355707828 0.00018511815279990501 0 0.053608556246216507 0.000279297251096283 0 0.054995474859084438 4.2071531757174515e-07 0 0.052592941355707828 0.00018511815279990501 0 0.049349473775425284 4.0802833637253333e-07 0 0.052592941355707828 0.00018511815279990501 0 0.049349473775425284 4.0802833637253333e-07 0 0.051612685643496158 -0.00012921560493608136 0 0.049349473775425284 4.0802833637253333e-07 0 0.051612685643496158 -0.00012921560493608136 0 0.049042427947178495 0.00010596731748170681 0 0.052131338313249544 -0.00034380989066887686 0 0.052403116374111387 -0.00034479060687666598 0 0.051612685643496158 -0.00012921560493608136 0 0.050661242192509254 -0.0005479096658164538 0 0.050574477303776323 -0.00017607783238039379 0 0.051612685643496158 -0.00012921560493608136 0 0.050574477303776323 -0.00017607783238039379 0 0.050659894604093654 -1.6879232732234372e-05 0 0.052592941355707828 0.00018511815279990501 0 0.051612685643496158 -0.00012921560493608136 0 0.053608556246216507 0.000279297251096283 0 0.051612685643496158 -0.00012921560493608136 0 0.053608556246216507 0.000279297251096283 0 0.054125319066449795 -0.00042593327885909942 0 0.053608556246216507 0.000279297251096283 0 0.054818841071751327 4.49369217122756e-05 0 0.054125319066449795 -0.00042593327885909942 0 0.053608556246216507 0.000279297251096283 0 0.054996317333260193 1.1650454940792426e-06 0 0.054818841071751327 4.49369217122756e-05 0 0.054999998133797599 -1.5636062643886972e-10 0 0.054997679008460316 6.639772407471768e-07 0 0.054999997158994833 8.5110604007230614e-10 0 0.054998308874465766 -6.6507313505755118e-07 0 0.05416340266093294 -0.00021203566633246353 0 0.054999997158994833 8.5110604007230614e-10 0 0.054997259063825583 1.209032907452701e-06 0 0.054998837797998662 1.970246619444215e-06 0 0.054999997158994833 8.5110604007230614e-10 0 0.054999995325888798 2.976607906777472e-09 0 0.054998837797998662 1.970246619444215e-06 0 0.054997679008460316 6.639772407471768e-07 0 0.054999997158994833 8.5110604007230614e-10 0 0.054997259063825583 1.209032907452701e-06 0 0.054997679008460316 6.639772407471768e-07 0 0.054997259063825583 1.209032907452701e-06 0 0.054994268872819226 9.5389153123528328e-07 0 0.05416340266093294 -0.00021203566633246353 0 0.052874241754182844 -0.00025098527640159379 0 0.054997259063825583 1.209032907452701e-06 0 0.054996606351326034 1.3052923462087263e-06 0 0.054994268872819226 9.5389153123528328e-07 0 0.054997259063825583 1.209032907452701e-06 0 0.054996606351326034 1.3052923462087263e-06 0 0.054998837797998662 1.970246619444215e-06 0 0.05370478451642767 -0.00010423468897004645 0 0.052874241754182844 -0.00025098527640159379 0 0.052627033842273893 -0.00022888503281138638 0 0.052340430025581669 -0.00056716335328668341 0 0.051932552936295423 -0.00040152932762286555 0 0.052627033842273893 -0.00022888503281138638 0 0.052340430025581669 -0.00056716335328668341 0 0.052705527122478418 -0.00064895866245027415 0 0.052340430025581669 -0.00056716335328668341 0 0.051932552936295423 -0.00040152932762286555 0 0.052265152309605219 -0.00098437761475568498 0 0.050166214860743914 -0.00064253485675686787 0 0.049976446872474475 -0.00033011113263753893 0 0.050349749604659093 -0.00038737263370286604 0 0.052874241754182844 -0.00025098527640159379 0 0.0515171862545096 -0.00059225098094004165 0 0.049976446872474475 -0.00033011113263753893 0 0.050349749604659093 -0.00038737263370286604 0 0.050243800672175494 -0.00019545763734402102 0 0.052265152309605219 -0.00098437761475568498 0 0.052705527122478418 -0.00064895866245027415 0 0.052816178323392575 -0.0010110444932338511 0 0.052340430025581669 -0.00056716335328668341 0 0.052265152309605219 -0.00098437761475568498 0 0.052705527122478418 -0.00064895866245027415 0 0.050166214860743914 -0.00064253485675686787 0 0.050661242192509254 -0.0005479096658164538 0 0.050349749604659093 -0.00038737263370286604 0 0.052874241754182844 -0.00025098527640159379 0 0.052403116374111387 -0.00034479060687666598 0 0.054818841071751327 4.49369217122756e-05 0 0.055011446146122911 -0.00037976125274730491 0 0.054125319066449795 -0.00042593327885909942 0 0.050349749604659093 -0.00038737263370286604 0 0.050574477303776323 -0.00017607783238039379 0 0.050425931601872413 -0.00021227874881484248 0 0.050349749604659093 -0.00038737263370286604 0 0.050425931601872413 -0.00021227874881484248 0 0.050243800672175494 -0.00019545763734402102 0 0.050661242192509254 -0.0005479096658164538 0 0.050349749604659093 -0.00038737263370286604 0 0.050574477303776323 -0.00017607783238039379 0 0.050574477303776323 -0.00017607783238039379 0 0.050573347661992514 -0.00010596634919716205 0 0.050659894604093654 -1.6879232732234372e-05 0 0.050573347661992514 -0.00010596634919716205 0 0.050582634370107994 -0.00017542748069494855 0 0.050659894604093654 -1.6879232732234372e-05 0 0.050573347661992514 -0.00010596634919716205 0 0.050533117758908994 -0.00011356383454119775 0 0.050548278613546209 -0.000132550066420958 0 0.050573347661992514 -0.00010596634919716205 0 0.05051148054598581 -0.00013595760007761951 0 0.050533117758908994 -0.00011356383454119775 0 0.050574477303776323 -0.00017607783238039379 0 0.050573347661992514 -0.00010596634919716205 0 0.05051148054598581 -0.00013595760007761951 0 0.050574477303776323 -0.00017607783238039379 0 0.050425931601872413 -0.00021227874881484248 0 0.05051148054598581 -0.00013595760007761951 0 0.050425931601872413 -0.00021227874881484248 0 0.05051148054598581 -0.00013595760007761951 0 0.050435330627516532 -0.00011557416413131724 0 0.050425931601872413 -0.00021227874881484248 0 0.050435330627516532 -0.00011557416413131724 0 0.050243800672175494 -0.00019545763734402102 0 0.050435330627516532 -0.00011557416413131724 0 0.050243800672175494 -0.00019545763734402102 0 0.050242505130062405 -1.4844550831128276e-05 0 0.045411076967570414 -0.0012801644232814649 0 0.045246523737425236 -0.0013693047873628015 0 0.050435330627516532 -0.00011557416413131724 0 0.050496163443384964 -9.4290083309403924e-05 0 0.050446280256905 -8.4443565248220678e-06 0 0.050435330627516532 -0.00011557416413131724 0 0.050393672155226672 7.4069429300081715e-05 0 0.050242505130062405 -1.4844550831128276e-05 0 0.045403393128276723 -0.0014219354587315886 0 0.045246523737425236 -0.0013693047873628015 0 0.050496163443384964 -9.4290083309403924e-05 0 0.050548278613546209 -0.000132550066420958 0 0.050561216788746442 -0.00013992933762909106 0 0.05051148054598581 -0.00013595760007761951 0 0.050533117758908994 -0.00011356383454119775 0 0.050496163443384964 -9.4290083309403924e-05 0 0.05051148054598581 -0.00013595760007761951 0 0.050435330627516532 -0.00011557416413131724 0 0.050496163443384964 -9.4290083309403924e-05 0 0.050533117758908994 -0.00011356383454119775 0 0.050496163443384964 -9.4290083309403924e-05 0 0.050548278613546209 -0.000132550066420958 0 0.050548278613546209 -0.000132550066420958 0 0.050561216788746442 -0.00013992933762909106 0 0.050560121255201061 -0.00018405460289470929 0 0.045246523737425236 -0.0013693047873628015 0 0.044033570484165514 -0.0010744440926495655 0 0.050561216788746442 -0.00013992933762909106 0 0.050560121255201061 -0.00018405460289470929 0 0.050580334800511009 -0.00023385948548111109 0 0.050560121255201061 -0.00018405460289470929 0 0.050582634370107994 -0.00017542748069494855 0 0.050539413654120138 -0.0002482130515537212 0 0.050582634370107994 -0.00017542748069494855 0 0.050539413654120138 -0.0002482130515537212 0 0.050548402746403674 -0.00028302679235694229 0 0.050548278613546209 -0.000132550066420958 0 0.050560121255201061 -0.00018405460289470929 0 0.050582634370107994 -0.00017542748069494855 0 0.050573347661992514 -0.00010596634919716205 0 0.050548278613546209 -0.000132550066420958 0 0.050582634370107994 -0.00017542748069494855 0 0.049976446872474475 -0.00033011113263753893 0 0.049739194970154298 1.2967205636030744e-05 0 0.050041047396422039 -3.7556609862933826e-05 0 0.052265152309605219 -0.00098437761475568498 0 0.052594137759883794 -0.0015450859572144285 0 0.052816178323392575 -0.0010110444932338511 0 0.0515171862545096 -0.00059225098094004165 0 0.050462551346876758 -0.0011432379197234765 0 0.049739194970154298 1.2967205636030744e-05 0 0.050041047396422039 -3.7556609862933826e-05 0 0.049917582609693464 0.00013662190531740204 0 0.049976446872474475 -0.00033011113263753893 0 0.050041047396422039 -3.7556609862933826e-05 0 0.050243800672175494 -0.00019545763734402102 0 0.050041047396422039 -3.7556609862933826e-05 0 0.050243800672175494 -0.00019545763734402102 0 0.050242505130062405 -1.4844550831128276e-05 0 0.050393672155226672 7.4069429300081715e-05 0 0.050118391081472424 0.0002018330410828366 0 0.05013261546040939 0.00050751670179281804 0 0.045246523737425236 -0.0013693047873628015 0 0.044221683139679085 -0.0015189712969265452 0 0.050041047396422039 -3.7556609862933826e-05 0 0.050242505130062405 -1.4844550831128276e-05 0 0.050118391081472424 0.0002018330410828366 0 0.050393672155226672 7.4069429300081715e-05 0 0.050242505130062405 -1.4844550831128276e-05 0 0.050118391081472424 0.0002018330410828366 0 0.050041047396422039 -3.7556609862933826e-05 0 0.050118391081472424 0.0002018330410828366 0 0.049917582609693464 0.00013662190531740204 0 0.050118391081472424 0.0002018330410828366 0 0.049917582609693464 0.00013662190531740204 0 0.049772648780871627 0.00037156436166702311 0 0.049739194970154298 1.2967205636030744e-05 0 0.049772648780871627 0.00037156436166702311 0 0.04951662654143988 0.00037510751812288185 0 0.049739194970154298 1.2967205636030744e-05 0 0.049917582609693464 0.00013662190531740204 0 0.049772648780871627 0.00037156436166702311 0 0.049772648780871627 0.00037156436166702311 0 0.049842495938420155 0.00063359486137243802 0 0.05013261546040939 0.00050751670179281804 0 0.049772648780871627 0.00037156436166702311 0 0.049842495938420155 0.00063359486137243802 0 0.049606026127594564 0.0006660610477716932 0 0.050118391081472424 0.0002018330410828366 0 0.049772648780871627 0.00037156436166702311 0 0.05013261546040939 0.00050751670179281804 0 0.044221683139679085 -0.0015189712969265452 0 0.041483434538184948 -0.0017461827430006475 0 0.043157428598579052 -0.0013490771531611879 0 0.043301882854208308 -0.00080981864988124899 0 0.042848972080372451 -0.00081699680604096884 0 0.043157428598579052 -0.0013490771531611879 0 0.043301882854208308 -0.00080981864988124899 0 0.043384230158691327 -0.0013455406108402192 0 0.04148888264318569 -0.00066466016758914186 0 0.041483434538184948 -0.0017461827430006475 0 0.049854805003115871 0.00099350078696815928 0 0.049606026127594564 0.0006660610477716932 0 0.04947139785499504 0.00099504393529072934 0 0.049842495938420155 0.00063359486137243802 0 0.049854805003115871 0.00099350078696815928 0 0.049606026127594564 0.0006660610477716932 0 0.041483434538184948 -0.0017461827430006475 0 0.043938716065762821 -0.0016042922274627184 0 0.049842495938420155 0.00063359486137243802 0 0.05013261546040939 0.00050751670179281804 0 0.049854805003115871 0.00099350078696815928 0 0.043468726438055917 -0.001880359851786571 0 0.043157428598579052 -0.0013490771531611879 0 0.043384230158691327 -0.0013455406108402192 0 0.050560121255201061 -0.00018405460289470929 0 0.050539413654120138 -0.0002482130515537212 0 0.050580334800511009 -0.00023385948548111109 0 0.050565368913711724 -0.00028528327355981353 0 0.050539413654120138 -0.0002482130515537212 0 0.050580334800511009 -0.00023385948548111109 0 0.04148888264318569 -0.00066466016758914186 0 0.044033570484165514 -0.0010744440926495655 0 0.050565368913711724 -0.00028528327355981353 0 0.050539413654120138 -0.0002482130515537212 0 0.050519212607600707 -0.00028883241873772298 0 0.050539413654120138 -0.0002482130515537212 0 0.050518980597034489 -0.00026751821562301256 0 0.050519212607600707 -0.00028883241873772298 0 0.050518980597034489 -0.00026751821562301256 0 0.050471201556065555 -0.00029798497334024775 0 0.050519212607600707 -0.00028883241873772298 0 0.050539413654120138 -0.0002482130515537212 0 0.050518980597034489 -0.00026751821562301256 0 0.050548402746403674 -0.00028302679235694229 0 0.050518980597034489 -0.00026751821562301256 0 0.050511354023999942 -0.0002674966675105266 0 0.050548402746403674 -0.00028302679235694229 0 0.049789720509806921 -0.00097485947733610783 0 0.046675746269483717 -0.0011543450084420279 0 0.048819052371040471 -0.00033519809341169655 0 0.037349167712284567 -0.0026040190114867039 0 0.037681662147836512 -0.0013399663763009422 0 0.039166861449287813 -0.0016484041788187244 0 0.044478831368685239 0.00088346663205144131 0 0.043060971738046128 6.8418274104529962e-05 0 0.044478831368685239 0.00088346663205144131 0 0.044493498465662883 0.00087807729717489472 0 0.044478831368685239 0.00088346663205144131 0 0.043278076744184178 -0.00027634303411313801 0 0.050518980597034489 -0.00026751821562301256 0 0.050511354023999942 -0.0002674966675105266 0 0.050489348403056751 -0.00027535850185255297 0 0.050518980597034489 -0.00026751821562301256 0 0.050489348403056751 -0.00027535850185255297 0 0.050471201556065555 -0.00029798497334024775 0 0.043278076744184178 -0.00027634303411313801 0 0.041972415427722135 -0.0011380108596848305 0 0.037681662147836512 -0.0013399663763009422 0 0.038541640710572735 -0.00087501890309868056 0 0.038018072720465659 -4.3431507486608351e-05 0 0.038541640710572735 -0.00087501890309868056 0 0.039166861449287813 -0.0016484041788187244 0 0.039034217305277001 -1.2035104052550245e-05 0 0.039166861449287813 -0.0016484041788187244 0 0.040120271395137547 0.00019919195989214159 0 0.039034217305277001 -1.2035104052550245e-05 0 0.038541640710572735 -0.00087501890309868056 0 0.039034217305277001 -1.2035104052550245e-05 0 0.038018072720465659 -4.3431507486608351e-05 0 0.037681662147836512 -0.0013399663763009422 0 0.038541640710572735 -0.00087501890309868056 0 0.039166861449287813 -0.0016484041788187244 0 0.041906169819932844 -3.0088530233052861e-07 0 0.043060971738046128 6.8418274104529962e-05 0 0.041899544979622359 -2.8165061293005804e-06 0 0.039166861449287813 -0.0016484041788187244 0 0.040120271395137547 0.00019919195989214159 0 0.041909586630574286 -4.4454284793904766e-06 0 0.046675746269483717 -0.0011543450084420279 0 0.045098016844171224 7.9496487280020786e-07 0 0.046675746269483717 -0.0011543450084420279 0 0.048819052371040471 -0.00033519809341169655 0 0.045098016844171224 7.9496487280020786e-07 0 0.048819052371040471 -0.00033519809341169655 0 0.045098016844171224 7.9496487280020786e-07 0 0.049042427947178495 0.00010596731748170681 0 0.049349473775425284 4.0802833637253333e-07 0 0.045098016844171224 7.9496487280020786e-07 0 0.049042427947178495 0.00010596731748170681 0 0.048819052371040471 -0.00033519809341169655 0 0.049042427947178495 0.00010596731748170681 0 0.050183958526268696 -3.9579887176084714e-05 0 0.051612685643496158 -0.00012921560493608136 0 0.049042427947178495 0.00010596731748170681 0 0.050183958526268696 -3.9579887176084714e-05 0 0.051612685643496158 -0.00012921560493608136 0 0.050183958526268696 -3.9579887176084714e-05 0 0.050659894604093654 -1.6879232732234372e-05 0 0.050183958526268696 -3.9579887176084714e-05 0 0.050659894604093654 -1.6879232732234372e-05 0 0.050194091192316395 -0.00022279371692121173 0 0.050659894604093654 -1.6879232732234372e-05 0 0.050548402746403674 -0.00028302679235694229 0 0.050194091192316395 -0.00022279371692121173 0 0.050582634370107994 -0.00017542748069494855 0 0.050659894604093654 -1.6879232732234372e-05 0 0.050548402746403674 -0.00028302679235694229 0 0.049853661401210725 -0.00092810364386997557 0 0.050548402746403674 -0.00028302679235694229 0 0.04988453737654578 -0.00076720702068477236 0 0.050548402746403674 -0.00028302679235694229 0 0.04988453737654578 -0.00076720702068477236 0 0.050194091192316395 -0.00022279371692121173 0 0.044478831368685239 0.00088346663205144131 0 0.045946551059021325 0.0012448368967086438 0 0.048819052371040471 -0.00033519809341169655 0 0.04988453737654578 -0.00076720702068477236 0 0.050194091192316395 -0.00022279371692121173 0 0.049789720509806921 -0.00097485947733610783 0 0.048819052371040471 -0.00033519809341169655 0 0.04988453737654578 -0.00076720702068477236 0 0.048819052371040471 -0.00033519809341169655 0 0.050183958526268696 -3.9579887176084714e-05 0 0.050194091192316395 -0.00022279371692121173 0 0.050746682511191889 -0.00057976412793687916 0 0.048397486550328772 -0.0020491610777891704 0 0.054648255018066291 0.00053339012952998419 0 0.054723771746319941 0.0023099236862779535 0 0.053775041327726321 0.0008741565712361767 0 0.054897914309733592 -0.00016246926632696303 0 0.054931050066189403 -0.00012464009952026906 0 0.054938921998092839 -0.00021134574312361211 0 0.054897914309733592 -0.00016246926632696303 0 0.054888461482042128 -0.00023529309348851936 0 0.054938921998092839 -0.00021134574312361211 0 0.054897914309733592 -0.00016246926632696303 0 0.054850482048020135 -0.00023060046608834231 0 0.054888461482042128 -0.00023529309348851936 0 0.054897914309733592 -0.00016246926632696303 0 0.054904483057810302 -8.9570073903097209e-05 0 0.054912879336021729 -8.3377936565329967e-05 0 0.054897914309733592 -0.00016246926632696303 0 0.054904483057810302 -8.9570073903097209e-05 0 0.054931050066189403 -0.00012464009952026906 0 0.050746682511191889 -0.00057976412793687916 0 0.051453457371802465 -0.00042067713336750389 0 0.054904483057810302 -8.9570073903097209e-05 0 0.054931050066189403 -0.00012464009952026906 0 0.054831109641061415 -8.779466826724328e-05 0 0.054648255018066291 0.00053339012952998419 0 0.054831109641061415 -8.779466826724328e-05 0 0.053882182696690706 -7.5120925061650815e-05 0 0.054831109641061415 -8.779466826724328e-05 0 0.054999842486255765 -1.7802960750569039e-07 0 0.054935281520988186 -5.5579688787656832e-05 0 0.054831109641061415 -8.779466826724328e-05 0 0.054999842486255765 -1.7802960750569039e-07 0 0.054568431408598905 -0.00010696662192812557 0 0.054999842486255765 -1.7802960750569039e-07 0 0.054935281520988186 -5.5579688787656832e-05 0 0.054999892066724031 6.2486626149701776e-09 0 0.054904483057810302 -8.9570073903097209e-05 0 0.054831109641061415 -8.779466826724328e-05 0 0.054935281520988186 -5.5579688787656832e-05 0 0.054904483057810302 -8.9570073903097209e-05 0 0.054935281520988186 -5.5579688787656832e-05 0 0.054912879336021729 -8.3377936565329967e-05 0 0.054912879336021729 -8.3377936565329967e-05 0 0.054943581176381463 -1.6023213540364027e-05 0 0.054891731453334071 -6.2799615002107108e-05 0 0.054935281520988186 -5.5579688787656832e-05 0 0.054912879336021729 -8.3377936565329967e-05 0 0.054943581176381463 -1.6023213540364027e-05 0 0.054999892066724031 6.2486626149701776e-09 0 0.054943581176381463 -1.6023213540364027e-05 0 0.05499988584773307 -1.5025674300780043e-08 0 0.054935281520988186 -5.5579688787656832e-05 0 0.054999892066724031 6.2486626149701776e-09 0 0.054943581176381463 -1.6023213540364027e-05 0 0.054943581176381463 -1.6023213540364027e-05 0 0.05499988584773307 -1.5025674300780043e-08 0 0.054917641020718784 1.4803323032626392e-05 0 0.054917641020718784 1.4803323032626392e-05 0 0.054891731453334071 -6.2799615002107108e-05 0 0.054759125372474897 -5.2601076490035246e-05 0 0.054943581176381463 -1.6023213540364027e-05 0 0.054917641020718784 1.4803323032626392e-05 0 0.054891731453334071 -6.2799615002107108e-05 0 0.054891731453334071 -6.2799615002107108e-05 0 0.05479811311207753 -0.00014504844544682 0 0.054759125372474897 -5.2601076490035246e-05 0 0.05479811311207753 -0.00014504844544682 0 0.054790395875548958 -0.00022254329536195263 0 0.054715554144637503 -0.0002168968125247128 0 0.05479811311207753 -0.00014504844544682 0 0.054868646260759615 -0.00015023853640951391 0 0.054790395875548958 -0.00022254329536195263 0 0.054891731453334071 -6.2799615002107108e-05 0 0.05