<?xml version="1.0"?>
<VTKFile type="UnstructuredGrid" version="0.1" byte_order="LittleEndian">
<UnstructuredGrid>
<Piece NumberOfPoints="31898" NumberOfCells="11152">
<Points>
<DataArray type="Float64" NumberOfComponents="3" format="ascii">
-0.5 -0.5 0 -0.47620991077874902 -0.44978878706170539 0 -0.49999999999999473 -0.42132396840504388 0 -0.5 -0.5 0 -0.47160970827802529 -0.4793630013852106 0 -0.47620991077874902 -0.44978878706170539 0 -0.5 -0.5 0 -0.47160970827802529 -0.4793630013852106 0 -0.44860394795025399 -0.5 0 -0.47160970827802529 -0.4793630013852106 0 -0.44860394795025399 -0.5 0 -0.4490820238307246 -0.45820516232899983 0 -0.44860394795025399 -0.5 0 -0.4490820238307246 -0.45820516232899983 0 -0.42881687682924802 -0.47781464288736519 0 -0.4490820238307246 -0.45820516232899983 0 -0.45555437223955858 -0.42914059360647611 0 -0.4490820238307246 -0.45820516232899983 0 -0.45555437223955858 -0.42914059360647611 0 -0.43867285131603428 -0.4271457417558665 0 -0.4490820238307246 -0.45820516232899983 0 -0.43867285131603428 -0.4271457417558665 0 -0.4263356171060747 -0.44269880333887462 0 -0.47160970827802529 -0.4793630013852106 0 -0.4490820238307246 -0.45820516232899983 0 -0.47620991077874902 -0.44978878706170539 0 -0.4490820238307246 -0.45820516232899983 0 -0.47620991077874902 -0.44978878706170539 0 -0.45555437223955858 -0.42914059360647611 0 -0.47620991077874902 -0.44978878706170539 0 -0.48101336032419229 -0.41069999664450008 0 -0.45555437223955858 -0.42914059360647611 0 -0.47620991077874902 -0.44978878706170539 0 -0.49999999999999473 -0.42132396840504388 0 -0.48101336032419229 -0.41069999664450008 0 -0.49999999999999473 -0.42132396840504388 0 -0.48101336032419229 -0.41069999664450008 0 -0.5 -0.393886241813306 0 -0.49999999999999473 -0.42132396840504388 0 -0.48101336032419229 -0.41069999664450008 0 -0.5 -0.393886241813306 0 -0.47854472220918332 -0.38978458738689759 0 -0.48422759779560409 -0.37130120630367158 0 -0.5 -0.393886241813306 0 -0.5 -0.36644851522156802 0 -0.48422759779560409 -0.37130120630367158 0 -0.48101336032419229 -0.41069999664450008 0 -0.5 -0.393886241813306 0 -0.47854472220918332 -0.38978458738689759 0 -0.48101336032419229 -0.41069999664450008 0 -0.47854472220918332 -0.38978458738689759 0 -0.46202672064839212 -0.40007602488395211 0 -0.48101336032419229 -0.41069999664450008 0 -0.46202672064839212 -0.40007602488395211 0 -0.47854472220918332 -0.38978458738689759 0 -0.46725442735267431 -0.37660061361585562 0 -0.46202672064839212 -0.40007602488395211 0 -0.47854472220918332 -0.38978458738689759 0 -0.46725442735267431 -0.37660061361585562 0 -0.48422759779560409 -0.37130120630367158 0 -0.46725442735267431 -0.37660061361585562 0 -0.46202672064839212 -0.40007602488395211 0 -0.46725442735267431 -0.37660061361585562 0 -0.45645674801697989 -0.38644133236760531 0 -0.46202672064839212 -0.40007602488395211 0 -0.46725442735267431 -0.37660061361585562 0 -0.45645674801697989 -0.38644133236760531 0 -0.4540003998136638 -0.37455519391687309 0 -0.45645674801697989 -0.38644133236760531 0 -0.46202672064839212 -0.40007602488395211 0 -0.44257020456291563 -0.38918913383950271 0 -0.46202672064839212 -0.40007602488395211 0 -0.44257020456291563 -0.38918913383950271 0 -0.44727608925983742 -0.41095911152778891 0 -0.46202672064839212 -0.40007602488395211 0 -0.44257020456291563 -0.38918913383950271 0 -0.44257020456291563 -0.38918913383950271 0 -0.44727608925983742 -0.41095911152778891 0 -0.43479358559901082 -0.4041454901736512 0 -0.44257020456291563 -0.38918913383950271 0 -0.4540003998136638 -0.37455519391687309 0 -0.44172858264042247 -0.37082207246888088 0 -0.45645674801697989 -0.38644133236760531 0 -0.44257020456291563 -0.38918913383950271 0 -0.4540003998136638 -0.37455519391687309 0 -0.46202672064839212 -0.40007602488395211 0 -0.45555437223955858 -0.42914059360647611 0 -0.44727608925983742 -0.41095911152778891 0 -0.46202672064839212 -0.40007602488395211 0 -0.45555437223955858 -0.42914059360647611 0 -0.48101336032419229 -0.41069999664450008 0 -0.46202672064839212 -0.40007602488395211 0 -0.45555437223955858 -0.42914059360647611 0 -0.44727608925983742 -0.41095911152778891 0 -0.43867285131603428 -0.4271457417558665 0 -0.43676601469929588 -0.41441201227470881 0 -0.44727608925983742 -0.41095911152778891 0 -0.43676601469929588 -0.41441201227470881 0 -0.43479358559901082 -0.4041454901736512 0 -0.45555437223955858 -0.42914059360647611 0 -0.44727608925983742 -0.41095911152778891 0 -0.43867285131603428 -0.4271457417558665 0 -0.43867285131603428 -0.4271457417558665 0 -0.42681803064840879 -0.42717069814352421 0 -0.4263356171060747 -0.44269880333887462 0 -0.42681803064840879 -0.42717069814352421 0 -0.41531815884496182 -0.42985383783075998 0 -0.4263356171060747 -0.44269880333887462 0 -0.42681803064840879 -0.42717069814352421 0 -0.42624289495594048 -0.42089725947505818 0 -0.42083332353326591 -0.42146747131641099 0 -0.42681803064840879 -0.42717069814352421 0 -0.43096994786351572 -0.41951492446283251 0 -0.42624289495594048 -0.42089725947505818 0 -0.43867285131603428 -0.4271457417558665 0 -0.42681803064840879 -0.42717069814352421 0 -0.43096994786351572 -0.41951492446283251 0 -0.43867285131603428 -0.4271457417558665 0 -0.43676601469929588 -0.41441201227470881 0 -0.43096994786351572 -0.41951492446283251 0 -0.43676601469929588 -0.41441201227470881 0 -0.43096994786351572 -0.41951492446283251 0 -0.42907264086257813 -0.41311715872526122 0 -0.43676601469929588 -0.41441201227470881 0 -0.42907264086257813 -0.41311715872526122 0 -0.43479358559901082 -0.4041454901736512 0 -0.42907264086257813 -0.41311715872526122 0 -0.43479358559901082 -0.4041454901736512 0 -0.42460885511582858 -0.40417321677700252 0 -0.42907264086257813 -0.41311715872526122 0 -0.41997834854398469 -0.41180534796019508 0 -0.42907264086257813 -0.41311715872526122 0 -0.42635027777857132 -0.41543594397746519 0 -0.41997834854398469 -0.41180534796019508 0 -0.42907264086257813 -0.41311715872526122 0 -0.41997834854398469 -0.41180534796019508 0 -0.42460885511582858 -0.40417321677700252 0 -0.42635027777857132 -0.41543594397746519 0 -0.41997834854398469 -0.41180534796019508 0 -0.42635027777857132 -0.41543594397746519 0 -0.42083332353326591 -0.42146747131641099 0 -0.41997834854398469 -0.41180534796019508 0 -0.43096994786351572 -0.41951492446283251 0 -0.42624289495594048 -0.42089725947505818 0 -0.42635027777857132 -0.41543594397746519 0 -0.43096994786351572 -0.41951492446283251 0 -0.42907264086257813 -0.41311715872526122 0 -0.42635027777857132 -0.41543594397746519 0 -0.42624289495594048 -0.42089725947505818 0 -0.42635027777857132 -0.41543594397746519 0 -0.42083332353326591 -0.42146747131641099 0 -0.42083332353326591 -0.42146747131641099 0 -0.41997834854398469 -0.41180534796019508 0 -0.40992282953163789 -0.42011435591993562 0 -0.41997834854398469 -0.41180534796019508 0 -0.39756877647335259 -0.40857286797681719 0 -0.41997834854398469 -0.41180534796019508 0 -0.40992282953163789 -0.42011435591993562 0 -0.39756877647335259 -0.40857286797681719 0 -0.40992282953163789 -0.42011435591993562 0 -0.41531815884496182 -0.42985383783075998 0 -0.39591554026262499 -0.42887225451549271 0 -0.41531815884496182 -0.42985383783075998 0 -0.39591554026262499 -0.42887225451549271 0 -0.41160927495564159 -0.44339431233754628 0 -0.42083332353326591 -0.42146747131641099 0 -0.40992282953163789 -0.42011435591993562 0 -0.41531815884496182 -0.42985383783075998 0 -0.42681803064840879 -0.42717069814352421 0 -0.42083332353326591 -0.42146747131641099 0 -0.41531815884496182 -0.42985383783075998 0 -0.44257020456291563 -0.38918913383950271 0 -0.42311368847744002 -0.37830224279505142 0 -0.42594061475171041 -0.39368797999533162 0 -0.44257020456291563 -0.38918913383950271 0 -0.42311368847744002 -0.37830224279505142 0 -0.44172858264042247 -0.37082207246888088 0 -0.44257020456291563 -0.38918913383950271 0 -0.42311368847744002 -0.37830224279505142 0 -0.42311368847744002 -0.37830224279505142 0 -0.42594061475171041 -0.39368797999533162 0 -0.416587075656149 -0.38785930376960043 0 -0.44257020456291563 -0.38918913383950271 0 -0.42594061475171041 -0.39368797999533162 0 -0.43479358559901082 -0.4041454901736512 0 -0.42594061475171041 -0.39368797999533162 0 -0.43479358559901082 -0.4041454901736512 0 -0.42460885511582858 -0.40417321677700252 0 -0.41997834854398469 -0.41180534796019508 0 -0.41325908582185972 -0.39811010703057192 0 -0.39770572831670092 -0.39911486077581648 0 -0.41997834854398469 -0.41180534796019508 0 -0.39770572831670092 -0.39911486077581648 0 -0.42594061475171041 -0.39368797999533162 0 -0.42460885511582858 -0.40417321677700252 0 -0.41325908582185972 -0.39811010703057192 0 -0.41997834854398469 -0.41180534796019508 0 -0.42460885511582858 -0.40417321677700252 0 -0.41325908582185972 -0.39811010703057192 0 -0.42594061475171041 -0.39368797999533162 0 -0.41325908582185972 -0.39811010703057192 0 -0.416587075656149 -0.38785930376960043 0 -0.41325908582185972 -0.39811010703057192 0 -0.416587075656149 -0.38785930376960043 0 -0.40403491357358612 -0.38133688525744702 0 -0.42311368847744002 -0.37830224279505142 0 -0.40403491357358612 -0.38133688525744702 0 -0.40365717239196519 -0.36741535175059892 0 -0.42311368847744002 -0.37830224279505142 0 -0.416587075656149 -0.38785930376960043 0 -0.40403491357358612 -0.38133688525744702 0 -0.40403491357358612 -0.38133688525744702 0 -0.39190790742475001 -0.38540387676521748 0 -0.39770572831670092 -0.39911486077581648 0 -0.40403491357358612 -0.38133688525744702 0 -0.39190790742475001 -0.38540387676521748 0 -0.3904578797192948 -0.37473938743617019 0 -0.41325908582185972 -0.39811010703057192 0 -0.40403491357358612 -0.38133688525744702 0 -0.39770572831670092 -0.39911486077581648 0 -0.39770572831670092 -0.39911486077581648 0 -0.37543310808941849 -0.38642437359143528 0 -0.39770572831670092 -0.39911486077581648 0 -0.37515920440272033 -0.40534038799344108 0 -0.37543310808941849 -0.38642437359143528 0 -0.39770572831670092 -0.39911486077581648 0 -0.37515920440272033 -0.40534038799344108 0 -0.39756877647335259 -0.40857286797681719
[...]
<PointData Scalars="" Vectors="displacement," Tensors="">
<DataArray type="Float64" Name="displacement" NumberOfComponents="3" format="ascii">
2.671001076772611e-06 0.054994970947469357 0 0.00026776615830790445 0.051420580492809849 0 -5.6544331275143523e-06 0.046358457763436459 0 2.671001076772611e-06 0.054994970947469357 0 0.00024666872424719251 0.053744241104588392 0 0.00026776615830790445 0.051420580492809849 0 2.671001076772611e-06 0.054994970947469357 0 0.00024666872424719251 0.053744241104588392 0 -9.4229432958130379e-09 0.054998656921104172 0 0.00024666872424719251 0.053744241104588392 0 -9.4229432958130379e-09 0.054998656921104172 0 0.00013616945614866745 0.053745185874303582 0 -9.4229432958130379e-09 0.054998656921104172 0 0.00013616945614866745 0.053745185874303582 0 0.00010724532473499038 0.054630956712987067 0 0.00047055084288276405 0.050376898074959223 0 -1.6147591645195014e-05 0.048945721542926576 0 0.00013616945614866745 0.053745185874303582 0 -0.00061691540273601608 0.05369876749963693 0 -0.00066535753579281354 0.054003106894608507 0 0.00013616945614866745 0.053745185874303582 0 -0.00066535753579281354 0.054003106894608507 0 -0.00032612958645692266 0.054348394517963097 0 0.00024666872424719251 0.053744241104588392 0 0.00013616945614866745 0.053745185874303582 0 0.00026776615830790445 0.051420580492809849 0 0.00013616945614866745 0.053745185874303582 0 0.00026776615830790445 0.051420580492809849 0 -0.00097935947781122761 0.052452153571482439 0 0.00026776615830790445 0.051420580492809849 0 -0.0020813299144510455 0.049696025971365021 0 -0.00097935947781122761 0.052452153571482439 0 0.00026776615830790445 0.051420580492809849 0 -5.6544331275143523e-06 0.046358457763436459 0 -0.0020813299144510455 0.049696025971365021 0 -3.1119280255388219e-06 0.046340884176715565 0 -0.00047344476432742492 0.042733694573735631 0 1.3132322962173491e-06 0.043327502879587483 0 -1.9304750920302622e-06 0.046343836147474518 0 -0.00081318051448626429 0.045517146630853378 0 1.3132322962173491e-06 0.043327502879587483 0 0.00012479964598939759 0.041625406771221334 0 0.00026341171908811822 0.040513796175858992 0 1.3132322962173491e-06 0.043327502879587483 0 4.0050755540149166e-07 0.040308987100062393 0 0.00026341171908811822 0.040513796175858992 0 -0.00047344476432742492 0.042733694573735631 0 1.3132322962173491e-06 0.043327502879587483 0 0.00012479964598939759 0.041625406771221334 0 -0.00047344476432742492 0.042733694573735631 0 0.00012479964598939759 0.041625406771221334 0 -0.00020763237512996642 0.041219616676479463 0 -0.00081318051448626429 0.045517146630853378 0 -0.0011938629754131218 0.043852945849610414 0 0.00012479964598939759 0.041625406771221334 0 0.00032417537509393503 0.04086247407492833 0 -0.00020763237512996642 0.041219616676479463 0 0.00012479964598939759 0.041625406771221334 0 0.00032417537509393503 0.04086247407492833 0 0.00026341171908811822 0.040513796175858992 0 -0.00085318410612866857 0.039830769887075998 0 -0.0011938629754131218 0.043852945849610414 0 -0.0012355488604899002 0.032043852310832739 0 -0.00081147301747951702 0.032473867792855084 0 -0.00025963975329101608 0.032262943567362506 0 -0.0012355488604899002 0.032043852310832739 0 -0.00081147301747951702 0.032473867792855084 0 -0.0012649389866198697 0.032546505498517064 0 -0.00081147301747951702 0.032473867792855084 0 -0.00025963975329101608 0.032262943567362506 0 -0.000685242273311237 0.033031770066610941 0 -0.00087765464647107921 0.053814352624183499 0 -0.00077452332200847213 0.053949586452288201 0 -0.00083286246881681032 0.053888170398259994 0 -0.0011938629754131218 0.043852945849610414 0 -0.0010230222954565413 0.04339178425127773 0 -0.00077452332200847213 0.053949586452288201 0 -0.00083286246881681032 0.053888170398259994 0 -0.00085030555066925345 0.053941998235006894 0 -0.000685242273311237 0.033031770066610941 0 -0.0012649389866198697 0.032546505498517064 0 -0.0014018822384187146 0.033051048419020804 0 -0.00081147301747951702 0.032473867792855084 0 -0.000685242273311237 0.033031770066610941 0 -0.0012649389866198697 0.032546505498517064 0 -0.00087765464647107921 0.053814352624183499 0 -0.00061691540273601608 0.05369876749963693 0 -0.00083286246881681032 0.053888170398259994 0 -0.0011938629754131218 0.043852945849610414 0 -1.6147591645195014e-05 0.048945721542926576 0 -0.0020813299144510455 0.049696025971365021 0 -0.0032123218772731389 0.051538773206183643 0 -0.00097935947781122761 0.052452153571482439 0 -0.00083286246881681032 0.053888170398259994 0 -0.00066535753579281354 0.054003106894608507 0 -0.00083987381293752154 0.053979726508042621 0 -0.00083286246881681032 0.053888170398259994 0 -0.00083987381293752154 0.053979726508042621 0 -0.00085030555066925345 0.053941998235006894 0 -0.00061691540273601608 0.05369876749963693 0 -0.00083286246881681032 0.053888170398259994 0 -0.00066535753579281354 0.054003106894608507 0 -0.00066535753579281354 0.054003106894608507 0 -0.00063641484888307339 0.054238691076343083 0 -0.00032612958645692266 0.054348394517963097 0 -0.00063641484888307339 0.054238691076343083 0 -0.00057380887924876384 0.054505319177176208 0 -0.00032612958645692266 0.054348394517963097 0 -0.00063641484888307339 0.054238691076343083 0 -0.00075575791759377605 0.054205818026910671 0 -0.00073986095574718946 0.054349586409281489 0 -0.00063641484888307339 0.054238691076343083 0 -0.0007841492712160334 0.054081905561534638 0 -0.00075575791759377605 0.054205818026910671 0 -0.00066535753579281354 0.054003106894608507 0 -0.00063641484888307339 0.054238691076343083 0 -0.0007841492712160334 0.054081905561534638 0 -0.00066535753579281354 0.054003106894608507 0 -0.00083987381293752154 0.053979726508042621 0 -0.0007841492712160334 0.054081905561534638 0 -0.00083987381293752154 0.053979726508042621 0 -0.0007841492712160334 0.054081905561534638 0 -0.00092987504341696375 0.054014311775555955 0 -0.00083987381293752154 0.053979726508042621 0 -0.00092987504341696375 0.054014311775555955 0 -0.00085030555066925345 0.053941998235006894 0 -0.00092987504341696375 0.054014311775555955 0 -0.00085030555066925345 0.053941998235006894 0 -0.00086388431925776593 0.053833371605306782 0 -0.0019697972810561858 0.052846110292575042 0 -0.0019893010654199951 0.052702101103873793 0 -0.00092987504341696375 0.054014311775555955 0 -0.00086549022378360396 0.054156889846901805 0 -0.0010410995056084778 0.054440005021955944 0 -0.00092987504341696375 0.054014311775555955 0 -0.0010170181043133166 0.053748651978029346 0 -0.00086388431925776593 0.053833371605306782 0 -0.0019892331325045884 0.0527747116694516 0 -0.0019893010654199951 0.052702101103873793 0 -0.00086549022378360396 0.054156889846901805 0 -0.00073986095574718946 0.054349586409281489 0 -0.00096234831982383833 0.054364339962036032 0 -0.0007841492712160334 0.054081905561534638 0 -0.00075575791759377605 0.054205818026910671 0 -0.00086549022378360396 0.054156889846901805 0 -0.0007841492712160334 0.054081905561534638 0 -0.00092987504341696375 0.054014311775555955 0 -0.00086549022378360396 0.054156889846901805 0 -0.00075575791759377605 0.054205818026910671 0 -0.00086549022378360396 0.054156889846901805 0 -0.00073986095574718946 0.054349586409281489 0 -0.00073986095574718946 0.054349586409281489 0 -0.00096234831982383833 0.054364339962036032 0 -0.00077024122560300726 0.054596365863802288 0 -0.0019893010654199951 0.052702101103873793 0 -0.0016500750803666155 0.052384302881451524 0 -0.00096234831982383833 0.054364339962036032 0 -0.00077024122560300726 0.054596365863802288 0 -0.00099790820209547668 0.054844488346193994 0 -0.00077024122560300726 0.054596365863802288 0 -0.00057380887924876384 0.054505319177176208 0 -0.00059648173326998764 0.054880681214183963 0 -0.00057380887924876384 0.054505319177176208 0 -0.00059648173326998764 0.054880681214183963 0 -0.00031805232456132631 0.054620187629005335 0 -0.00073986095574718946 0.054349586409281489 0 -0.00077024122560300726 0.054596365863802288 0 -0.00057380887924876384 0.054505319177176208 0 -0.00063641484888307339 0.054238691076343083 0 -0.00073986095574718946 0.054349586409281489 0 -0.00057380887924876384 0.054505319177176208 0 -0.00077452332200847213 0.053949586452288201 0 -0.00043542454818210904 0.053740036335199574 0 -0.00073076129143425815 0.053808237410679978 0 -0.000685242273311237 0.033031770066610941 0 -0.0010946229940529584 0.033829633020828573 0 -0.0014018822384187146 0.033051048419020804 0 -0.0010230222954565413 0.04339178425127773 0 -0.0011088480727022092 0.043119298778431459 0 -0.00043542454818210904 0.053740036335199574 0 -0.00073076129143425815 0.053808237410679978 0 -0.00060382724936974862 0.053610278360871816 0 -0.00077452332200847213 0.053949586452288201 0 -0.00073076129143425815 0.053808237410679978 0 -0.00085030555066925345 0.053941998235006894 0 -0.00073076129143425815 0.053808237410679978 0 -0.00085030555066925345 0.053941998235006894 0 -0.00086388431925776593 0.053833371605306782 0 -0.0010170181043133166 0.053748651978029346 0 -0.0007991751114017902 0.053560706887567054 0 -0.00086809490235987955 0.053167334218258352 0 -0.0019893010654199951 0.052702101103873793 0 -0.0020818801060289477 0.051030193716413881 0 -0.00073076129143425815 0.053808237410679978 0 -0.00086388431925776593 0.053833371605306782 0 -0.0007991751114017902 0.053560706887567054 0 -0.0010170181043133166 0.053748651978029346 0 -0.00086388431925776593 0.053833371605306782 0 -0.0007991751114017902 0.053560706887567054 0 -0.00073076129143425815 0.053808237410679978 0 -0.0007991751114017902 0.053560706887567054 0 -0.00060382724936974862 0.053610278360871816 0 -0.0007991751114017902 0.053560706887567054 0 -0.00060382724936974862 0.053610278360871816 0 -0.00044218762541589895 0.053316521996874186 0 -0.00043542454818210904 0.053740036335199574 0 -0.00044218762541589895 0.053316521996874186 0 -0.00014044076957160363 0.053291591230759702 0 -0.00043542454818210904 0.053740036335199574 0 -0.00060382724936974862 0.053610278360871816 0 -0.00044218762541589895 0.053316521996874186 0 -0.00044218762541589895 0.053316521996874186 0 -0.00053058551150890953 0.05297809211228667 0 -0.00086809490235987955 0.053167334218258352 0 -0.00044218762541589895 0.053316521996874186 0 -0.00053058551150890953 0.05297809211228667 0 -0.0002335869630575548 0.052919605667034887 0 -0.0007991751114017902 0.053560706887567054 0 -0.00044218762541589895 0.053316521996874186 0 -0.00086809490235987955 0.053167334218258352 0 -0.0020818801060289477 0.051030193716413881 0 -0.0018948615140210929 0.047613202192736861 0 -0.0019807620159944827 0.050911082795461401 0 -0.0023541699872671202 0.049553809691622992 0 -0.001219195722287985 0.049566755147979612 0 -0.0019807620159944827 0.050911082795461401 0 -0.0023541699872671202 0.049553809691622992 0 -0.0025493929297840529 0.050904036976007594 0 -0.0011283731101955888 0.050969458845444293 0 -0.0018948615140210929 0.047613202192736861 0 -0.00056973450098391821 0.052494143868419767 0 -0.0002335869630575548 0.052919605667034887 0 -7.1715188130364477e-05 0.052475570917830464 0 -0.00053058551150890953 0.05297809211228667 0 -0.00056973450098391821 0.052494143868419767 0 -0.0002335869630575548 0.052919605667034887 0 -0.0018948615140210929 0.047613202192736861 0 -0.0012986343657485626 0.044647634240975495 0 -0.00053058551150890953 0.05297809211228667 0 -0.00086809490235987955 0.053167334218258352 0 -0.00056973450098391821 0.052494143868419767 0 -0.0027432309670094076 0.052256726365886873 0 -0.0019807620159944827 0.050911082795461401 0 -0.0025493929297840529 0.050904036976007594 0 -0.00077024122560300726 0.054596365863802288 0 -0.00059648173326998764 0.054880681214183963 0 -0.00099790820209547668 0.054844488346193994 0 -0.0010522967204881762 0.055264491127384852 0 -0.00059648173326998764 0.054880681214183963 0 -0.00099790820209547668 0.054844488346193994 0 -0.0011283731101955888 0.050969458845444293 0 -0.0016500750803666155 0.052384302881451524 0 -0.0010522967204881762 0.055264491127384852 0 -0.00059648173326998764 0.054880681214183963 0 -0.0004752405422227246 0.055271212288941426 0 -0.00059648173326998764 0.054880681214183963 0 -0.00027211989637097238 0.054938408164421138 0 -0.0004752405422227246 0.055271212288941426 0 -0.00027211989637097238 0.054938408164421138 0 6.7679504848332261e-05 0.055273254002779375 0 -0.0004752405422227246 0.055271212288941426 0 -0.00059648173326998764 0.054880681214183963 0 -0.00027211989637097238 0.054938408164421138 0 -0.00031805232456132631 0.054620187629005335 0 -0.00027211989637097238 0.054938408164421138 0 -7.9046480092731305e-05 0.054749164170427349 0 -0.00031805232456132631 0.054620187629005335 0 -7.4199971271177214e-05 0.054794337996471314 0 3.4078238841163489e-05 0.054924260201955621 0 3.5289108996205447e-05 0.054745777678242076 0 -7.9436326374457276e-06 0.054991230991114873 0 -6.4069208718027353e-06 0.054995978221262835 0 -1.3922441207327482e-06 0.054996024485525728 0 -0.00010403905991656669 0.054833186406020994 0 -9.1232667342780201e-06 0.054941521917822499 0 -0.00010403905991656669 0.054833186406020994 0 -0.00010412791386766739 0.054832483136514787 0 -0.00010403905991656669 0.054833186406020994 0 -0.00011278394225988445 0.054764967319299085 0 -0.00027211989637097238 0.054938408164421138 0 -7.9046480092731305e-05 0.054749164170427349 0 -5.495768508241825e-06 0.055008275804238789 0 -0.00027211989637097238 0.054938408164421138 0 -5.495768508241825e-06 0.055008275804238789 0 6.7679504848332261e-05 0.055273254002779375 0 -0.00011278394225988445 0.054764967319299085 0 -0.00018771504614995528 0.054483377415168309 0 -6.4069208718027353e-06 0.054995978221262835 0 -3.211501927012498e-06 0.054997440565746333 0 -5.0359004647817296e-06 0.054999551272481018 0 -3.211501927012498e-06 0.054997440565746333 0 -1.3922441207327482e-06 0.054996024485525728 0 -1.0719961116628139e-06 0.054999421811769943 0 -1.3922441207327482e-06 0.054996024485525728 0 -5.2787087211680475e-07 0.0549995995304517 0 -1.0719961116628139e-06 0.054999421811769943 0 -3.211501927012498e-06 0.054997440565746333 0 -1.0719961116628139e-06 0.054999421811769943 0 -5.0359004647817296e-06 0.054999551272481018 0 -6.4069208718027353e-06 0.054995978221262835 0 -3.211501927012498e-06 0.054997440565746333 0 -1.3922441207327482e-06 0.054996024485525728 0 3.9742408289641219e-08 0.054999911770458675 0 -9.1232667342780201e-06 0.054941521917822499 0 2.3941675155710077e-09 0.05499999648343247 0 -1.3922441207327482e-06 0.054996024485525728 0 -5.2787087211680475e-07 0.0549995995304517 0 -8.9228791362792861e-08 0.054999974323390377 0 3.4078238841163489e-05 0.054924260201955621 0 2.2139608661412957e-07 0.054999812802037105 0 3.4078238841163489e-05 0.054924260201955621 0 3.5289108996205447e-05 0.054745777678242076 0 2.2139608661412957e-07 0.054999812802037105 0 3.5289108996205447e-05 0.054745777678242076 0 2.2139608661412957e-07 0.054999812802037105 0 0.00010724532473499038 0.054630956712987067 0 -9.4229432958130379e-09 0.054998656921104172 0 2.2139608661412957e-07 0.054999812802037105 0 0.00010724532473499038 0.054630956712987067 0 3.5289108996205447e-05 0.054745777678242076 0 0.00010724532473499038 0.054630956712987067 0 -2.4487218796551607e-06 0.054456238908316204 0 0.00013616945614866745 0.053745185874303582 0 0.00010724532473499038 0.054630956712987067 0 -2.4487218796551607e-06 0.054456238908316204 0 0.00013616945614866745 0.053745185874303582 0 -2.4487218796551607e-06 0.054456238908316204 0 -0.00032612958645692266 0.054348394517963097 0 -2.4487218796551607e-06 0.054456238908316204 0 -0.00032612958645692266 0.054348394517963097 0 -0.00012492387133358488 0.054590986607339242 0 -0.00032612958645692266 0.054348394517963097 0 -0.00031805232456132631 0.054620187629005335 0 -0.00012492387133358488 0.054590986607339242 0 -0.00057380887924876384 0.054505319177176208 0 -0.00032612958645692266 0.054348394517963097 0 -0.00031805232456132631 0.054620187629005335 0 -7.5211041207360924e-05 0.054815296295723272 0 -0.00031805232456132631 0.054620187629005335 0 -8.6095516847217173e-05 0.054762957249618542 0 -0.00031805232456132631 0.054620187629005335 0 -8.6095516847217173e-05 0.054762957249618542 0 -0.00012492387133358488 0.054590986607339242 0 -0.00010403905991656669 0.054833186406020994 0 -0.00014930136214482708 0.054800314268515608 0 3.5289108996205447e-05 0.054745777678242076 0 -8.6095516847217173e-05 0.054762957249618542 0 -0.00012492387133358488 0.054590986607339242 0 -7.4199971271177214e-05 0.054794337996471314 0 3.5289108996205447e-05 0.054745777678242076 0 -8.6095516847217173e-05 0.054762957249618542 0 3.5289108996205447e-05 0.054745777678242076 0 -2.4487218796551607e-06 0.054456238908316204 0 -0.00012492387133358488 0.054590986607339242 0 -0.0018214140667375265 0.028319965816991838 0 -0.0025808404015449224 0.026939104413206825 0 -0.0007992821051986392 0.027608432847360989 0 -0.00094631028994282291 0.026765123720507631 0 -0.00054946033133663845 0.027327750263487549 0 0.00018777431983275184 0.030792284995903647 0 -0.00023508185209022295 0.030724119099897803 0 -0.00012755449168953329 0.03092740898635056 0 0.00018777431983275184 0.030792284995903647 0 0.00010884887804611017 0.030843566170717356 0 -0.00012755449168953329 0.03092740898635056 0 0.00018777431983275184 0.030792284995903647 0 0.00010930646190791749 0.030692396992471373 0 0.00010884887804611017 0.030843566170717356 0 0.00018777431983275184 0.030792284995903647 0 0.00017303943223776193 0.030358507710788671 0 0.00028322989596633831 0.030897086912168303 0 0.00018777431983275184 0.030792284995903647 0 0.00017303943223776193 0.030358507710788671 0 -0.00023508185209022295 0.030724119099897803 0 -0.0018214140667375265 0.028319965816991838 0 -0.0015687261374060341 0.028568150350690363 0 0.00017303943223776193 0.030358507710788671 0 -0.00023508185209022295 0.030724119099897803 0 -0.00022826359443193212 0.029080773896875037 0 -0.0007992821051986392 0.027608432847360989 0 -0.00022826359443193212 0.029080773896875037 0 -0.0001041950709516496 0.028002074806417615 0 -0.00022826359443193212 0.029080773896875037 0 6.4085508486558031e-07 0.02823635877590807 0 0.00019135744148122407 0.030275807175700886 0 -0.00022826359443193212 0.029080773896875037 0 6.4085508486558031e-07 0.02823635877590807 0 2.6994892582458889e-05 0.027601776258160154 0 6.4085508486558031e-07 0.02823635877590807 0 0.00019135744148122407 0.030275807175700886 0 5.684963747248959e-07 0.031254883315099236 0 0.00017303943223776193 0.030358507710788671 0 -0.00022826359443193212 0.029080773896875037 0 0.00019135744148122407 0.030275807175700886 0 0.00017303943223776193 0.030358507710788671 0 0.00019135744148122407 0.030275807175700886 0 0.00028322989596633831 0.030897086912168303 0 0.00028322989596633831 0.030897086912168303 0 0.00011943865749885784 0.031854031521966399 0 3.6134259494741568e-05 0.031664850811710742 0 0.00019135744148122407 0.030275807175700886 0 0.00028322989596633831 0.030897086912168303 0 0.00011943865749885784 0.031854031521966399 0 5.684963747248959e-07 0.031254883315099236 0 0.00011943865749885784 0.031854031521966399 0 -7.1977517234927818e-07 0.034272827654150857 0 0.00019135744148122407 0.030275807175700886 0 5.684963747248959e-07 0.031254883315099236 0 0.00011943865749885784 0.031854031521966399 0 0.00011943865749885784 0.031854031521966399 0 -7.1977517234927818e-07 0.034272827654150857 0 -0.00023201413138803154 0.033073971785052551 0 -0.00023201413138803154 0.033073971785052551 0 3.6134259494741568e-05 0.031664850811710742 0 -0.00086072409807577991 0.032037593300289734 0 0.00011943865749885784 0.031854031521966399 0 -0.00023201413138803154 0.033073971785052551 0 3.6134259494741568e-05 0.031664850811710742 0 3.6134259494741568e-05 0.031664850811710742 0 -0.00040341617516970592 0.031304950513259718 0 -0.00086072409807577991 0.032037593300289734 0 -0.00040341617516970592 0.031304950513259718 0 -0.00028722892341263151 0.030797518177926014 0 -0.00076872455391485651 0.030995929103332865 0 -0.00040341617516970592 0.031304950513259718 0 0.00012340457147688952 0.030984666639686922 0 -0.00028722892341263151 0.030797518177926014 0 3.613425