<?xml version="1.0"?>
<VTKFile type="UnstructuredGrid" version="0.1" byte_order="LittleEndian">
<UnstructuredGrid>
<Piece NumberOfPoints="30111" NumberOfCells="10538">
<Points>
<DataArray type="Float64" NumberOfComponents="3" format="ascii">
-0.5 -0.5 0 -0.47557455877200122 -0.45538164769559292 0 -0.50000000000000022 -0.42798039104638652 0 -0.5 -0.5 0 -0.46066210031500582 -0.47693244644959248 0 -0.47557455877200122 -0.45538164769559292 0 -0.44278073490774039 -0.5 0 -0.46066210031500582 -0.47693244644959248 0 -0.43278452465396278 -0.46826944512239238 0 -0.5 -0.5 0 -0.44278073490774039 -0.5 0 -0.46066210031500582 -0.47693244644959248 0 -0.4381393105908733 -0.44581138532596992 0 -0.465151691558227 -0.4390769835198754 0 -0.4381393105908733 -0.44581138532596992 0 -0.45444729194399192 -0.4564840293047655 0 -0.465151691558227 -0.4390769835198754 0 -0.46066210031500582 -0.47693244644959248 0 -0.45444729194399192 -0.4564840293047655 0 -0.43278452465396278 -0.46826944512239238 0 -0.4381393105908733 -0.44581138532596992 0 -0.45444729194399192 -0.4564840293047655 0 -0.43278452465396278 -0.46826944512239238 0 -0.46066210031500582 -0.47693244644959248 0 -0.45444729194399192 -0.4564840293047655 0 -0.47557455877200122 -0.45538164769559292 0 -0.45444729194399192 -0.4564840293047655 0 -0.465151691558227 -0.4390769835198754 0 -0.47557455877200122 -0.45538164769559292 0 -0.465151691558227 -0.4390769835198754 0 -0.47557455877200122 -0.45538164769559292 0 -0.47342491651714558 -0.42592096745175512 0 -0.50000000000000022 -0.42798039104638652 0 -0.47342491651714558 -0.42592096745175512 0 -0.50000000000000022 -0.42798039104638652 0 -0.48007830460962092 -0.40649109400261302 0 -0.47342491651714558 -0.42592096745175512 0 -0.50000000000000022 -0.42798039104638652 0 -0.48007830460962092 -0.40649109400261302 0 -0.5 -0.39829033608817938 0 -0.48007830460962092 -0.40649109400261302 0 -0.47342491651714558 -0.42592096745175512 0 -0.4610932624457405 -0.41255635053957679 0 -0.47557455877200122 -0.45538164769559292 0 -0.50000000000000022 -0.42798039104638652 0 -0.47342491651714558 -0.42592096745175512 0 -0.5 -0.39829033608817938 0 -0.48188491913997827 -0.38352621205778198 0 -0.5 -0.36860028112997228 0 -0.48007830460962092 -0.40649109400261302 0 -0.5 -0.39829033608817938 0 -0.48188491913997827 -0.38352621205778198 0 -0.48007830460962092 -0.40649109400261302 0 -0.48188491913997827 -0.38352621205778198 0 -0.46249826337927502 -0.39442602650157849 0 -0.48188491913997827 -0.38352621205778198 0 -0.46249826337927502 -0.39442602650157849 0 -0.46212039282663742 -0.37472818456346579 0 -0.46249826337927502 -0.39442602650157849 0 -0.46212039282663742 -0.37472818456346579 0 -0.43633533502055138 -0.37376630157730301 0 -0.46249826337927502 -0.39442602650157849 0 -0.4610932624457405 -0.41255635053957679 0 -0.43658519206910718 -0.4006264804781976 0 -0.48007830460962092 -0.40649109400261302 0 -0.46249826337927502 -0.39442602650157849 0 -0.4610932624457405 -0.41255635053957679 0 -0.46249826337927502 -0.39442602650157849 0 -0.43658519206910718 -0.4006264804781976 0 -0.43633533502055138 -0.37376630157730301 0 -0.465151691558227 -0.4390769835198754 0 -0.47342491651714558 -0.42592096745175512 0 -0.44684983303429088 -0.42386154385712371 0 -0.47342491651714558 -0.42592096745175512 0 -0.44684983303429088 -0.42386154385712371 0 -0.47342491651714558 -0.42592096745175512 0 -0.4610932624457405 -0.41255635053957679 0 -0.44684983303429088 -0.42386154385712371 0 -0.4610932624457405 -0.41255635053957679 0 -0.44684983303429088 -0.42386154385712371 0 -0.43658519206910718 -0.4006264804781976 0 -0.4381393105908733 -0.44581138532596992 0 -0.465151691558227 -0.4390769835198754 0 -0.44684983303429088 -0.42386154385712371 0 -0.44684983303429088 -0.42386154385712371 0 -0.42027474955143618 -0.42180212026249231 0 -0.4381393105908733 -0.44581138532596992 0 -0.42027474955143618 -0.42180212026249231 0 -0.40874875433989932 -0.43510535126809569 0 -0.4381393105908733 -0.44581138532596992 0 -0.44684983303429088 -0.42386154385712371 0 -0.42027474955143618 -0.42180212026249231 0 -0.44684983303429088 -0.42386154385712371 0 -0.42027474955143618 -0.42180212026249231 0 -0.43658519206910718 -0.4006264804781976 0 -0.42027474955143618 -0.42180212026249231 0 -0.40844389515388912 -0.40615051430123028 0 -0.39369966606858148 -0.41974269666786079 0 -0.42027474955143618 -0.42180212026249231 0 -0.43658519206910718 -0.4006264804781976 0 -0.40844389515388912 -0.40615051430123028 0 -0.42027474955143618 -0.42180212026249231 0 -0.39369966606858148 -0.41974269666786079 0 -0.42027474955143618 -0.42180212026249231 0 -0.40874875433989932 -0.43510535126809569 0 -0.39369966606858148 -0.41974269666786079 0 -0.43658519206910718 -0.4006264804781976 0 -0.41193209976213668 -0.38808666778841872 0 -0.43633533502055138 -0.37376630157730301 0 -0.43658519206910718 -0.4006264804781976 0 -0.40844389515388912 -0.40615051430123028 0 -0.41193209976213668 -0.38808666778841872 0 -0.41193209976213668 -0.38808666778841872 0 -0.43633533502055138 -0.37376630157730301 0 -0.40540603633492078 -0.37023582815783151 0 -0.41193209976213668 -0.38808666778841872 0 -0.38518858411005852 -0.38935155324373882 0 -0.41193209976213668 -0.38808666778841872 0 -0.38518858411005852 -0.38935155324373882 0 -0.40540603633492078 -0.37023582815783151 0 -0.40844389515388912 -0.40615051430123028 0 -0.41193209976213668 -0.38808666778841872 0 -0.38518858411005852 -0.38935155324373882 0 -0.40844389515388912 -0.40615051430123028 0 -0.38518858411005852 -0.38935155324373882 0 -0.39369966606858148 -0.41974269666786079 0 -0.40874875433989932 -0.43510535126809569 0 -0.39369966606858148 -0.41974269666786079 0 -0.39057421060630021 -0.43601686256994537 0 -0.39369966606858148 -0.41974269666786079 0 -0.37671678763959621 -0.4296304606473671 0 -0.37499215049496321 -0.41374110112782497 0 -0.38518858411005852 -0.38935155324373882 0 -0.39369966606858148 -0.41974269666786079 0 -0.37499215049496321 -0.41374110112782497 0 -0.39369966606858148 -0.41974269666786079 0 -0.39057421060630021 -0.43601686256994537 0 -0.37671678763959621 -0.4296304606473671 0 -0.39057421060630021 -0.43601686256994537 0 -0.37845654790399302 -0.44920491518563083 0 -0.39524929707943068 -0.44640088908077252 0 -0.39057421060630021 -0.43601686256994537 0 -0.37671678763959621 -0.4296304606473671 0 -0.37845654790399302 -0.44920491518563083 0 -0.37845654790399302 -0.44920491518563083 0 -0.39524929707943068 -0.44640088908077252 0 -0.38411454865616551 -0.45928018893815897 0 -0.39524929707943068 -0.44640088908077252 0 -0.38411454865616551 -0.45928018893815897 0 -0.41112692962351938 -0.45254578713206439 0 -0.40874875433989932 -0.43510535126809569 0 -0.39057421060630021 -0.43601686256994537 0 -0.39524929707943068 -0.44640088908077252 0 -0.40874875433989932 -0.43510535126809569 0 -0.39524929707943068 -0.44640088908077252 0 -0.41112692962351938 -0.45254578713206439 0 -0.38411454865616551 -0.45928018893815897 0 -0.41112692962351938 -0.45254578713206439 0 -0.39648456635398488 -0.46655588098855788 0 -0.38411454865616551 -0.45928018893815897 0 -0.41112692962351938 -0.45254578713206439 0 -0.39648456635398488 -0.46655588098855788 0 -0.41112692962351938 -0.45254578713206439 0 -0.41106510986967892 -0.46713780777043218 0 -0.39648456635398488 -0.46655588098855788 0 -0.38411454865616551 -0.45928018893815897 0 -0.37569352492019109 -0.46467268428669339 0 -0.39648456635398488 -0.46655588098855788 0 -0.37569352492019109 -0.46467268428669339 0 -0.37845654790399302 -0.44920491518563083 0 -0.37569352492019109 -0.46467268428669339 0 -0.37845654790399302 -0.44920491518563083 0 -0.38411454865616551 -0.45928018893815897 0 -0.37569352492019109 -0.46467268428669339 0 -0.39648456635398488 -0.46655588098855788 0 -0.37569352492019109 -0.46467268428669339 0 -0.3913052297848727 -0.47905871746751288 0 -0.37569352492019109 -0.46467268428669339 0 -0.3913052297848727 -0.47905871746751288 0 -0.37253824814323239 -0.48233634214334642 0 -0.40055146936629532 -0.5 0 -0.3913052297848727 -0.47905871746751288 0 -0.37253824814323239 -0.48233634214334642 0 -0.40055146936629532 -0.5 0 -0.36938297136627368 -0.49999999999999939 0 -0.37253824814323239 -0.48233634214334642 0 -0.40055146936629532 -0.5 0 -0.3913052297848727 -0.47905871746751288 0 -0.41249527248942253 -0.48017030855814907 0 -0.39648456635398488 -0.46655588098855788 0 -0.3913052297848727 -0.47905871746751288 0 -0.41249527248942253 -0.48017030855814907 0 -0.44278073490774039 -0.5 0 -0.40055146936629532 -0.5 0 -0.41249527248942253 -0.48017030855814907 0 -0.44278073490774039 -0.5 0 -0.41249527248942253 -0.48017030855814907 0 -0.43278452465396278 -0.46826944512239238 0 -0.41249527248942253 -0.48017030855814907 0 -0.43278452465396278 -0.46826944512239238 0 -0.41106510986967892 -0.46713780777043218 0 -0.39648456635398488 -0.46655588098855788 0 -0.41249527248942253 -0.48017030855814907 0 -0.41106510986967892 -0.46713780777043218 0 -0.4381393105908733 -0.44581138532596992 0 -0.43278452465396278 -0.46826944512239238 0 -0.41112692962351938 -0.45254578713206439 0 -0.4381393105908733 -0.44581138532596992 0 -0.41112692962351938 -0.45254578713206439 0 -0.4381393105908733 -0.44581138532596992 0 -0.40874875433989932 -0.43510535126809569 0 -0.41112692962351938 -0.45254578713206439 0 -0.43278452465396278 -0.46826944512239238 0 -0.41112692962351938 -0.45254578713206439 0 -0.41106510986967892 -0.46713780777043218 0 -0.43844476508750763 -0.25118253085455738 0 -0.45717331175703579 -0.26436555745527418 0 -0.4339819039245903 -0.26742153259634982 0 -0.43844476508750763 -0.25118253085455738 0 -0.45717331175703579 -0.26436555745527418 0 -0.45605813200475082 -0.23745277862088901 0 -0.44734228526117831 -0.27973734463059857 0 -0.45717331175703579 -0.26436555745527418 0 -0.4339819039245903 -0.26742153259634982 0 -0.44734228526117831 -0.27973734463059857 0 -0.43198641049743819 -0.28349597494001882 0 -0.4339819039245903 -0.26742153259634982 0 -0.45717331175703579 -0.26436555745527418 0 -0.45828849150932038 -0.29127833628965938 0 -0.44734228526117831 -0.2
[...]
<PointData Scalars="" Vectors="displacement," Tensors="">
<DataArray type="Float64" Name="displacement" NumberOfComponents="3" format="ascii">
-0.014999015165627284 -1.4298857985592184e-07 0 -0.014528536929928672 -0.00010650818726855486 0 -0.014998377188731236 -2.1155653208398034e-07 0 -0.014999015165627284 -1.4298857985592184e-07 0 -0.014075348411018878 -9.3959931430819381e-05 0 -0.014528536929928672 -0.00010650818726855486 0 -0.013284245797281661 -2.2402748148096809e-07 0 -0.014075348411018878 -9.3959931430819381e-05 0 -0.013588797026690724 -9.0177872387592925e-05 0 -0.014999015165627284 -1.4298857985592184e-07 0 -0.013284245797281661 -2.2402748148096809e-07 0 -0.014075348411018878 -9.3959931430819381e-05 0 -0.014112136777492049 -0.00016463643739717936 0 -0.014393710527697176 -0.00014669333945216721 0 -0.013951775950371255 -8.2098423356042455e-05 0 -0.0141243470785211 -0.00010952028776177237 0 -0.014447100033236024 -0.00012609714959493652 0 -0.014075348411018878 -9.3959931430819381e-05 0 -0.0141243470785211 -0.00010952028776177237 0 -0.013588797026690724 -9.0177872387592925e-05 0 -0.013951775950371255 -8.2098423356042455e-05 0 -0.0141243470785211 -0.00010952028776177237 0 -0.013588797026690724 -9.0177872387592925e-05 0 -0.014075348411018878 -9.3959931430819381e-05 0 -0.0141243470785211 -0.00010952028776177237 0 -0.014528536929928672 -0.00010650818726855486 0 -0.0141243470785211 -0.00010952028776177237 0 -0.014447100033236024 -0.00012609714959493652 0 -0.014528536929928672 -0.00010650818726855486 0 -0.014447100033236024 -0.00012609714959493652 0 -0.014528536929928672 -0.00010650818726855486 0 -0.014559167478667458 -0.0001041467085303995 0 -0.014999875663722158 -4.4613090841345987e-08 0 -0.014703590816860705 -3.0943330822628879e-05 0 -0.014999776894148411 3.6879533259103445e-08 0 -0.014866703012436632 5.9948417898302689e-05 0 -0.014829211773631548 6.7088379598066473e-05 0 -0.014999776894148411 3.6879533259103445e-08 0 -0.014866703012436632 5.9948417898302689e-05 0 -0.014999790798699392 5.188222760529802e-08 0 -0.014866703012436632 5.9948417898302689e-05 0 -0.014829211773631548 6.7088379598066473e-05 0 -0.014757574570160597 8.1013715893546096e-05 0 -0.014528536929928672 -0.00010650818726855486 0 -0.014998377188731236 -2.1155653208398034e-07 0 -0.014559167478667458 -0.0001041467085303995 0 -0.014999790798699392 5.188222760529802e-08 0 -0.014851871955408019 7.7475212277200212e-05 0 -0.014999730209870879 1.1379845245023055e-07 0 -0.014866703012436632 5.9948417898302689e-05 0 -0.014999790798699392 5.188222760529802e-08 0 -0.014851871955408019 7.7475212277200212e-05 0 -0.014866703012436632 5.9948417898302689e-05 0 -0.014851871955408019 7.7475212277200212e-05 0 -0.014735699473061272 9.912492031337421e-05 0 -0.014851871955408019 7.7475212277200212e-05 0 -0.014735699473061272 9.912492031337421e-05 0 -0.014679685575819591 0.00012505923282669926 0 -0.014735699473061272 9.912492031337421e-05 0 -0.014679685575819591 0.00012505923282669926 0 -0.014490671992684718 0.0001205718660371806 0 -0.014735699473061272 9.912492031337421e-05 0 -0.014757574570160597 8.1013715893546096e-05 0 -0.014605556190732687 6.5283128336154575e-05 0 -0.014866703012436632 5.9948417898302689e-05 0 -0.014735699473061272 9.912492031337421e-05 0 -0.014757574570160597 8.1013715893546096e-05 0 -0.014735699473061272 9.912492031337421e-05 0 -0.014605556190732687 6.5283128336154575e-05 0 -0.014490671992684718 0.0001205718660371806 0 -0.014447100033236024 -0.00012609714959493652 0 -0.014559167478667458 -0.0001041467085303995 0 -0.014335056967195425 -0.00018749219105847952 0 -0.014703590816860705 -3.0943330822628879e-05 0 -0.014519969760427546 -5.7466713689510873e-05 0 -0.014829211773631548 6.7088379598066473e-05 0 -0.014757574570160597 8.1013715893546096e-05 0 -0.014694508374394755 7.2405234835084954e-05 0 -0.014757574570160597 8.1013715893546096e-05 0 -0.014694508374394755 7.2405234835084954e-05 0 -0.014605556190732687 6.5283128336154575e-05 0 -0.014252926173140173 -0.00021940122175731448 0 -0.014447100033236024 -0.00012609714959493652 0 -0.014335056967195425 -0.00018749219105847952 0 -0.014519969760427546 -5.7466713689510873e-05 0 -0.014409590279904844 -6.1468261572287364e-05 0 -0.014252926173140173 -0.00021940122175731448 0 -0.014279341278830246 -0.00017453497615293093 0 -0.014166765301005206 -0.00011110027302021981 0 -0.014252926173140173 -0.00021940122175731448 0 -0.014335056967195425 -0.00018749219105847952 0 -0.014279341278830246 -0.00017453497615293093 0 -0.014694508374394755 7.2405234835084954e-05 0 -0.014539401171487255 2.2760170424156564e-05 0 -0.014605556190732687 6.5283128336154575e-05 0 -0.014539401171487255 2.2760170424156564e-05 0 -0.014454299339527313 8.2685585561748157e-06 0 -0.014333717243794418 6.1806695717091248e-05 0 -0.014539401171487255 2.2760170424156564e-05 0 -0.014605556190732687 6.5283128336154575e-05 0 -0.014454299339527313 8.2685585561748157e-06 0 -0.014409590279904844 -6.1468261572287364e-05 0 -0.014349166994520246 6.4222488407405173e-05 0 -0.014279341278830246 -0.00017453497615293093 0 -0.014166765301005206 -0.00011110027302021981 0 -0.014333717243794418 6.1806695717091248e-05 0 -0.014605556190732687 6.5283128336154575e-05 0 -0.014471141694702667 -2.5478279423521246e-05 0 -0.014490671992684718 0.0001205718660371806 0 -0.014605556190732687 6.5283128336154575e-05 0 -0.014454299339527313 8.2685585561748157e-06 0 -0.014471141694702667 -2.5478279423521246e-05 0 -0.014471141694702667 -2.5478279423521246e-05 0 -0.014490671992684718 0.0001205718660371806 0 -0.014172847712812787 -0.00014190230473596946 0 -0.014459681487175495 -2.9380386323912181e-05 0 -0.014393498805876249 -0.00016937191479638358 0 -0.014471141694702667 -2.5478279423521246e-05 0 -0.014386086674835532 -0.00047332328662586941 0 -0.014172847712812787 -0.00014190230473596946 0 -0.014454299339527313 8.2685585561748157e-06 0 -0.014471141694702667 -2.5478279423521246e-05 0 -0.01441528785367094 0.00013422890024277089 0 -0.014454299339527313 8.2685585561748157e-06 0 -0.01441528785367094 0.00013422890024277089 0 -0.014333717243794418 6.1806695717091248e-05 0 -0.014166765301005206 -0.00011110027302021981 0 -0.014333717243794418 6.1806695717091248e-05 0 -0.014125432006595821 9.496546262254842e-05 0 -0.014333717243794418 6.1806695717091248e-05 0 -0.014196727517904521 0.00021358836633560198 0 -0.014317307168436858 0.00019274711680778131 0 -0.01441528785367094 0.00013422890024277089 0 -0.014333717243794418 6.1806695717091248e-05 0 -0.014317307168436858 0.00019274711680778131 0 -0.014333717243794418 6.1806695717091248e-05 0 -0.014125432006595821 9.496546262254842e-05 0 -0.014196727517904521 0.00021358836633560198 0 -0.014125432006595821 9.496546262254842e-05 0 -0.013889111047486188 0.00029579992068260428 0 -0.013971913235071132 4.3232889828258835e-05 0 -0.014125432006595821 9.496546262254842e-05 0 -0.014196727517904521 0.00021358836633560198 0 -0.013889111047486188 0.00029579992068260428 0 -0.013889111047486188 0.00029579992068260428 0 -0.013971913235071132 4.3232889828258835e-05 0 -0.013528802857834421 0.00024112024907453313 0 -0.013971913235071132 4.3232889828258835e-05 0 -0.013528802857834421 0.00024112024907453313 0 -0.014007262666120183 -0.00014935522443515134 0 -0.014166765301005206 -0.00011110027302021981 0 -0.014125432006595821 9.496546262254842e-05 0 -0.013971913235071132 4.3232889828258835e-05 0 -0.014166765301005206 -0.00011110027302021981 0 -0.013971913235071132 4.3232889828258835e-05 0 -0.014007262666120183 -0.00014935522443515134 0 -0.013544172120421938 0.00025120438971028687 0 -0.013756513009392549 -8.4853168143342371e-05 0 -0.013157910364834031 5.4110753067566248e-05 0 -0.013528802857834421 0.00024112024907453313 0 -0.013487314541186249 -5.8636390754013143e-05 0 -0.013157910364834031 5.4110753067566248e-05 0 -0.013487314541186249 -5.8636390754013143e-05 0 -0.013266462280316903 -5.035676226752129e-05 0 -0.013157910364834031 5.4110753067566248e-05 0 -0.013528802857834421 0.00024112024907453313 0 -0.013412319795207621 0.00043981148464749024 0 -0.013178821078610025 0.00015176438696332781 0 -0.012880093292359871 0.00015300336597629888 0 -0.014045726513567334 0.00025152705133651705 0 -0.012880093292359871 0.00015300336597629888 0 -0.013889111047486188 0.00029579992068260428 0 -0.013528802857834421 0.00024112024907453313 0 -0.013412319795207621 0.00043981148464749024 0 -0.013157910364834031 5.4110753067566248e-05 0 -0.012858226053831849 0.00042564915721321332 0 -0.01260139044724394 0.00012746044193422929 0 -0.012858226053831849 0.00042564915721321332 0 -0.01260139044724394 0.00012746044193422929 0 -0.012175517537034514 0.00032184042064302681 0 -0.012016651360017228 -5.6402787680643045e-07 0 -0.01260139044724394 0.00012746044193422929 0 -0.012175517537034514 0.00032184042064302681 0 -0.012016651360017228 -5.6402787680643045e-07 0 -0.011083411928065097 1.7901205413703674e-06 0 -0.012175517537034514 0.00032184042064302681 0 -0.012016651360017228 -5.6402787680643045e-07 0 -0.01260139044724394 0.00012746044193422929 0 -0.012935494828156476 -7.3840702014147915e-05 0 -0.013157910364834031 5.4110753067566248e-05 0 -0.01260139044724394 0.00012746044193422929 0 -0.012935494828156476 -7.3840702014147915e-05 0 -0.013284245797281661 -2.2402748148096809e-07 0 -0.012016651360017228 -5.6402787680643045e-07 0 -0.012935494828156476 -7.3840702014147915e-05 0 -0.013284245797281661 -2.2402748148096809e-07 0 -0.012935494828156476 -7.3840702014147915e-05 0 -0.013588797026690724 -9.0177872387592925e-05 0 -0.012935494828156476 -7.3840702014147915e-05 0 -0.013588797026690724 -9.0177872387592925e-05 0 -0.013266462280316903 -5.035676226752129e-05 0 -0.013157910364834031 5.4110753067566248e-05 0 -0.012935494828156476 -7.3840702014147915e-05 0 -0.013266462280316903 -5.035676226752129e-05 0 -0.013951775950371255 -8.2098423356042455e-05 0 -0.013588797026690724 -9.0177872387592925e-05 0 -0.013487314541186249 -5.8636390754013143e-05 0 -0.014112136777492049 -0.00016463643739717936 0 -0.013756513009392549 -8.4853168143342371e-05 0 -0.014252926173140173 -0.00021940122175731448 0 -0.014166765301005206 -0.00011110027302021981 0 -0.014007262666120183 -0.00014935522443515134 0 -0.013588797026690724 -9.0177872387592925e-05 0 -0.013487314541186249 -5.8636390754013143e-05 0 -0.013266462280316903 -5.035676226752129e-05 0 -0.014558661052142796 0.00013235003331992868 0 -0.014413065936051605 -1.9164155771492505e-05 0 -0.014374567257572546 0.00022377995403018692 0 -0.014558661052142796 0.00013235003331992868 0 -0.014413065936051605 -1.9164155771492505e-05 0 -0.014690767761219968 -2.6407741100519263e-05 0 -0.014202032925803148 0.00013911985897303123 0 -0.014413065936051605 -1.9164155771492505e-05 0 -0.014374567257572546 0.00022377995403018692 0 -0.014202032925803148 0.00013911985897303123 0 -0.014167478215778677 0.00031561177902615786 0 -0.014374567257572546 0.00022377995403018692 0 -0.014740582504265935 -9.0358585646015927e-06 0 -0.014262030665211868 0.00015621076591337002 0 -0.014202032925803148 0.00013911985897303123 0 -0.014413065936051605 -1.9164155771492505e-05 0 -0.014026315353934301 4.7717661849133459e-05 0 -0.014970544361047385 2.3915202950431878e-05 0 -0.014958767451408604 1.5516708565009152e-05 0 -0.014929588994857265 3.3525009736633241e-05 0 -0.014970544361047385 2.3915202950431878e-05 0 -0.014978640774228683 1.2980070425601673e-05 0 -0.014958767451408604 1.5516708565009152e-05 0 -0.014740582504265935 -9.0358585646015927e-06 0 -0.014820396861963028 -7.0133666923043901e-06 0 -0.014970544361047385 2.3915202950431878e-05 0 -0.014978640774228683 1.2980070425601673e-05 0 -0.014976293044146495 3.0921524786224223e-06 0 -0.014978640774228683 1.2980070425601673e-05 0 -0.014985021800873535 7.3247272455079097e-06 0 -0.014983667024574496 9.9412407583838783e-06 0 -0.014978640774228683 1.2980070425601673e-05 0 -0.014970158358203211 7.1678688772796777e-06 0 -0.014958767451408604 1.5516708565009152e-05 0 -0.014978640774228683 1.2980070425601673e-05 0 -0.014985021800873535 7.3247272455079097e-06 0 -0.014970158358203211 7.1678688772796777e-06 0 -0.014995392735118657 -2.2992820063677566e-07 0 -0.014999969559364716 -2.3262644015097171e-09 0 -0.015000010559121889 2.1569063131597853e-09 0 -0.014985021800873535 7.3247272455079097e-06 0 -0.014995392735118657 -2.2992820063677566e-07 0 -0.014990692884732858 4.1316947704970966e-06 0 -0.014985021800873535 7.3247272455079097e-06 0 -0.014995392735118657 -2.2992820063677566e-07 0 -0.014970158358203211 7.1678688772796777e-06 0 -0.014995392735118657 -2.2992820063677566e-07 0 -0.014999969559364716 -2.3262644015097171e-09 0 -0.014990692884732858 4.1316947704970966e-06 0 -0.014995392735118657 -2.2992820063677566e-07 0 -0.015000010559121889 2.1569063131597853e-09 0 -0.014999599496856834 -1.2784352233293333e-06 0 -0.014995392735118657 -2.2992820063677566e-07 0 -0.014970158358203211 7.1678688772796777e-06 0 -0.014946157788995997 -7.8313697143694607e-06 0 -0.015106834932320569 -2.6994336757851567e-05 0 -0.014717813229363415 6.7144719978092613e-05 0 -0.014999857151935216 -6.4912880665846573e-08 0 -0.014717813229363415 6.7144719978092613e-05 0 -0.014953509525266903 7.4856093730917836e-06 0 -0.014970158358203211 7.1678688772796777e-06 0 -0.014946157788995997 -7.8313697143694607e-06 0 -0.014953509525266903 7.4856093730917836e-06 0 -0.014970158358203211 7.1678688772796777e-06 0 -0.014958767451408604 1.5516708565009152e-05 0 -0.014953509525266903 7.4856093730917836e-06 0 -0.014958767451408604 1.5516708565009152e-05 0 -0.014938751578822575 1.2289234570763347e-05 0 -0.014392874971845205 0.00018252828711648564 0 -0.014717813229363415 6.7144719978092613e-05 0 -0.014953509525266903 7.4856093730917836e-06 0 -0.014938751578822575 1.2289234570763347e-05 0 -0.014946157788995997 -7.8313697143694607e-06 0 -0.013854821935196458 0.00029809462836403523 0 -0.013944240058280396 0.00035321329967742833 0 -0.01380322267047822 0.0004542170758930086 0 -0.013854821935196458 0.00029809462836403523 0 -0.013944240058280396 0.00035321329967742833 0 -0.013957559918279535 0.00025246276757139328 0 -0.014717813229363415 6.7144719978092613e-05 0 -0.014470625319099576 0.00027449411859680638 0 -0.01499999718636748 1.0719432944498706e-08 0 -0.015008950586782061 1.0947138363670704e-05 0 -0.015000093357890921 2.3207203078129832e-08 0 -0.013944240058280396 0.00035321329967742833 0 -0.01380322267047822 0.0004542170758930086 0 -0.01406509544396025 0.00046358727526563901 0 -0.015008950586782061 1.0947138363670704e-05 0 -0.015000093357890921 2.3207203078129832e-08 0 -0.015030658430595679 4.7129204727955158e-05 0 -0.01406509544396025 0.00046358727526563901 0 -0.014061500413503842 0.00028745156840316593 0 -0.014279579813553012 0.0002290758033478111 0 -0.014061500413503842 0.00028745156840316593 0 -0.013977971554935369 0.00019137245867287478 0 -0.014279579813553012 0.0002290758033478111 0 -0.013944240058280396 0.00035321329967742833 0 -0.01406509544396025 0.00046358727526563901 0 -0.014061500413503842 0.00028745156840316593 0 -0.013944240058280396 0.00035321329967742833 0 -0.013957559918279535 0.00025246276757139328 0 -0.014061500413503842 0.00028745156840316593 0 -0.013957559918279535 0.00025246276757139328 0 -0.014061500413503842 0.00028745156840316593 0 -0.013977971554935369 0.00019137245867287478 0 -0.013977971554935369 0.00019137245867287478 0 -0.013937165084321962 0.00015992153921104768 0 -0.013979826210215759 9.6798748354129361e-05 0 -0.013957559918279535 0.00025246276757139328 0 -0.013977971554935369 0.00019137245867287478 0 -0.013910099094652691 0.00018224356521441142 0 -0.013874459080619978 0.0001709128859580505 0 -0.014262030665211868 0.00015621076591337002 0 -0.014392874971845205 0.00018252828711648564 0 -0.014262030665211868 0.00015621076591337002 0 -0.014958767451408604 1.5516708565009152e-05 0 -0.014938751578822575 1.2289234570763347e-05 0 -0.014929588994857265 3.3525009736633241e-05 0 -0.013854821935196458 0.00029809462836403523 0 -0.013957559918279535 0.00025246276757139328 0 -0.013910099094652691 0.00018224356521441142 0 -0.014202032925803148 0.00013911985897303123 0 -0.014026315353934301 4.7717661849133459e-05 0 -0.014005228138928493 0.00010206251518238261 0 -0.013937165084321962 0.00015992153921104768 0 -0.013979826210215759 9.6798748354129361e-05 0 -0.014005228138928493 0.00010206251518238261 0 -0.014262030665211868 0.00015621076591337002 0 -0.014236893311167956 0.00015579693275503099 0 -0.013687826955592616 0.00030670012710178599 0 -0.013447258141204364 0.00037462178299056638 0 -0.014202032925803148 0.00013911985897303123 0 -0.014005228138928493 0.00010206251518238261 0 -0.014167478215778677 0.00031561177902615786 0 -0.014005228138928493 0.00010206251518238261 0 -0.013771735153640888 0.00029552487207817196 0 -0.014167478215778677 0.00031561177902615786 0 -0.013771735153640888 0.00029552487207817196 0 -0.013972130278725172 0.0002154725311823448 0 -0.01370117409419511 0.00018973351304182133 0 -0.013977971554935369 0.00019137245867287478 0 -0.013771735153640888 0.00029552487207817196 0 -0.013972130278725172 0.0002154725311823448 0 -0.013937165084321962 0.00015992153921104768 0 -0.014005228138928493 0.00010206251518238261 0 -0.013771735153640888 0.00029552487207817196 0 -0.013977971554935369 0.00019137245867287478 0 -0.013937165084321962 0.00015992153921104768 0 -0.013771735153640888 0.00029552487207817196 0 -0.013972130278725172 0.0002154725311823448 0 -0.014295151066920244 0.00017224617851603396 0 -0.01421244535888053 0.00019616287788892903 0 -0.013972130278725172 0.0002154725311823448 0 -0.014295151066920244 0.00017224617851603396 0 -0.013958050261633624 0.00013632326837574824 0 -0.014295151066920244 0.00017224617851603396 0 -0.014312543010803532 0.00010526978273842097 0 -0.013958050261633624 0.00013632326837574824 0 -0.014295151066920244 0.00017224617851603396 0 -0.014561776881517363 0.00018983836712940609 0 -0.01421244535888053 0.00019616287788892903 0 -0.014561776881517363 0.00018983836712940609 0 -0.01421244535888053 0.00019616287788892903 0 -0.014279579813553012 0.0002290758033478111 0 -0.013977971554935369 0.00019137245867287478 0 -0.013972130278725172 0.0002154725311823448 0 -0.01421244535888053 0.00019616287788892903 0 -0.013977971554935369 0.00019137245867287478 0 -0.01421244535888053 0.00019616287788892903 0 -0.014279579813553012 0.0002290758033478111 0 -0.01406509544396025 0.00046358727526563901 0 -0.014279579813553012 0.0002290758033478111 0 -0.014713775603749302 0.00022225516986477275 0 -0.015030658430595679 4.7129204727955158e-05 0 -0.014930136208425723 4.7603337445744197e-05 0 -0.014713775603749302 0.00022225516986477275 0 -0.015000093357890921 2.3207203078129832e-08 0 -0.014930136208425723 4.7603337445744197e-05 0 -0.014999436233309509 1.6478555300565662e-07 0 -0.014470625319099576 0.00027449411859680638 0 -0.01471808946045277 0.00022176143688675123 0 -0.015000093357890921 2.3207203078129832e-08 0 -0.015030658430595679 4.7129204727955158e-05 0 -0.014930136208425723 4.7603337445744197e-05 0 -0.014999436233309509 1.6478555300565662e-07 0 -0.014713775603749302 0.00022225516986477275 0 -0.014810996050692299 0.00013218532283887097 0 -0.014930136208425723 4.7603337445744197e-05 0 -0.014999436233309509 1.6478555300565662e-07 0 -0.014713775603749302 0.00022225516986477275 0 -0.014561776881517363 0.00018983836712940609 0 -0.014713775603749302 0.00022225516986477275 0 -0.014810996050692299 0.00013218532283887097 0 -0.014561776881517363 0.00018983836712940609 0 -0.014279579813553012 0.0002290758033478111 0 -0.014713775603749302 0.00022225516986477275 0 -0.014561776881517363 0.00018983836712940609 0 -0.014810996050692299 0.00013218532283887097 0 -0.014761746089541698 0.00012986451961153367 0 -0.014999436233309509 1.6478555300565662e-07 0 -0.014810996050692299 0.00013218532283887097 0 -0.014999730209870879 1.1379845245023055e-07 0 -0.014810996050692299 0.00013218532283887097 0 -0.014999730209870879 1.1379845245023055e-07 0 -0.014761746089541698 0.00012986451961153367 0 -0.014851871955408019 7.7475212277200212e-05 0 -0.01499973020987