<?xml version="1.0"?>
<VTKFile type="UnstructuredGrid" version="0.1" byte_order="LittleEndian">
<UnstructuredGrid>
<Piece NumberOfPoints="31898" NumberOfCells="11152">
<Points>
<DataArray type="Float64" NumberOfComponents="3" format="ascii">
-0.5 -0.5 0 -0.47620991077874902 -0.44978878706170539 0 -0.49999999999999473 -0.42132396840504388 0 -0.5 -0.5 0 -0.47160970827802529 -0.4793630013852106 0 -0.47620991077874902 -0.44978878706170539 0 -0.5 -0.5 0 -0.47160970827802529 -0.4793630013852106 0 -0.44860394795025399 -0.5 0 -0.47160970827802529 -0.4793630013852106 0 -0.44860394795025399 -0.5 0 -0.4490820238307246 -0.45820516232899983 0 -0.44860394795025399 -0.5 0 -0.4490820238307246 -0.45820516232899983 0 -0.42881687682924802 -0.47781464288736519 0 -0.4490820238307246 -0.45820516232899983 0 -0.45555437223955858 -0.42914059360647611 0 -0.4490820238307246 -0.45820516232899983 0 -0.45555437223955858 -0.42914059360647611 0 -0.43867285131603428 -0.4271457417558665 0 -0.4490820238307246 -0.45820516232899983 0 -0.43867285131603428 -0.4271457417558665 0 -0.4263356171060747 -0.44269880333887462 0 -0.47160970827802529 -0.4793630013852106 0 -0.4490820238307246 -0.45820516232899983 0 -0.47620991077874902 -0.44978878706170539 0 -0.4490820238307246 -0.45820516232899983 0 -0.47620991077874902 -0.44978878706170539 0 -0.45555437223955858 -0.42914059360647611 0 -0.47620991077874902 -0.44978878706170539 0 -0.48101336032419229 -0.41069999664450008 0 -0.45555437223955858 -0.42914059360647611 0 -0.47620991077874902 -0.44978878706170539 0 -0.49999999999999473 -0.42132396840504388 0 -0.48101336032419229 -0.41069999664450008 0 -0.49999999999999473 -0.42132396840504388 0 -0.48101336032419229 -0.41069999664450008 0 -0.5 -0.393886241813306 0 -0.49999999999999473 -0.42132396840504388 0 -0.48101336032419229 -0.41069999664450008 0 -0.5 -0.393886241813306 0 -0.47854472220918332 -0.38978458738689759 0 -0.48422759779560409 -0.37130120630367158 0 -0.5 -0.393886241813306 0 -0.5 -0.36644851522156802 0 -0.48422759779560409 -0.37130120630367158 0 -0.48101336032419229 -0.41069999664450008 0 -0.5 -0.393886241813306 0 -0.47854472220918332 -0.38978458738689759 0 -0.48101336032419229 -0.41069999664450008 0 -0.47854472220918332 -0.38978458738689759 0 -0.46202672064839212 -0.40007602488395211 0 -0.48101336032419229 -0.41069999664450008 0 -0.46202672064839212 -0.40007602488395211 0 -0.47854472220918332 -0.38978458738689759 0 -0.46725442735267431 -0.37660061361585562 0 -0.46202672064839212 -0.40007602488395211 0 -0.47854472220918332 -0.38978458738689759 0 -0.46725442735267431 -0.37660061361585562 0 -0.48422759779560409 -0.37130120630367158 0 -0.46725442735267431 -0.37660061361585562 0 -0.46202672064839212 -0.40007602488395211 0 -0.46725442735267431 -0.37660061361585562 0 -0.45645674801697989 -0.38644133236760531 0 -0.46202672064839212 -0.40007602488395211 0 -0.46725442735267431 -0.37660061361585562 0 -0.45645674801697989 -0.38644133236760531 0 -0.4540003998136638 -0.37455519391687309 0 -0.45645674801697989 -0.38644133236760531 0 -0.46202672064839212 -0.40007602488395211 0 -0.44257020456291563 -0.38918913383950271 0 -0.46202672064839212 -0.40007602488395211 0 -0.44257020456291563 -0.38918913383950271 0 -0.44727608925983742 -0.41095911152778891 0 -0.46202672064839212 -0.40007602488395211 0 -0.44257020456291563 -0.38918913383950271 0 -0.44257020456291563 -0.38918913383950271 0 -0.44727608925983742 -0.41095911152778891 0 -0.43479358559901082 -0.4041454901736512 0 -0.44257020456291563 -0.38918913383950271 0 -0.4540003998136638 -0.37455519391687309 0 -0.44172858264042247 -0.37082207246888088 0 -0.45645674801697989 -0.38644133236760531 0 -0.44257020456291563 -0.38918913383950271 0 -0.4540003998136638 -0.37455519391687309 0 -0.46202672064839212 -0.40007602488395211 0 -0.45555437223955858 -0.42914059360647611 0 -0.44727608925983742 -0.41095911152778891 0 -0.46202672064839212 -0.40007602488395211 0 -0.45555437223955858 -0.42914059360647611 0 -0.48101336032419229 -0.41069999664450008 0 -0.46202672064839212 -0.40007602488395211 0 -0.45555437223955858 -0.42914059360647611 0 -0.44727608925983742 -0.41095911152778891 0 -0.43867285131603428 -0.4271457417558665 0 -0.43676601469929588 -0.41441201227470881 0 -0.44727608925983742 -0.41095911152778891 0 -0.43676601469929588 -0.41441201227470881 0 -0.43479358559901082 -0.4041454901736512 0 -0.45555437223955858 -0.42914059360647611 0 -0.44727608925983742 -0.41095911152778891 0 -0.43867285131603428 -0.4271457417558665 0 -0.43867285131603428 -0.4271457417558665 0 -0.42681803064840879 -0.42717069814352421 0 -0.4263356171060747 -0.44269880333887462 0 -0.42681803064840879 -0.42717069814352421 0 -0.41531815884496182 -0.42985383783075998 0 -0.4263356171060747 -0.44269880333887462 0 -0.42681803064840879 -0.42717069814352421 0 -0.42624289495594048 -0.42089725947505818 0 -0.42083332353326591 -0.42146747131641099 0 -0.42681803064840879 -0.42717069814352421 0 -0.43096994786351572 -0.41951492446283251 0 -0.42624289495594048 -0.42089725947505818 0 -0.43867285131603428 -0.4271457417558665 0 -0.42681803064840879 -0.42717069814352421 0 -0.43096994786351572 -0.41951492446283251 0 -0.43867285131603428 -0.4271457417558665 0 -0.43676601469929588 -0.41441201227470881 0 -0.43096994786351572 -0.41951492446283251 0 -0.43676601469929588 -0.41441201227470881 0 -0.43096994786351572 -0.41951492446283251 0 -0.42907264086257813 -0.41311715872526122 0 -0.43676601469929588 -0.41441201227470881 0 -0.42907264086257813 -0.41311715872526122 0 -0.43479358559901082 -0.4041454901736512 0 -0.42907264086257813 -0.41311715872526122 0 -0.43479358559901082 -0.4041454901736512 0 -0.42460885511582858 -0.40417321677700252 0 -0.42907264086257813 -0.41311715872526122 0 -0.41997834854398469 -0.41180534796019508 0 -0.42907264086257813 -0.41311715872526122 0 -0.42635027777857132 -0.41543594397746519 0 -0.41997834854398469 -0.41180534796019508 0 -0.42907264086257813 -0.41311715872526122 0 -0.41997834854398469 -0.41180534796019508 0 -0.42460885511582858 -0.40417321677700252 0 -0.42635027777857132 -0.41543594397746519 0 -0.41997834854398469 -0.41180534796019508 0 -0.42635027777857132 -0.41543594397746519 0 -0.42083332353326591 -0.42146747131641099 0 -0.41997834854398469 -0.41180534796019508 0 -0.43096994786351572 -0.41951492446283251 0 -0.42624289495594048 -0.42089725947505818 0 -0.42635027777857132 -0.41543594397746519 0 -0.43096994786351572 -0.41951492446283251 0 -0.42907264086257813 -0.41311715872526122 0 -0.42635027777857132 -0.41543594397746519 0 -0.42624289495594048 -0.42089725947505818 0 -0.42635027777857132 -0.41543594397746519 0 -0.42083332353326591 -0.42146747131641099 0 -0.42083332353326591 -0.42146747131641099 0 -0.41997834854398469 -0.41180534796019508 0 -0.40992282953163789 -0.42011435591993562 0 -0.41997834854398469 -0.41180534796019508 0 -0.39756877647335259 -0.40857286797681719 0 -0.41997834854398469 -0.41180534796019508 0 -0.40992282953163789 -0.42011435591993562 0 -0.39756877647335259 -0.40857286797681719 0 -0.40992282953163789 -0.42011435591993562 0 -0.41531815884496182 -0.42985383783075998 0 -0.39591554026262499 -0.42887225451549271 0 -0.41531815884496182 -0.42985383783075998 0 -0.39591554026262499 -0.42887225451549271 0 -0.41160927495564159 -0.44339431233754628 0 -0.42083332353326591 -0.42146747131641099 0 -0.40992282953163789 -0.42011435591993562 0 -0.41531815884496182 -0.42985383783075998 0 -0.42681803064840879 -0.42717069814352421 0 -0.42083332353326591 -0.42146747131641099 0 -0.41531815884496182 -0.42985383783075998 0 -0.44257020456291563 -0.38918913383950271 0 -0.42311368847744002 -0.37830224279505142 0 -0.42594061475171041 -0.39368797999533162 0 -0.44257020456291563 -0.38918913383950271 0 -0.42311368847744002 -0.37830224279505142 0 -0.44172858264042247 -0.37082207246888088 0 -0.44257020456291563 -0.38918913383950271 0 -0.42311368847744002 -0.37830224279505142 0 -0.42311368847744002 -0.37830224279505142 0 -0.42594061475171041 -0.39368797999533162 0 -0.416587075656149 -0.38785930376960043 0 -0.44257020456291563 -0.38918913383950271 0 -0.42594061475171041 -0.39368797999533162 0 -0.43479358559901082 -0.4041454901736512 0 -0.42594061475171041 -0.39368797999533162 0 -0.43479358559901082 -0.4041454901736512 0 -0.42460885511582858 -0.40417321677700252 0 -0.41997834854398469 -0.41180534796019508 0 -0.41325908582185972 -0.39811010703057192 0 -0.39770572831670092 -0.39911486077581648 0 -0.41997834854398469 -0.41180534796019508 0 -0.39770572831670092 -0.39911486077581648 0 -0.42594061475171041 -0.39368797999533162 0 -0.42460885511582858 -0.40417321677700252 0 -0.41325908582185972 -0.39811010703057192 0 -0.41997834854398469 -0.41180534796019508 0 -0.42460885511582858 -0.40417321677700252 0 -0.41325908582185972 -0.39811010703057192 0 -0.42594061475171041 -0.39368797999533162 0 -0.41325908582185972 -0.39811010703057192 0 -0.416587075656149 -0.38785930376960043 0 -0.41325908582185972 -0.39811010703057192 0 -0.416587075656149 -0.38785930376960043 0 -0.40403491357358612 -0.38133688525744702 0 -0.42311368847744002 -0.37830224279505142 0 -0.40403491357358612 -0.38133688525744702 0 -0.40365717239196519 -0.36741535175059892 0 -0.42311368847744002 -0.37830224279505142 0 -0.416587075656149 -0.38785930376960043 0 -0.40403491357358612 -0.38133688525744702 0 -0.40403491357358612 -0.38133688525744702 0 -0.39190790742475001 -0.38540387676521748 0 -0.39770572831670092 -0.39911486077581648 0 -0.40403491357358612 -0.38133688525744702 0 -0.39190790742475001 -0.38540387676521748 0 -0.3904578797192948 -0.37473938743617019 0 -0.41325908582185972 -0.39811010703057192 0 -0.40403491357358612 -0.38133688525744702 0 -0.39770572831670092 -0.39911486077581648 0 -0.39770572831670092 -0.39911486077581648 0 -0.37543310808941849 -0.38642437359143528 0 -0.39770572831670092 -0.39911486077581648 0 -0.37515920440272033 -0.40534038799344108 0 -0.37543310808941849 -0.38642437359143528 0 -0.39770572831670092 -0.39911486077581648 0 -0.37515920440272033 -0.40534038799344108 0 -0.39756877647335259 -0.40857286797681719
[...]
<PointData Scalars="" Vectors="displacement," Tensors="">
<DataArray type="Float64" Name="displacement" NumberOfComponents="3" format="ascii">
0.10499242212064144 0.10499408674644319 0 0.097888486179124615 0.1031267219171411 0 0.08850982688811293 0.10498600677042733 0 0.10499242212064144 0.10499408674644319 0 0.10332389643943145 0.10116986008848419 0 0.097888486179124615 0.1031267219171411 0 0.10499242212064144 0.10499408674644319 0 0.10332389643943145 0.10116986008848419 0 0.10499411656816746 0.094215892461831277 0 0.10332389643943145 0.10116986008848419 0 0.10499411656816746 0.094215892461831277 0 0.10395851383030168 0.099704634025640379 0 0.10499411656816746 0.094215892461831277 0 0.10395851383030168 0.099704634025640379 0 0.10533259052558326 0.092278908902367535 0 0.10185008752889071 0.10250386398460824 0 0.10144082191108425 0.10332468930442101 0 0.10395851383030168 0.099704634025640379 0 0.11294337480190281 0.100607458301985 0 0.11364630220201399 0.096127553358699019 0 0.10395851383030168 0.099704634025640379 0 0.11364630220201399 0.096127553358699019 0 0.10988131272050583 0.092680849408309271 0 0.10332389643943145 0.10116986008848419 0 0.10395851383030168 0.099704634025640379 0 0.097888486179124615 0.1031267219171411 0 0.10395851383030168 0.099704634025640379 0 0.097888486179124615 0.1031267219171411 0 0.09553443033303434 0.10493471112549375 0 0.097888486179124615 0.1031267219171411 0 0.091102463720854801 0.10387695843652127 0 0.09553443033303434 0.10493471112549375 0 0.097888486179124615 0.1031267219171411 0 0.08850982688811293 0.10498600677042733 0 0.091102463720854801 0.10387695843652127 0 0.088478005247017127 0.1049999876483946 0 0.086244100904950188 0.10896051677854784 0 0.082716125260764536 0.10499998302481672 0 0.088481053825424427 0.10500130487047257 0 0.089878683356225009 0.10549608537321029 0 0.082716125260764536 0.10499998302481672 0 0.081862729595473888 0.10947460598379409 0 0.077979995481358519 0.10829050699046276 0 0.082716125260764536 0.10499998302481672 0 0.076954196182979342 0.10499998022345548 0 0.077979995481358519 0.10829050699046276 0 0.086244100904950188 0.10896051677854784 0 0.082716125260764536 0.10499998302481672 0 0.081862729595473888 0.10947460598379409 0 0.086244100904950188 0.10896051677854784 0 0.081862729595473888 0.10947460598379409 0 0.084027810572084596 0.11291077411260741 0 0.089878683356225009 0.10549608537321029 0 0.092921247853696626 0.10364158208374566 0 0.081862729595473888 0.10947460598379409 0 0.079099337272590484 0.11183276262517446 0 0.084027810572084596 0.11291077411260741 0 0.081862729595473888 0.10947460598379409 0 0.079099337272590484 0.11183276262517446 0 0.077979995481358519 0.10829050699046276 0 0.079635409701103096 0.10631645670418306 0 0.092921247853696626 0.10364158208374566 0 0.072886834337875253 0.11094135443883282 0 0.072646489835123867 0.11083148888018451 0 0.072453448907970605 0.1109196570457308 0 0.072886834337875253 0.11094135443883282 0 0.072646489835123867 0.11083148888018451 0 0.072726197232174328 0.11085939092472688 0 0.072646489835123867 0.11083148888018451 0 0.072453448907970605 0.1109196570457308 0 0.072531879274551944 0.11060428854831283 0 0.11923986947220996 0.10111395225311842 0 0.1210297001520045 0.096920131685593408 0 0.11705002937432281 0.098119902136112783 0 0.092921247853696626 0.10364158208374566 0 0.093719756034420065 0.10183538092543644 0 0.1210297001520045 0.096920131685593408 0 0.11705002937432281 0.098119902136112783 0 0.11833153079877508 0.095431339318785918 0 0.072531879274551944 0.11060428854831283 0 0.072726197232174328 0.11085939092472688 0 0.072746628110863784 0.11059214133516244 0 0.072646489835123867 0.11083148888018451 0 0.072531879274551944 0.11060428854831283 0 0.072726197232174328 0.11085939092472688 0 0.11923986947220996 0.10111395225311842 0 0.11294337480190281 0.100607458301985 0 0.11705002937432281 0.098119902136112783 0 0.092921247853696626 0.10364158208374566 0 0.10144082191108425 0.10332468930442101 0 0.091102463720854801 0.10387695843652127 0 0.090645928741973789 0.10544518009125319 0 0.09553443033303434 0.10493471112549375 0 0.11705002937432281 0.098119902136112783 0 0.11364630220201399 0.096127553358699019 0 0.11639361022826529 0.095775621345517731 0 0.11705002937432281 0.098119902136112783 0 0.11639361022826529 0.095775621345517731 0 0.11833153079877508 0.095431339318785918 0 0.11294337480190281 0.100607458301985 0 0.11705002937432281 0.098119902136112783 0 0.11364630220201399 0.096127553358699019 0 0.11364630220201399 0.096127553358699019 0 0.11354853396342782 0.093182558535044688 0 0.10988131272050583 0.092680849408309271 0 0.11354853396342782 0.093182558535044688 0 0.11290642929823994 0.090420261160047699 0 0.10988131272050583 0.092680849408309271 0 0.11354853396342782 0.093182558535044688 0 0.11498486055783218 0.093172971605111385 0 0.11483820202760804 0.091817407251641323 0 0.11354853396342782 0.093182558535044688 0 0.1153154453104516 0.094386372442316138 0 0.11498486055783218 0.093172971605111385 0 0.11364630220201399 0.096127553358699019 0 0.11354853396342782 0.093182558535044688 0 0.1153154453104516 0.094386372442316138 0 0.11364630220201399 0.096127553358699019 0 0.11639361022826529 0.095775621345517731 0 0.1153154453104516 0.094386372442316138 0 0.11639361022826529 0.095775621345517731 0 0.1153154453104516 0.094386372442316138 0 0.11680112323376751 0.094147425906374885 0 0.11639361022826529 0.095775621345517731 0 0.11680112323376751 0.094147425906374885 0 0.11833153079877508 0.095431339318785918 0 0.11680112323376751 0.094147425906374885 0 0.11833153079877508 0.095431339318785918 0 0.11830144864996155 0.093634110539866061 0 0.11277932789208789 0.08786368485709016 0 0.11271387411863058 0.087138698834773445 0 0.11680112323376751 0.094147425906374885 0 0.1162398571298682 0.093309088689055159 0 0.11731559145733372 0.091458854274585832 0 0.11680112323376751 0.094147425906374885 0 0.11715383372044059 0.092901553956362584 0 0.11830144864996155 0.093634110539866061 0 0.11270536228752744 0.087415460888449176 0 0.11271387411863058 0.087138698834773445 0 0.1162398571298682 0.093309088689055159 0 0.11483820202760804 0.091817407251641323 0 0.11713591419060299 0.091616209969099902 0 0.1153154453104516 0.094386372442316138 0 0.11498486055783218 0.093172971605111385 0 0.1162398571298682 0.093309088689055159 0 0.1153154453104516 0.094386372442316138 0 0.11680112323376751 0.094147425906374885 0 0.1162398571298682 0.093309088689055159 0 0.11498486055783218 0.093172971605111385 0 0.1162398571298682 0.093309088689055159 0 0.11483820202760804 0.091817407251641323 0 0.11483820202760804 0.091817407251641323 0 0.11713591419060299 0.091616209969099902 0 0.11515730443770714 0.089223205511694575 0 0.11271387411863058 0.087138698834773445 0 0.11342817409937755 0.083346620654799475 0 0.11713591419060299 0.091616209969099902 0 0.11515730443770714 0.089223205511694575 0 0.11778751262439195 0.08637666540023671 0 0.11515730443770714 0.089223205511694575 0 0.11290642929823994 0.090420261160047699 0 0.11317398932897986 0.086014081837796699 0 0.11290642929823994 0.090420261160047699 0 0.11317398932897986 0.086014081837796699 0 0.10992972825114607 0.089525149156669037 0 0.11483820202760804 0.091817407251641323 0 0.11515730443770714 0.089223205511694575 0 0.11290642929823994 0.090420261160047699 0 0.11354853396342782 0.093182558535044688 0 0.11483820202760804 0.091817407251641323 0 0.11290642929823994 0.090420261160047699 0 0.1210297001520045 0.096920131685593408 0 0.12221668132986767 0.093463365769064513 0 0.11998961901644793 0.093923961733716144 0 0.072531879274551944 0.11060428854831283 0 0.072603168799591444 0.11012993564884947 0 0.072746628110863784 0.11059214133516244 0 0.093719756034420065 0.10183538092543644 0 0.093582393554006812 0.098569425404515132 0 0.12221668132986767 0.093463365769064513 0 0.11998961901644793 0.093923961733716144 0 0.12074714770542391 0.092482096898755431 0 0.1210297001520045 0.096920131685593408 0 0.11998961901644793 0.093923961733716144 0 0.11833153079877508 0.095431339318785918 0 0.11998961901644793 0.093923961733716144 0 0.11833153079877508 0.095431339318785918 0 0.11830144864996155 0.093634110539866061 0 0.11715383372044059 0.092901553956362584 0 0.11925073266407525 0.09196552579770309 0 0.11917464318526302 0.089809010082251395 0 0.11271387411863058 0.087138698834773445 0 0.11198519806639916 0.083431080269944613 0 0.11998961901644793 0.093923961733716144 0 0.11830144864996155 0.093634110539866061 0 0.11925073266407525 0.09196552579770309 0 0.11715383372044059 0.092901553956362584 0 0.11830144864996155 0.093634110539866061 0 0.11925073266407525 0.09196552579770309 0 0.11998961901644793 0.093923961733716144 0 0.11925073266407525 0.09196552579770309 0 0.12074714770542391 0.092482096898755431 0 0.11925073266407525 0.09196552579770309 0 0.12074714770542391 0.092482096898755431 0 0.12151711463276657 0.09062214470917139 0 0.12221668132986767 0.093463365769064513 0 0.12151711463276657 0.09062214470917139 0 0.12354176826631372 0.090574498532063563 0 0.12221668132986767 0.093463365769064513 0 0.12074714770542391 0.092482096898755431 0 0.12151711463276657 0.09062214470917139 0 0.12151711463276657 0.09062214470917139 0 0.12090544634159468 0.089159750498242041 0 0.11917464318526302 0.089809010082251395 0 0.12151711463276657 0.09062214470917139 0 0.12090544634159468 0.089159750498242041 0 0.12211009888990922 0.089011411900541168 0 0.11925073266407525 0.09196552579770309 0 0.12151711463276657 0.09062214470917139 0 0.11917464318526302 0.089809010082251395 0 0.11198519806639916 0.083431080269944613 0 0.10934371161850422 0.077602890494748222 0 0.11281809024370021 0.082016008209713304 0 0.1119267269277627 0.078787910666074282 0 0.11461785772789773 0.078824483122277147 0 0.11281809024370021 0.082016008209713304 0 0.1119267269277627 0.078787910666074282 0 0.1114672918600278 0.081998412357147873 0 0.11379266876954755 0.077927182348094079 0 0.10934371161850422 0.077602890494748222 0 0.12078242550034403 0.087264391459550339 0 0.12211009888990922 0.089011411900541168 0 0.12267107178087398 0.087372454317678427 0 0.12090544634159468 0.089159750498242041 0 0.12078242550034403 0.087264391459550339 0 0.12211009888990922 0.089011411900541168 0 0.10934371161850422 0.077602890494748222 0 0.10345889055894091 0.079486910119151349 0 0.12090544634159468 0.089159750498242041 0 0.11917464318526302 0.089809010082251395 0 0.12078242550034403 0.087264391459550339 0 0.11101278408215857 0.085222046362218931 0 0.11281809024370021 0.082016008209713304 0 0.1114672918600278 0.081998412357147873 0 0.11515730443770714 0.089223205511694575 0 0.11317398932897986 0.086014081837796699 0 0.11778751262439195 0.08637666540023671 0 0.11849555799066522 0.081312827792410586 0 0.11317398932897986 0.086014081837796699 0 0.11778751262439195 0.08637666540023671 0 0.11379266876954755 0.077927182348094079 0 0.11342817409937755 0.083346620654799475 0 0.11849555799066522 0.081312827792410586 0 0.11317398932897986 0.086014081837796699 0 0.11170273670938154 0.08124636071856059 0 0.11317398932897986 0.086014081837796699 0 0.1092240579364442 0.085353235776038441 0 0.11170273670938154 0.08124636071856059 0 0.1092240579364442 0.085353235776038441 0 0.10498308862261317 0.081160116672019542 0 0.11170273670938154 0.08124636071856059 0 0.11317398932897986 0.086014081837796699 0 0.1092240579364442 0.085353235776038441 0 0.10992972825114607 0.089525149156669037 0 0.1092240579364442 0.085353235776038441 0 0.10677366938542768 0.087799633069676572 0 0.10992972825114607 0.089525149156669037 0 0.10810078274145288 0.08798836392091719 0 0.10679556777467838 0.084524256970573558 0 0.10672965567175421 0.088887781519603998 0 0.11370444058122441 0.084634588527725957 0 0.11289435570714039 0.081631435990696055 0 0.10939878709764111 0.08232067763744251 0 0.11004283279447931 0.08351374768263535 0 0.10765964290822107 0.082092775806677731 0 0.11004283279447931 0.08351374768263535 0 0.11004538689624234 0.083556386838908495 0 0.11004283279447931 0.08351374768263535 0 0.11005016421914481 0.08179369842134257 0 0.1092240579364442 0.085353235776038441 0 0.10677366938542768 0.087799633069676572 0 0.10587917264427138 0.0844785508398299 0 0.1092240579364442 0.085353235776038441 0 0.10587917264427138 0.0844785508398299 0 0.10498308862261317 0.081160116672019542 0 0.11005016421914481 0.08179369842134257 0 0.1100042939349338 0.079154554443804037 0 0.11289435570714039 0.081631435990696055 0 0.11085885529341465 0.08054290290745364 0 0.11208341359505654 0.078605707575879369 0 0.11085885529341465 0.08054290290745364 0 0.10939878709764111 0.08232067763744251 0 0.10969505143997101 0.078557581981843233 0 0.10939878709764111 0.08232067763744251 0 0.10712899814454609 0.078201711601852589 0 0.10969505143997101 0.078557581981843233 0 0.11085885529341465 0.08054290290745364 0 0.10969505143997101 0.078557581981843233 0 0.11208341359505654 0.078605707575879369 0 0.11289435570714039 0.081631435990696055 0 0.11085885529341465 0.08054290290745364 0 0.10939878709764111 0.08232067763744251 0 0.10500198182021833 0.080001490963923283 0 0.10765964290822107 0.082092775806677731 0 0.10500000972599005 0.079998775838604111 0 0.10939878709764111 0.08232067763744251 0 0.10712899814454609 0.078201711601852589 0 0.10499965026602807 0.080002492820742788 0 0.10679556777467838 0.084524256970573558 0 0.10499739513527168 0.086097249471606074 0 0.10679556777467838 0.084524256970573558 0 0.10672965567175421 0.088887781519603998 0 0.10499739513527168 0.086097249471606074 0 0.10672965567175421 0.088887781519603998 0 0.10499739513527168 0.086097249471606074 0 0.10533259052558326 0.092278908902367535 0 0.10499411656816746 0.094215892461831277 0 0.10499739513527168 0.086097249471606074 0 0.10533259052558326 0.092278908902367535 0 0.10672965567175421 0.088887781519603998 0 0.10533259052558326 0.092278908902367535 0 0.10653235927663356 0.092521875123929384 0 0.10395851383030168 0.099704634025640379 0 0.10533259052558326 0.092278908902367535 0 0.10653235927663356 0.092521875123929384 0 0.10395851383030168 0.099704634025640379 0 0.10653235927663356 0.092521875123929384 0 0.10988131272050583 0.092680849408309271 0 0.10653235927663356 0.092521875123929384 0 0.10988131272050583 0.092680849408309271 0 0.10811419950161326 0.090328528437536082 0 0.10988131272050583 0.092680849408309271 0 0.10992972825114607 0.089525149156669037 0 0.10811419950161326 0.090328528437536082 0 0.11290642929823994 0.090420261160047699 0 0.10988131272050583 0.092680849408309271 0 0.10992972825114607 0.089525149156669037 0 0.10798849888489621 0.088009873261925081 0 0.10992972825114607 0.089525149156669037 0 0.10807587935212763 0.088423111367621487 0 0.10992972825114607 0.089525149156669037 0 0.10807587935212763 0.088423111367621487 0 0.10811419950161326 0.090328528437536082 0 0.11004283279447931 0.08351374768263535 0 0.11025763595551141 0.084208504067720402 0 0.10672965567175421 0.088887781519603998 0 0.10807587935212763 0.088423111367621487 0 0.10811419950161326 0.090328528437536082 0 0.10810078274145288 0.08798836392091719 0 0.10672965567175421 0.088887781519603998 0 0.10807587935212763 0.088423111367621487 0 0.10672965567175421 0.088887781519603998 0 0.10653235927663356 0.092521875123929384 0 0.10811419950161326 0.090328528437536082 0 0.044512876151823817 0.11001758785568605 0 0.039553815279789566 0.1040683092830883 0 0.052793268769456551 0.11333823304050064 0 0.052517296181886927 0.11982163165156456 0 0.049074557900550007 0.11485962846721151 0 0.057687721281494242 0.11481874127635851 0 0.053718847334547758 0.11350592523289708 0 0.053380616393258321 0.11797499576763661 0 0.057687721281494242 0.11481874127635851 0 0.057469391667404307 0.11870568322913065 0 0.053380616393258321 0.11797499576763661 0 0.057687721281494242 0.11481874127635851 0 0.061300713339504445 0.11649531217980726 0 0.057469391667404307 0.11870568322913065 0 0.057687721281494242 0.11481874127635851 0 0.056178992076189378 0.11137269721403098 0 0.059323687541901218 0.11098375185620953 0 0.057687721281494242 0.11481874127635851 0 0.056178992076189378 0.11137269721403098 0 0.053718847334547758 0.11350592523289708 0 0.044512876151823817 0.11001758785568605 0 0.046126836516094775 0.10980408834290119 0 0.056178992076189378 0.11137269721403098 0 0.053718847334547758 0.11350592523289708 0 0.053808409223988517 0.10881607936556049 0 0.052793268769456551 0.11333823304050064 0 0.053808409223988517 0.10881607936556049 0 0.048379294805742851 0.10990306465618661 0 0.053808409223988517 0.10881607936556049 0 0.053905970320487141 0.10499903923985054 0 0.057441674743859389 0.10805187619565006 0 0.053808409223988517 0.10881607936556049 0 0.053905970320487141 0.10499903923985054 0 0.050353607795755914 0.10700890382826754 0 0.053905970320487141 0.10499903923985054 0 0.057441674743859389 0.10805187619565006 0 0.059668253349435055 0.10499986437332411 0 0.056178992076189378 0.11137269721403098 0 0.053808409223988517 0.10881607936556049 0 0.057441674743859389 0.10805187619565006 0 0.056178992076189378 0.11137269721403098 0 0.057441674743859389 0.10805187619565006 0 0.059323687541901218 0.11098375185620953 0 0.059323687541901218 0.11098375185620953 0 0.06121539583729995 0.10774175483675312 0 0.062544886710254405 0.11049584837099284 0 0.057441674743859389 0.10805187619565006 0 0.059323687541901218 0.11098375185620953 0 0.06121539583729995 0.10774175483675312 0 0.059668253349435055 0.10499986437332411 0 0.06121539583729995 0.10774175483675312 0 0.065430101193746551 0.1049998219980865 0 0.057441674743859389 0.10805187619565006 0 0.059668253349435055 0.10499986437332411 0 0.06121539583729995 0.10774175483675312 0 0.06121539583729995 0.10774175483675312 0 0.065430101193746551 0.1049998219980865 0 0.064169116924311945 0.10836776157558894 0 0.064169116924311945 0.10836776157558894 0 0.062544886710254405 0.11049584837099284 0 0.065861644994808149 0.11036861395022607 0 0.06121539583729995 0.10774175483675312 0 0.064169116924311945 0.10836776157558894 0 0.062544886710254405 0.11049584837099284 0 0.062544886710254405 0.11049584837099284 0 0.064174563652893798 0.11252546391398009 0 0.065861644994808149 0.11036861395022607 0 0.064174563652893798 0.11252546391398009 0 0.063519504824628509 0.11523698263449751 0 0.065635076317056548 0.11418738773103466 0 0.064174563652893798 0.11252546391398009 0 0.061362421472929175 0.1134063794266105 0 0.063519504824628509 0.11523698263449751 0 0.062544886710254405 0.11049584837099284 0 0.064174563652893798 0.11252546391398009 0 0.061362421472929175 0.1134063794266105 0 0.057687721281494242 0.11481874127635851 0 0.059323687541901218 0.11098375185620953 0 0.061362421472929175 0.1134063794266105 0 0.059323687541901218 0.11098375185620953 0 0.062544886710254405 0.11049584837099284 0 0.061362421472929175 0.1134063794266105 0 0.057687721281494242 0.11481874127635851 0 0.061362421472929175 0.1134063794266105 0 0.061300713339504445 0.11649531217980726 0 0.061362421472929175 0.1134063794266105 0 0.061300713339504445 0.11649531217980726 0 0.063519504824628509 0.11523698263449751 0 0.061300713339504445 0.11649531217980726 0 0.063519504824628509 0.11523698263449751 0 0.063642270067566342 0.11766466142626431 0 0.063519504824628509 0.11523698263449751 0 0.066518355227927956 0.11664518341888147 0 0.063642270067566342 0.11766466142626431 0 0.063519504824628509 0.11523698263449751 0 0.065635076317056548 0.11418738773103466 0 0.066518355227927956 0.11664518341888147 0 0.059877516993506845 0.10866327595936645 0 0.060575925819020805 0.10978818176573393 0 0.066630319077759584 0.11621341566532629 0 0.06969501374855476 0.1164261700365698 0 0.068017541421148534 0.1132066398133634 0 0.065635076317056548 0.11418738773103466 0 0.066518355227927956 0.11664518341888147 0 0.068017541421148534 0.1132066398133634 0 0.069555451560341083 0.1142970575659573 0 0.069865732428451718 0.11305782432895765 0 0.06846280171239856 0.11086952847619842 0 0.06743640497649464 0.10655632709344641 0 0.068809515283788134 0.10791874722217605 0 0.069555451560341083 0.1142