<?xml version="1.0"?>
<VTKFile type="UnstructuredGrid" version="0.1" byte_order="LittleEndian">
<UnstructuredGrid>
<Piece NumberOfPoints="31898" NumberOfCells="11152">
<Points>
<DataArray type="Float64" NumberOfComponents="3" format="ascii">
-0.5 -0.5 0 -0.47620991077874902 -0.44978878706170539 0 -0.49999999999999473 -0.42132396840504388 0 -0.5 -0.5 0 -0.47160970827802529 -0.4793630013852106 0 -0.47620991077874902 -0.44978878706170539 0 -0.5 -0.5 0 -0.47160970827802529 -0.4793630013852106 0 -0.44860394795025399 -0.5 0 -0.47160970827802529 -0.4793630013852106 0 -0.44860394795025399 -0.5 0 -0.4490820238307246 -0.45820516232899983 0 -0.44860394795025399 -0.5 0 -0.4490820238307246 -0.45820516232899983 0 -0.42881687682924802 -0.47781464288736519 0 -0.4490820238307246 -0.45820516232899983 0 -0.45555437223955858 -0.42914059360647611 0 -0.4490820238307246 -0.45820516232899983 0 -0.45555437223955858 -0.42914059360647611 0 -0.43867285131603428 -0.4271457417558665 0 -0.4490820238307246 -0.45820516232899983 0 -0.43867285131603428 -0.4271457417558665 0 -0.4263356171060747 -0.44269880333887462 0 -0.47160970827802529 -0.4793630013852106 0 -0.4490820238307246 -0.45820516232899983 0 -0.47620991077874902 -0.44978878706170539 0 -0.4490820238307246 -0.45820516232899983 0 -0.47620991077874902 -0.44978878706170539 0 -0.45555437223955858 -0.42914059360647611 0 -0.47620991077874902 -0.44978878706170539 0 -0.48101336032419229 -0.41069999664450008 0 -0.45555437223955858 -0.42914059360647611 0 -0.47620991077874902 -0.44978878706170539 0 -0.49999999999999473 -0.42132396840504388 0 -0.48101336032419229 -0.41069999664450008 0 -0.49999999999999473 -0.42132396840504388 0 -0.48101336032419229 -0.41069999664450008 0 -0.5 -0.393886241813306 0 -0.49999999999999473 -0.42132396840504388 0 -0.48101336032419229 -0.41069999664450008 0 -0.5 -0.393886241813306 0 -0.47854472220918332 -0.38978458738689759 0 -0.48422759779560409 -0.37130120630367158 0 -0.5 -0.393886241813306 0 -0.5 -0.36644851522156802 0 -0.48422759779560409 -0.37130120630367158 0 -0.48101336032419229 -0.41069999664450008 0 -0.5 -0.393886241813306 0 -0.47854472220918332 -0.38978458738689759 0 -0.48101336032419229 -0.41069999664450008 0 -0.47854472220918332 -0.38978458738689759 0 -0.46202672064839212 -0.40007602488395211 0 -0.48101336032419229 -0.41069999664450008 0 -0.46202672064839212 -0.40007602488395211 0 -0.47854472220918332 -0.38978458738689759 0 -0.46725442735267431 -0.37660061361585562 0 -0.46202672064839212 -0.40007602488395211 0 -0.47854472220918332 -0.38978458738689759 0 -0.46725442735267431 -0.37660061361585562 0 -0.48422759779560409 -0.37130120630367158 0 -0.46725442735267431 -0.37660061361585562 0 -0.46202672064839212 -0.40007602488395211 0 -0.46725442735267431 -0.37660061361585562 0 -0.45645674801697989 -0.38644133236760531 0 -0.46202672064839212 -0.40007602488395211 0 -0.46725442735267431 -0.37660061361585562 0 -0.45645674801697989 -0.38644133236760531 0 -0.4540003998136638 -0.37455519391687309 0 -0.45645674801697989 -0.38644133236760531 0 -0.46202672064839212 -0.40007602488395211 0 -0.44257020456291563 -0.38918913383950271 0 -0.46202672064839212 -0.40007602488395211 0 -0.44257020456291563 -0.38918913383950271 0 -0.44727608925983742 -0.41095911152778891 0 -0.46202672064839212 -0.40007602488395211 0 -0.44257020456291563 -0.38918913383950271 0 -0.44257020456291563 -0.38918913383950271 0 -0.44727608925983742 -0.41095911152778891 0 -0.43479358559901082 -0.4041454901736512 0 -0.44257020456291563 -0.38918913383950271 0 -0.4540003998136638 -0.37455519391687309 0 -0.44172858264042247 -0.37082207246888088 0 -0.45645674801697989 -0.38644133236760531 0 -0.44257020456291563 -0.38918913383950271 0 -0.4540003998136638 -0.37455519391687309 0 -0.46202672064839212 -0.40007602488395211 0 -0.45555437223955858 -0.42914059360647611 0 -0.44727608925983742 -0.41095911152778891 0 -0.46202672064839212 -0.40007602488395211 0 -0.45555437223955858 -0.42914059360647611 0 -0.48101336032419229 -0.41069999664450008 0 -0.46202672064839212 -0.40007602488395211 0 -0.45555437223955858 -0.42914059360647611 0 -0.44727608925983742 -0.41095911152778891 0 -0.43867285131603428 -0.4271457417558665 0 -0.43676601469929588 -0.41441201227470881 0 -0.44727608925983742 -0.41095911152778891 0 -0.43676601469929588 -0.41441201227470881 0 -0.43479358559901082 -0.4041454901736512 0 -0.45555437223955858 -0.42914059360647611 0 -0.44727608925983742 -0.41095911152778891 0 -0.43867285131603428 -0.4271457417558665 0 -0.43867285131603428 -0.4271457417558665 0 -0.42681803064840879 -0.42717069814352421 0 -0.4263356171060747 -0.44269880333887462 0 -0.42681803064840879 -0.42717069814352421 0 -0.41531815884496182 -0.42985383783075998 0 -0.4263356171060747 -0.44269880333887462 0 -0.42681803064840879 -0.42717069814352421 0 -0.42624289495594048 -0.42089725947505818 0 -0.42083332353326591 -0.42146747131641099 0 -0.42681803064840879 -0.42717069814352421 0 -0.43096994786351572 -0.41951492446283251 0 -0.42624289495594048 -0.42089725947505818 0 -0.43867285131603428 -0.4271457417558665 0 -0.42681803064840879 -0.42717069814352421 0 -0.43096994786351572 -0.41951492446283251 0 -0.43867285131603428 -0.4271457417558665 0 -0.43676601469929588 -0.41441201227470881 0 -0.43096994786351572 -0.41951492446283251 0 -0.43676601469929588 -0.41441201227470881 0 -0.43096994786351572 -0.41951492446283251 0 -0.42907264086257813 -0.41311715872526122 0 -0.43676601469929588 -0.41441201227470881 0 -0.42907264086257813 -0.41311715872526122 0 -0.43479358559901082 -0.4041454901736512 0 -0.42907264086257813 -0.41311715872526122 0 -0.43479358559901082 -0.4041454901736512 0 -0.42460885511582858 -0.40417321677700252 0 -0.42907264086257813 -0.41311715872526122 0 -0.41997834854398469 -0.41180534796019508 0 -0.42907264086257813 -0.41311715872526122 0 -0.42635027777857132 -0.41543594397746519 0 -0.41997834854398469 -0.41180534796019508 0 -0.42907264086257813 -0.41311715872526122 0 -0.41997834854398469 -0.41180534796019508 0 -0.42460885511582858 -0.40417321677700252 0 -0.42635027777857132 -0.41543594397746519 0 -0.41997834854398469 -0.41180534796019508 0 -0.42635027777857132 -0.41543594397746519 0 -0.42083332353326591 -0.42146747131641099 0 -0.41997834854398469 -0.41180534796019508 0 -0.43096994786351572 -0.41951492446283251 0 -0.42624289495594048 -0.42089725947505818 0 -0.42635027777857132 -0.41543594397746519 0 -0.43096994786351572 -0.41951492446283251 0 -0.42907264086257813 -0.41311715872526122 0 -0.42635027777857132 -0.41543594397746519 0 -0.42624289495594048 -0.42089725947505818 0 -0.42635027777857132 -0.41543594397746519 0 -0.42083332353326591 -0.42146747131641099 0 -0.42083332353326591 -0.42146747131641099 0 -0.41997834854398469 -0.41180534796019508 0 -0.40992282953163789 -0.42011435591993562 0 -0.41997834854398469 -0.41180534796019508 0 -0.39756877647335259 -0.40857286797681719 0 -0.41997834854398469 -0.41180534796019508 0 -0.40992282953163789 -0.42011435591993562 0 -0.39756877647335259 -0.40857286797681719 0 -0.40992282953163789 -0.42011435591993562 0 -0.41531815884496182 -0.42985383783075998 0 -0.39591554026262499 -0.42887225451549271 0 -0.41531815884496182 -0.42985383783075998 0 -0.39591554026262499 -0.42887225451549271 0 -0.41160927495564159 -0.44339431233754628 0 -0.42083332353326591 -0.42146747131641099 0 -0.40992282953163789 -0.42011435591993562 0 -0.41531815884496182 -0.42985383783075998 0 -0.42681803064840879 -0.42717069814352421 0 -0.42083332353326591 -0.42146747131641099 0 -0.41531815884496182 -0.42985383783075998 0 -0.44257020456291563 -0.38918913383950271 0 -0.42311368847744002 -0.37830224279505142 0 -0.42594061475171041 -0.39368797999533162 0 -0.44257020456291563 -0.38918913383950271 0 -0.42311368847744002 -0.37830224279505142 0 -0.44172858264042247 -0.37082207246888088 0 -0.44257020456291563 -0.38918913383950271 0 -0.42311368847744002 -0.37830224279505142 0 -0.42311368847744002 -0.37830224279505142 0 -0.42594061475171041 -0.39368797999533162 0 -0.416587075656149 -0.38785930376960043 0 -0.44257020456291563 -0.38918913383950271 0 -0.42594061475171041 -0.39368797999533162 0 -0.43479358559901082 -0.4041454901736512 0 -0.42594061475171041 -0.39368797999533162 0 -0.43479358559901082 -0.4041454901736512 0 -0.42460885511582858 -0.40417321677700252 0 -0.41997834854398469 -0.41180534796019508 0 -0.41325908582185972 -0.39811010703057192 0 -0.39770572831670092 -0.39911486077581648 0 -0.41997834854398469 -0.41180534796019508 0 -0.39770572831670092 -0.39911486077581648 0 -0.42594061475171041 -0.39368797999533162 0 -0.42460885511582858 -0.40417321677700252 0 -0.41325908582185972 -0.39811010703057192 0 -0.41997834854398469 -0.41180534796019508 0 -0.42460885511582858 -0.40417321677700252 0 -0.41325908582185972 -0.39811010703057192 0 -0.42594061475171041 -0.39368797999533162 0 -0.41325908582185972 -0.39811010703057192 0 -0.416587075656149 -0.38785930376960043 0 -0.41325908582185972 -0.39811010703057192 0 -0.416587075656149 -0.38785930376960043 0 -0.40403491357358612 -0.38133688525744702 0 -0.42311368847744002 -0.37830224279505142 0 -0.40403491357358612 -0.38133688525744702 0 -0.40365717239196519 -0.36741535175059892 0 -0.42311368847744002 -0.37830224279505142 0 -0.416587075656149 -0.38785930376960043 0 -0.40403491357358612 -0.38133688525744702 0 -0.40403491357358612 -0.38133688525744702 0 -0.39190790742475001 -0.38540387676521748 0 -0.39770572831670092 -0.39911486077581648 0 -0.40403491357358612 -0.38133688525744702 0 -0.39190790742475001 -0.38540387676521748 0 -0.3904578797192948 -0.37473938743617019 0 -0.41325908582185972 -0.39811010703057192 0 -0.40403491357358612 -0.38133688525744702 0 -0.39770572831670092 -0.39911486077581648 0 -0.39770572831670092 -0.39911486077581648 0 -0.37543310808941849 -0.38642437359143528 0 -0.39770572831670092 -0.39911486077581648 0 -0.37515920440272033 -0.40534038799344108 0 -0.37543310808941849 -0.38642437359143528 0 -0.39770572831670092 -0.39911486077581648 0 -0.37515920440272033 -0.40534038799344108 0 -0.39756877647335259 -0.40857286797681719
[...]
<PointData Scalars="" Vectors="displacement," Tensors="">
<DataArray type="Float64" Name="displacement" NumberOfComponents="3" format="ascii">
-0.054996032169952289 -0.05499690295695641 0 -0.051275366271446028 -0.054019442993283963 0 -0.046362289568602388 -0.054992671371986782 0 -0.054996032169952289 -0.05499690295695641 0 -0.054122679037168414 -0.052994424854668154 0 -0.051275366271446028 -0.054019442993283963 0 -0.054996032169952289 -0.05499690295695641 0 -0.054122679037168414 -0.052994424854668154 0 -0.054996918750637849 -0.049351184478931193 0 -0.054122679037168414 -0.052994424854668154 0 -0.054996918750637849 -0.049351184478931193 0 -0.05445611612666891 -0.052228943916094339 0 -0.054996918750637849 -0.049351184478931193 0 -0.05445611612666891 -0.052228943916094339 0 -0.055175057385023971 -0.048337098840119663 0 -0.053354279284294127 -0.053701054684686056 0 -0.053144221681129047 -0.054133891186786229 0 -0.05445611612666891 -0.052228943916094339 0 -0.059170426874454264 -0.052707179673763926 0 -0.059538968950486132 -0.050356703483519512 0 -0.05445611612666891 -0.052228943916094339 0 -0.059538968950486132 -0.050356703483519512 0 -0.057562768652306008 -0.048548218571400854 0 -0.054122679037168414 -0.052994424854668154 0 -0.05445611612666891 -0.052228943916094339 0 -0.051275366271446028 -0.054019442993283963 0 -0.05445611612666891 -0.052228943916094339 0 -0.051275366271446028 -0.054019442993283963 0 -0.050041634163850601 -0.054967558644242208 0 -0.051275366271446028 -0.054019442993283963 0 -0.047719757393565869 -0.054412478167619079 0 -0.050041634163850601 -0.054967558644242208 0 -0.051275366271446028 -0.054019442993283963 0 -0.046362289568602388 -0.054992671371986782 0 -0.047719757393565869 -0.054412478167619079 0 -0.046345621877312761 -0.054999993538854215 0 -0.045175536916119176 -0.05707457971937463 0 -0.043327494214099538 -0.05499999112956052 0 -0.046347252532127355 -0.055000703711000437 0 -0.047094809966796172 -0.0552697490987374 0 -0.043327494214099538 -0.05499999112956052 0 -0.042880535455766346 -0.057343861170511136 0 -0.040846686051322162 -0.05672358543061104 0 -0.043327494214099538 -0.05499999112956052 0 -0.040309341046664698 -0.05499998956572922 0 -0.040846686051322162 -0.05672358543061104 0 -0.045175536916119176 -0.05707457971937463 0 -0.043327494214099538 -0.05499999112956052 0 -0.042880535455766346 -0.057343861170511136 0 -0.045175536916119176 -0.05707457971937463 0 -0.042880535455766346 -0.057343861170511136 0 -0.044014685845776981 -0.059143814026761173 0 -0.047094809966796172 -0.0552697490987374 0 -0.048709910412740753 -0.054312871607749932 0 -0.042880535455766346 -0.057343861170511136 0 -0.041433067342440129 -0.058579100973199433 0 -0.044014685845776981 -0.059143814026761173 0 -0.042880535455766346 -0.057343861170511136 0 -0.041433067342440129 -0.058579100973199433 0 -0.040846686051322162 -0.05672358543061104 0 -0.04175940723840308 -0.055705482855983715 0 -0.048709910412740753 -0.054312871607749932 0 -0.038290978539015107 -0.058126160680623637 0 -0.038182970971569273 -0.058088740368650006 0 -0.038106635583143443 -0.058124778264065736 0 -0.038290978539015107 -0.058126160680623637 0 -0.038182970971569273 -0.058088740368650006 0 -0.038202999999372225 -0.058107979156458843 0 -0.038182970971569273 -0.058088740368650006 0 -0.038106635583143443 -0.058124778264065736 0 -0.038127895982774419 -0.057995186737162176 0 -0.062475536581415712 -0.052974305537212545 0 -0.063414850587391755 -0.050773641369513962 0 -0.061326151839054162 -0.051402792589410572 0 -0.048709910412740753 -0.054312871607749932 0 -0.049169319904760367 -0.053388021877083788 0 -0.063414850587391755 -0.050773641369513962 0 -0.061326151839054162 -0.051402792589410572 0 -0.061999132655405319 -0.049992537377440319 0 -0.038127895982774419 -0.057995186737162176 0 -0.038202999999372225 -0.058107979156458843 0 -0.038207019695368848 -0.057990477229475826 0 -0.038182970971569273 -0.058088740368650006 0 -0.038127895982774419 -0.057995186737162176 0 -0.038202999999372225 -0.058107979156458843 0 -0.062475536581415712 -0.052974305537212545 0 -0.059170426874454264 -0.052707179673763926 0 -0.061326151839054162 -0.051402792589410572 0 -0.048709910412740753 -0.054312871607749932 0 -0.053144221681129047 -0.054133891186786229 0 -0.047719757393565869 -0.054412478167619079 0 -0.047480269297467161 -0.055234646842961158 0 -0.050041634163850601 -0.054967558644242208 0 -0.061326151839054162 -0.051402792589410572 0 -0.059538968950486132 -0.050356703483519512 0 -0.060981636794351195 -0.050172725335979787 0 -0.061326151839054162 -0.051402792589410572 0 -0.060981636794351195 -0.050172725335979787 0 -0.061999132655405319 -0.049992537377440319 0 -0.059170426874454264 -0.052707179673763926 0 -0.061326151839054162 -0.051402792589410572 0 -0.059538968950486132 -0.050356703483519512 0 -0.059538968950486132 -0.050356703483519512 0 -0.059487700187001447 -0.048811654399001307 0 -0.057562768652306008 -0.048548218571400854 0 -0.059487700187001447 -0.048811654399001307 0 -0.059150667155491894 -0.047362342543926426 0 -0.057562768652306008 -0.048548218571400854 0 -0.059487700187001447 -0.048811654399001307 0 -0.060241771872645337 -0.048806719636911973 0 -0.060164685977570548 -0.04809539220628261 0 -0.059487700187001447 -0.048811654399001307 0 -0.0604153873384045 -0.049443563191200968 0 -0.060241771872645337 -0.048806719636911973 0 -0.059538968950486132 -0.050356703483519512 0 -0.059487700187001447 -0.048811654399001307 0 -0.0604153873384045 -0.049443563191200968 0 -0.059538968950486132 -0.050356703483519512 0 -0.060981636794351195 -0.050172725335979787 0 -0.0604153873384045 -0.049443563191200968 0 -0.060981636794351195 -0.050172725335979787 0 -0.0604153873384045 -0.049443563191200968 0 -0.061195973772556145 -0.049318674705058844 0 -0.060981636794351195 -0.050172725335979787 0 -0.061195973772556145 -0.049318674705058844 0 -0.061999132655405319 -0.049992537377440319 0 -0.061195973772556145 -0.049318674705058844 0 -0.061999132655405319 -0.049992537377440319 0 -0.061983787283788151 -0.049050260510725661 0 -0.059185605157629342 -0.046078947850653584 0 -0.0591540292781782 -0.045704909602578954 0 -0.061195973772556145 -0.049318674705058844 0 -0.060900741011615682 -0.048878156231016476 0 -0.061466236621413504 -0.047905783515343581 0 -0.061195973772556145 -0.049318674705058844 0 -0.061382274191385852 -0.048666329599405291 0 -0.061983787283788151 -0.049050260510725661 0 -0.059147504989412028 -0.045848524560663559 0 -0.0591540292781782 -0.045704909602578954 0 -0.060900741011615682 -0.048878156231016476 0 -0.060164685977570548 -0.04809539220628261 0 -0.061370482795789126 -0.047989911091136907 0 -0.0604153873384045 -0.049443563191200968 0 -0.060241771872645337 -0.048806719636911973 0 -0.060900741011615682 -0.048878156231016476 0 -0.0604153873384045 -0.049443563191200968 0 -0.061195973772556145 -0.049318674705058844 0 -0.060900741011615682 -0.048878156231016476 0 -0.060241771872645337 -0.048806719636911973 0 -0.060900741011615682 -0.048878156231016476 0 -0.060164685977570548 -0.04809539220628261 0 -0.060164685977570548 -0.04809539220628261 0 -0.061370482795789126 -0.047989911091136907 0 -0.0603319989472548 -0.046734343485769839 0 -0.0591540292781782 -0.045704909602578954 0 -0.059525615055796205 -0.043731007576731908 0 -0.061370482795789126 -0.047989911091136907 0 -0.0603319989472548 -0.046734343485769839 0 -0.061712069694298002 -0.045241021410034325 0 -0.0603319989472548 -0.046734343485769839 0 -0.059150667155491894 -0.047362342543926426 0 -0.059291182545744815 -0.045050675432350008 0 -0.059150667155491894 -0.047362342543926426 0 -0.059291182545744815 -0.045050675432350008 0 -0.057588336362219938 -0.046892769835734163 0 -0.060164685977570548 -0.04809539220628261 0 -0.0603319989472548 -0.046734343485769839 0 -0.059150667155491894 -0.047362342543926426 0 -0.059487700187001447 -0.048811654399001307 0 -0.060164685977570548 -0.04809539220628261 0 -0.059150667155491894 -0.047362342543926426 0 -0.063414850587391755 -0.050773641369513962 0 -0.06403726992339491 -0.048961470283341225 0 -0.062869378042789803 -0.049202576083695701 0 -0.038127895982774419 -0.057995186737162176 0 -0.038145498038334814 -0.05778199878423286 0 -0.038207019695368848 -0.057990477229475826 0 -0.049169319904760367 -0.053388021877083788 0 -0.049130373060426773 -0.051719592134258446 0 -0.06403726992339491 -0.048961470283341225 0 -0.062869378042789803 -0.049202576083695701 0 -0.063266908859136467 -0.048447260374141092 0 -0.063414850587391755 -0.050773641369513962 0 -0.062869378042789803 -0.049202576083695701 0 -0.061999132655405319 -0.049992537377440319 0 -0.062869378042789803 -0.049202576083695701 0 -0.061999132655405319 -0.049992537377440319 0 -0.061983787283788151 -0.049050260510725661 0 -0.061382274191385852 -0.048666329599405291 0 -0.062482251755183175 -0.048176338216835056 0 -0.062443018902137708 -0.047046688838397938 0 -0.0591540292781782 -0.045704909602578954 0 -0.058800280207436884 -0.043807527265214127 0 -0.062869378042789803 -0.049202576083695701 0 -0.061983787283788151 -0.049050260510725661 0 -0.062482251755183175 -0.048176338216835056 0 -0.061382274191385852 -0.048666329599405291 0 -0.061983787283788151 -0.049050260510725661 0 -0.062482251755183175 -0.048176338216835056 0 -0.062869378042789803 -0.049202576083695701 0 -0.062482251755183175 -0.048176338216835056 0 -0.063266908859136467 -0.048447260374141092 0 -0.062482251755183175 -0.048176338216835056 0 -0.063266908859136467 -0.048447260374141092 0 -0.06367107180195529 -0.04747315507269384 0 -0.06403726992339491 -0.048961470283341225 0 -0.06367107180195529 -0.04747315507269384 0 -0.06473192165123233 -0.047448397600483257 0 -0.06403726992339491 -0.048961470283341225 0 -0.063266908859136467 -0.048447260374141092 0 -0.06367107180195529 -0.04747315507269384 0 -0.06367107180195529 -0.04747315507269384 0 -0.063350752933582985 -0.046706601936077431 0 -0.062443018902137708 -0.047046688838397938 0 -0.06367107180195529 -0.04747315507269384 0 -0.063350752933582985 -0.046706601936077431 0 -0.063982712108585388 -0.046629026069439944 0 -0.062482251755183175 -0.048176338216835056 0 -0.06367107180195529 -0.04747315507269384 0 -0.062443018902137708 -0.047046688838397938 0 -0.058800280207436884 -0.043807527265214127 0 -0.057469797537766217 -0.04084542975791676 0 -0.059233725713168511 -0.043075996390433156 0 -0.058776893712495087 -0.041421510337840903 0 -0.060156180217371312 -0.041440314262105309 0 -0.059233725713168511 -0.043075996390433156 0 -0.058776893712495087 -0.041421510337840903 0 -0.058541386409579878 -0.043066965609636042 0 -0.05972239508021697 -0.040936430940000212 0 -0.057469797537766217 -0.04084542975791676 0 -0.063286604664748017 -0.045713068509073668 0 -0.063982712108585388 -0.046629026069439944 0 -0.06427736541911476 -0.045769730605908186 0 -0.063350752933582985 -0.046706601936077431 0 -0.063286604664748017 -0.045713068509073668 0 -0.063982712108585388 -0.046629026069439944 0 -0.057469797537766217 -0.04084542975791676 0 -0.054396623173626035 -0.041861379704820526 0 -0.063350752933582985 -0.046706601936077431 0 -0.062443018902137708 -0.047046688838397938 0 -0.063286604664748017 -0.045713068509073668 0 -0.058308374149023678 -0.044719245820247909 0 -0.059233725713168511 -0.043075996390433156 0 -0.058541386409579878 -0.043066965609636042 0 -0.0603319989472548 -0.046734343485769839 0 -0.059291182545744815 -0.045050675432350008 0 -0.061712069694298002 -0.045241021410034325 0 -0.062083691348138799 -0.042584293273282253 0 -0.059291182545744815 -0.045050675432350008 0 -0.061712069694298002 -0.045241021410034325 0 -0.05972239508021697 -0.040936430940000212 0 -0.059525615055796205 -0.043731007576731908 0 -0.062083691348138799 -0.042584293273282253 0 -0.059291182545744815 -0.045050675432350008 0 -0.058519219237641654 -0.042549237975827291 0 -0.059291182545744815 -0.045050675432350008 0 -0.057218498509673227 -0.044704007967724051 0 -0.058519219237641654 -0.042549237975827291 0 -0.057218498509673227 -0.044704007967724051 0 -0.054993406290189374 -0.042504077956352256 0 -0.058519219237641654 -0.042549237975827291 0 -0.059291182545744815 -0.045050675432350008 0 -0.057218498509673227 -0.044704007967724051 0 -0.057588336362219938 -0.046892769835734163 0 -0.057218498509673227 -0.044704007967724051 0 -0.055932827407677022 -0.045987515137855421 0 -0.057588336362219938 -0.046892769835734163 0 -0.056626995341674348 -0.046087651121326144 0 -0.055941315597761783 -0.044273804897335456 0 -0.055907544225496812 -0.04655978756814301 0 -0.059560109922103963 -0.044332944284790621 0 -0.059135696155093426 -0.042759601736111152 0 -0.057304382236047231 -0.043120655796487953 0 -0.057645591094121672 -0.043746993844929388 0 -0.056394513527885368 -0.043001388730481337 0 -0.057645591094121672 -0.043746993844929388 0 -0.057646918804745387 -0.043769294810151717 0 -0.057645591094121672 -0.043746993844929388 0 -0.057652373113495581 -0.042851054463106143 0 -0.057218498509673227 -0.044704007967724051 0 -0.055932827407677022 -0.045987515137855421 0 -0.055463549612925572 -0.044245118093918373 0 -0.057218498509673227 -0.044704007967724051 0 -0.055463549612925572 -0.044245118093918373 0 -0.054993406290189374 -0.042504077956352256 0 -0.057652373113495581 -0.042851054463106143 0 -0.057634141844899178 -0.041482247074399688 0 -0.059135696155093426 -0.042759601736111152 0 -0.058069296893391534 -0.042189335152966558 0 -0.058710843736363129 -0.041174476842645108 0 -0.058069296893391534 -0.042189335152966558 0 -0.057304382236047231 -0.043120655796487953 0 -0.057459568207166946 -0.04114927654625887 0 -0.057304382236047231 -0.043120655796487953 0 -0.056115327632077709 -0.040962846947499985 0 -0.057459568207166946 -0.04114927654625887 0 -0.058069296893391534 -0.042189335152966558 0 -0.057459568207166946 -0.04114927654625887 0 -0.058710843736363129 -0.041174476842645108 0 -0.059135696155093426 -0.042759601736111152 0 -0.058069296893391534 -0.042189335152966558 0 -0.057304382236047231 -0.043120655796487953 0 -0.055001039633162885 -0.041905543004825241 0 -0.056394513527885368 -0.043001388730481337 0 -0.055000005147766422 -0.041904121107291296 0 -0.057304382236047231 -0.043120655796487953 0 -0.056115327632077709 -0.040962846947499985 0 -0.054999817198152515 -0.041906066483854656 0 -0.055941315597761783 -0.044273804897335456 0 -0.054998635726347583 -0.045098558459600528 0 -0.055941315597761783 -0.044273804897335456 0 -0.055907544225496812 -0.04655978756814301 0 -0.054998635726347583 -0.045098558459600528 0 -0.055907544225496812 -0.04655978756814301 0 -0.054998635726347583 -0.045098558459600528 0 -0.055175057385023971 -0.048337098840119663 0 -0.054996918750637849 -0.049351184478931193 0 -0.054998635726347583 -0.045098558459600528 0 -0.055175057385023971 -0.048337098840119663 0 -0.055907544225496812 -0.04655978756814301 0 -0.055175057385023971 -0.048337098840119663 0 -0.055805126155406455 -0.048464519157495368 0 -0.05445611612666891 -0.052228943916094339 0 -0.055175057385023971 -0.048337098840119663 0 -0.055805126155406455 -0.048464519157495368 0 -0.05445611612666891 -0.052228943916094339 0 -0.055805126155406455 -0.048464519157495368 0 -0.057562768652306008 -0.048548218571400854 0 -0.055805126155406455 -0.048464519157495368 0 -0.057562768652306008 -0.048548218571400854 0 -0.056634829895979455 -0.04731459340013993 0 -0.057562768652306008 -0.048548218571400854 0 -0.057588336362219938 -0.046892769835734163 0 -0.056634829895979455 -0.04731459340013993 0 -0.059150667155491894 -0.047362342543926426 0 -0.057562768652306008 -0.048548218571400854 0 -0.057588336362219938 -0.046892769835734163 0 -0.05656816831689708 -0.046098572971263352 0 -0.057588336362219938 -0.046892769835734163 0 -0.056614121729046771 -0.046315447309336989 0 -0.057588336362219938 -0.046892769835734163 0 -0.056614121729046771 -0.046315447309336989 0 -0.056634829895979455 -0.04731459340013993 0 -0.057645591094121672 -0.043746993844929388 0 -0.057758214565965589 -0.044110592266009045 0 -0.055907544225496812 -0.04655978756814301 0 -0.056614121729046771 -0.046315447309336989 0 -0.056634829895979455 -0.04731459340013993 0 -0.056626995341674348 -0.046087651121326144 0 -0.055907544225496812 -0.04655978756814301 0 -0.056614121729046771 -0.046315447309336989 0 -0.055907544225496812 -0.04655978756814301 0 -0.055805126155406455 -0.048464519157495368 0 -0.056634829895979455 -0.04731459340013993 0 -0.023495267645405452 -0.057667786345378148 0 -0.020994721531525935 -0.054615084990054033 0 -0.027672660136878146 -0.059372345618278338 0 -0.027522434725136512 -0.06270575032228648 0 -0.02575364146364862 -0.060160100753354005 0 -0.030222789546047596 -0.06015386250563412 0 -0.028143506815487003 -0.059464658543457498 0 -0.027965810736448569 -0.06180871080403845 0 -0.030222789546047596 -0.06015386250563412 0 -0.030108984940341393 -0.062192594091490465 0 -0.027965810736448569 -0.06180871080403845 0 -0.030222789546047596 -0.06015386250563412 0 -0.032117070769392138 -0.061035095188121551 0 -0.030108984940341393 -0.062192594091490465 0 -0.030222789546047596 -0.06015386250563412 0 -0.029432385224646706 -0.058346508423813684 0 -0.03107876433801245 -0.058141691083909187 0 -0.030222789546047596 -0.06015386250563412 0 -0.029432385224646706 -0.058346508423813684 0 -0.028143506815487003 -0.059464658543457498 0 -0.023495267645405452 -0.057667786345378148 0 -0.024311540487123112 -0.057547117387394452 0 -0.029432385224646706 -0.058346508423813684 0 -0.028143506815487003 -0.059464658543457498 0 -0.02819523337182912 -0.057009860844748288 0 -0.027672660136878146 -0.059372345618278338 0 -0.02819523337182912 -0.057009860844748288 0 -0.02538333516015584 -0.057588609992857594 0 -0.02819523337182912 -0.057009860844748288 0 -0.028236473550395852 -0.054999508247895589 0 -0.030092361207151683 -0.056604739383392076 0 -0.02819523337182912 -0.057009860844748288 0 -0.028236473550395852 -0.054999508247895589 0 -0.026391110418703911 -0.056061786674018038 0 -0.028236473550395852 -0.054999508247895589 0 -0.030092361207151683 -0.056604739383392076 0 -0.031254804570147676 -0.054999931354801655 0 -0.029432385224646706 -0.058346508423813684 0 -0.02819523337182912 -0.057009860844748288 0 -0.030092361207151683 -0.056604739383392076 0 -0.029432385224646706 -0.058346508423813684 0 -0.030092361207151683 -0.056604739383392076 0 -0.03107876433801245 -0.058141691083909187 0 -0.03107876433801245 -0.058141691083909187 0 -0.032068095641634396 -0.056438903757630582 0 -0.03276685621007619 -0.057884578006465924 0 -0.030092361207151683 -0.056604739383392076 0 -0.03107876433801245 -0.058141691083909187 0 -0.032068095641634396 -0.056438903757630582 0 -0.031254804570147676 -0.054999931354801655 0 -0.032068095641634396 -0.056438903757630582 0 -0.034272916499041337 -0.054999908377748243 0 -0.030092361207151683 -0.056604739383392076 0 -0.031254804570147676 -0.054999931354801655 0 -0.032068095641634396 -0.056438903757630582 0 -0.032068095641634396 -0.056438903757630582 0 -0.034272916499041337 -0.054999908377748243 0 -0.033616472443105588 -0.056765214777138404 0 -0.033616472443105588 -0.056765214777138404 0 -0.03276685621007619 -0.057884578006465924 0 -0.034510307478426698 -0.0578175444643588 0 -0.032068095641634396 -0.056438903757630582 0 -0.033616472443105588 -0.056765214777138404 0 -0.03276685621007619 -0.057884578006465924 0 -0.03276685621007619 -0.057884578006465924 0 -0.033624793635336672 -0.058951801990204021 0 -0.034510307478426698 -0.0578175444643588 0 -0.033624793635336672 -0.058951801990204021 0 -0.033282034204244887 -0.060375723737981113 0 -0.034393596088714229 -0.05982578038719559 0 -0.033624793635336672 -0.058951801990204021 0 -0.032148553535891848 -0.059413527499028437 0 -0.033282034204244887 -0.060375723737981113 0 -0.03276685621007619 -0.057884578006465924 0 -0.033624793635336672 -0.058951801990204021 0 -0.032148553535891848 -0.059413527499028437 0 -0.030222789546047596 -0.06015386250563412 0 -0.03107876433801245 -0.058141691083909187 0 -0.032148553535891848 -0.059413527499028437 0 -0.03107876433801245 -0.058141691083909187 0 -0.03276685621007619 -0.0578