<?xml version="1.0"?>
<VTKFile type="UnstructuredGrid" version="0.1" byte_order="LittleEndian">
<UnstructuredGrid>
<Piece NumberOfPoints="31898" NumberOfCells="11152">
<Points>
<DataArray type="Float64" NumberOfComponents="3" format="ascii">
-0.5 -0.5 0 -0.47620991077874902 -0.44978878706170539 0 -0.49999999999999473 -0.42132396840504388 0 -0.5 -0.5 0 -0.47160970827802529 -0.4793630013852106 0 -0.47620991077874902 -0.44978878706170539 0 -0.5 -0.5 0 -0.47160970827802529 -0.4793630013852106 0 -0.44860394795025399 -0.5 0 -0.47160970827802529 -0.4793630013852106 0 -0.44860394795025399 -0.5 0 -0.4490820238307246 -0.45820516232899983 0 -0.44860394795025399 -0.5 0 -0.4490820238307246 -0.45820516232899983 0 -0.42881687682924802 -0.47781464288736519 0 -0.4490820238307246 -0.45820516232899983 0 -0.45555437223955858 -0.42914059360647611 0 -0.4490820238307246 -0.45820516232899983 0 -0.45555437223955858 -0.42914059360647611 0 -0.43867285131603428 -0.4271457417558665 0 -0.4490820238307246 -0.45820516232899983 0 -0.43867285131603428 -0.4271457417558665 0 -0.4263356171060747 -0.44269880333887462 0 -0.47160970827802529 -0.4793630013852106 0 -0.4490820238307246 -0.45820516232899983 0 -0.47620991077874902 -0.44978878706170539 0 -0.4490820238307246 -0.45820516232899983 0 -0.47620991077874902 -0.44978878706170539 0 -0.45555437223955858 -0.42914059360647611 0 -0.47620991077874902 -0.44978878706170539 0 -0.48101336032419229 -0.41069999664450008 0 -0.45555437223955858 -0.42914059360647611 0 -0.47620991077874902 -0.44978878706170539 0 -0.49999999999999473 -0.42132396840504388 0 -0.48101336032419229 -0.41069999664450008 0 -0.49999999999999473 -0.42132396840504388 0 -0.48101336032419229 -0.41069999664450008 0 -0.5 -0.393886241813306 0 -0.49999999999999473 -0.42132396840504388 0 -0.48101336032419229 -0.41069999664450008 0 -0.5 -0.393886241813306 0 -0.47854472220918332 -0.38978458738689759 0 -0.48422759779560409 -0.37130120630367158 0 -0.5 -0.393886241813306 0 -0.5 -0.36644851522156802 0 -0.48422759779560409 -0.37130120630367158 0 -0.48101336032419229 -0.41069999664450008 0 -0.5 -0.393886241813306 0 -0.47854472220918332 -0.38978458738689759 0 -0.48101336032419229 -0.41069999664450008 0 -0.47854472220918332 -0.38978458738689759 0 -0.46202672064839212 -0.40007602488395211 0 -0.48101336032419229 -0.41069999664450008 0 -0.46202672064839212 -0.40007602488395211 0 -0.47854472220918332 -0.38978458738689759 0 -0.46725442735267431 -0.37660061361585562 0 -0.46202672064839212 -0.40007602488395211 0 -0.47854472220918332 -0.38978458738689759 0 -0.46725442735267431 -0.37660061361585562 0 -0.48422759779560409 -0.37130120630367158 0 -0.46725442735267431 -0.37660061361585562 0 -0.46202672064839212 -0.40007602488395211 0 -0.46725442735267431 -0.37660061361585562 0 -0.45645674801697989 -0.38644133236760531 0 -0.46202672064839212 -0.40007602488395211 0 -0.46725442735267431 -0.37660061361585562 0 -0.45645674801697989 -0.38644133236760531 0 -0.4540003998136638 -0.37455519391687309 0 -0.45645674801697989 -0.38644133236760531 0 -0.46202672064839212 -0.40007602488395211 0 -0.44257020456291563 -0.38918913383950271 0 -0.46202672064839212 -0.40007602488395211 0 -0.44257020456291563 -0.38918913383950271 0 -0.44727608925983742 -0.41095911152778891 0 -0.46202672064839212 -0.40007602488395211 0 -0.44257020456291563 -0.38918913383950271 0 -0.44257020456291563 -0.38918913383950271 0 -0.44727608925983742 -0.41095911152778891 0 -0.43479358559901082 -0.4041454901736512 0 -0.44257020456291563 -0.38918913383950271 0 -0.4540003998136638 -0.37455519391687309 0 -0.44172858264042247 -0.37082207246888088 0 -0.45645674801697989 -0.38644133236760531 0 -0.44257020456291563 -0.38918913383950271 0 -0.4540003998136638 -0.37455519391687309 0 -0.46202672064839212 -0.40007602488395211 0 -0.45555437223955858 -0.42914059360647611 0 -0.44727608925983742 -0.41095911152778891 0 -0.46202672064839212 -0.40007602488395211 0 -0.45555437223955858 -0.42914059360647611 0 -0.48101336032419229 -0.41069999664450008 0 -0.46202672064839212 -0.40007602488395211 0 -0.45555437223955858 -0.42914059360647611 0 -0.44727608925983742 -0.41095911152778891 0 -0.43867285131603428 -0.4271457417558665 0 -0.43676601469929588 -0.41441201227470881 0 -0.44727608925983742 -0.41095911152778891 0 -0.43676601469929588 -0.41441201227470881 0 -0.43479358559901082 -0.4041454901736512 0 -0.45555437223955858 -0.42914059360647611 0 -0.44727608925983742 -0.41095911152778891 0 -0.43867285131603428 -0.4271457417558665 0 -0.43867285131603428 -0.4271457417558665 0 -0.42681803064840879 -0.42717069814352421 0 -0.4263356171060747 -0.44269880333887462 0 -0.42681803064840879 -0.42717069814352421 0 -0.41531815884496182 -0.42985383783075998 0 -0.4263356171060747 -0.44269880333887462 0 -0.42681803064840879 -0.42717069814352421 0 -0.42624289495594048 -0.42089725947505818 0 -0.42083332353326591 -0.42146747131641099 0 -0.42681803064840879 -0.42717069814352421 0 -0.43096994786351572 -0.41951492446283251 0 -0.42624289495594048 -0.42089725947505818 0 -0.43867285131603428 -0.4271457417558665 0 -0.42681803064840879 -0.42717069814352421 0 -0.43096994786351572 -0.41951492446283251 0 -0.43867285131603428 -0.4271457417558665 0 -0.43676601469929588 -0.41441201227470881 0 -0.43096994786351572 -0.41951492446283251 0 -0.43676601469929588 -0.41441201227470881 0 -0.43096994786351572 -0.41951492446283251 0 -0.42907264086257813 -0.41311715872526122 0 -0.43676601469929588 -0.41441201227470881 0 -0.42907264086257813 -0.41311715872526122 0 -0.43479358559901082 -0.4041454901736512 0 -0.42907264086257813 -0.41311715872526122 0 -0.43479358559901082 -0.4041454901736512 0 -0.42460885511582858 -0.40417321677700252 0 -0.42907264086257813 -0.41311715872526122 0 -0.41997834854398469 -0.41180534796019508 0 -0.42907264086257813 -0.41311715872526122 0 -0.42635027777857132 -0.41543594397746519 0 -0.41997834854398469 -0.41180534796019508 0 -0.42907264086257813 -0.41311715872526122 0 -0.41997834854398469 -0.41180534796019508 0 -0.42460885511582858 -0.40417321677700252 0 -0.42635027777857132 -0.41543594397746519 0 -0.41997834854398469 -0.41180534796019508 0 -0.42635027777857132 -0.41543594397746519 0 -0.42083332353326591 -0.42146747131641099 0 -0.41997834854398469 -0.41180534796019508 0 -0.43096994786351572 -0.41951492446283251 0 -0.42624289495594048 -0.42089725947505818 0 -0.42635027777857132 -0.41543594397746519 0 -0.43096994786351572 -0.41951492446283251 0 -0.42907264086257813 -0.41311715872526122 0 -0.42635027777857132 -0.41543594397746519 0 -0.42624289495594048 -0.42089725947505818 0 -0.42635027777857132 -0.41543594397746519 0 -0.42083332353326591 -0.42146747131641099 0 -0.42083332353326591 -0.42146747131641099 0 -0.41997834854398469 -0.41180534796019508 0 -0.40992282953163789 -0.42011435591993562 0 -0.41997834854398469 -0.41180534796019508 0 -0.39756877647335259 -0.40857286797681719 0 -0.41997834854398469 -0.41180534796019508 0 -0.40992282953163789 -0.42011435591993562 0 -0.39756877647335259 -0.40857286797681719 0 -0.40992282953163789 -0.42011435591993562 0 -0.41531815884496182 -0.42985383783075998 0 -0.39591554026262499 -0.42887225451549271 0 -0.41531815884496182 -0.42985383783075998 0 -0.39591554026262499 -0.42887225451549271 0 -0.41160927495564159 -0.44339431233754628 0 -0.42083332353326591 -0.42146747131641099 0 -0.40992282953163789 -0.42011435591993562 0 -0.41531815884496182 -0.42985383783075998 0 -0.42681803064840879 -0.42717069814352421 0 -0.42083332353326591 -0.42146747131641099 0 -0.41531815884496182 -0.42985383783075998 0 -0.44257020456291563 -0.38918913383950271 0 -0.42311368847744002 -0.37830224279505142 0 -0.42594061475171041 -0.39368797999533162 0 -0.44257020456291563 -0.38918913383950271 0 -0.42311368847744002 -0.37830224279505142 0 -0.44172858264042247 -0.37082207246888088 0 -0.44257020456291563 -0.38918913383950271 0 -0.42311368847744002 -0.37830224279505142 0 -0.42311368847744002 -0.37830224279505142 0 -0.42594061475171041 -0.39368797999533162 0 -0.416587075656149 -0.38785930376960043 0 -0.44257020456291563 -0.38918913383950271 0 -0.42594061475171041 -0.39368797999533162 0 -0.43479358559901082 -0.4041454901736512 0 -0.42594061475171041 -0.39368797999533162 0 -0.43479358559901082 -0.4041454901736512 0 -0.42460885511582858 -0.40417321677700252 0 -0.41997834854398469 -0.41180534796019508 0 -0.41325908582185972 -0.39811010703057192 0 -0.39770572831670092 -0.39911486077581648 0 -0.41997834854398469 -0.41180534796019508 0 -0.39770572831670092 -0.39911486077581648 0 -0.42594061475171041 -0.39368797999533162 0 -0.42460885511582858 -0.40417321677700252 0 -0.41325908582185972 -0.39811010703057192 0 -0.41997834854398469 -0.41180534796019508 0 -0.42460885511582858 -0.40417321677700252 0 -0.41325908582185972 -0.39811010703057192 0 -0.42594061475171041 -0.39368797999533162 0 -0.41325908582185972 -0.39811010703057192 0 -0.416587075656149 -0.38785930376960043 0 -0.41325908582185972 -0.39811010703057192 0 -0.416587075656149 -0.38785930376960043 0 -0.40403491357358612 -0.38133688525744702 0 -0.42311368847744002 -0.37830224279505142 0 -0.40403491357358612 -0.38133688525744702 0 -0.40365717239196519 -0.36741535175059892 0 -0.42311368847744002 -0.37830224279505142 0 -0.416587075656149 -0.38785930376960043 0 -0.40403491357358612 -0.38133688525744702 0 -0.40403491357358612 -0.38133688525744702 0 -0.39190790742475001 -0.38540387676521748 0 -0.39770572831670092 -0.39911486077581648 0 -0.40403491357358612 -0.38133688525744702 0 -0.39190790742475001 -0.38540387676521748 0 -0.3904578797192948 -0.37473938743617019 0 -0.41325908582185972 -0.39811010703057192 0 -0.40403491357358612 -0.38133688525744702 0 -0.39770572831670092 -0.39911486077581648 0 -0.39770572831670092 -0.39911486077581648 0 -0.37543310808941849 -0.38642437359143528 0 -0.39770572831670092 -0.39911486077581648 0 -0.37515920440272033 -0.40534038799344108 0 -0.37543310808941849 -0.38642437359143528 0 -0.39770572831670092 -0.39911486077581648 0 -0.37515920440272033 -0.40534038799344108 0 -0.39756877647335259 -0.40857286797681719
[...]
<PointData Scalars="" Vectors="displacement," Tensors="">
<DataArray type="Float64" Name="displacement" NumberOfComponents="3" format="ascii">
-2.6705657589753741e-06 -0.05499497084297849 0 -0.00026763663131748453 -0.05142038478341443 0 5.6542397226226555e-06 -0.046358457432590226 0 -2.6705657589753741e-06 -0.05499497084297849 0 -0.00024648392431383899 -0.053744043342344922 0 -0.00026763663131748453 -0.05142038478341443 0 -2.6705657589753741e-06 -0.05499497084297849 0 -0.00024648392431383899 -0.053744043342344922 0 9.6055510053992884e-09 -0.054998656124491528 0 -0.00024648392431383899 -0.053744043342344922 0 9.6055510053992884e-09 -0.054998656124491528 0 -0.00013568759122291863 -0.053744410389177946 0 9.6055510053992884e-09 -0.054998656124491528 0 -0.00013568759122291863 -0.053744410389177946 0 -0.00010699488426388728 -0.054630766532892734 0 -0.00046942073790251238 -0.050374498293164392 0 1.8410353362694938e-05 -0.048942525151220599 0 -0.00013568759122291863 -0.053744410389177946 0 0.00061949656947962403 -0.053696615186355795 0 0.00066801704650576031 -0.054001837950249744 0 -0.00013568759122291863 -0.053744410389177946 0 0.00066801704650576031 -0.054001837950249744 0 0.00032773572858010597 -0.054347941342072943 0 -0.00024648392431383899 -0.053744043342344922 0 -0.00013568759122291863 -0.053744410389177946 0 -0.00026763663131748453 -0.05142038478341443 0 -0.00013568759122291863 -0.053744410389177946 0 -0.00026763663131748453 -0.05142038478341443 0 0.00097929993202596388 -0.052451649294700885 0 -0.00026763663131748453 -0.05142038478341443 0 0.0020811629269395083 -0.049695814803500583 0 0.00097929993202596388 -0.052451649294700885 0 -0.00026763663131748453 -0.05142038478341443 0 5.6542397226226555e-06 -0.046358457432590226 0 0.0020811629269395083 -0.049695814803500583 0 3.1119472619315686e-06 -0.046340884176202246 0 0.00047345844571556933 -0.042733691532586347 0 -1.3132272355749005e-06 -0.043327502874403831 0 1.9397793419485905e-06 -0.046343830552429008 0 0.00081742745902922524 -0.045514386271592815 0 -1.3132272355749005e-06 -0.043327502874403831 0 -0.00012478364813540497 -0.04162540657425335 0 -0.00026340520902528339 -0.040513807572354309 0 -1.3132272355749005e-06 -0.043327502874403831 0 -4.0045047763636378e-07 -0.040308987135311287 0 -0.00026340520902528339 -0.040513807572354309 0 0.00047345844571556933 -0.042733691532586347 0 -1.3132272355749005e-06 -0.043327502874403831 0 -0.00012478364813540497 -0.04162540657425335 0 0.00047345844571556933 -0.042733691532586347 0 -0.00012478364813540497 -0.04162540657425335 0 0.00020766395254949839 -0.041219602397479523 0 0.00081742745902922524 -0.045514386271592815 0 0.0012039383593011946 -0.043846082355890499 0 -0.00012478364813540497 -0.04162540657425335 0 -0.00032415269672283451 -0.040862471389881673 0 0.00020766395254949839 -0.041219602397479523 0 -0.00012478364813540497 -0.04162540657425335 0 -0.00032415269672283451 -0.040862471389881673 0 -0.00026340520902528339 -0.040513807572354309 0 0.00086547004693132235 -0.039826416744370825 0 0.0012039383593011946 -0.043846082355890499 0 0.0012656559503369949 -0.0320403232062757 0 0.00084665582710119231 -0.032464690537480016 0 0.00030182014775587503 -0.032256632522746867 0 0.0012656559503369949 -0.0320403232062757 0 0.00084665582710119231 -0.032464690537480016 0 0.0012940133574311651 -0.032536043419539896 0 0.00084665582710119231 -0.032464690537480016 0 0.00030182014775587503 -0.032256632522746867 0 0.00072184604648091249 -0.033015410604312109 0 0.00088164827947493523 -0.053811978166322466 0 0.00077863153429078729 -0.053947903273741556 0 0.00083645511506246417 -0.053886350682876297 0 0.0012039383593011946 -0.043846082355890499 0 0.0010445333439438255 -0.043378206610270469 0 0.00077863153429078729 -0.053947903273741556 0 0.00083645511506246417 -0.053886350682876297 0 0.00085422128447163001 -0.053940435280823533 0 0.00072184604648091249 -0.033015410604312109 0 0.0012940133574311651 -0.032536043419539896 0 0.0014290747923686323 -0.03303422571728195 0 0.00084665582710119231 -0.032464690537480016 0 0.00072184604648091249 -0.033015410604312109 0 0.0012940133574311651 -0.032536043419539896 0 0.00088164827947493523 -0.053811978166322466 0 0.00061949656947962403 -0.053696615186355795 0 0.00083645511506246417 -0.053886350682876297 0 0.0012039383593011946 -0.043846082355890499 0 1.8410353362694938e-05 -0.048942525151220599 0 0.0020811629269395083 -0.049695814803500583 0 0.003212052931255989 -0.051538355198720215 0 0.00097929993202596388 -0.052451649294700885 0 0.00083645511506246417 -0.053886350682876297 0 0.00066801704650576031 -0.054001837950249744 0 0.00084337824119312525 -0.05397828952777025 0 0.00083645511506246417 -0.053886350682876297 0 0.00084337824119312525 -0.05397828952777025 0 0.00085422128447163001 -0.053940435280823533 0 0.00061949656947962403 -0.053696615186355795 0 0.00083645511506246417 -0.053886350682876297 0 0.00066801704650576031 -0.054001837950249744 0 0.00066801704650576031 -0.054001837950249744 0 0.00063903794333100377 -0.054237997707721787 0 0.00032773572858010597 -0.054347941342072943 0 0.00063903794333100377 -0.054237997707721787 0 0.00057625496985573305 -0.054505252142373985 0 0.00032773572858010597 -0.054347941342072943 0 0.00063903794333100377 -0.054237997707721787 0 0.00075881004517393117 -0.054205059967823481 0 0.00074284041896369244 -0.054349176547664718 0 0.00063903794333100377 -0.054237997707721787 0 0.00078731689436384322 -0.054080810113067541 0 0.00075881004517393117 -0.054205059967823481 0 0.00066801704650576031 -0.054001837950249744 0 0.00063903794333100377 -0.054237997707721787 0 0.00078731689436384322 -0.054080810113067541 0 0.00066801704650576031 -0.054001837950249744 0 0.00084337824119312525 -0.05397828952777025 0 0.00078731689436384322 -0.054080810113067541 0 0.00084337824119312525 -0.05397828952777025 0 0.00078731689436384322 -0.054080810113067541 0 0.00093368162611269837 -0.054013027813380819 0 0.00084337824119312525 -0.05397828952777025 0 0.00093368162611269837 -0.054013027813380819 0 0.00085422128447163001 -0.053940435280823533 0 0.00093368162611269837 -0.054013027813380819 0 0.00085422128447163001 -0.053940435280823533 0 0.00086793813189721977 -0.053831667436289816 0 0.0020040758496676528 -0.052826689488070594 0 0.002024411988911914 -0.052680641924927489 0 0.00093368162611269837 -0.054013027813380819 0 0.0008689501995969084 -0.054156052432840787 0 0.0010451906564815734 -0.054440149459592115 0 0.00093368162611269837 -0.054013027813380819 0 0.0010213232921951947 -0.053746797624810987 0 0.00086793813189721977 -0.053831667436289816 0 0.0020237435479763719 -0.052753814576704458 0 0.002024411988911914 -0.052680641924927489 0 0.0008689501995969084 -0.054156052432840787 0 0.00074284041896369244 -0.054349176547664718 0 0.00096590702866481998 -0.05436394555850859 0 0.00078731689436384322 -0.054080810113067541 0 0.00075881004517393117 -0.054205059967823481 0 0.0008689501995969084 -0.054156052432840787 0 0.00078731689436384322 -0.054080810113067541 0 0.00093368162611269837 -0.054013027813380819 0 0.0008689501995969084 -0.054156052432840787 0 0.00075881004517393117 -0.054205059967823481 0 0.0008689501995969084 -0.054156052432840787 0 0.00074284041896369244 -0.054349176547664718 0 0.00074284041896369244 -0.054349176547664718 0 0.00096590702866481998 -0.05436394555850859 0 0.00077325848923867906 -0.054596507986780451 0 0.002024411988911914 -0.052680641924927489 0 0.0016836617501489583 -0.052357963458494292 0 0.00096590702866481998 -0.05436394555850859 0 0.00077325848923867906 -0.054596507986780451 0 0.0010014886270848034 -0.054845166628967032 0 0.00077325848923867906 -0.054596507986780451 0 0.00057625496985573305 -0.054505252142373985 0 0.00059902365836726453 -0.054881473821852864 0 0.00057625496985573305 -0.054505252142373985 0 0.00059902365836726453 -0.054881473821852864 0 0.00031973801546606199 -0.054620343672394489 0 0.00074284041896369244 -0.054349176547664718 0 0.00077325848923867906 -0.054596507986780451 0 0.00057625496985573305 -0.054505252142373985 0 0.00063903794333100377 -0.054237997707721787 0 0.00074284041896369244 -0.054349176547664718 0 0.00057625496985573305 -0.054505252142373985 0 0.00077863153429078729 -0.053947903273741556 0 0.00043909899696935691 -0.053738028805096739 0 0.00073476824508918247 -0.053806412755388916 0 0.00072184604648091249 -0.033015410604312109 0 0.0011256722432937108 -0.033803263698621189 0 0.0014290747923686323 -0.03303422571728195 0 0.0010445333439438255 -0.043378206610270469 0 0.0011395668615376909 -0.04309220700510713 0 0.00043909899696935691 -0.053738028805096739 0 0.00073476824508918247 -0.053806412755388916 0 0.00060775982935659515 -0.053608015247228573 0 0.00077863153429078729 -0.053947903273741556 0 0.00073476824508918247 -0.053806412755388916 0 0.00085422128447163001 -0.053940435280823533 0 0.00073476824508918247 -0.053806412755388916 0 0.00085422128447163001 -0.053940435280823533 0 0.00086793813189721977 -0.053831667436289816 0 0.0010213232921951947 -0.053746797624810987 0 0.00080335265362907612 -0.053558393358290268 0 0.00087255707821787959 -0.053164204636232906 0 0.002024411988911914 -0.052680641924927489 0 0.0021254339903101411 -0.050992231682696142 0 0.00073476824508918247 -0.053806412755388916 0 0.00086793813189721977 -0.053831667436289816 0 0.00080335265362907612 -0.053558393358290268 0 0.0010213232921951947 -0.053746797624810987 0 0.00086793813189721977 -0.053831667436289816 0 0.00080335265362907612 -0.053558393358290268 0 0.00073476824508918247 -0.053806412755388916 0 0.00080335265362907612 -0.053558393358290268 0 0.00060775982935659515 -0.053608015247228573 0 0.00080335265362907612 -0.053558393358290268 0 0.00060775982935659515 -0.053608015247228573 0 0.00044602263536369587 -0.053313572946767383 0 0.00043909899696935691 -0.053738028805096739 0 0.00044602263536369587 -0.053313572946767383 0 0.00014368322275146276 -0.053288560628020627 0 0.00043909899696935691 -0.053738028805096739 0 0.00060775982935659515 -0.053608015247228573 0 0.00044602263536369587 -0.053313572946767383 0 0.00044602263536369587 -0.053313572946767383 0 0.00053464745017140543 -0.05297460308320287 0 0.00087255707821787959 -0.053164204636232906 0 0.00044602263536369587 -0.053313572946767383 0 0.00053464745017140543 -0.05297460308320287 0 0.00023732001121338044 -0.052915978444544667 0 0.00080335265362907612 -0.053558393358290268 0 0.00044602263536369587 -0.053313572946767383 0 0.00087255707821787959 -0.053164204636232906 0 0.0021254339903101411 -0.050992231682696142 0 0.001953802633969829 -0.047541464896908955 0 0.0020231407954584167 -0.050869732786968547 0 0.0024003028365431485 -0.049498871388675487 0 0.0012539971357930059 -0.049511948898028332 0 0.0020231407954584167 -0.050869732786968547 0 0.0024003028365431485 -0.049498871388675487 0 0.0025974533303418845 -0.050862617125068857 0 0.0011626135222543002 -0.050927044444571856 0 0.001953802633969829 -0.047541464896908955 0 0.00057395298790954992 -0.052489897682741864 0 0.00023732001121338044 -0.052915978444544667 0 7.5359292783140581e-05 -0.052471294434517972 0 0.00053464745017140543 -0.05297460308320287 0 0.00057395298790954992 -0.052489897682741864 0 0.00023732001121338044 -0.052915978444544667 0 0.001953802633969829 -0.047541464896908955 0 0.0013563566055161973 -0.044565377932448184 0 0.00053464745017140543 -0.05297460308320287 0 0.00087255707821787959 -0.053164204636232906 0 0.00057395298790954992 -0.052489897682741864 0 0.0027931901933596457 -0.052228847285714017 0 0.0020231407954584167 -0.050869732786968547 0 0.0025974533303418845 -0.050862617125068857 0 0.00077325848923867906 -0.054596507986780451 0 0.00059902365836726453 -0.054881473821852864 0 0.0010014886270848034 -0.054845166628967032 0 0.0010560505371068271 -0.055266146451468157 0 0.00059902365836726453 -0.054881473821852864 0 0.0010014886270848034 -0.054845166628967032 0 0.0011626135222543002 -0.050927044444571856 0 0.0016836617501489583 -0.052357963458494292 0 0.0010560505371068271 -0.055266146451468157 0 0.00059902365836726453 -0.054881473821852864 0 0.00047747943614937795 -0.05527293703984764 0 0.00059902365836726453 -0.054881473821852864 0 0.00027380130682701454 -0.054939321525812303 0 0.00047747943614937795 -0.05527293703984764 0 0.00027380130682701454 -0.054939321525812303 0 -6.6819705014296981e-05 -0.05527496497471663 0 0.00047747943614937795 -0.05527293703984764 0 0.00059902365836726453 -0.054881473821852864 0 0.00027380130682701454 -0.054939321525812303 0 0.00031973801546606199 -0.054620343672394489 0 0.00027380130682701454 -0.054939321525812303 0 8.0247418157096507e-05 -0.054749623596858657 0 0.00031973801546606199 -0.054620343672394489 0 7.4985119298002237e-05 -0.054794652942386474 0 -3.3856115536548159e-05 -0.054924456570205935 0 -3.4851308134578558e-05 -0.054745834008782572 0 8.1266634146241795e-06 -0.054991070277262806 0 6.5647638098664805e-06 -0.054995896566118502 0 1.4601429776716376e-06 -0.054995937353447363 0 0.00010519510008616518 -0.054832423799586846 0 9.4834816435404438e-06 -0.054941301728159364 0 0.00010519510008616518 -0.054832423799586846 0 0.00010528077877843042 -0.054831731737484082 0 0.00010519510008616518 -0.054832423799586846 0 0.0001147890641053112 -0.054762449303087352 0 0.00027380130682701454 -0.054939321525812303 0 8.0247418157096507e-05 -0.054749623596858657 0 6.5305306448808738e-06 -0.055009351899491313 0 0.00027380130682701454 -0.054939321525812303 0 6.5305306448808738e-06 -0.055009351899491313 0 -6.6819705014296981e-05 -0.05527496497471663 0 0.0001147890641053112 -0.054762449303087352 0 0.00019141995071560991 -0.054476395290248093 0 6.5647638098664805e-06 -0.054995896566118502 0 3.3139234503719376e-06 -0.054997383731751164 0 5.1715296751952332e-06 -0.054999534515865291 0 3.3139234503719376e-06 -0.054997383731751164 0 1.4601429776716376e-06 -0.054995937353447363 0 1.1388035627579541e-06 -0.054999402887485845 0 1.4601429776716376e-06 -0.054995937353447363 0 5.6417894814077032e-07 -0.054999586556586287 0 1.1388035627579541e-06 -0.054999402887485845 0 3.3139234503719376e-06 -0.054997383731751164 0 1.1388035627579541e-06 -0.054999402887485845 0 5.1715296751952332e-06 -0.054999534515865291 0 6.5647638098664805e-06 -0.054995896566118502 0 3.3139234503719376e-06 -0.054997383731751164 0 1.4601429776716376e-06 -0.054995937353447363 0 -3.9390032859449809e-08 -0.054999911553296664 0 9.4834816435404438e-06 -0.054941301728159364 0 -2.3881708743977446e-09 -0.054999996365308459 0 1.4601429776716376e-06 -0.054995937353447363 0 5.6417894814077032e-07 -0.054999586556586287 0 8.9341397037218194e-08 -0.054999974666965629 0 -3.3856115536548159e-05 -0.054924456570205935 0 -2.2134708434003269e-07 -0.054999812931366847 0 -3.3856115536548159e-05 -0.054924456570205935 0 -3.4851308134578558e-05 -0.054745834008782572 0 -2.2134708434003269e-07 -0.054999812931366847 0 -3.4851308134578558e-05 -0.054745834008782572 0 -2.2134708434003269e-07 -0.054999812931366847 0 -0.00010699488426388728 -0.054630766532892734 0 9.6055510053992884e-09 -0.054998656124491528 0 -2.2134708434003269e-07 -0.054999812931366847 0 -0.00010699488426388728 -0.054630766532892734 0 -3.4851308134578558e-05 -0.054745834008782572 0 -0.00010699488426388728 -0.054630766532892734 0 3.1465538336840979e-06 -0.054455956740021537 0 -0.00013568759122291863 -0.053744410389177946 0 -0.00010699488426388728 -0.054630766532892734 0 3.1465538336840979e-06 -0.054455956740021537 0 -0.00013568759122291863 -0.053744410389177946 0 3.1465538336840979e-06 -0.054455956740021537 0 0.00032773572858010597 -0.054347941342072943 0 3.1465538336840979e-06 -0.054455956740021537 0 0.00032773572858010597 -0.054347941342072943 0 0.00012592866357573075 -0.054590945119249765 0 0.00032773572858010597 -0.054347941342072943 0 0.00031973801546606199 -0.054620343672394489 0 0.00012592866357573075 -0.054590945119249765 0 0.00057625496985573305 -0.054505252142373985 0 0.00032773572858010597 -0.054347941342072943 0 0.00031973801546606199 -0.054620343672394489 0 7.5996606386615883e-05 -0.05481570750784124 0 0.00031973801546606199 -0.054620343672394489 0 8.6928496147402017e-05 -0.054763238902243612 0 0.00031973801546606199 -0.054620343672394489 0 8.6928496147402017e-05 -0.054763238902243612 0 0.00012592866357573075 -0.054590945119249765 0 0.00010519510008616518 -0.054832423799586846 0 0.00015046909642541239 -0.054799658602024258 0 -3.4851308134578558e-05 -0.054745834008782572 0 8.6928496147402017e-05 -0.054763238902243612 0 0.00012592866357573075 -0.054590945119249765 0 7.4985119298002237e-05 -0.054794652942386474 0 -3.4851308134578558e-05 -0.054745834008782572 0 8.6928496147402017e-05 -0.054763238902243612 0 -3.4851308134578558e-05 -0.054745834008782572 0 3.1465538336840979e-06 -0.054455956740021537 0 0.00012592866357573075 -0.054590945119249765 0 0.0017891757422844946 -0.028314029323886897 0 0.0025318493970523052 -0.026931245175305894 0 0.00079350001811621267 -0.027599305335570219 0 0.00094263861327043951 -0.026722745600582909 0 0.00052798866903475497 -0.027312300159484496 0 -0.00018940415170901073 -0.030788426573002087 0 0.00023080693840406448 -0.03072119963456222 0 0.00012299874867458343 -0.030921452457323296 0 -0.00018940415170901073 -0.030788426573002087 0 -0.00011065198864174748 -0.030837109705811806 0 0.00012299874867458343 -0.030921452457323296 0 -0.00018940415170901073 -0.030788426573002087 0 -0.00010883338828727629 -0.03068717992625037 0 -0.00011065198864174748 -0.030837109705811806 0 -0.00018940415170901073 -0.030788426573002087 0 -0.00017532524717615549 -0.030357266069526687 0 -0.00028386521667794274 -0.030895858872675583 0 -0.00018940415170901073 -0.030788426573002087 0 -0.00017532524717615549 -0.030357266069526687 0 0.00023080693840406448 -0.03072119963456222 0 0.0017891757422844946 -0.028314029323886897 0 0.0015416057582937149 -0.028565561980890483 0 -0.00017532524717615549 -0.030357266069526687 0 0.00023080693840406448 -0.03072119963456222 0 0.00022461191366217862 -0.029081951562014954 0 0.00079350001811621267 -0.027599305335570219 0 0.00022461191366217862 -0.029081951562014954 0 8.4622017619242332e-05 -0.028004013749790058 0 0.00022461191366217862 -0.029081951562014954 0 -6.4376373309949781e-07 -0.028236361293318545 0 -0.00019255381926973467 -0.030276316794079581 0 0.00022461191366217862 -0.029081951562014954 0 -6.4376373309949781e-07 -0.028236361293318545 0 -3.417699792731412e-05 -0.027603769585877021 0 -6.4376373309949781e-07 -0.028236361293318545 0 -0.00019255381926973467 -0.030276316794079581 0 -5.6941980333802623e-07 -0.03125488353848907 0 -0.00017532524717615549 -0.030357266069526687 0 0.00022461191366217862 -0.029081951562014954 0 -0.00019255381926973467 -0.030276316794079581 0 -0.00017532524717615549 -0.030357266069526687 0 -0.00019255381926973467 -0.030276316794079581 0 -0.00028386521667794274 -0.030895858872675583 0 -0.00028386521667794274 -0.030895858872675583 0 -0.00011934360249464131 -0.0318542101471447 0 -3.5494004482877302e-05 -0.03166373921846756 0 -0.00019255381926973467 -0.030276316794079581 0 -0.00028386521667794274 -0.030895858872675583 0 -0.00011934360249464131 -0.0318542101471447 0 -5.6941980333802623e-07 -0.03125488353848907 0 -0.00011934360249464131 -0.0318542101471447 0 7.2107439498478098e-07 -0.034272827735902643 0 -0.00019255381926973467 -0.030276316794079581 0 -5.6941980333802623e-07 -0.03125488353848907 0 -0.00011934360249464131 -0.0318542101471447 0 -0.00011934360249464131 -0.0318542101471447 0 7.2107439498478098e-07 -0.034272827735902643 0 0.00023275515578267912 -0.033074148326930647 0 0.00023275515578267912 -0.033074148326930647 0 -3.5494004482877302e-05 -0.03166373921846756 0 0.00086355229851887397 -0.03203637305990939 0 -0.00011934360249464131 -0.0318542101471447 0 0.00023275515578267912 -0.033074148326930647 0 -3.5494004482877302e-05 -0.03166373921846756 0 -3.5494004482877302e-05 -0.03166373921846756 0 0.00040542487020100792 -0.031302153949721953 0 0.00086355229851887397 -0.03203637305990939 0 0.00040542487020100792 -0.031302153949721953 0 0.00028909276982809593 -0.03079293631499834 0 0.000771993400