<?xml version="1.0"?>
<VTKFile type="UnstructuredGrid" version="0.1" byte_order="LittleEndian">
<UnstructuredGrid>
<Piece NumberOfPoints="31898" NumberOfCells="11152">
<Points>
<DataArray type="Float64" NumberOfComponents="3" format="ascii">
-0.5 -0.5 0 -0.47620991077874902 -0.44978878706170539 0 -0.49999999999999473 -0.42132396840504388 0 -0.5 -0.5 0 -0.47160970827802529 -0.4793630013852106 0 -0.47620991077874902 -0.44978878706170539 0 -0.5 -0.5 0 -0.47160970827802529 -0.4793630013852106 0 -0.44860394795025399 -0.5 0 -0.47160970827802529 -0.4793630013852106 0 -0.44860394795025399 -0.5 0 -0.4490820238307246 -0.45820516232899983 0 -0.44860394795025399 -0.5 0 -0.4490820238307246 -0.45820516232899983 0 -0.42881687682924802 -0.47781464288736519 0 -0.4490820238307246 -0.45820516232899983 0 -0.45555437223955858 -0.42914059360647611 0 -0.4490820238307246 -0.45820516232899983 0 -0.45555437223955858 -0.42914059360647611 0 -0.43867285131603428 -0.4271457417558665 0 -0.4490820238307246 -0.45820516232899983 0 -0.43867285131603428 -0.4271457417558665 0 -0.4263356171060747 -0.44269880333887462 0 -0.47160970827802529 -0.4793630013852106 0 -0.4490820238307246 -0.45820516232899983 0 -0.47620991077874902 -0.44978878706170539 0 -0.4490820238307246 -0.45820516232899983 0 -0.47620991077874902 -0.44978878706170539 0 -0.45555437223955858 -0.42914059360647611 0 -0.47620991077874902 -0.44978878706170539 0 -0.48101336032419229 -0.41069999664450008 0 -0.45555437223955858 -0.42914059360647611 0 -0.47620991077874902 -0.44978878706170539 0 -0.49999999999999473 -0.42132396840504388 0 -0.48101336032419229 -0.41069999664450008 0 -0.49999999999999473 -0.42132396840504388 0 -0.48101336032419229 -0.41069999664450008 0 -0.5 -0.393886241813306 0 -0.49999999999999473 -0.42132396840504388 0 -0.48101336032419229 -0.41069999664450008 0 -0.5 -0.393886241813306 0 -0.47854472220918332 -0.38978458738689759 0 -0.48422759779560409 -0.37130120630367158 0 -0.5 -0.393886241813306 0 -0.5 -0.36644851522156802 0 -0.48422759779560409 -0.37130120630367158 0 -0.48101336032419229 -0.41069999664450008 0 -0.5 -0.393886241813306 0 -0.47854472220918332 -0.38978458738689759 0 -0.48101336032419229 -0.41069999664450008 0 -0.47854472220918332 -0.38978458738689759 0 -0.46202672064839212 -0.40007602488395211 0 -0.48101336032419229 -0.41069999664450008 0 -0.46202672064839212 -0.40007602488395211 0 -0.47854472220918332 -0.38978458738689759 0 -0.46725442735267431 -0.37660061361585562 0 -0.46202672064839212 -0.40007602488395211 0 -0.47854472220918332 -0.38978458738689759 0 -0.46725442735267431 -0.37660061361585562 0 -0.48422759779560409 -0.37130120630367158 0 -0.46725442735267431 -0.37660061361585562 0 -0.46202672064839212 -0.40007602488395211 0 -0.46725442735267431 -0.37660061361585562 0 -0.45645674801697989 -0.38644133236760531 0 -0.46202672064839212 -0.40007602488395211 0 -0.46725442735267431 -0.37660061361585562 0 -0.45645674801697989 -0.38644133236760531 0 -0.4540003998136638 -0.37455519391687309 0 -0.45645674801697989 -0.38644133236760531 0 -0.46202672064839212 -0.40007602488395211 0 -0.44257020456291563 -0.38918913383950271 0 -0.46202672064839212 -0.40007602488395211 0 -0.44257020456291563 -0.38918913383950271 0 -0.44727608925983742 -0.41095911152778891 0 -0.46202672064839212 -0.40007602488395211 0 -0.44257020456291563 -0.38918913383950271 0 -0.44257020456291563 -0.38918913383950271 0 -0.44727608925983742 -0.41095911152778891 0 -0.43479358559901082 -0.4041454901736512 0 -0.44257020456291563 -0.38918913383950271 0 -0.4540003998136638 -0.37455519391687309 0 -0.44172858264042247 -0.37082207246888088 0 -0.45645674801697989 -0.38644133236760531 0 -0.44257020456291563 -0.38918913383950271 0 -0.4540003998136638 -0.37455519391687309 0 -0.46202672064839212 -0.40007602488395211 0 -0.45555437223955858 -0.42914059360647611 0 -0.44727608925983742 -0.41095911152778891 0 -0.46202672064839212 -0.40007602488395211 0 -0.45555437223955858 -0.42914059360647611 0 -0.48101336032419229 -0.41069999664450008 0 -0.46202672064839212 -0.40007602488395211 0 -0.45555437223955858 -0.42914059360647611 0 -0.44727608925983742 -0.41095911152778891 0 -0.43867285131603428 -0.4271457417558665 0 -0.43676601469929588 -0.41441201227470881 0 -0.44727608925983742 -0.41095911152778891 0 -0.43676601469929588 -0.41441201227470881 0 -0.43479358559901082 -0.4041454901736512 0 -0.45555437223955858 -0.42914059360647611 0 -0.44727608925983742 -0.41095911152778891 0 -0.43867285131603428 -0.4271457417558665 0 -0.43867285131603428 -0.4271457417558665 0 -0.42681803064840879 -0.42717069814352421 0 -0.4263356171060747 -0.44269880333887462 0 -0.42681803064840879 -0.42717069814352421 0 -0.41531815884496182 -0.42985383783075998 0 -0.4263356171060747 -0.44269880333887462 0 -0.42681803064840879 -0.42717069814352421 0 -0.42624289495594048 -0.42089725947505818 0 -0.42083332353326591 -0.42146747131641099 0 -0.42681803064840879 -0.42717069814352421 0 -0.43096994786351572 -0.41951492446283251 0 -0.42624289495594048 -0.42089725947505818 0 -0.43867285131603428 -0.4271457417558665 0 -0.42681803064840879 -0.42717069814352421 0 -0.43096994786351572 -0.41951492446283251 0 -0.43867285131603428 -0.4271457417558665 0 -0.43676601469929588 -0.41441201227470881 0 -0.43096994786351572 -0.41951492446283251 0 -0.43676601469929588 -0.41441201227470881 0 -0.43096994786351572 -0.41951492446283251 0 -0.42907264086257813 -0.41311715872526122 0 -0.43676601469929588 -0.41441201227470881 0 -0.42907264086257813 -0.41311715872526122 0 -0.43479358559901082 -0.4041454901736512 0 -0.42907264086257813 -0.41311715872526122 0 -0.43479358559901082 -0.4041454901736512 0 -0.42460885511582858 -0.40417321677700252 0 -0.42907264086257813 -0.41311715872526122 0 -0.41997834854398469 -0.41180534796019508 0 -0.42907264086257813 -0.41311715872526122 0 -0.42635027777857132 -0.41543594397746519 0 -0.41997834854398469 -0.41180534796019508 0 -0.42907264086257813 -0.41311715872526122 0 -0.41997834854398469 -0.41180534796019508 0 -0.42460885511582858 -0.40417321677700252 0 -0.42635027777857132 -0.41543594397746519 0 -0.41997834854398469 -0.41180534796019508 0 -0.42635027777857132 -0.41543594397746519 0 -0.42083332353326591 -0.42146747131641099 0 -0.41997834854398469 -0.41180534796019508 0 -0.43096994786351572 -0.41951492446283251 0 -0.42624289495594048 -0.42089725947505818 0 -0.42635027777857132 -0.41543594397746519 0 -0.43096994786351572 -0.41951492446283251 0 -0.42907264086257813 -0.41311715872526122 0 -0.42635027777857132 -0.41543594397746519 0 -0.42624289495594048 -0.42089725947505818 0 -0.42635027777857132 -0.41543594397746519 0 -0.42083332353326591 -0.42146747131641099 0 -0.42083332353326591 -0.42146747131641099 0 -0.41997834854398469 -0.41180534796019508 0 -0.40992282953163789 -0.42011435591993562 0 -0.41997834854398469 -0.41180534796019508 0 -0.39756877647335259 -0.40857286797681719 0 -0.41997834854398469 -0.41180534796019508 0 -0.40992282953163789 -0.42011435591993562 0 -0.39756877647335259 -0.40857286797681719 0 -0.40992282953163789 -0.42011435591993562 0 -0.41531815884496182 -0.42985383783075998 0 -0.39591554026262499 -0.42887225451549271 0 -0.41531815884496182 -0.42985383783075998 0 -0.39591554026262499 -0.42887225451549271 0 -0.41160927495564159 -0.44339431233754628 0 -0.42083332353326591 -0.42146747131641099 0 -0.40992282953163789 -0.42011435591993562 0 -0.41531815884496182 -0.42985383783075998 0 -0.42681803064840879 -0.42717069814352421 0 -0.42083332353326591 -0.42146747131641099 0 -0.41531815884496182 -0.42985383783075998 0 -0.44257020456291563 -0.38918913383950271 0 -0.42311368847744002 -0.37830224279505142 0 -0.42594061475171041 -0.39368797999533162 0 -0.44257020456291563 -0.38918913383950271 0 -0.42311368847744002 -0.37830224279505142 0 -0.44172858264042247 -0.37082207246888088 0 -0.44257020456291563 -0.38918913383950271 0 -0.42311368847744002 -0.37830224279505142 0 -0.42311368847744002 -0.37830224279505142 0 -0.42594061475171041 -0.39368797999533162 0 -0.416587075656149 -0.38785930376960043 0 -0.44257020456291563 -0.38918913383950271 0 -0.42594061475171041 -0.39368797999533162 0 -0.43479358559901082 -0.4041454901736512 0 -0.42594061475171041 -0.39368797999533162 0 -0.43479358559901082 -0.4041454901736512 0 -0.42460885511582858 -0.40417321677700252 0 -0.41997834854398469 -0.41180534796019508 0 -0.41325908582185972 -0.39811010703057192 0 -0.39770572831670092 -0.39911486077581648 0 -0.41997834854398469 -0.41180534796019508 0 -0.39770572831670092 -0.39911486077581648 0 -0.42594061475171041 -0.39368797999533162 0 -0.42460885511582858 -0.40417321677700252 0 -0.41325908582185972 -0.39811010703057192 0 -0.41997834854398469 -0.41180534796019508 0 -0.42460885511582858 -0.40417321677700252 0 -0.41325908582185972 -0.39811010703057192 0 -0.42594061475171041 -0.39368797999533162 0 -0.41325908582185972 -0.39811010703057192 0 -0.416587075656149 -0.38785930376960043 0 -0.41325908582185972 -0.39811010703057192 0 -0.416587075656149 -0.38785930376960043 0 -0.40403491357358612 -0.38133688525744702 0 -0.42311368847744002 -0.37830224279505142 0 -0.40403491357358612 -0.38133688525744702 0 -0.40365717239196519 -0.36741535175059892 0 -0.42311368847744002 -0.37830224279505142 0 -0.416587075656149 -0.38785930376960043 0 -0.40403491357358612 -0.38133688525744702 0 -0.40403491357358612 -0.38133688525744702 0 -0.39190790742475001 -0.38540387676521748 0 -0.39770572831670092 -0.39911486077581648 0 -0.40403491357358612 -0.38133688525744702 0 -0.39190790742475001 -0.38540387676521748 0 -0.3904578797192948 -0.37473938743617019 0 -0.41325908582185972 -0.39811010703057192 0 -0.40403491357358612 -0.38133688525744702 0 -0.39770572831670092 -0.39911486077581648 0 -0.39770572831670092 -0.39911486077581648 0 -0.37543310808941849 -0.38642437359143528 0 -0.39770572831670092 -0.39911486077581648 0 -0.37515920440272033 -0.40534038799344108 0 -0.37543310808941849 -0.38642437359143528 0 -0.39770572831670092 -0.39911486077581648 0 -0.37515920440272033 -0.40534038799344108 0 -0.39756877647335259 -0.40857286797681719
[...]
<PointData Scalars="" Vectors="displacement," Tensors="">
<DataArray type="Float64" Name="displacement" NumberOfComponents="3" format="ascii">
-0.034997125499712595 -2.6969876522037633e-07 0 -0.034116796825558314 -0.00017986265531975387 0 -0.034997658922198409 -7.4441299124467047e-07 0 -0.034997125499712595 -2.6969876522037633e-07 0 -0.033471034906284967 -0.0001201883108159156 0 -0.034116796825558314 -0.00017986265531975387 0 -0.034997125499712595 -2.6969876522037633e-07 0 -0.033471034906284967 -0.0001201883108159156 0 -0.031404213016970439 -2.6826022126914472e-07 0 -0.033471034906284967 -0.0001201883108159156 0 -0.031404213016970439 -2.6826022126914472e-07 0 -0.03285240570383513 7.3521372668956719e-05 0 -0.031404213016970439 -2.6826022126914472e-07 0 -0.03285240570383513 7.3521372668956719e-05 0 -0.03121312758658177 -6.7547795715295285e-05 0 -0.033192775699300042 0.00020797686292413706 0 -0.033373543740489134 0.00020761498931067232 0 -0.03285240570383513 7.3521372668956719e-05 0 -0.032281040057131803 0.00032068806535153556 0 -0.032228230383532459 0.0001029436366456412 0 -0.03285240570383513 7.3521372668956719e-05 0 -0.032228230383532459 0.0001029436366456412 0 -0.032266314012840261 1.2799967210977388e-05 0 -0.033471034906284967 -0.0001201883108159156 0 -0.03285240570383513 7.3521372668956719e-05 0 -0.034116796825558314 -0.00017986265531975387 0 -0.03285240570383513 7.3521372668956719e-05 0 -0.034116796825558314 -0.00017986265531975387 0 -0.034443793633414412 0.00026560222512210719 0 -0.034116796825558314 -0.00017986265531975387 0 -0.034883580795861034 -3.0784923854096789e-05 0 -0.034443793633414412 0.00026560222512210719 0 -0.034116796825558314 -0.00017986265531975387 0 -0.034997658922198409 -7.4441299124467047e-07 0 -0.034883580795861034 -3.0784923854096789e-05 0 -0.034999999067076418 7.760765259025293e-11 0 -0.034998831460691139 -3.8128617340595408e-07 0 -0.034999998606447327 -4.8578348600366556e-10 0 -0.034998957180076375 4.0641155776073144e-07 0 -0.034483902697669599 0.00012846953762106098 0 -0.034999998606447327 -4.8578348600366556e-10 0 -0.034998616669235712 -6.7798343890695901e-07 0 -0.034999438055569536 -1.0781821052681745e-06 0 -0.034999998606447327 -4.8578348600366556e-10 0 -0.034999997566917684 -1.5817181115231038e-09 0 -0.034999438055569536 -1.0781821052681745e-06 0 -0.034998831460691139 -3.8128617340595408e-07 0 -0.034999998606447327 -4.8578348600366556e-10 0 -0.034998616669235712 -6.7798343890695901e-07 0 -0.034998831460691139 -3.8128617340595408e-07 0 -0.034998616669235712 -6.7798343890695901e-07 0 -0.034997086840770464 -5.7039359130659619e-07 0 -0.034483902697669599 0.00012846953762106098 0 -0.033689216103727229 0.00014947537560375558 0 -0.034998616669235712 -6.7798343890695901e-07 0 -0.034998306570019386 -7.4764492898123798e-07 0 -0.034997086840770464 -5.7039359130659619e-07 0 -0.034998616669235712 -6.7798343890695901e-07 0 -0.034998306570019386 -7.4764492898123798e-07 0 -0.034999438055569536 -1.0781821052681745e-06 0 -0.034227642368366666 5.7828613915743263e-05 0 -0.033689216103727229 0.00014947537560375558 0 -0.033614969904769525 0.0001283338254450263 0 -0.033430679975426016 0.00034201768405331688 0 -0.033170310510945704 0.00023619620574906114 0 -0.033614969904769525 0.0001283338254450263 0 -0.033430679975426016 0.00034201768405331688 0 -0.033662013552979562 0.00039302787947466373 0 -0.033430679975426016 0.00034201768405331688 0 -0.033170310510945704 0.00023619620574906114 0 -0.033381660909198779 0.00060774724481584225 0 -0.032002323638412426 0.00036926715499732688 0 -0.031897416251989281 0.00019406645847212041 0 -0.032105533359156065 0.00022595514892470795 0 -0.033689216103727229 0.00014947537560375558 0 -0.032857356003969565 0.00038078306801885318 0 -0.031897416251989281 0.00019406645847212041 0 -0.032105533359156065 0.00022595514892470795 0 -0.032047745917019449 0.00011850364317037495 0 -0.033381660909198779 0.00060774724481584225 0 -0.033662013552979562 0.00039302787947466373 0 -0.033732272071963769 0.00062448956407573479 0 -0.033430679975426016 0.00034201768405331688 0 -0.033381660909198779 0.00060774724481584225 0 -0.033662013552979562 0.00039302787947466373 0 -0.032002323638412426 0.00036926715499732688 0 -0.032281040057131803 0.00032068806535153556 0 -0.032105533359156065 0.00022595514892470795 0 -0.033689216103727229 0.00014947537560375558 0 -0.033373543740489134 0.00020761498931067232 0 -0.034883580795861034 -3.0784923854096789e-05 0 -0.035005577938464053 0.00023751532850485918 0 -0.034443793633414412 0.00026560222512210719 0 -0.032105533359156065 0.00022595514892470795 0 -0.032228230383532459 0.0001029436366456412 0 -0.032149620024858584 0.00012708548080668346 0 -0.032105533359156065 0.00022595514892470795 0 -0.032149620024858584 0.00012708548080668346 0 -0.032047745917019449 0.00011850364317037495 0 -0.032281040057131803 0.00032068806535153556 0 -0.032105533359156065 0.00022595514892470795 0 -0.032228230383532459 0.0001029436366456412 0 -0.032228230383532459 0.0001029436366456412 0 -0.032228573996169234 6.9444260124940205e-05 0 -0.032266314012840261 1.2799967210977388e-05 0 -0.032228573996169234 6.9444260124940205e-05 0 -0.032232730569515596 0.00012332741466347181 0 -0.032266314012840261 1.2799967210977388e-05 0 -0.032228573996169234 6.9444260124940205e-05 0 -0.032210004481979818 7.5144925800405113e-05 0 -0.032219232754294461 9.1774583367500566e-05 0 -0.032228573996169234 6.9444260124940205e-05 0 -0.032197617023072583 8.4940771136745804e-05 0 -0.032210004481979818 7.5144925800405113e-05 0 -0.032228230383532459 0.0001029436366456412 0 -0.032228573996169234 6.9444260124940205e-05 0 -0.032197617023072583 8.4940771136745804e-05 0 -0.032228230383532459 0.0001029436366456412 0 -0.032149620024858584 0.00012708548080668346 0 -0.032197617023072583 8.4940771136745804e-05 0 -0.032149620024858584 0.00012708548080668346 0 -0.032197617023072583 8.4940771136745804e-05 0 -0.032157162439519368 7.4336683557070242e-05 0 -0.032149620024858584 0.00012708548080668346 0 -0.032157162439519368 7.4336683557070242e-05 0 -0.032047745917019449 0.00011850364317037495 0 -0.032157162439519368 7.4336683557070242e-05 0 -0.032047745917019449 0.00011850364317037495 0 -0.032047662618099236 1.6815737396656924e-05 0 -0.02894787828472474 0.00084373058382974009 0 -0.028843078526654554 0.00090373279958246738 0 -0.032157162439519368 7.4336683557070242e-05 0 -0.032192618156008462 6.3452687037484536e-05 0 -0.032165807986218951 1.6058272257147295e-05 0 -0.032157162439519368 7.4336683557070242e-05 0 -0.032133372953603197 -3.3493423043041149e-05 0 -0.032047662618099236 1.6815737396656924e-05 0 -0.028942541282763967 0.0009356406519553009 0 -0.028843078526654554 0.00090373279958246738 0 -0.032192618156008462 6.3452687037484536e-05 0 -0.032219232754294461 9.1774583367500566e-05 0 -0.03223647949009658 9.710074924732796e-05 0 -0.032197617023072583 8.4940771136745804e-05 0 -0.032210004481979818 7.5144925800405113e-05 0 -0.032192618156008462 6.3452687037484536e-05 0 -0.032197617023072583 8.4940771136745804e-05 0 -0.032157162439519368 7.4336683557070242e-05 0 -0.032192618156008462 6.3452687037484536e-05 0 -0.032210004481979818 7.5144925800405113e-05 0 -0.032192618156008462 6.3452687037484536e-05 0 -0.032219232754294461 9.1774583367500566e-05 0 -0.032219232754294461 9.1774583367500566e-05 0 -0.03223647949009658 9.710074924732796e-05 0 -0.032228412887333927 0.00013337605365152692 0 -0.028843078526654554 0.00090373279958246738 0 -0.028073035426614525 0.00072488512046871116 0 -0.03223647949009658 9.710074924732796e-05 0 -0.032228412887333927 0.00013337605365152692 0 -0.032252336198501992 0.0001749957433764024 0 -0.032228412887333927 0.00013337605365152692 0 -0.032232730569515596 0.00012332741466347181 0 -0.03220824841667503 0.00018541678593376733 0 -0.032232730569515596 0.00012332741466347181 0 -0.03220824841667503 0.00018541678593376733 0 -0.032198113537072262 0.00019398976275109423 0 -0.032219232754294461 9.1774583367500566e-05 0 -0.032228412887333927 0.00013337605365152692 0 -0.032232730569515596 0.00012332741466347181 0 -0.032228573996169234 6.9444260124940205e-05 0 -0.032219232754294461 9.1774583367500566e-05 0 -0.032232730569515596 0.00012332741466347181 0 -0.031897416251989281 0.00019406645847212041 0 -0.031764395388132645 1.0151708004892136e-06 0 -0.031934143654512588 2.9530359253724364e-05 0 -0.033381660909198779 0.00060774724481584225 0 -0.033590461535727541 0.00096753891580996605 0 -0.033732272071963769 0.00062448956407573479 0 -0.032857356003969565 0.00038078306801885318 0 -0.03220315896991461 0.00075434908945875136 0 -0.031764395388132645 1.0151708004892136e-06 0 -0.031934143654512588 2.9530359253724364e-05 0 -0.031864937379221504 -6.8728941193815617e-05 0 -0.031897416251989281 0.00019406645847212041 0 -0.031934143654512588 2.9530359253724364e-05 0 -0.032047745917019449 0.00011850364317037495 0 -0.031934143654512588 2.9530359253724364e-05 0 -0.032047745917019449 0.00011850364317037495 0 -0.032047662618099236 1.6815737396656924e-05 0 -0.032133372953603197 -3.3493423043041149e-05 0 -0.03197805678564266 -0.00010549594926453183 0 -0.03198629580813582 -0.00027776214778480211 0 -0.028843078526654554 0.00090373279958246738 0 -0.028195592740627409 0.0010253391952352461 0 -0.031934143654512588 2.9530359253724364e-05 0 -0.032047662618099236 1.6815737396656924e-05 0 -0.03197805678564266 -0.00010549594926453183 0 -0.032133372953603197 -3.3493423043041149e-05 0 -0.032047662618099236 1.6815737396656924e-05 0 -0.03197805678564266 -0.00010549594926453183 0 -0.031934143654512588 2.9530359253724364e-05 0 -0.03197805678564266 -0.00010549594926453183 0 -0.031864937379221504 -6.8728941193815617e-05 0 -0.03197805678564266 -0.00010549594926453183 0 -0.031864937379221504 -6.8728941193815617e-05 0 -0.031783686677268774 -0.00020130771854189275 0 -0.031764395388132645 1.0151708004892136e-06 0 -0.031783686677268774 -0.00020130771854189275 0 -0.031639046476219457 -0.00020336544236493855 0 -0.031764395388132645 1.0151708004892136e-06 0 -0.031864937379221504 -6.8728941193815617e-05 0 -0.031783686677268774 -0.00020130771854189275 0 -0.031783686677268774 -0.00020130771854189275 0 -0.031823293538978288 -0.00034852095008620633 0 -0.03198629580813582 -0.00027776214778480211 0 -0.031783686677268774 -0.00020130771854189275 0 -0.031823293538978288 -0.00034852095008620633 0 -0.031690569564571572 -0.00036670581213823003 0 -0.03197805678564266 -0.00010549594926453183 0 -0.031783686677268774 -0.00020130771854189275 0 -0.03198629580813582 -0.00027776214778480211 0 -0.028195592740627409 0.0010253391952352461 0 -0.026452361483992146 0.0012036201188186852 0 -0.027512807581784503 0.00091364216662731003 0 -0.027601490294579992 0.00058394033992894027 0 -0.027324605444587542 0.00058831084364084846 0 -0.027512807581784503 0.00091364216662731003 0 -0.027601490294579992 0.00058394033992894027 0 -0.027651423994656758 0.00091148931584879203 0 -0.026454403958027568 0.00047272290198883098 0 -0.026452361483992146 0.0012036201188186852 0 -0.031830493164452245 -0.00055063200053645804 0 -0.031690569564571572 -0.00036670581213823003 0 -0.031615234381691552 -0.00055136509506409457 0 -0.031823293538978288 -0.00034852095008620633 0 -0.031830493164452245 -0.00055063200053645804 0 -0.031690569564571572 -0.00036670581213823003 0 -0.026452361483992146 0.0012036201188186852 0 -0.028054988670475567 0.0011412463443525138 0 -0.031823293538978288 -0.00034852095008620633 0 -0.03198629580813582 -0.00027776214778480211 0 -0.031830493164452245 -0.00055063200053645804 0 -0.027702504808694618 0.0012385109930052218 0 -0.027512807581784503 0.00091364216662731003 0 -0.027651423994656758 0.00091148931584879203 0 -0.032228412887333927 0.00013337605365152692 0 -0.03220824841667503 0.00018541678593376733 0 -0.032252336198501992 0.0001749957433764024 0 -0.03224717719830314 0.00022631461836325183 0 -0.03220824841667503 0.00018541678593376733 0 -0.032252336198501992 0.0001749957433764024 0 -0.026454403958027568 0.00047272290198883098 0 -0.028073035426614525 0.00072488512046871116 0 -0.03224717719830314 0.00022631461836325183 0 -0.03220824841667503 0.00018541678593376733 0 -0.032191246802605197 0.00022799939251964545 0 -0.03220824841667503 0.00018541678593376733 0 -0.032180876555131299 0.00019950991505880282 0 -0.032191246802605197 0.00022799939251964545 0 -0.032180876555131299 0.00019950991505880282 0 -0.032138716278292054 0.00023252773228232547 0 -0.032191246802605197 0.00022799939251964545 0 -0.03220824841667503 0.00018541678593376733 0 -0.032180876555131299 0.00019950991505880282 0 -0.032198113537072262 0.00019398976275109423 0 -0.032180876555131299 0.00019950991505880282 0 -0.032167807175377754 0.00019100566329534373 0 -0.032198113537072262 0.00019398976275109423 0 -0.031698898763735918 0.00063175316735151717 0 -0.029707376179632216 0.00074005591085706066 0 -0.031074799220189634 0.00021887651323133006 0 -0.023741044976920544 0.001681991397383403 0 -0.023957655302517963 0.0008630788659790326 0 -0.024917721398737123 0.0010601663530752793 0 -0.028317070368891605 -0.00055584356376960466 0 -0.02740442355544128 -3.785090226710677e-05 0 -0.028317070368891605 -0.00055584356376960466 0 -0.028326404042667078 -0.00055237272103173429 0 -0.028317070368891605 -0.00055584356376960466 0 -0.027558743363988131 0.00018317024635795611 0 -0.032180876555131299 0.00019950991505880282 0 -0.032167807175377754 0.00019100566329534373 0 -0.032152135650591836 0.0002072691752148538 0 -0.032180876555131299 0.00019950991505880282 0 -0.032152135650591836 0.0002072691752148538 0 -0.032138716278292054 0.00023252773228232547 0 -0.027558743363988131 0.00018317024635795611 0 -0.02674032718220546 0.00071787570262120621 0 -0.023957655302517963 0.0008630788659790326 0 -0.024514441714536369 0.00056293240355598435 0 -0.024176383363430524 2.6467704433641755e-05 0 -0.024514441714536369 0.00056293240355598435 0 -0.024917721398737123 0.0010601663530752793 0 -0.024833537691318592 7.9965815022577765e-06 0 -0.024917721398737123 0.0010601663530752793 0 -0.0255292710997061 -0.00012692379695854793 0 -0.024833537691318592 7.9965815022577765e-06 0 -0.024514441714536369 0.00056293240355598435 0 -0.024833537691318592 7.9965815022577765e-06 0 -0.024176383363430524 2.6467704433641755e-05 0 -0.023957655302517963 0.0008630788659790326 0 -0.024514441714536369 0.00056293240355598435 0 -0.024917721398737123 0.0010601663530752793 0 -0.026667566631924221 2.0342832528355161e-07 0 -0.02740442355544128 -3.785090226710677e-05 0 -0.026663349209498963 1.8042463464580504e-06 0 -0.024917721398737123 0.0010601663530752793 0 -0.0255292710997061 -0.00012692379695854793 0 -0.026669739335468661 2.8357104730027982e-06 0 -0.029707376179632216 0.00074005591085706066 0 -0.028698739699219131 -4.9872728264533604e-07 0 -0.029707376179632216 0.00074005591085706066 0 -0.031074799220189634 0.00021887651323133006 0 -0.028698739699219131 -4.9872728264533604e-07 0 -0.031074799220189634 0.00021887651323133006 0 -0.028698739699219131 -4.9872728264533604e-07 0 -0.03121312758658177 -6.7547795715295285e-05 0 -0.031404213016970439 -2.6826022126914472e-07 0 -0.028698739699219131 -4.9872728264533604e-07 0 -0.03121312758658177 -6.7547795715295285e-05 0 -0.031074799220189634 0.00021887651323133006 0 -0.03121312758658177 -6.7547795715295285e-05 0 -0.031947506983048969 2.6592254354748109e-05 0 -0.03285240570383513 7.3521372668956719e-05 0 -0.03121312758658177 -6.7547795715295285e-05 0 -0.031947506983048969 2.6592254354748109e-05 0 -0.03285240570383513 7.3521372668956719e-05 0 -0.031947506983048969 2.6592254354748109e-05 0 -0.032266314012840261 1.2799967210977388e-05 0 -0.031947506983048969 2.6592254354748109e-05 0 -0.032266314012840261 1.2799967210977388e-05 0 -0.031959681862908075 0.00014888317607851385 0 -0.032266314012840261 1.2799967210977388e-05 0 -0.032198113537072262 0.00019398976275109423 0 -0.031959681862908075 0.00014888317607851385 0 -0.032232730569515596 0.00012332741466347181 0 -0.032266314012840261 1.2799967210977388e-05 0 -0.032198113537072262 0.00019398976275109423 0 -0.031739476269661421 0.00060374948091571469 0 -0.032198113537072262 0.00019398976275109423 0 -0.031759963425874289 0.00049964406462911807 0 -0.032198113537072262 0.00019398976275109423 0 -0.031759963425874289 0.00049964406462911807 0 -0.031959681862908075 0.00014888317607851385 0 -0.028317070368891605 -0.00055584356376960466 0 -0.029255525162815144 -0.00078662373842665041 0 -0.031074799220189634 0.00021887651323133006 0 -0.031759963425874289 0.00049964406462911807 0 -0.031959681862908075 0.00014888317607851385 0 -0.031698898763735918 0.00063175316735151717 0 -0.031074799220189634 0.00021887651323133006 0 -0.031759963425874289 0.00049964406462911807 0 -0.031074799220189634 0.00021887651323133006 0 -0.031947506983048969 2.6592254354748109e-05 0 -0.031959681862908075 0.00014888317607851385 0 -0.032291058297154944 0.00041323671309638217 0 -0.03080188286736367 0.0014515440978744381 0 -0.034777241215323648 -0.00031799481020182175 0 -0.034823375195815187 -0.0013977082138387118 0 -0.034245500173323298 -0.00052376332670934936 0 -0.034938373678047571 8.6062350294805048e-05 0 -0.034951642158432071 6.6046121173800117e-05 0 -0.034956453896060995 0.00010976063556407299 0 -0.034938373678047571 8.6062350294805048e-05 0 -0.03493304847105904 0.00012253666126166068 0 -0.034956453896060995 0.00010976063556407299 0 -0.034938373678047571 8.6062350294805048e-05 0 -0.034916144888303989 0.00012281968902968146 0 -0.03493304847105904 0.00012253666126166068 0 -0.034938373678047571 8.6062350294805048e-05 0 -0.034939885230817605 4.9281109516563357e-05 0 -0.034948887514577531 4.6037199526912468e-05 0 -0.034938373678047571 8.6062350294805048e-05 0 -0.034939885230817605 4.9281109516563357e-05 0 -0.034951642158432071 6.6046121173800117e-05 0 -0.032291058297154944 0.00041323671309638217 0 -0.032739890396730587 0.00028871134082015685 0 -0.034939885230817605 4.9281109516563357e-05 0 -0.034951642158432071 6.6046121173800117e-05 0 -0.034892642533342302 5.3560646288640859e-05 0 -0.034777241215323648 -0.00031799481020182175 0 -0.034892642533342302 5.3560646288640859e-05 0 -0.034313448604160121 4.936356143395897e-05 0 -0.034892642533342302 5.3560646288640859e-05 0 -0.034999894938820948 1.1011238645469223e-07 0 -0.034959939654575264 3.3706786564101577e-05 0 -0.034892642533342302 5.3560646288640859e-05 0 -0.034999894938820948 1.1011238645469223e-07 0 -0.034733711182151704 6.5543318350483622e-05 0 -0.034999894938820948 1.1011238645469223e-07 0 -0.034959939654575264 3.3706786564101577e-05 0 -0.034999938070646851 -2.7569118738297743e-09 0 -0.034939885230817605 4.9281109516563357e-05 0 -0.034892642533342302 5.3560646288640859e-05 0 -0.034959939654575264 3.3706786564101577e-05 0 -0.034939885230817605 4.9281109516563357e-05 0 -0.034959939654575264 3.3706786564101577e-05 0 -0.034948887514577531 4.6037199526912468e-05 0 -0.034948887514577531 4.6037199526912468e-05 0 -0.034968068086003494 1.0113974106486293e-05 0 -0.034939823162813424 3.4621127672949482e-05 0 -0.034959939654575264 3.3706786564101577e-05 0 -0.034948887514577531 4.6037199526912468e-05 0 -0.034968068086003494 1.0113974106486293e-05 0 -0.034999938070646851 -2.7569118738297743e-09 0 -0.034968068086003494 1.0113974106486293e-05 0 -0.034999937483509901 9.0583107633559292e-09 0 -0.034959939654575264 3.3706786564101577e-05 0 -0.034999938070646851 -2.7569118738297743e-09 0 -0.034968068086003494 1.0113974106486293e-05 0 -0.034968068086003494 1.0113974106486293e-05 0 -0.034999937483509901 9.0583107633559292e-09 0 -0.034954895864429035 -7.633982405717512e-06 0 -0.034954895864429035 -7.633982405717512e-06 0 -0.034939823162813424 3.4621127672949482e-05 0 -0.034868546530564606 2.8607192179388037e-05 0 -0.034968068086003494 1.0113974106486293e-05 0 -0.034954895864429035 -7.633982405717512e-06 0 -0.034939823162813424 3.4621127672949482e-05 0 -0.034939823162813424 3.4621127672949482e-05 0 -0.034889114107709132 7.907088198162551e-05 0 -0.034868546530564606 2.8607192179388037e-05 0 -0.034889114107709132 7.907088198162551e-05 0 -0.03488439061