<?xml version="1.0"?>
<VTKFile type="UnstructuredGrid" version="0.1" byte_order="LittleEndian">
<UnstructuredGrid>
<Piece NumberOfPoints="31898" NumberOfCells="11152">
<Points>
<DataArray type="Float64" NumberOfComponents="3" format="ascii">
-0.5 -0.5 0 -0.47620991077874902 -0.44978878706170539 0 -0.49999999999999473 -0.42132396840504388 0 -0.5 -0.5 0 -0.47160970827802529 -0.4793630013852106 0 -0.47620991077874902 -0.44978878706170539 0 -0.5 -0.5 0 -0.47160970827802529 -0.4793630013852106 0 -0.44860394795025399 -0.5 0 -0.47160970827802529 -0.4793630013852106 0 -0.44860394795025399 -0.5 0 -0.4490820238307246 -0.45820516232899983 0 -0.44860394795025399 -0.5 0 -0.4490820238307246 -0.45820516232899983 0 -0.42881687682924802 -0.47781464288736519 0 -0.4490820238307246 -0.45820516232899983 0 -0.45555437223955858 -0.42914059360647611 0 -0.4490820238307246 -0.45820516232899983 0 -0.45555437223955858 -0.42914059360647611 0 -0.43867285131603428 -0.4271457417558665 0 -0.4490820238307246 -0.45820516232899983 0 -0.43867285131603428 -0.4271457417558665 0 -0.4263356171060747 -0.44269880333887462 0 -0.47160970827802529 -0.4793630013852106 0 -0.4490820238307246 -0.45820516232899983 0 -0.47620991077874902 -0.44978878706170539 0 -0.4490820238307246 -0.45820516232899983 0 -0.47620991077874902 -0.44978878706170539 0 -0.45555437223955858 -0.42914059360647611 0 -0.47620991077874902 -0.44978878706170539 0 -0.48101336032419229 -0.41069999664450008 0 -0.45555437223955858 -0.42914059360647611 0 -0.47620991077874902 -0.44978878706170539 0 -0.49999999999999473 -0.42132396840504388 0 -0.48101336032419229 -0.41069999664450008 0 -0.49999999999999473 -0.42132396840504388 0 -0.48101336032419229 -0.41069999664450008 0 -0.5 -0.393886241813306 0 -0.49999999999999473 -0.42132396840504388 0 -0.48101336032419229 -0.41069999664450008 0 -0.5 -0.393886241813306 0 -0.47854472220918332 -0.38978458738689759 0 -0.48422759779560409 -0.37130120630367158 0 -0.5 -0.393886241813306 0 -0.5 -0.36644851522156802 0 -0.48422759779560409 -0.37130120630367158 0 -0.48101336032419229 -0.41069999664450008 0 -0.5 -0.393886241813306 0 -0.47854472220918332 -0.38978458738689759 0 -0.48101336032419229 -0.41069999664450008 0 -0.47854472220918332 -0.38978458738689759 0 -0.46202672064839212 -0.40007602488395211 0 -0.48101336032419229 -0.41069999664450008 0 -0.46202672064839212 -0.40007602488395211 0 -0.47854472220918332 -0.38978458738689759 0 -0.46725442735267431 -0.37660061361585562 0 -0.46202672064839212 -0.40007602488395211 0 -0.47854472220918332 -0.38978458738689759 0 -0.46725442735267431 -0.37660061361585562 0 -0.48422759779560409 -0.37130120630367158 0 -0.46725442735267431 -0.37660061361585562 0 -0.46202672064839212 -0.40007602488395211 0 -0.46725442735267431 -0.37660061361585562 0 -0.45645674801697989 -0.38644133236760531 0 -0.46202672064839212 -0.40007602488395211 0 -0.46725442735267431 -0.37660061361585562 0 -0.45645674801697989 -0.38644133236760531 0 -0.4540003998136638 -0.37455519391687309 0 -0.45645674801697989 -0.38644133236760531 0 -0.46202672064839212 -0.40007602488395211 0 -0.44257020456291563 -0.38918913383950271 0 -0.46202672064839212 -0.40007602488395211 0 -0.44257020456291563 -0.38918913383950271 0 -0.44727608925983742 -0.41095911152778891 0 -0.46202672064839212 -0.40007602488395211 0 -0.44257020456291563 -0.38918913383950271 0 -0.44257020456291563 -0.38918913383950271 0 -0.44727608925983742 -0.41095911152778891 0 -0.43479358559901082 -0.4041454901736512 0 -0.44257020456291563 -0.38918913383950271 0 -0.4540003998136638 -0.37455519391687309 0 -0.44172858264042247 -0.37082207246888088 0 -0.45645674801697989 -0.38644133236760531 0 -0.44257020456291563 -0.38918913383950271 0 -0.4540003998136638 -0.37455519391687309 0 -0.46202672064839212 -0.40007602488395211 0 -0.45555437223955858 -0.42914059360647611 0 -0.44727608925983742 -0.41095911152778891 0 -0.46202672064839212 -0.40007602488395211 0 -0.45555437223955858 -0.42914059360647611 0 -0.48101336032419229 -0.41069999664450008 0 -0.46202672064839212 -0.40007602488395211 0 -0.45555437223955858 -0.42914059360647611 0 -0.44727608925983742 -0.41095911152778891 0 -0.43867285131603428 -0.4271457417558665 0 -0.43676601469929588 -0.41441201227470881 0 -0.44727608925983742 -0.41095911152778891 0 -0.43676601469929588 -0.41441201227470881 0 -0.43479358559901082 -0.4041454901736512 0 -0.45555437223955858 -0.42914059360647611 0 -0.44727608925983742 -0.41095911152778891 0 -0.43867285131603428 -0.4271457417558665 0 -0.43867285131603428 -0.4271457417558665 0 -0.42681803064840879 -0.42717069814352421 0 -0.4263356171060747 -0.44269880333887462 0 -0.42681803064840879 -0.42717069814352421 0 -0.41531815884496182 -0.42985383783075998 0 -0.4263356171060747 -0.44269880333887462 0 -0.42681803064840879 -0.42717069814352421 0 -0.42624289495594048 -0.42089725947505818 0 -0.42083332353326591 -0.42146747131641099 0 -0.42681803064840879 -0.42717069814352421 0 -0.43096994786351572 -0.41951492446283251 0 -0.42624289495594048 -0.42089725947505818 0 -0.43867285131603428 -0.4271457417558665 0 -0.42681803064840879 -0.42717069814352421 0 -0.43096994786351572 -0.41951492446283251 0 -0.43867285131603428 -0.4271457417558665 0 -0.43676601469929588 -0.41441201227470881 0 -0.43096994786351572 -0.41951492446283251 0 -0.43676601469929588 -0.41441201227470881 0 -0.43096994786351572 -0.41951492446283251 0 -0.42907264086257813 -0.41311715872526122 0 -0.43676601469929588 -0.41441201227470881 0 -0.42907264086257813 -0.41311715872526122 0 -0.43479358559901082 -0.4041454901736512 0 -0.42907264086257813 -0.41311715872526122 0 -0.43479358559901082 -0.4041454901736512 0 -0.42460885511582858 -0.40417321677700252 0 -0.42907264086257813 -0.41311715872526122 0 -0.41997834854398469 -0.41180534796019508 0 -0.42907264086257813 -0.41311715872526122 0 -0.42635027777857132 -0.41543594397746519 0 -0.41997834854398469 -0.41180534796019508 0 -0.42907264086257813 -0.41311715872526122 0 -0.41997834854398469 -0.41180534796019508 0 -0.42460885511582858 -0.40417321677700252 0 -0.42635027777857132 -0.41543594397746519 0 -0.41997834854398469 -0.41180534796019508 0 -0.42635027777857132 -0.41543594397746519 0 -0.42083332353326591 -0.42146747131641099 0 -0.41997834854398469 -0.41180534796019508 0 -0.43096994786351572 -0.41951492446283251 0 -0.42624289495594048 -0.42089725947505818 0 -0.42635027777857132 -0.41543594397746519 0 -0.43096994786351572 -0.41951492446283251 0 -0.42907264086257813 -0.41311715872526122 0 -0.42635027777857132 -0.41543594397746519 0 -0.42624289495594048 -0.42089725947505818 0 -0.42635027777857132 -0.41543594397746519 0 -0.42083332353326591 -0.42146747131641099 0 -0.42083332353326591 -0.42146747131641099 0 -0.41997834854398469 -0.41180534796019508 0 -0.40992282953163789 -0.42011435591993562 0 -0.41997834854398469 -0.41180534796019508 0 -0.39756877647335259 -0.40857286797681719 0 -0.41997834854398469 -0.41180534796019508 0 -0.40992282953163789 -0.42011435591993562 0 -0.39756877647335259 -0.40857286797681719 0 -0.40992282953163789 -0.42011435591993562 0 -0.41531815884496182 -0.42985383783075998 0 -0.39591554026262499 -0.42887225451549271 0 -0.41531815884496182 -0.42985383783075998 0 -0.39591554026262499 -0.42887225451549271 0 -0.41160927495564159 -0.44339431233754628 0 -0.42083332353326591 -0.42146747131641099 0 -0.40992282953163789 -0.42011435591993562 0 -0.41531815884496182 -0.42985383783075998 0 -0.42681803064840879 -0.42717069814352421 0 -0.42083332353326591 -0.42146747131641099 0 -0.41531815884496182 -0.42985383783075998 0 -0.44257020456291563 -0.38918913383950271 0 -0.42311368847744002 -0.37830224279505142 0 -0.42594061475171041 -0.39368797999533162 0 -0.44257020456291563 -0.38918913383950271 0 -0.42311368847744002 -0.37830224279505142 0 -0.44172858264042247 -0.37082207246888088 0 -0.44257020456291563 -0.38918913383950271 0 -0.42311368847744002 -0.37830224279505142 0 -0.42311368847744002 -0.37830224279505142 0 -0.42594061475171041 -0.39368797999533162 0 -0.416587075656149 -0.38785930376960043 0 -0.44257020456291563 -0.38918913383950271 0 -0.42594061475171041 -0.39368797999533162 0 -0.43479358559901082 -0.4041454901736512 0 -0.42594061475171041 -0.39368797999533162 0 -0.43479358559901082 -0.4041454901736512 0 -0.42460885511582858 -0.40417321677700252 0 -0.41997834854398469 -0.41180534796019508 0 -0.41325908582185972 -0.39811010703057192 0 -0.39770572831670092 -0.39911486077581648 0 -0.41997834854398469 -0.41180534796019508 0 -0.39770572831670092 -0.39911486077581648 0 -0.42594061475171041 -0.39368797999533162 0 -0.42460885511582858 -0.40417321677700252 0 -0.41325908582185972 -0.39811010703057192 0 -0.41997834854398469 -0.41180534796019508 0 -0.42460885511582858 -0.40417321677700252 0 -0.41325908582185972 -0.39811010703057192 0 -0.42594061475171041 -0.39368797999533162 0 -0.41325908582185972 -0.39811010703057192 0 -0.416587075656149 -0.38785930376960043 0 -0.41325908582185972 -0.39811010703057192 0 -0.416587075656149 -0.38785930376960043 0 -0.40403491357358612 -0.38133688525744702 0 -0.42311368847744002 -0.37830224279505142 0 -0.40403491357358612 -0.38133688525744702 0 -0.40365717239196519 -0.36741535175059892 0 -0.42311368847744002 -0.37830224279505142 0 -0.416587075656149 -0.38785930376960043 0 -0.40403491357358612 -0.38133688525744702 0 -0.40403491357358612 -0.38133688525744702 0 -0.39190790742475001 -0.38540387676521748 0 -0.39770572831670092 -0.39911486077581648 0 -0.40403491357358612 -0.38133688525744702 0 -0.39190790742475001 -0.38540387676521748 0 -0.3904578797192948 -0.37473938743617019 0 -0.41325908582185972 -0.39811010703057192 0 -0.40403491357358612 -0.38133688525744702 0 -0.39770572831670092 -0.39911486077581648 0 -0.39770572831670092 -0.39911486077581648 0 -0.37543310808941849 -0.38642437359143528 0 -0.39770572831670092 -0.39911486077581648 0 -0.37515920440272033 -0.40534038799344108 0 -0.37543310808941849 -0.38642437359143528 0 -0.39770572831670092 -0.39911486077581648 0 -0.37515920440272033 -0.40534038799344108 0 -0.39756877647335259 -0.40857286797681719
[...]
<PointData Scalars="" Vectors="displacement," Tensors="">
<DataArray type="Float64" Name="displacement" NumberOfComponents="3" format="ascii">
-0.034997491812638851 -0.034998033854861173 0 -0.032633791823873763 -0.03438265521492824 0 -0.029503263506907053 -0.034995345936520088 0 -0.034997491812638851 -0.034998033854861173 0 -0.034447753808517535 -0.033730438866613338 0 -0.032633791823873763 -0.03438265521492824 0 -0.034997491812638851 -0.034998033854861173 0 -0.034447753808517535 -0.033730438866613338 0 -0.034998040324572245 -0.031405322668441857 0 -0.034447753808517535 -0.033730438866613338 0 -0.034998040324572245 -0.031405322668441857 0 -0.034669450687659531 -0.033263288963546633 0 -0.034998040324572245 -0.031405322668441857 0 -0.034669450687659531 -0.033263288963546633 0 -0.035118462880471393 -0.030758822473390752 0 -0.03400445403713151 -0.034213221881557183 0 -0.033896098289241894 -0.034493276199851382 0 -0.034669450687659531 -0.033263288963546633 0 -0.037779554315931656 -0.03364278170494845 0 -0.038019851521357471 -0.032073841168495792 0 -0.034669450687659531 -0.033263288963546633 0 -0.038019851521357471 -0.032073841168495792 0 -0.03670268290194157 -0.030882983033295602 0 -0.034447753808517535 -0.033730438866613338 0 -0.034669450687659531 -0.033263288963546633 0 -0.032633791823873763 -0.03438265521492824 0 -0.034669450687659531 -0.033263288963546633 0 -0.032633791823873763 -0.03438265521492824 0 -0.031841359319445976 -0.034996964992089562 0 -0.032633791823873763 -0.03438265521492824 0 -0.030360259819770793 -0.034633169151018446 0 -0.031841359319445976 -0.034996964992089562 0 -0.032633791823873763 -0.03438265521492824 0 -0.029503263506907053 -0.034995345936520088 0 -0.030360259819770793 -0.034633169151018446 0 -0.02949267010466973 -0.034999996573190216 0 -0.028748322466400619 -0.036321677374467953 0 -0.027572041106481589 -0.034999995324530381 0 -0.029493786052706087 -0.03500049380583551 0 -0.03000767212242636 -0.035191318892491816 0 -0.027572041106481589 -0.034999995324530381 0 -0.027287276766165092 -0.036493266706121581 0 -0.025993030533153074 -0.036098006258574067 0 -0.027572041106481589 -0.034999995324530381 0 -0.025651398518244797 -0.034999994308313617 0 -0.025993030533153074 -0.036098006258574067 0 -0.028748322466400619 -0.036321677374467953 0 -0.027572041106481589 -0.034999995324530381 0 -0.027287276766165092 -0.036493266706121581 0 -0.028748322466400619 -0.036321677374467953 0 -0.027287276766165092 -0.036493266706121581 0 -0.028008904509532292 -0.037640533014009055 0 -0.03000767212242636 -0.035191318892491816 0 -0.031096471712113504 -0.034597320897681673 0 -0.027287276766165092 -0.036493266706121581 0 -0.026365896732354111 -0.037280051881069989 0 -0.028008904509532292 -0.037640533014009055 0 -0.027287276766165092 -0.036493266706121581 0 -0.026365896732354111 -0.037280051881069989 0 -0.025993030533153074 -0.036098006258574067 0 -0.026631330937132672 -0.035473185193431546 0 -0.031096471712113504 -0.034597320897681673 0 -0.024464189188871169 -0.037028036941095979 0 -0.024442379354372646 -0.037052445212174892 0 -0.024454384813724233 -0.037050203974156017 0 -0.024464189188871169 -0.037028036941095979 0 -0.024442379354372646 -0.037052445212174892 0 -0.024404443304478662 -0.037073682759413452 0 -0.024442379354372646 -0.037052445212174892 0 -0.024454384813724233 -0.037050203974156017 0 -0.024422236936787776 -0.037057271181325277 0 -0.040043389194547446 -0.033874837713079954 0 -0.040717694916777146 -0.03236863903859994 0 -0.039246310764640788 -0.032787659067898302 0 -0.031096471712113504 -0.034597320897681673 0 -0.031461449326486132 -0.034017675967520679 0 -0.040717694916777146 -0.03236863903859994 0 -0.039246310764640788 -0.032787659067898302 0 -0.039717069658626036 -0.031823508317205741 0 -0.024422236936787776 -0.037057271181325277 0 -0.024404443304478662 -0.037073682759413452 0 -0.024390665386535344 -0.037058417410262993 0 -0.024442379354372646 -0.037052445212174892 0 -0.024422236936787776 -0.037057271181325277 0 -0.024404443304478662 -0.037073682759413452 0 -0.040043389194547446 -0.033874837713079954 0 -0.037779554315931656 -0.03364278170494845 0 -0.039246310764640788 -0.032787659067898302 0 -0.031096471712113504 -0.034597320897681673 0 -0.033896098289241894 -0.034493276199851382 0 -0.030360259819770793 -0.034633169151018446 0 -0.030203051280931446 -0.035164027911670469 0 -0.031841359319445976 -0.034996964992089562 0 -0.039246310764640788 -0.032787659067898302 0 -0.038019851521357471 -0.032073841168495792 0 -0.039003327334383102 -0.031950064872707191 0 -0.039246310764640788 -0.032787659067898302 0 -0.039003327334383102 -0.031950064872707191 0 -0.039717069658626036 -0.031823508317205741 0 -0.037779554315931656 -0.03364278170494845 0 -0.039246310764640788 -0.032787659067898302 0 -0.038019851521357471 -0.032073841168495792 0 -0.038019851521357471 -0.032073841168495792 0 -0.037989089620929339 -0.031047767933128839 0 -0.03670268290194157 -0.030882983033295602 0 -0.037989089620929339 -0.031047767933128839 0 -0.037763428687130125 -0.030092358481577635 0 -0.03670268290194157 -0.030882983033295602 0 -0.037989089620929339 -0.031047767933128839 0 -0.038495893573108925 -0.031039330139148832 0 -0.038443389313597774 -0.03057162170269034 0 -0.037989089620929339 -0.031047767933128839 0 -0.038613395760835702 -0.031460159633744288 0 -0.038495893573108925 -0.031039330139148832 0 -0.038019851521357471 -0.032073841168495792 0 -0.037989089620929339 -0.031047767933128839 0 -0.038613395760835702 -0.031460159633744288 0 -0.038019851521357471 -0.032073841168495792 0 -0.039003327334383102 -0.031950064872707191 0 -0.038613395760835702 -0.031460159633744288 0 -0.039003327334383102 -0.031950064872707191 0 -0.038613395760835702 -0.031460159633744288 0 -0.039140437222885432 -0.031366241971260304 0 -0.039003327334383102 -0.031950064872707191 0 -0.039140437222885432 -0.031366241971260304 0 -0.039717069658626036 -0.031823508317205741 0 -0.039140437222885432 -0.031366241971260304 0 -0.039717069658626036 -0.031823508317205741 0 -0.039708208174747815 -0.031155782112492141 0 -0.037881718776394159 -0.029241307830458411 0 -0.037863116438171945 -0.028996044829042434 0 -0.039140437222885432 -0.031366241971260304 0 -0.038938857153469918 -0.031080086110954881 0 -0.039309002527419055 -0.030441061359084587 0 -0.039140437222885432 -0.031366241971260304 0 -0.039267096744379788 -0.03087744066219799 0 -0.039708208174747815 -0.031155782112492141 0 -0.037856214630153685 -0.029092281822142574 0 -0.037863116438171945 -0.028996044829042434 0 -0.038938857153469918 -0.031080086110954881 0 -0.038443389313597774 -0.03057162170269034 0 -0.039243016795996948 -0.030502098484499338 0 -0.038613395760835702 -0.031460159633744288 0 -0.038495893573108925 -0.031039330139148832 0 -0.038938857153469918 -0.031080086110954881 0 -0.038613395760835702 -0.031460159633744288 0 -0.039140437222885432 -0.031366241971260304 0 -0.038938857153469918 -0.031080086110954881 0 -0.038495893573108925 -0.031039330139148832 0 -0.038938857153469918 -0.031080086110954881 0 -0.038443389313597774 -0.03057162170269034 0 -0.038443389313597774 -0.03057162170269034 0 -0.039243016795996948 -0.030502098484499338 0 -0.038552722093580155 -0.029671667607341922 0 -0.037863116438171945 -0.028996044829042434 0 -0.038088233295499256 -0.027734680068391211 0 -0.039243016795996948 -0.030502098484499338 0 -0.038552722093580155 -0.029671667607341922 0 -0.039472310240148016 -0.028679230381871288 0 -0.038552722093580155 -0.029671667607341922 0 -0.037763428687130125 -0.030092358481577635 0 -0.037857107056698869 -0.028552392549517549 0 -0.037763428687130125 -0.030092358481577635 0 -0.037857107056698869 -0.028552392549517549 0 -0.036716307005589449 -0.029790200776820833 0 -0.038443389313597774 -0.03057162170269034 0 -0.038552722093580155 -0.029671667607341922 0 -0.037763428687130125 -0.030092358481577635 0 -0.037989089620929339 -0.031047767933128839 0 -0.038443389313597774 -0.03057162170269034 0 -0.037763428687130125 -0.030092358481577635 0 -0.040717694916777146 -0.03236863903859994 0 -0.0412112704940584 -0.031086779674011373 0 -0.040348376304419398 -0.03126002324808818 0 -0.024422236936787776 -0.037057271181325277 0 -0.024386527864965275 -0.037017926842391011 0 -0.024390665386535344 -0.037058417410262993 0 -0.031461449326486132 -0.034017675967520679 0 -0.03147337637798734 -0.032934519222411786 0 -0.0412112704940584 -0.031086779674011373 0 -0.040348376304419398 -0.03126002324808818 0 -0.040649847572612217 -0.030710592055345601 0 -0.040717694916777146 -0.03236863903859994 0 -0.040348376304419398 -0.03126002324808818 0 -0.039717069658626036 -0.031823508317205741 0 -0.040348376304419398 -0.03126002324808818 0 -0.039717069658626036 -0.031823508317205741 0 -0.039708208174747815 -0.031155782112492141 0 -0.039267096744379788 -0.03087744066219799 0 -0.040071436756922069 -0.030513524076053532 0 -0.040037967706936115 -0.029672911427884207 0 -0.037863116438171945 -0.028996044829042434 0 -0.037683259088626977 -0.027729040454537578 0 -0.040348376304419398 -0.03126002324808818 0 -0.039708208174747815 -0.031155782112492141 0 -0.040071436756922069 -0.030513524076053532 0 -0.039267096744379788 -0.03087744066219799 0 -0.039708208174747815 -0.031155782112492141 0 -0.040071436756922069 -0.030513524076053532 0 -0.040348376304419398 -0.03126002324808818 0 -0.040071436756922069 -0.030513524076053532 0 -0.040649847572612217 -0.030710592055345601 0 -0.040071436756922069 -0.030513524076053532 0 -0.040649847572612217 -0.030710592055345601 0 -0.040963805378369827 -0.029996258697547136 0 -0.0412112704940584 -0.031086779674011373 0 -0.040963805378369827 -0.029996258697547136 0 -0.041746382532427503 -0.029977340878277987 0 -0.0412112704940584 -0.031086779674011373 0 -0.040649847572612217 -0.030710592055345601 0 -0.040963805378369827 -0.029996258697547136 0 -0.040963805378369827 -0.029996258697547136 0 -0.040729681785592747 -0.029406799494060464 0 -0.040037967706936115 -0.029672911427884207 0 -0.040963805378369827 -0.029996258697547136 0 -0.040729681785592747 -0.029406799494060464 0 -0.041224792466898419 -0.029344774586685926 0 -0.040071436756922069 -0.030513524076053532 0 -0.040963805378369827 -0.029996258697547136 0 -0.040037967706936115 -0.029672911427884207 0 -0.037683259088626977 -0.027729040454537578 0 -0.036839953842686152 -0.025879922982876807 0 -0.037918880596261993 -0.027311034489508893 0 -0.037630101048261921 -0.026265240434805982 0 -0.038502994604857531 -0.026277249155237107 0 -0.037918880596261993 -0.027311034489508893 0 -0.037630101048261921 -0.026265240434805982 0 -0.037481010051362541 -0.027305231246702397 0 -0.038195969704896506 -0.02598084600506587 0 -0.036839953842686152 -0.025879922982876807 0 -0.040680839684324885 -0.028633777789450886 0 -0.041224792466898419 -0.029344774586685926 0 -0.041463327701280271 -0.028669709688601802 0 -0.040729681785592747 -0.029406799494060464 0 -0.040680839684324885 -0.028633777789450886 0 -0.041224792466898419 -0.029344774586685926 0 -0.036839953842686152 -0.025879922982876807 0 -0.034897997666505975 -0.026521368612823684 0 -0.040729681785592747 -0.029406799494060464 0 -0.040037967706936115 -0.029672911427884207 0 -0.040680839684324885 -0.028633777789450886 0 -0.037333149264401545 -0.028348949827306267 0 -0.037918880596261993 -0.027311034489508893 0 -0.037481010051362541 -0.027305231246702397 0 -0.038552722093580155 -0.029671667607341922 0 -0.037857107056698869 -0.028552392549517549 0 -0.039472310240148016 -0.028679230381871288 0 -0.039722167749774932 -0.026905337693318435 0 -0.037857107056698869 -0.028552392549517549 0 -0.039472310240148016 -0.028679230381871288 0 -0.038195969704896506 -0.02598084600506587 0 -0.038088233295499256 -0.027734680068391211 0 -0.039722167749774932 -0.026905337693318435 0 -0.037857107056698869 -0.028552392549517549 0 -0.037339868312099261 -0.026879677153906458 0 -0.037857107056698869 -0.028552392549517549 0 -0.036468122163640163 -0.0283221477860152 0 -0.037339868312099261 -0.026879677153906458 0 -0.036468122163640163 -0.0283221477860152 0 -0.034976058077838997 -0.026848777227175366 0 -0.037339868312099261 -0.026879677153906458 0 -0.037857107056698869 -0.028552392549517549 0 -0.036468122163640163 -0.0283221477860152 0 -0.036716307005589449 -0.029790200776820833 0 -0.036468122163640163 -0.0283221477860152 0 -0.035605714382558849 -0.029183394479886805 0 -0.036716307005589449 -0.029790200776820833 0 -0.036064504495368951 -0.029295949965617723 0 -0.035607100245965882 -0.028160723013629853 0 -0.035593154431516429 -0.029611242083343418 0 -0.037914079538994463 -0.02822253625343819 0 -0.037642027170871818 -0.027215212775405825 0 -0.036470056342040869 -0.027445592112483659 0 -0.036708639950397484 -0.02780957535602328 0 -0.035902014394969081 -0.027353517998099416 0 -0.036708639950397484 -0.02780957535602328 0 -0.036709494430387429 -0.027823736608635668 0 -0.036708639950397484 -0.02780957535602328 0 -0.036721201072650228 -0.027227778523269245 0 -0.036468122163640163 -0.0283221477860152 0 -0.035605714382558849 -0.029183394479886805 0 -0.035291257609235162 -0.028015220236010437 0 -0.036468122163640163 -0.0283221477860152 0 -0.035291257609235162 -0.028015220236010437 0 -0.034976058077838997 -0.026848777227175366 0 -0.036721201072650228 -0.027227778523269245 0 -0.036729610042242476 -0.026372007040188331 0 -0.037642027170871818 -0.027215212775405825 0 -0.036959310404862805 -0.026850587728537274 0 -0.037369781431055335 -0.026201557848494133 0 -0.036959310404862805 -0.026850587728537274 0 -0.036470056342040869 -0.027445592112483659 0 -0.036568967378150428 -0.026186246528129838 0 -0.036470056342040869 -0.027445592112483659 0 -0.035711146220182628 -0.026067359262709804 0 -0.036568967378150428 -0.026186246528129838 0 -0.036959310404862805 -0.026850587728537274 0 -0.036568967378150428 -0.026186246528129838 0 -0.037369781431055335 -0.026201557848494133 0 -0.037642027170871818 -0.027215212775405825 0 -0.036959310404862805 -0.026850587728537274 0 -0.036470056342040869 -0.027445592112483659 0 -0.035000686878617654 -0.026667140247947356 0 -0.035902014394969081 -0.027353517998099416 0 -0.035000002951299888 -0.026666265436442869 0 -0.036470056342040869 -0.027445592112483659 0 -0.035711146220182628 -0.026067359262709804 0 -0.034999887599868815 -0.026667485499939057 0 -0.035607100245965882 -0.028160723013629853 0 -0.034999134209778862 -0.028699059495911755 0 -0.035607100245965882 -0.028160723013629853 0 -0.035593154431516429 -0.029611242083343418 0 -0.034999134209778862 -0.028699059495911755 0 -0.035593154431516429 -0.029611242083343418 0 -0.034999134209778862 -0.028699059495911755 0 -0.035118462880471393 -0.030758822473390752 0 -0.034998040324572245 -0.031405322668441857 0 -0.034999134209778862 -0.028699059495911755 0 -0.035118462880471393 -0.030758822473390752 0 -0.035593154431516429 -0.029611242083343418 0 -0.035118462880471393 -0.030758822473390752 0 -0.035538073508683023 -0.030833518808328405 0 -0.034669450687659531 -0.033263288963546633 0 -0.035118462880471393 -0.030758822473390752 0 -0.035538073508683023 -0.030833518808328405 0 -0.034669450687659531 -0.033263288963546633 0 -0.035538073508683023 -0.030833518808328405 0 -0.03670268290194157 -0.030882983033295602 0 -0.035538073508683023 -0.030833518808328405 0 -0.03670268290194157 -0.030882983033295602 0 -0.036079264400780332 -0.03008287290617918 0 -0.03670268290194157 -0.030882983033295602 0 -0.036716307005589449 -0.029790200776820833 0 -0.036079264400780332 -0.03008287290617918 0 -0.037763428687130125 -0.030092358481577635 0 -0.03670268290194157 -0.030882983033295602 0 -0.036716307005589449 -0.029790200776820833 0 -0.036026386978863213 -0.029299331525948109 0 -0.036716307005589449 -0.029790200776820833 0 -0.036058188206431745 -0.029439581224434536 0 -0.036716307005589449 -0.029790200776820833 0 -0.036058188206431745 -0.029439581224434536 0 -0.036079264400780332 -0.03008287290617918 0 -0.036708639950397484 -0.02780957535602328 0 -0.036789141788937163 -0.028041977073372113 0 -0.035593154431516429 -0.029611242083343418 0 -0.036058188206431745 -0.029439581224434536 0 -0.036079264400780332 -0.03008287290617918 0 -0.036064504495368951 -0.029295949965617723 0 -0.035593154431516429 -0.029611242083343418 0 -0.036058188206431745 -0.029439581224434536 0 -0.035593154431516429 -0.029611242083343418 0 -0.035538073508683023 -0.030833518808328405 0 -0.036079264400780332 -0.03008287290617918 0 -0.014937658548925875 -0.036741695664153994 0 -0.013332021703012438 -0.034785311165674224 0 -0.017637787145476955 -0.037852113025488986 0 -0.017542172070037911 -0.040008617469661445 0 -0.01640066944113816 -0.038367708698672683 0 -0.019236531038607212 -0.038312520296210663 0 -0.017908017960798238 -0.037869558517875983 0 -0.017793502520679134 -0.039373705693969661 0 -0.019236531038607212 -0.038312520296210663 0 -0.019164246114380133 -0.039620020646209321 0 -0.017793502520679134 -0.039373705693969661 0 -0.019236531038607212 -0.038312520296210663 0 -0.020446972787401343 -0.038880053292450756 0 -0.019164246114380133 -0.039620020646209321 0 -0.019236531038607212 -0.038312520296210663 0 -0.018732986216081354 -0.037152664694128784 0 -0.019781525458362689 -0.037021093607280647 0 -0.019236531038607212 -0.038312520296210663 0 -0.018732986216081354 -0.037152664694128784 0 -0.017908017960798238 -0.037869558517875983 0 -0.014937658548925875 -0.036741695664153994 0 -0.015461487192559306 -0.03666206085862353 0 -0.018732986216081354 -0.037152664694128784 0 -0.017908017960798238 -0.037869558517875983 0 -0.017952269453501739 -0.036300432068854256 0 -0.017637787145476955 -0.037852113025488986 0 -0.017952269453501739 -0.036300432068854256 0 -0.016154680144183045 -0.036690023759641581 0 -0.017952269453501739 -0.036300432068854256 0 -0.017968689185676519 -0.034999703041972224 0 -0.019153080236386726 -0.036035125784652913 0 -0.017952269453501739 -0.036300432068854256 0 -0.017968689185676519 -0.034999703041972224 0 -0.016795665158995669 -0.035688823294612031 0 -0.017968689185676519 -0.034999703041972224 0 -0.019153080236386726 -0.036035125784652913 0 -0.019889421896622867 -0.034999965983815669 0 -0.018732986216081354 -0.037152664694128784 0 -0.017952269453501739 -0.036300432068854256 0 -0.019153080236386726 -0.036035125784652913 0 -0.018732986216081354 -0.037152664694128784 0 -0.019153080236386726 -0.036035125784652913 0 -0.019781525458362689 -0.037021093607280647 0 -0.019781525458362689 -0.037021093607280647 0 -0.020410113044581783 -0.035925303450846116 0 -0.020857922077480408 -0.036856301835209 0 -0.019153080236386726 -0.036035125784652913 0 -0.019781525458362689 -0.037021093607280647 0 -0.020410113044581783 -0.035925303450846116 0 -0.019889421896622867 -0.034999965983815669 0 -0.020410113044581783 -0.035925303450846116 0 -0.021810049655543451 -0.034999948282521127 0 -0.019153080236386726 -0.036035125784652913 0 -0.019889421896622867 -0.034999965983815669 0 -0.020410113044581783 -0.035925303450846116 0 -0.020410113044581783 -0.035925303450846116 0 -0.021810049655543451 -0.034999948282521127 0 -0.021397994673943231 -0.036133246296940473 0 -0.021397994673943231 -0.036133246296940473 0 -0.020857922077480408 -0.036856301835209 0 -0.021974673559640081 -0.036816734903851962 0 -0.020410113044581783 -0.035925303450846116 0 -0.021397994673943231 -0.036133246296940473 0 -0.020857922077480408 -0.036856301835209 0 -0.020857922077480408 -0.036856301835209 0 -0.021409240156357499 -0.037545422274730386 0 -0.021974673559640081 -0.036816734903851962 0 -0.021409240156357499 -0.037545422274730386 0 -0.021191943000119506 -0.038458810185190637 0 -0.021902941167418914 -0.038109010418119198 0 -0.021409240156357499 -0.037545422274730386 0 -0.020465642000357179 -0.037839201950525148 0 -0.021191943000119506 -0.038458810185190637 0 -0.020857922077480408 -0.036856301835209 0 -0.021409240156357499 -0.037545422274730386 0 -0.020465642000357179 -0.037839201950525148 0 -0.019236531038607212 -0.038312520296210663 0 -0.019781525458362689 -0.037021093607280647 0 -0.020465642000357179 -0.037839201950525148 0 -0.019781525458362689 -0.0370