<?xml version="1.0"?>
<VTKFile type="UnstructuredGrid" version="0.1" byte_order="LittleEndian">
<UnstructuredGrid>
<Piece NumberOfPoints="31898" NumberOfCells="11152">
<Points>
<DataArray type="Float64" NumberOfComponents="3" format="ascii">
-0.5 -0.5 0 -0.47620991077874902 -0.44978878706170539 0 -0.49999999999999473 -0.42132396840504388 0 -0.5 -0.5 0 -0.47160970827802529 -0.4793630013852106 0 -0.47620991077874902 -0.44978878706170539 0 -0.5 -0.5 0 -0.47160970827802529 -0.4793630013852106 0 -0.44860394795025399 -0.5 0 -0.47160970827802529 -0.4793630013852106 0 -0.44860394795025399 -0.5 0 -0.4490820238307246 -0.45820516232899983 0 -0.44860394795025399 -0.5 0 -0.4490820238307246 -0.45820516232899983 0 -0.42881687682924802 -0.47781464288736519 0 -0.4490820238307246 -0.45820516232899983 0 -0.45555437223955858 -0.42914059360647611 0 -0.4490820238307246 -0.45820516232899983 0 -0.45555437223955858 -0.42914059360647611 0 -0.43867285131603428 -0.4271457417558665 0 -0.4490820238307246 -0.45820516232899983 0 -0.43867285131603428 -0.4271457417558665 0 -0.4263356171060747 -0.44269880333887462 0 -0.47160970827802529 -0.4793630013852106 0 -0.4490820238307246 -0.45820516232899983 0 -0.47620991077874902 -0.44978878706170539 0 -0.4490820238307246 -0.45820516232899983 0 -0.47620991077874902 -0.44978878706170539 0 -0.45555437223955858 -0.42914059360647611 0 -0.47620991077874902 -0.44978878706170539 0 -0.48101336032419229 -0.41069999664450008 0 -0.45555437223955858 -0.42914059360647611 0 -0.47620991077874902 -0.44978878706170539 0 -0.49999999999999473 -0.42132396840504388 0 -0.48101336032419229 -0.41069999664450008 0 -0.49999999999999473 -0.42132396840504388 0 -0.48101336032419229 -0.41069999664450008 0 -0.5 -0.393886241813306 0 -0.49999999999999473 -0.42132396840504388 0 -0.48101336032419229 -0.41069999664450008 0 -0.5 -0.393886241813306 0 -0.47854472220918332 -0.38978458738689759 0 -0.48422759779560409 -0.37130120630367158 0 -0.5 -0.393886241813306 0 -0.5 -0.36644851522156802 0 -0.48422759779560409 -0.37130120630367158 0 -0.48101336032419229 -0.41069999664450008 0 -0.5 -0.393886241813306 0 -0.47854472220918332 -0.38978458738689759 0 -0.48101336032419229 -0.41069999664450008 0 -0.47854472220918332 -0.38978458738689759 0 -0.46202672064839212 -0.40007602488395211 0 -0.48101336032419229 -0.41069999664450008 0 -0.46202672064839212 -0.40007602488395211 0 -0.47854472220918332 -0.38978458738689759 0 -0.46725442735267431 -0.37660061361585562 0 -0.46202672064839212 -0.40007602488395211 0 -0.47854472220918332 -0.38978458738689759 0 -0.46725442735267431 -0.37660061361585562 0 -0.48422759779560409 -0.37130120630367158 0 -0.46725442735267431 -0.37660061361585562 0 -0.46202672064839212 -0.40007602488395211 0 -0.46725442735267431 -0.37660061361585562 0 -0.45645674801697989 -0.38644133236760531 0 -0.46202672064839212 -0.40007602488395211 0 -0.46725442735267431 -0.37660061361585562 0 -0.45645674801697989 -0.38644133236760531 0 -0.4540003998136638 -0.37455519391687309 0 -0.45645674801697989 -0.38644133236760531 0 -0.46202672064839212 -0.40007602488395211 0 -0.44257020456291563 -0.38918913383950271 0 -0.46202672064839212 -0.40007602488395211 0 -0.44257020456291563 -0.38918913383950271 0 -0.44727608925983742 -0.41095911152778891 0 -0.46202672064839212 -0.40007602488395211 0 -0.44257020456291563 -0.38918913383950271 0 -0.44257020456291563 -0.38918913383950271 0 -0.44727608925983742 -0.41095911152778891 0 -0.43479358559901082 -0.4041454901736512 0 -0.44257020456291563 -0.38918913383950271 0 -0.4540003998136638 -0.37455519391687309 0 -0.44172858264042247 -0.37082207246888088 0 -0.45645674801697989 -0.38644133236760531 0 -0.44257020456291563 -0.38918913383950271 0 -0.4540003998136638 -0.37455519391687309 0 -0.46202672064839212 -0.40007602488395211 0 -0.45555437223955858 -0.42914059360647611 0 -0.44727608925983742 -0.41095911152778891 0 -0.46202672064839212 -0.40007602488395211 0 -0.45555437223955858 -0.42914059360647611 0 -0.48101336032419229 -0.41069999664450008 0 -0.46202672064839212 -0.40007602488395211 0 -0.45555437223955858 -0.42914059360647611 0 -0.44727608925983742 -0.41095911152778891 0 -0.43867285131603428 -0.4271457417558665 0 -0.43676601469929588 -0.41441201227470881 0 -0.44727608925983742 -0.41095911152778891 0 -0.43676601469929588 -0.41441201227470881 0 -0.43479358559901082 -0.4041454901736512 0 -0.45555437223955858 -0.42914059360647611 0 -0.44727608925983742 -0.41095911152778891 0 -0.43867285131603428 -0.4271457417558665 0 -0.43867285131603428 -0.4271457417558665 0 -0.42681803064840879 -0.42717069814352421 0 -0.4263356171060747 -0.44269880333887462 0 -0.42681803064840879 -0.42717069814352421 0 -0.41531815884496182 -0.42985383783075998 0 -0.4263356171060747 -0.44269880333887462 0 -0.42681803064840879 -0.42717069814352421 0 -0.42624289495594048 -0.42089725947505818 0 -0.42083332353326591 -0.42146747131641099 0 -0.42681803064840879 -0.42717069814352421 0 -0.43096994786351572 -0.41951492446283251 0 -0.42624289495594048 -0.42089725947505818 0 -0.43867285131603428 -0.4271457417558665 0 -0.42681803064840879 -0.42717069814352421 0 -0.43096994786351572 -0.41951492446283251 0 -0.43867285131603428 -0.4271457417558665 0 -0.43676601469929588 -0.41441201227470881 0 -0.43096994786351572 -0.41951492446283251 0 -0.43676601469929588 -0.41441201227470881 0 -0.43096994786351572 -0.41951492446283251 0 -0.42907264086257813 -0.41311715872526122 0 -0.43676601469929588 -0.41441201227470881 0 -0.42907264086257813 -0.41311715872526122 0 -0.43479358559901082 -0.4041454901736512 0 -0.42907264086257813 -0.41311715872526122 0 -0.43479358559901082 -0.4041454901736512 0 -0.42460885511582858 -0.40417321677700252 0 -0.42907264086257813 -0.41311715872526122 0 -0.41997834854398469 -0.41180534796019508 0 -0.42907264086257813 -0.41311715872526122 0 -0.42635027777857132 -0.41543594397746519 0 -0.41997834854398469 -0.41180534796019508 0 -0.42907264086257813 -0.41311715872526122 0 -0.41997834854398469 -0.41180534796019508 0 -0.42460885511582858 -0.40417321677700252 0 -0.42635027777857132 -0.41543594397746519 0 -0.41997834854398469 -0.41180534796019508 0 -0.42635027777857132 -0.41543594397746519 0 -0.42083332353326591 -0.42146747131641099 0 -0.41997834854398469 -0.41180534796019508 0 -0.43096994786351572 -0.41951492446283251 0 -0.42624289495594048 -0.42089725947505818 0 -0.42635027777857132 -0.41543594397746519 0 -0.43096994786351572 -0.41951492446283251 0 -0.42907264086257813 -0.41311715872526122 0 -0.42635027777857132 -0.41543594397746519 0 -0.42624289495594048 -0.42089725947505818 0 -0.42635027777857132 -0.41543594397746519 0 -0.42083332353326591 -0.42146747131641099 0 -0.42083332353326591 -0.42146747131641099 0 -0.41997834854398469 -0.41180534796019508 0 -0.40992282953163789 -0.42011435591993562 0 -0.41997834854398469 -0.41180534796019508 0 -0.39756877647335259 -0.40857286797681719 0 -0.41997834854398469 -0.41180534796019508 0 -0.40992282953163789 -0.42011435591993562 0 -0.39756877647335259 -0.40857286797681719 0 -0.40992282953163789 -0.42011435591993562 0 -0.41531815884496182 -0.42985383783075998 0 -0.39591554026262499 -0.42887225451549271 0 -0.41531815884496182 -0.42985383783075998 0 -0.39591554026262499 -0.42887225451549271 0 -0.41160927495564159 -0.44339431233754628 0 -0.42083332353326591 -0.42146747131641099 0 -0.40992282953163789 -0.42011435591993562 0 -0.41531815884496182 -0.42985383783075998 0 -0.42681803064840879 -0.42717069814352421 0 -0.42083332353326591 -0.42146747131641099 0 -0.41531815884496182 -0.42985383783075998 0 -0.44257020456291563 -0.38918913383950271 0 -0.42311368847744002 -0.37830224279505142 0 -0.42594061475171041 -0.39368797999533162 0 -0.44257020456291563 -0.38918913383950271 0 -0.42311368847744002 -0.37830224279505142 0 -0.44172858264042247 -0.37082207246888088 0 -0.44257020456291563 -0.38918913383950271 0 -0.42311368847744002 -0.37830224279505142 0 -0.42311368847744002 -0.37830224279505142 0 -0.42594061475171041 -0.39368797999533162 0 -0.416587075656149 -0.38785930376960043 0 -0.44257020456291563 -0.38918913383950271 0 -0.42594061475171041 -0.39368797999533162 0 -0.43479358559901082 -0.4041454901736512 0 -0.42594061475171041 -0.39368797999533162 0 -0.43479358559901082 -0.4041454901736512 0 -0.42460885511582858 -0.40417321677700252 0 -0.41997834854398469 -0.41180534796019508 0 -0.41325908582185972 -0.39811010703057192 0 -0.39770572831670092 -0.39911486077581648 0 -0.41997834854398469 -0.41180534796019508 0 -0.39770572831670092 -0.39911486077581648 0 -0.42594061475171041 -0.39368797999533162 0 -0.42460885511582858 -0.40417321677700252 0 -0.41325908582185972 -0.39811010703057192 0 -0.41997834854398469 -0.41180534796019508 0 -0.42460885511582858 -0.40417321677700252 0 -0.41325908582185972 -0.39811010703057192 0 -0.42594061475171041 -0.39368797999533162 0 -0.41325908582185972 -0.39811010703057192 0 -0.416587075656149 -0.38785930376960043 0 -0.41325908582185972 -0.39811010703057192 0 -0.416587075656149 -0.38785930376960043 0 -0.40403491357358612 -0.38133688525744702 0 -0.42311368847744002 -0.37830224279505142 0 -0.40403491357358612 -0.38133688525744702 0 -0.40365717239196519 -0.36741535175059892 0 -0.42311368847744002 -0.37830224279505142 0 -0.416587075656149 -0.38785930376960043 0 -0.40403491357358612 -0.38133688525744702 0 -0.40403491357358612 -0.38133688525744702 0 -0.39190790742475001 -0.38540387676521748 0 -0.39770572831670092 -0.39911486077581648 0 -0.40403491357358612 -0.38133688525744702 0 -0.39190790742475001 -0.38540387676521748 0 -0.3904578797192948 -0.37473938743617019 0 -0.41325908582185972 -0.39811010703057192 0 -0.40403491357358612 -0.38133688525744702 0 -0.39770572831670092 -0.39911486077581648 0 -0.39770572831670092 -0.39911486077581648 0 -0.37543310808941849 -0.38642437359143528 0 -0.39770572831670092 -0.39911486077581648 0 -0.37515920440272033 -0.40534038799344108 0 -0.37543310808941849 -0.38642437359143528 0 -0.39770572831670092 -0.39911486077581648 0 -0.37515920440272033 -0.40534038799344108 0 -0.39756877647335259 -0.40857286797681719
[...]
<PointData Scalars="" Vectors="displacement," Tensors="">
<DataArray type="Float64" Name="displacement" NumberOfComponents="3" format="ascii">
-1.7016658476646071e-06 -0.034996798950919943 0 -0.00017038100788498503 -0.032723429373498522 0 3.6052721998016066e-06 -0.029500840713387464 0 -1.7016658476646071e-06 -0.034996798950919943 0 -0.00015699461070580944 -0.034201516738765668 0 -0.00017038100788498503 -0.032723429373498522 0 -1.7016658476646071e-06 -0.034996798950919943 0 -0.00015699461070580944 -0.034201516738765668 0 4.7226151984215211e-09 -0.034999149260764743 0 -0.00015699461070580944 -0.034201516738765668 0 4.7226151984215211e-09 -0.034999149260764743 0 -8.6237747870099529e-05 -0.034203772584963495 0 4.7226151984215211e-09 -0.034999149260764743 0 -8.6237747870099529e-05 -0.034203772584963495 0 -6.8301864123032958e-05 -0.034769416442597741 0 -0.00029234564219058295 -0.032049485806333586 0 2.8323830263789967e-05 -0.031132743842528617 0 -8.6237747870099529e-05 -0.034203772584963495 0 0.00040913163818139079 -0.03416571882292492 0 0.00044156944246953746 -0.034376355434624119 0 -8.6237747870099529e-05 -0.034203772584963495 0 0.00044156944246953746 -0.034376355434624119 0 0.00021638664229390776 -0.034599419913202104 0 -0.00015699461070580944 -0.034201516738765668 0 -8.6237747870099529e-05 -0.034203772584963495 0 -0.00017038100788498503 -0.032723429373498522 0 -8.6237747870099529e-05 -0.034203772584963495 0 -0.00017038100788498503 -0.032723429373498522 0 0.00062457574809995356 -0.033382611222439615 0 -0.00017038100788498503 -0.032723429373498522 0 0.0013268904649171385 -0.031627172037303246 0 0.00062457574809995356 -0.033382611222439615 0 -0.00017038100788498503 -0.032723429373498522 0 3.6052721998016066e-06 -0.029500840713387464 0 0.0013268904649171385 -0.031627172037303246 0 1.9811886506562014e-06 -0.029489652960115499 0 0.00030143838244298446 -0.02719352025918597 0 -8.3608837690131929e-07 -0.027572047113737133 0 1.2872243536862641e-06 -0.029491500316434011 0 0.00054481755356660039 -0.028950730617188187 0 -8.3608837690131929e-07 -0.027572047113737133 0 -7.9533632169575977e-05 -0.026488454268094506 0 -0.00016779080295870771 -0.02578133836729414 0 -8.3608837690131929e-07 -0.027572047113737133 0 -2.5509566670273522e-07 -0.025651173505798215 0 -0.00016779080295870771 -0.02578133836729414 0 0.00030143838244298446 -0.02719352025918597 0 -8.3608837690131929e-07 -0.027572047113737133 0 -7.9533632169575977e-05 -0.026488454268094506 0 0.00030143838244298446 -0.02719352025918597 0 -7.9533632169575977e-05 -0.026488454268094506 0 0.00013214939733170418 -0.026229504170463328 0 0.00054481755356660039 -0.028950730617188187 0 0.00082407616610207998 -0.027869178911617058 0 -7.9533632169575977e-05 -0.026488454268094506 0 -0.00020657398831959805 -0.026003039881573337 0 0.00013214939733170418 -0.026229504170463328 0 -7.9533632169575977e-05 -0.026488454268094506 0 -0.00020657398831959805 -0.026003039881573337 0 -0.00016779080295870771 -0.02578133836729414 0 0.00062094740588029265 -0.025319304317707059 0 0.00082407616610207998 -0.027869178911617058 0 0.00097781883328481429 -0.020356427607268999 0 0.00075653247489291002 -0.020576622484768214 0 0.000471106797077817 -0.020467742768483604 0 0.00097781883328481429 -0.020356427607268999 0 0.00075653247489291002 -0.020576622484768214 0 0.000988652490626995 -0.020612749059385878 0 0.00075653247489291002 -0.020576622484768214 0 0.000471106797077817 -0.020467742768483604 0 0.00069014805032551103 -0.020864031140179672 0 0.00062036368310071236 -0.034219235483470237 0 0.00058571875929385266 -0.034338479796992026 0 0.00057118749655005999 -0.034292638808716532 0 0.00082407616610207998 -0.027869178911617058 0 0.00076803384049863412 -0.027563624634394393 0 0.00058571875929385266 -0.034338479796992026 0 0.00057118749655005999 -0.034292638808716532 0 0.00059571965526421342 -0.034350790455205012 0 0.00069014805032551103 -0.020864031140179672 0 0.000988652490626995 -0.020612749059385878 0 0.001058010444672765 -0.020873344203648704 0 0.00075653247489291002 -0.020576622484768214 0 0.00069014805032551103 -0.020864031140179672 0 0.000988652490626995 -0.020612749059385878 0 0.00062036368310071236 -0.034219235483470237 0 0.00040913163818139079 -0.03416571882292492 0 0.00057118749655005999 -0.034292638808716532 0 0.00082407616610207998 -0.027869178911617058 0 2.8323830263789967e-05 -0.031132743842528617 0 0.0013268904649171385 -0.031627172037303246 0 0.0020486675827678909 -0.032802964317510334 0 0.00062457574809995356 -0.033382611222439615 0 0.00057118749655005999 -0.034292638808716532 0 0.00044156944246953746 -0.034376355434624119 0 0.00056735753880635944 -0.034367434047865485 0 0.00057118749655005999 -0.034292638808716532 0 0.00056735753880635944 -0.034367434047865485 0 0.00059571965526421342 -0.034350790455205012 0 0.00040913163818139079 -0.03416571882292492 0 0.00057118749655005999 -0.034292638808716532 0 0.00044156944246953746 -0.034376355434624119 0 0.00044156944246953746 -0.034376355434624119 0 0.00042467850522551019 -0.034535109871177708 0 0.00021638664229390776 -0.034599419913202104 0 0.00042467850522551019 -0.034535109871177708 0 0.00038310322627108854 -0.034708625652340959 0 0.00021638664229390776 -0.034599419913202104 0 0.00042467850522551019 -0.034535109871177708 0 0.00050545409260302357 -0.034517643025721446 0 0.00049505155185105057 -0.034609779836872454 0 0.00042467850522551019 -0.034535109871177708 0 0.0005246623133618359 -0.034437646948715241 0 0.00050545409260302357 -0.034517643025721446 0 0.00044156944246953746 -0.034376355434624119 0 0.00042467850522551019 -0.034535109871177708 0 0.0005246623133618359 -0.034437646948715241 0 0.00044156944246953746 -0.034376355434624119 0 0.00056735753880635944 -0.034367434047865485 0 0.0005246623133618359 -0.034437646948715241 0 0.00056735753880635944 -0.034367434047865485 0 0.0005246623133618359 -0.034437646948715241 0 0.00062067002787801861 -0.034403823359887543 0 0.00056735753880635944 -0.034367434047865485 0 0.00062067002787801861 -0.034403823359887543 0 0.00059571965526421342 -0.034350790455205012 0 0.00062067002787801861 -0.034403823359887543 0 0.00059571965526421342 -0.034350790455205012 0 0.00060329199809636255 -0.034312046836060685 0 0.0013312128082920548 -0.03365786203243485 0 0.0013452685585916126 -0.033565479515791717 0 0.00062067002787801861 -0.034403823359887543 0 0.00057906737696176785 -0.034490009412851186 0 0.00068602541327939014 -0.034663711551214657 0 0.00062067002787801861 -0.034403823359887543 0 0.00067295339515373721 -0.03427451781587796 0 0.00060329199809636255 -0.034312046836060685 0 0.001343367753089398 -0.033610298045994746 0 0.0013452685585916126 -0.033565479515791717 0 0.00057906737696176785 -0.034490009412851186 0 0.00049505155185105057 -0.034609779836872454 0 0.0006408787613426506 -0.034619864067609495 0 0.0005246623133618359 -0.034437646948715241 0 0.00050545409260302357 -0.034517643025721446 0 0.00057906737696176785 -0.034490009412851186 0 0.0005246623133618359 -0.034437646948715241 0 0.00062067002787801861 -0.034403823359887543 0 0.00057906737696176785 -0.034490009412851186 0 0.00050545409260302357 -0.034517643025721446 0 0.00057906737696176785 -0.034490009412851186 0 0.00049505155185105057 -0.034609779836872454 0 0.00049505155185105057 -0.034609779836872454 0 0.0006408787613426506 -0.034619864067609495 0 0.00051492911197840866 -0.034771684206759391 0 0.0013452685585916126 -0.033565479515791717 0 0.001118223508431103 -0.033347382557233379 0 0.0006408787613426506 -0.034619864067609495 0 0.00051492911197840866 -0.034771684206759391 0 0.00066799109152972851 -0.03493783574247853 0 0.00051492911197840866 -0.034771684206759391 0 0.00038310322627108854 -0.034708625652340959 0 0.0003982219007413567 -0.034961554010785399 0 0.00038310322627108854 -0.034708625652340959 0 0.0003982219007413567 -0.034961554010785399 0 0.00020993311957014869 -0.034779632782142064 0 0.00049505155185105057 -0.034609779836872454 0 0.00051492911197840866 -0.034771684206759391 0 0.00038310322627108854 -0.034708625652340959 0 0.00042467850522551019 -0.034535109871177708 0 0.00049505155185105057 -0.034609779836872454 0 0.00038310322627108854 -0.034708625652340959 0 0.00058571875929385266 -0.034338479796992026 0 0.0004174160935833231 -0.034263257654030321 0 0.00055094013379405004 -0.034295176426905286 0 0.00069014805032551103 -0.020864031140179672 0 0.00089898755706143752 -0.021276480544817327 0 0.001058010444672765 -0.020873344203648704 0 0.00076803384049863412 -0.027563624634394393 0 0.00084077305487220873 -0.027370375700315069 0 0.0004174160935833231 -0.034263257654030321 0 0.00055094013379405004 -0.034295176426905286 0 0.00049167170389411298 -0.034204073496661359 0 0.00058571875929385266 -0.034338479796992026 0 0.00055094013379405004 -0.034295176426905286 0 0.00059571965526421342 -0.034350790455205012 0 0.00055094013379405004 -0.034295176426905286 0 0.00059571965526421342 -0.034350790455205012 0 0.00060329199809636255 -0.034312046836060685 0 0.00067295339515373721 -0.03427451781587796 0 0.00057999543463218162 -0.034183134031472683 0 0.00061714022278448635 -0.033994429363180874 0 0.0013452685585916126 -0.033565479515791717 0 0.0014362271072426761 -0.032506930898815074 0 0.00055094013379405004 -0.034295176426905286 0 0.00060329199809636255 -0.034312046836060685 0 0.00057999543463218162 -0.034183134031472683 0 0.00067295339515373721 -0.03427451781587796 0 0.00060329199809636255 -0.034312046836060685 0 0.00057999543463218162 -0.034183134031472683 0 0.00055094013379405004 -0.034295176426905286 0 0.00057999543463218162 -0.034183134031472683 0 0.00049167170389411298 -0.034204073496661359 0 0.00057999543463218162 -0.034183134031472683 0 0.00049167170389411298 -0.034204073496661359 0 0.00041395849351052983 -0.034065731521300276 0 0.0004174160935833231 -0.034263257654030321 0 0.00041395849351052983 -0.034065731521300276 0 0.00027405032916587367 -0.034052819299813991 0 0.0004174160935833231 -0.034263257654030321 0 0.00049167170389411298 -0.034204073496661359 0 0.00041395849351052983 -0.034065731521300276 0 0.00041395849351052983 -0.034065731521300276 0 0.00045505679081946933 -0.033899283114965741 0 0.00061714022278448635 -0.033994429363180874 0 0.00041395849351052983 -0.034065731521300276 0 0.00045505679081946933 -0.033899283114965741 0 0.00030884232710811862 -0.033869190966885669 0 0.00057999543463218162 -0.034183134031472683 0 0.00041395849351052983 -0.034065731521300276 0 0.00061714022278448635 -0.033994429363180874 0 0.0014362271072426761 -0.032506930898815074 0 0.0013344655168814996 -0.030250743383960717 0 0.0013493903354129403 -0.032396613759706913 0 0.0015948059081443704 -0.031505167669625904 0 0.00084905809185328754 -0.031514076595891539 0 0.0013493903354129403 -0.032396613759706913 0 0.0015948059081443704 -0.031505167669625904 0 0.0017228948708215483 -0.032391846109832798 0 0.00077407923287428507 -0.032417052073475068 0 0.0013344655168814996 -0.030250743383960717 0 0.00047517700362563389 -0.033659135438315807 0 0.00030884232710811862 -0.033869190966885669 0 0.00022834315846070324 -0.033647858437668432 0 0.00045505679081946933 -0.033899283114965741 0 0.00047517700362563389 -0.033659135438315807 0 0.00030884232710811862 -0.033869190966885669 0 0.0013344655168814996 -0.030250743383960717 0 0.00096717930373300151 -0.028333010952651196 0 0.00045505679081946933 -0.033899283114965741 0 0.00061714022278448635 -0.033994429363180874 0 0.00047517700362563389 -0.033659135438315807 0 0.0018501520134036021 -0.033279832570045131 0 0.0013493903354129403 -0.032396613759706913 0 0.0017228948708215483 -0.032391846109832798 0 0.00051492911197840866 -0.034771684206759391 0 0.0003982219007413567 -0.034961554010785399 0 0.00066799109152972851 -0.03493783574247853 0 0.00070578502178120673 -0.035222926252848438 0 0.0003982219007413567 -0.034961554010785399 0 0.00066799109152972851 -0.03493783574247853 0 0.00077407923287428507 -0.032417052073475068 0 0.001118223508431103 -0.033347382557233379 0 0.00070578502178120673 -0.035222926252848438 0 0.0003982219007413567 -0.034961554010785399 0 0.00031556858213624639 -0.035227641963559507 0 0.0003982219007413567 -0.034961554010785399 0 0.00017692162734978174 -0.035000182400936004 0 0.00031556858213624639 -0.035227641963559507 0 0.00017692162734978174 -0.035000182400936004 0 -5.6205555745574073e-05 -0.035229805578109979 0 0.00031556858213624639 -0.035227641963559507 0 0.0003982219007413567 -0.034961554010785399 0 0.00017692162734978174 -0.035000182400936004 0 0.00020993311957014869 -0.034779632782142064 0 0.00017692162734978174 -0.035000182400936004 0 4.3985302865852135e-05 -0.034869336891208344 0 0.00020993311957014869 -0.034779632782142064 0 4.9366715807197547e-05 -0.034880186815668027 0 -2.1047425001663284e-05 -0.034955437320284721 0 -2.138170796741688e-05 -0.034846233367416407 0 4.1788300748737706e-06 -0.034995527313565658 0 3.3938170760915949e-06 -0.034997946901393392 0 8.1832327021468959e-07 -0.034997954276274952 0 6.5117640492461714e-05 -0.034905892533284189 0 6.9116383243057659e-06 -0.034967277492829102 0 6.5117640492461714e-05 -0.034905892533284189 0 6.5184150545679606e-05 -0.034905441354870115 0 6.5117640492461714e-05 -0.034905892533284189 0 7.0623026958587562e-05 -0.034866504960164496 0 0.00017692162734978174 -0.035000182400936004 0 4.3985302865852135e-05 -0.034869336891208344 0 -6.1956002045577787e-06 -0.035048030232466491 0 0.00017692162734978174 -0.035000182400936004 0 -6.1956002045577787e-06 -0.035048030232466491 0 -5.6205555745574073e-05 -0.035229805578109979 0 7.0623026958587562e-05 -0.034866504960164496 0 0.00012014080472552278 -0.034686191738840098 0 3.3938170760915949e-06 -0.034997946901393392 0 1.7539955309612485e-06 -0.034998690234999144 0 2.6990223416402116e-06 -0.034999782519828063 0 1.7539955309612485e-06 -0.034998690234999144 0 8.1832327021468959e-07 -0.034997954276274952 0 6.4964681056380405e-07 -0.034999709527953407 0 8.1832327021468959e-07 -0.034997954276274952 0 3.6059115070433105e-07 -0.034999775074034359 0 6.4964681056380405e-07 -0.034999709527953407 0 1.7539955309612485e-06 -0.034998690234999144 0 6.4964681056380405e-07 -0.034999709527953407 0 2.6990223416402116e-06 -0.034999782519828063 0 3.3938170760915949e-06 -0.034997946901393392 0 1.7539955309612485e-06 -0.034998690234999144 0 8.1832327021468959e-07 -0.034997954276274952 0 -2.1337257847300699e-08 -0.034999951759597372 0 6.9116383243057659e-06 -0.034967277492829102 0 -1.1397478047430531e-09 -0.034999998165562186 0 8.1832327021468959e-07 -0.034997954276274952 0 3.6059115070433105e-07 -0.034999775074034359 0 5.6804875112447423e-08 -0.034999983936125197 0 -2.1047425001663284e-05 -0.034955437320284721 0 -1.4013427079364862e-07 -0.03499989029011466 0 -2.1047425001663284e-05 -0.034955437320284721 0 -2.138170796741688e-05 -0.034846233367416407 0 -1.4013427079364862e-07 -0.03499989029011466 0 -2.138170796741688e-05 -0.034846233367416407 0 -1.4013427079364862e-07 -0.03499989029011466 0 -6.8301864123032958e-05 -0.034769416442597741 0 4.7226151984215211e-09 -0.034999149260764743 0 -1.4013427079364862e-07 -0.03499989029011466 0 -6.8301864123032958e-05 -0.034769416442597741 0 -2.138170796741688e-05 -0.034846233367416407 0 -6.8301864123032958e-05 -0.034769416442597741 0 3.4580292761388034e-06 -0.034663052771174201 0 -8.6237747870099529e-05 -0.034203772584963495 0 -6.8301864123032958e-05 -0.034769416442597741 0 3.4580292761388034e-06 -0.034663052771174201 0 -8.6237747870099529e-05 -0.034203772584963495 0 3.4580292761388034e-06 -0.034663052771174201 0 0.00021638664229390776 -0.034599419913202104 0 3.4580292761388034e-06 -0.034663052771174201 0 0.00021638664229390776 -0.034599419913202104 0 8.2941396161660786e-05 -0.034753378571709057 0 0.00021638664229390776 -0.034599419913202104 0 0.00020993311957014869 -0.034779632782142064 0 8.2941396161660786e-05 -0.034753378571709057 0 0.00038310322627108854 -0.034708625652340959 0 0.00021638664229390776 -0.034599419913202104 0 0.00020993311957014869 -0.034779632782142064 0 4.9705343637812019e-05 -0.034893900816815523 0 0.00020993311957014869 -0.034779632782142064 0 5.7106811230841046e-05 -0.03486135261102228 0 0.00020993311957014869 -0.034779632782142064 0 5.7106811230841046e-05 -0.03486135261102228 0 8.2941396161660786e-05 -0.034753378571709057 0 6.5117640492461714e-05 -0.034905892533284189 0 9.5809798672805114e-05 -0.034885091101561704 0 -2.138170796741688e-05 -0.034846233367416407 0 5.7106811230841046e-05 -0.03486135261102228 0 8.2941396161660786e-05 -0.034753378571709057 0 4.9366715807197547e-05 -0.034880186815668027 0 -2.138170796741688e-05 -0.034846233367416407 0 5.7106811230841046e-05 -0.03486135261102228 0 -2.138170796741688e-05 -0.034846233367416407 0 3.4580292761388034e-06 -0.034663052771174201 0 8.2941396161660786e-05 -0.034753378571709057 0 0.0011787751363650587 -0.017997249106052503 0 0.0016764193226228602 -0.017064886943987216 0 0.0004986298649864142 -0.017576815869407129 0 0.00059498329577332011 -0.017023638248861384 0 0.00033313100706024987 -0.01739686373625824 0 -0.00012399567610740062 -0.019581415737523197 0 0.00013783259264199879 -0.019541556140659125 0 6.8307526056119952e-05 -0.019662460019993829 0 -0.00012399567610740062 -0.019581415737523197 0 -7.4484329647116719e-05 -0.019607144347401406 0 6.8307526056119952e-05 -0.019662460019993829 0 -0.00012399567610740062 -0.019581415737523197 0 -6.8954124828749541e-05 -0.019513012806091398 0 -7.4484329647116719e-05 -0.019607144347401406 0 -0.00012399567610740062 -0.019581415737523197 0 -0.00011575896584188139 -0.019313783224175752 0 -0.00018208957317582803 -0.019655618881413695 0 -0.00012399567610740062 -0.019581415737523197 0 -0.00011575896584188139 -0.019313783224175752 0 0.00013783259264199879 -0.019541556140659125 0 0.0011787751363650587 -0.017997249106052503 0 0.0010136761125967434 -0.018167622093539098 0 -0.00011575896584188139 -0.019313783224175752 0 0.00013783259264199879 -0.019541556140659125 0 0.00013786445890376505 -0.01850827128695114 0 0.0004986298649864142 -0.017576815869407129 0 0.00013786445890376505 -0.01850827128695114 0 5.2777355828532092e-05 -0.017829301101006938 0 0.00013786445890376505 -0.01850827128695114 0 -4.1945063388964006e-07 -0.017968595054252256 0 -0.00012474868700255567 -0.01926637001047412 0 0.00013786445890376505 -0.01850827128695114 0 -4.1945063388964006e-07 -0.017968595054252256 0 -2.2914343795209038e-05 -0.017567713153066915 0 -4.1945063388964006e-07 -0.017968595054252256 0 -0.00012474868700255567 -0.01926637001047412 0 -3.6359243023437017e-07 -0.019889470685462832 0 -0.00011575896584188139 -0.019313783224175752 0 0.00013786445890376505 -0.01850827128695114 0 -0.00012474868700255567 -0.01926637001047412 0 -0.00011575896584188139 -0.019313783224175752 0 -0.00012474868700255567 -0.01926637001047412 0 -0.00018208957317582803 -0.019655618881413695 0 -0.00018208957317582803 -0.019655618881413695 0 -7.6003774510856407e-05 -0.020269529849754716 0 -2.1631253916249941e-05 -0.020143493187429324 0 -0.00012474868700255567 -0.01926637001047412 0 -0.00018208957317582803 -0.019655618881413695 0 -7.6003774510856407e-05 -0.020269529849754716 0 -3.6359243023437017e-07 -0.019889470685462832 0 -7.6003774510856407e-05 -0.020269529849754716 0 4.6145134317671007e-07 -0.021809980081001087 0 -0.00012474868700255567 -0.01926637001047412 0 -3.6359243023437017e-07 -0.019889470685462832 0 -7.6003774510856407e-05 -0.020269529849754716 0 -7.6003774510856407e-05 -0.020269529849754716 0 4.6145134317671007e-07 -0.021809980081001087 0 0.00014938479178261104 -0.021045180881829838 0 0.00014938479178261104 -0.021045180881829838 0 -2.1631253916249941e-05 -0.020143493187429324 0 0.00055533013679947218 -0.02037826232873494 0 -7.6003774510856407e-05 -0.020269529849754716 0 0.00014938479178261104 -0.021045180881829838 0 -2.1631253916249941e-05 -0.020143493187429324 0 -2.1631253916249941e-05 -0.020143493187429324 0 0.00026207961129264809 -0.019907684553532881 0 0.00055533013679947218 -0.02037826232873494 0 0.00026207961129264809 -0.019907684553532881 0 0.00018771313816305863 -0.01958049