<?xml version="1.0"?>
<VTKFile type="UnstructuredGrid" version="0.1" byte_order="LittleEndian">
<UnstructuredGrid>
<Piece NumberOfPoints="31299" NumberOfCells="10931">
<Points>
<DataArray type="Float64" NumberOfComponents="3" format="ascii">
-0.49790356825270748 -0.49999999999999972 0 -0.48069287347562512 -0.4785791255133528 0 -0.49790356825270748 -0.49999999999999972 0 -0.5 -0.5 0 -0.50000000000000022 -0.47108653240899451 0 -0.49790356825270748 -0.49999999999999972 0 -0.50000000000000022 -0.47108653240899451 0 -0.48069287347562512 -0.4785791255133528 0 -0.48069287347562512 -0.4785791255133528 0 -0.46996264045187741 -0.5 0 -0.45624012731648322 -0.4772966753248149 0 -0.49790356825270748 -0.49999999999999972 0 -0.48069287347562512 -0.4785791255133528 0 -0.46996264045187741 -0.5 0 -0.46996264045187741 -0.5 0 -0.45624012731648322 -0.4772966753248149 0 -0.44202171265104723 -0.5 0 -0.48069287347562512 -0.4785791255133528 0 -0.45624012731648322 -0.4772966753248149 0 -0.46348217869854252 -0.45715825102670621 0 -0.45624012731648322 -0.4772966753248149 0 -0.44202171265104723 -0.5 0 -0.43558413304427901 -0.47258591764503932 0 -0.44569722557752889 -0.4554567577637913 0 -0.44627148392145899 -0.43573737654006012 0 -0.42860007058589789 -0.4514076492843323 0 -0.44569722557752889 -0.4554567577637913 0 -0.46348217869854252 -0.45715825102670621 0 -0.44627148392145899 -0.43573737654006012 0 -0.45624012731648322 -0.4772966753248149 0 -0.44569722557752889 -0.4554567577637913 0 -0.43558413304427901 -0.47258591764503932 0 -0.45624012731648322 -0.4772966753248149 0 -0.44569722557752889 -0.4554567577637913 0 -0.46348217869854252 -0.45715825102670621 0 -0.46348217869854252 -0.45715825102670621 0 -0.47899038701309371 -0.45386695132156429 0 -0.45798077402618748 -0.43664737023413408 0 -0.47899038701309371 -0.45386695132156429 0 -0.45798077402618748 -0.43664737023413408 0 -0.46348217869854252 -0.45715825102670621 0 -0.45798077402618748 -0.43664737023413408 0 -0.44627148392145899 -0.43573737654006012 0 -0.46348217869854252 -0.45715825102670621 0 -0.44627148392145899 -0.43573737654006012 0 -0.47247119250092212 -0.4377735007952992 0 -0.47899038701309371 -0.45386695132156429 0 -0.48568137433283759 -0.43394950691961071 0 -0.47247119250092212 -0.4377735007952992 0 -0.47899038701309371 -0.45386695132156429 0 -0.45798077402618748 -0.43664737023413408 0 -0.48069287347562512 -0.4785791255133528 0 -0.46348217869854252 -0.45715825102670621 0 -0.47899038701309371 -0.45386695132156429 0 -0.48069287347562512 -0.4785791255133528 0 -0.46348217869854252 -0.45715825102670621 0 -0.50000000000000022 -0.47108653240899451 0 -0.48069287347562512 -0.4785791255133528 0 -0.47899038701309371 -0.45386695132156429 0 -0.50000000000000022 -0.47108653240899451 0 -0.47899038701309371 -0.45386695132156429 0 -0.50000000000000022 -0.47108653240899451 0 -0.47899038701309371 -0.45386695132156429 0 -0.5 -0.44273366954962601 0 -0.47899038701309371 -0.45386695132156429 0 -0.5 -0.44273366954962601 0 -0.48568137433283759 -0.43394950691961071 0 -0.5 -0.44273366954962601 0 -0.48568137433283759 -0.43394950691961071 0 -0.49999999999999889 -0.41438080669025767 0 -0.48568137433283759 -0.43394950691961071 0 -0.49999999999999889 -0.41438080669025767 0 -0.47694529215017167 -0.42099260624130619 0 -0.49999999999999889 -0.41438080669025767 0 -0.47694529215017167 -0.42099260624130619 0 -0.47580431133393658 -0.40326547028876342 0 -0.47694529215017167 -0.42099260624130619 0 -0.47580431133393658 -0.40326547028876342 0 -0.46144661430592482 -0.41223065833040562 0 -0.47247119250092212 -0.4377735007952992 0 -0.48568137433283759 -0.43394950691961071 0 -0.47694529215017167 -0.42099260624130619 0 -0.47247119250092212 -0.4377735007952992 0 -0.47694529215017167 -0.42099260624130619 0 -0.46599097723466248 -0.42736692078003929 0 -0.5 -0.38646328526278378 0 -0.48876697055563989 -0.39213872916484771 0 -0.47753394111128172 -0.36989665163943719 0 -0.49999999999999889 -0.41438080669025767 0 -0.48876697055563989 -0.39213872916484771 0 -0.47580431133393658 -0.40326547028876342 0 -0.49999999999999889 -0.41438080669025767 0 -0.5 -0.38646328526278378 0 -0.48876697055563989 -0.39213872916484771 0 -0.49999999999999889 -0.41438080669025767 0 -0.48876697055563989 -0.39213872916484771 0 -0.48876697055563989 -0.39213872916484771 0 -0.47580431133393658 -0.40326547028876342 0 -0.4697456964830381 -0.38537477372473389 0 -0.48876697055563989 -0.39213872916484771 0 -0.4697456964830381 -0.38537477372473389 0 -0.47753394111128172 -0.36989665163943719 0 -0.4697456964830381 -0.38537477372473389 0 -0.46802330407498038 -0.36651467391938047 0 -0.48876697055563989 -0.39213872916484771 0 -0.47753394111128172 -0.36989665163943719 0 -0.4697456964830381 -0.38537477372473389 0 -0.45726600860375899 -0.37898309285459991 0 -0.46802330407498038 -0.36651467391938047 0 -0.4697456964830381 -0.38537477372473389 0 -0.45726600860375899 -0.37898309285459991 0 -0.45792129450884522 -0.39447524758102959 0 -0.47580431133393658 -0.40326547028876342 0 -0.4697456964830381 -0.38537477372473389 0 -0.45792129450884522 -0.39447524758102959 0 -0.47580431133393658 -0.40326547028876342 0 -0.45792129450884522 -0.39447524758102959 0 -0.46144661430592482 -0.41223065833040562 0 -0.45792129450884522 -0.39447524758102959 0 -0.44559571122821351 -0.40511011154907839 0 -0.46144661430592482 -0.41223065833040562 0 -0.45792129450884522 -0.39447524758102959 0 -0.44559571122821351 -0.40511011154907839 0 -0.43901583312348968 -0.3852671565634247 0 -0.44559571122821351 -0.40511011154907839 0 -0.43901583312348968 -0.3852671565634247 0 -0.42804717444615831 -0.40936789304606569 0 -0.45726600860375899 -0.37898309285459991 0 -0.45792129450884522 -0.39447524758102959 0 -0.43901583312348968 -0.3852671565634247 0 -0.45726600860375899 -0.37898309285459991 0 -0.43901583312348968 -0.3852671565634247 0 -0.44998449180082112 -0.3611664200807837 0 -0.45610761852481252 -0.42274467896102369 0 -0.45798077402618748 -0.43664737023413408 0 -0.45054028290431952 -0.42426429715019309 0 -0.45610761852481252 -0.42274467896102369 0 -0.45798077402618748 -0.43664737023413408 0 -0.46599097723466248 -0.42736692078003929 0 -0.47247119250092212 -0.4377735007952992 0 -0.45798077402618748 -0.43664737023413408 0 -0.46599097723466248 -0.42736692078003929 0 -0.47247119250092212 -0.4377735007952992 0 -0.45798077402618748 -0.43664737023413408 0 -0.47694529215017167 -0.42099260624130619 0 -0.46599097723466248 -0.42736692078003929 0 -0.46144661430592482 -0.41223065833040562 0 -0.45610761852481252 -0.42274467896102369 0 -0.46599097723466248 -0.42736692078003929 0 -0.46144661430592482 -0.41223065833040562 0 -0.45610761852481252 -0.42274467896102369 0 -0.46144661430592482 -0.41223065833040562 0 -0.44790069043057262 -0.41561388720165532 0 -0.44790069043057262 -0.41561388720165532 0 -0.44017204863570542 -0.42205125220395973 0 -0.45054028290431952 -0.42426429715019309 0 -0.44559571122821351 -0.40511011154907839 0 -0.43933181180111541 -0.41471484377461387 0 -0.42804717444615831 -0.40936789304606569 0 -0.45610761852481252 -0.42274467896102369 0 -0.44790069043057262 -0.41561388720165532 0 -0.45054028290431952 -0.42426429715019309 0 -0.44559571122821351 -0.40511011154907839 0 -0.46144661430592482 -0.41223065833040562 0 -0.44790069043057262 -0.41561388720165532 0 -0.44559571122821351 -0.40511011154907839 0 -0.44790069043057262 -0.41561388720165532 0 -0.43933181180111541 -0.41471484377461387 0 -0.44790069043057262 -0.41561388720165532 0 -0.43933181180111541 -0.41471484377461387 0 -0.44017204863570542 -0.42205125220395973 0 -0.43933181180111541 -0.41471484377461387 0 -0.44017204863570542 -0.42205125220395973 0 -0.43520428575890929 -0.42196285634610903 0 -0.45798077402618748 -0.43664737023413408 0 -0.44017204863570542 -0.42205125220395973 0 -0.45054028290431952 -0.42426429715019309 0 -0.44017204863570542 -0.42205125220395973 0 -0.44627148392145899 -0.43573737654006012 0 -0.43520428575890929 -0.42196285634610903 0 -0.44627148392145899 -0.43573737654006012 0 -0.43520428575890929 -0.42196285634610903 0 -0.45798077402618748 -0.43664737023413408 0 -0.44017204863570542 -0.42205125220395973 0 -0.45798077402618748 -0.43664737023413408 0 -0.44017204863570542 -0.42205125220395973 0 -0.44627148392145899 -0.43573737654006012 0 -0.45798077402618748 -0.43664737023413408 0 -0.44627148392145899 -0.43573737654006012 0 -0.44627148392145899 -0.43573737654006012 0 -0.43520428575890929 -0.42196285634610903 0 -0.41707851576882837 -0.43346862952870729 0 -0.44627148392145899 -0.43573737654006012 0 -0.41707851576882837 -0.43346862952870729 0 -0.42804717444615831 -0.40936789304606569 0 -0.41707851576882837 -0.43346862952870729 0 -0.43933181180111541 -0.41471484377461387 0 -0.43520428575890929 -0.42196285634610903 0 -0.42804717444615831 -0.40936789304606569 0 -0.43520428575890929 -0.42196285634610903 0 -0.42804717444615831 -0.40936789304606569 0 -0.41707851576882837 -0.43346862952870729 0 -0.41337367291710531 -0.41950178752652612 0 -0.40712963174989369 -0.40293294564419629 0 -0.40123936970354063 -0.43223768188713452 0 -0.42804717444615831 -0.40936789304606569 0 -0.41337367291710531 -0.41950178752652612 0 -0.41707851576882837 -0.43346862952870729 0 -0.42804717444615831 -0.40936789304606569 0 -0.41337367291710531 -0.41950178752652612 0 -0.40712963174989369 -0.40293294564419629 0 -0.41707851576882837 -0.43346862952870729 0 -0.40123936970354063 -0.43223768188713452 0 -0.41337367291710531 -0.41950178752652612 0 -0.41707851576882837 -0.43346862952870729 0 -0.40123936970354063 -0.43223768188713452 0 -0.41707851576882837 -0.43346862952870729 0 -0.40049432457678519 -0.43594436772840789 0 -0.40540192301025629 -0.4423778071896306 0 -0.41707851576882837 -0.43346862952870729 0 -0.40123936970354063 -0.43223768188713452 0 -0.40049432457678519 -0.43594436772840789 0 -0.43901583312348968 -0.3852671565634247 0 -0.42193001991573348 -0.39203749044553471 0 -0.41301989379624798 -0.37362820940125863 0 -0.43901583312348968 -0.3852671565634247 0 -0.43652678400671768 -0.36790317402359363 0 -
[...]
<PointData Scalars="" Vectors="displacement," Tensors="">
<DataArray type="Float64" Name="displacement" NumberOfComponents="3" format="ascii">
2.9788896583348272e-08 0.014999854237401007 0 4.6318528514490249e-05 0.014667498426239099 0 1.6900702815260564e-08 0.014999187129652885 0 -4.9494362624232696e-09 0.014999906698146189 0 2.7225790323482966e-09 0.014133578730583213 0 1.6900702815260564e-08 0.014999187129652885 0 2.7225790323482966e-09 0.014133578730583213 0 2.87200815239992e-05 0.014352962468590282 0 4.145653284922913e-06 0.014999696715721222 0 2.6707035168394995e-09 0.014999999001566561 0 4.973019823704646e-06 0.014996156807062165 0 6.2617456717299477e-10 0.015000001763199218 0 4.145653284922913e-06 0.014999696715721222 0 2.6707035168394995e-09 0.014999999001566561 0 2.6707035168394995e-09 0.014999999001566561 0 4.973019823704646e-06 0.014996156807062165 0 6.1730084879347021e-10 0.014999989205718012 0 4.145653284922913e-06 0.014999696715721222 0 4.973019823704646e-06 0.014996156807062165 0 1.2186724391385689e-05 0.014995616354419322 0 4.973019823704646e-06 0.014996156807062165 0 6.1730084879347021e-10 0.014999989205718012 0 7.1959105437025527e-06 0.014990763085266512 0 1.395141732613099e-05 0.014988384954486702 0 2.3655181654577793e-05 0.014982927472950627 0 1.7043596153695002e-05 0.014980704078514448 0 1.395141732613099e-05 0.014988384954486702 0 1.2186724391385689e-05 0.014995616354419322 0 2.3655181654577793e-05 0.014982927472950627 0 4.973019823704646e-06 0.014996156807062165 0 1.395141732613099e-05 0.014988384954486702 0 7.1959105437025527e-06 0.014990763085266512 0 4.973019823704646e-06 0.014996156807062165 0 1.395141732613099e-05 0.014988384954486702 0 1.2186724391385689e-05 0.014995616354419322 0 -0.0001278840944136338 0.014426058807994576 0 -0.00014947710101413872 0.014345238371494219 0 -0.00020710709681513961 0.014437896336169142 0 -6.8315134340871705e-05 0.013803174637000303 0 -1.9898609089998248e-05 0.013495981089188574 0 -0.0001278840944136338 0.014426058807994576 0 -0.00020710709681513961 0.014437896336169142 0 -0.00020986259265814465 0.01447744597139089 0 -9.2508184219460828e-05 0.014805456187418187 0 -5.4068025394018944e-05 0.014163121423084063 0 8.576728112722219e-05 0.013071595218435214 0 -1.6235813010029124e-05 0.013192030932200168 0 8.3308117127493599e-05 0.013028151622218107 0 8.576728112722219e-05 0.013071595218435214 0 -1.6235813010029124e-05 0.013192030932200168 0 8.5007575891138984e-05 0.012939397380926148 0 2.87200815239992e-05 0.014352962468590282 0 -0.0001278840944136338 0.014426058807994576 0 -0.00014947710101413872 0.014345238371494219 0 4.6318528514490249e-05 0.014667498426239099 0 -9.2508184219460828e-05 0.014805456187418187 0 2.7225790323482966e-09 0.014133578730583213 0 2.87200815239992e-05 0.014352962468590282 0 -0.00014947710101413872 0.014345238371494219 0 4.5802314466144071e-08 0.014132340529279072 0 -6.8315134340871705e-05 0.013803174637000303 0 -5.8410064379430753e-07 0.014131547639225321 0 -1.6235813010029124e-05 0.013192030932200168 0 5.0671187597501988e-07 0.013281887824766112 0 -1.6235813010029124e-05 0.013192030932200168 0 5.0671187597501988e-07 0.013281887824766112 0 8.3308117127493599e-05 0.013028151622218107 0 5.0671187597501988e-07 0.013281887824766112 0 8.3308117127493599e-05 0.013028151622218107 0 -4.0795306075444487e-07 0.012432684380676512 0 8.3308117127493599e-05 0.013028151622218107 0 -4.0795306075444487e-07 0.012432684380676512 0 8.6996814199387661e-06 0.012988743140268343 0 -4.0795306075444487e-07 0.012432684380676512 0 8.6996814199387661e-06 0.012988743140268343 0 -0.00024298111295665263 0.012952102110627162 0 8.6996814199387661e-06 0.012988743140268343 0 -0.00024298111295665263 0.012952102110627162 0 -0.00012678204008238132 0.013134356090043233 0 8.576728112722219e-05 0.013071595218435214 0 8.3308117127493599e-05 0.013028151622218107 0 8.6996814199387661e-06 0.012988743140268343 0 8.576728112722219e-05 0.013071595218435214 0 8.6996814199387661e-06 0.012988743140268343 0 3.5771384911726909e-05 0.013096317436368998 0 -8.6629748571081618e-08 0.011593530090840508 0 -6.1327289670734669e-05 0.011473133101665853 0 4.0176439946202513e-06 0.010711474230583773 0 -4.0795306075444487e-07 0.012432684380676512 0 -0.00041548324056200333 0.01272049619436883 0 -0.00024298111295665263 0.012952102110627162 0 -2.222337196555104e-07 0.012430994817063789 0 -8.6629748571081618e-08 0.011593530090840508 0 -6.1327289670734669e-05 0.011473133101665853 0 6.5473584304461183e-08 0.012431204007873174 0 -0.00019273684446383276 0.012086171028753751 0 -0.00041548324056200333 0.01272049619436883 0 -0.00024298111295665263 0.012952102110627162 0 -0.00047882224325556056 0.012998571056293996 0 -0.00041548324056200333 0.01272049619436883 0 -0.00047882224325556056 0.012998571056293996 0 -0.00065777989173287877 0.012889428361035411 0 -0.00046619381402455734 0.012989414168363318 0 -0.0007711151285954694 0.013036541770314826 0 -0.00019273684446383276 0.012086171028753751 0 -0.00026304660054507695 0.011756088220897716 0 -0.00047882224325556056 0.012998571056293996 0 -0.00054834665758756319 0.013151050681031343 0 -0.000696292890124602 0.013017594515589015 0 -0.00047882224325556056 0.012998571056293996 0 -0.00054834665758756319 0.013151050681031343 0 -0.00035376488633765383 0.013156815594464542 0 -0.00024298111295665263 0.012952102110627162 0 -0.00047882224325556056 0.012998571056293996 0 -0.00035376488633765383 0.013156815594464542 0 -0.00024298111295665263 0.012952102110627162 0 -0.00035376488633765383 0.013156815594464542 0 -0.00012678204008238132 0.013134356090043233 0 -0.00035376488633765383 0.013156815594464542 0 -0.0002209681331343967 0.013307911405631522 0 -0.00012678204008238132 0.013134356090043233 0 -0.00035376488633765383 0.013156815594464542 0 -0.0002209681331343967 0.013307911405631522 0 -0.00046588556151390089 0.013377591369144121 0 -0.0002209681331343967 0.013307911405631522 0 -0.00046588556151390089 0.013377591369144121 0 -0.00016846504341811927 0.013510487382435998 0 -0.00054834665758756319 0.013151050681031343 0 -0.00035376488633765383 0.013156815594464542 0 -0.00046588556151390089 0.013377591369144121 0 -0.00054834665758756319 0.013151050681031343 0 -0.00046588556151390089 0.013377591369144121 0 -0.00075937017386486097 0.013225032316809429 0 -1.8127847544126198e-05 0.013195252074789889 0 0.00011208285692134714 0.013166077583698182 0 -5.7750820882609482e-06 0.013256782674824292 0 -1.8127847544126198e-05 0.013195252074789889 0 0.00011208285692134714 0.013166077583698182 0 3.5771384911726909e-05 0.013096317436368998 0 8.576728112722219e-05 0.013071595218435214 0 0.00011208285692134714 0.013166077583698182 0 3.5771384911726909e-05 0.013096317436368998 0 8.9603693493444978e-05 0.012949889180325178 0 -1.9898609089998248e-05 0.013495981089188574 0 8.6996814199387661e-06 0.012988743140268343 0 3.5771384911726909e-05 0.013096317436368998 0 -0.00012678204008238132 0.013134356090043233 0 -1.8127847544126198e-05 0.013195252074789889 0 3.5771384911726909e-05 0.013096317436368998 0 -0.00012678204008238132 0.013134356090043233 0 -1.8127847544126198e-05 0.013195252074789889 0 -0.00012678204008238132 0.013134356090043233 0 -9.811530144192347e-05 0.013285195632711392 0 -9.811530144192347e-05 0.013285195632711392 0 -2.633700213990552e-05 0.013380349919985886 0 -5.7750820882609482e-06 0.013256782674824292 0 -0.0002209681331343967 0.013307911405631522 0 -0.00010789968490094986 0.013383363113535458 0 -0.00016846504341811927 0.013510487382435998 0 -1.8127847544126198e-05 0.013195252074789889 0 -9.811530144192347e-05 0.013285195632711392 0 -5.7750820882609482e-06 0.013256782674824292 0 -0.0002209681331343967 0.013307911405631522 0 -0.00012678204008238132 0.013134356090043233 0 -9.811530144192347e-05 0.013285195632711392 0 -0.0002209681331343967 0.013307911405631522 0 -9.811530144192347e-05 0.013285195632711392 0 -0.00010789968490094986 0.013383363113535458 0 -9.811530144192347e-05 0.013285195632711392 0 -0.00010789968490094986 0.013383363113535458 0 -2.633700213990552e-05 0.013380349919985886 0 -0.00010789968490094986 0.013383363113535458 0 -2.633700213990552e-05 0.013380349919985886 0 -2.5806430646467061e-05 0.013428302376238339 0 0.00011208285692134714 0.013166077583698182 0 -2.633700213990552e-05 0.013380349919985886 0 -5.7750820882609482e-06 0.013256782674824292 0 -2.633700213990552e-05 0.013380349919985886 0 7.0020428549545701e-05 0.013342031507106548 0 -2.5806430646467061e-05 0.013428302376238339 0 -5.4068025394018944e-05 0.014163121423084063 0 0.00015070405170908492 0.013276511207841389 0 -1.9898609089998248e-05 0.013495981089188574 0 4.034848309195068e-05 0.013271291439937613 0 7.6311653090704016e-05 0.013265599882338365 0 -2.633700213990552e-05 0.013380349919985886 0 7.0020428549545701e-05 0.013342031507106548 0 -1.9898609089998248e-05 0.013495981089188574 0 -5.4068025394018944e-05 0.014163121423084063 0 0.0001220448201119601 0.013315475422873707 0 -2.5806430646467061e-05 0.013428302376238339 0 0.00010301717321682514 0.013632406159396957 0 -5.4068025394018944e-05 0.014163121423084063 0 0.00019177414509686971 0.014015482120588438 0 0.00016983810585215629 0.012627564179002869 0 0.00019177414509686971 0.014015482120588438 0 -0.00010789968490094986 0.013383363113535458 0 -2.5806430646467061e-05 0.013428302376238339 0 -0.00016846504341811927 0.013510487382435998 0 -2.5806430646467061e-05 0.013428302376238339 0 -0.00016846504341811927 0.013510487382435998 0 0.00010301717321682514 0.013632406159396957 0 0.00068481738056281444 0.01237855419163396 0 0.00028179249450248557 0.012523680877809652 0 0.00099056174481733676 0.012682817465413318 0 0.000444061648795684 0.012007186929877964 0 0.00068481738056281444 0.01237855419163396 0 0.0010198034420895218 0.012299532996792565 0 0.000444061648795684 0.012007186929877964 0 0.00068481738056281444 0.01237855419163396 0 0.00028179249450248557 0.012523680877809652 0 0.00019177414509686971 0.014015482120588438 0 0.00050873930945525788 0.01360301414773764 0 0.00068481738056281444 0.01237855419163396 0 0.0010198034420895218 0.012299532996792565 0 0.00099056174481733676 0.012682817465413318 0 3.1357621506232721e-05 0.014959433813252813 0 3.0626705160985303e-05 0.014957890534021488 0 2.6206505078141714e-05 0.014963337533688401 0 3.1357621506232721e-05 0.014959433813252813 0 3.1922067995879784e-05 0.014956024345127709 0 3.0626705160985303e-05 0.014957890534021488 0 -0.00016708438561740253 0.011684957812242647 0 1.1490272121345112e-05 0.012147158540397517 0 -0.00044474168121505086 0.012376995658789728 0 -0.00016708438561740253 0.011684957812242647 0 -0.00062627617926807537 0.011730542081077084 0 -0.00044474168121505086 0.012376995658789728 0 -0.00016708438561740253 0.011684957812242647 0 0.000444061648795684 0.012007186929877964 0 1.1490272121345112e-05 0.012147158540397517 0 -0.00031771317931429498 0.012546009156113355 0 0.00016983810585215629 0.012627564179002869 0 0.000444061648795684 0.012007186929877964 0 1.1490272121345112e-05 0.012147158540397517 0 0.00028179249450248557 0.012523680877809652 0 0.00015586118697977113 0.012514494687386442 0 -0.00060394581099148083 0.012496168647643347 0 1.1490272121345112e-05 0.012147158540397517 0 0.00028179249450248557 0.012523680877809652 0 -0.00044474168121505086 0.012376995658789728 0 -7.4850630891111071e-05 0.01273694970805914 0 -0.00068179871448840741 0.01316364076417219 0 -0.00071553386343716884 0.012589423962767578 0 -7.4850630891111071e-05 0.01273694970805914 0 -5.7365060290634244e-05 0.013218003362945312 0 -0.00068179871448840741 0.01316364076417219 0 -0.00028104762794814236 0.013309806301396254 0 -0.00014900895115411124 0.013600645543696038 0 -0.00045906377529133054 0.013560218449304882 0 -0.00028104762794814236 0.013309806301396254 0 -0.00068179871448840741 0.01316364076417219 0 -0.00045906377529133054 0.013560218449304882 0 -0.00068179871448840741 0.01316364076417219 0 -0.00074521072715367685 0.013536478793777253 0 -0.00045906377529133054 0.013560218449304882 0 -0.00014770733101795587 0.013161383471158061 0 -0.00067244005360009057 0.01320071003328872 0 0.00050873930945525788 0.01360301414773764 0 0.00022018441391249467 0.014090704875449613 0 3.3777445867527515e-05 0.01495637772532883 0 3.0626705160985303e-05 0.014957890534021488 0 3.4842086584431847e-05 0.014946599979345984 0 0.00058324684440025387 0.012886103305541704 0 0.00026252507789954212 0.013048747356323196 0 0.00055230039298282904 0.013270600726212734 0 0.00050873930945525788 0.01360301414773764 0 0.00039053856397363999 0.013768528337371405 0 -7.4850630891111071e-05 0.01273694970805914 0 0.00058324684440025387 0.012886103305541704 0 0.00026252507789954212 0.013048747356323196 0 0.00015586118697977113 0.012514494687386442 0 0.00050873930945525788 0.01360301414773764 0 -7.4850630891111071e-05 0.01273694970805914 0 -5.7365060290634244e-05 0.013218003362945312 0 0.00026252507789954212 0.013048747356323196 0 -5.7365060290634244e-05 0.013218003362945312 0 0.00026252507789954212 0.013048747356323196 0 0.00055230039298282904 0.013270600726212734 0 -0.00028104762794814236 0.013309806301396254 0 0.00018918596925266559 0.013375572822077368 0 -0.00014900895115411124 0.013600645543696038 0 -0.00014770733101795587 0.013161383471158061 0 0.00022018441391249467 0.014090704875449613 0 7.238760329528303e-05 0.014811637165204412 0 -2.2477330358675008e-05 0.014814118852273291 0 1.8775287945399992e-05 0.014755808619416241 0 0.00022018441391249467 0.014090704875449613 0 -2.7362605521676633e-05 0.014944288828767433 0 3.4842086584431847e-05 0.014946599979345984 0 1.9646586114101329e-05 0.014959283401410148 0 2.2857557577730445e-05 0.014962717897780755 0 3.0626705160985303e-05 0.014957890534021488 0 3.4842086584431847e-05 0.014946599979345984 0 2.2857557577730445e-05 0.014962717897780755 0 2.2857557577730445e-05 0.014962717897780755 0 2.6206505078141714e-05 0.014963337533688401 0 1.9124551080663679e-05 0.014971695002410175 0 3.0626705160985303e-05 0.014957890534021488 0 2.2857557577730445e-05 0.014962717897780755 0 2.6206505078141714e-05 0.014963337533688401 0 2.2857557577730445e-05 0.014962717897780755 0 1.2916536725963693e-05 0.014973464350733788 0 1.9124551080663679e-05 0.014971695002410175 0 1.9646586114101329e-05 0.014959283401410148 0 2.2857557577730445e-05 0.014962717897780755 0 1.2916536725963693e-05 0.014973464350733788 0 -2.7362605521676633e-05 0.014944288828767433 0 -1.5011104550552312e-05 0.014922576199893648 0 1.9646586114101329e-05 0.014959283401410148 0 1.2916536725963693e-05 0.014973464350733788 0 9.4801880489792177e-06 0.014974605165067835 0 1.2916536725963693e-05 0.014973464350733788 0 9.4801880489792177e-06 0.014974605165067835 0 3.3079212362139204e-06 0.014987548736402317 0 -1.5011104550552312e-05 0.014922576199893648 0 -1.3009840169133523e-05 0.014967357728050343 0 9.4801880489792177e-06 0.014974605165067835 0 -4.3507462530642835e-06 0.0149816163225824 0 3.3079212362139204e-06 0.014987548736402317 0 -4.2704551705715783e-05 0.014872031497957312 0 -4.3507462530642835e-06 0.0149816163225824 0 -2.2399672994858637e-05 0.014926875898140445 0 -4.3507462530642835e-06 0.0149816163225824 0 3.3079212362139204e-06 0.014987548736402317 0 -1.1769569762577898e-08 0.014999934589708972 0 3.3079212362139204e-06 0.014987548736402317 0 -1.1769569762577898e-08 0.014999934589708972 0 5.5122326943726114e-09 0.01499999618467192 0 3.3079212362139204e-06 0.014987548736402317 0 5.3577582832859839e-06 0.014987606438274818 0 5.5122326943726114e-09 0.01499999618467192 0 1.2916536725963693e-05 0.014973464350733788 0 3.3079212362139204e-06 0.014987548736402317 0 5.3577582832859839e-06 0.014987606438274818 0 1.2916536725963693e-05 0.014973464350733788 0 5.3577582832859839e-06 0.014987606438274818 0 1.0749427187178094e-05 0.014983197160762293 0 5.3577582832859839e-06 0.014987606438274818 0 3.8583150196916273e-06 0.014992694271393027 0 1.0749427187178094e-05 0.014983197160762293 0 5.3577582832859839e-06 0.014987606438274818 0 5.5122326943726114e-09 0.01499999618467192 0 3.8583150196916273e-06 0.014992694271393027 0 6.1730084879347021e-10 0.014999989205718012 0 5.5122326943726114e-09 0.01499999618467192 0 3.8583150196916273e-06 0.014992694271393027 0 6.1730084879347021e-10 0.014999989205718012 0 3.8583150196916273e-06 0.014992694271393027 0 7.1959105437025527e-06 0.014990763085266512 0 3.8583150196916273e-06 0.014992694271393027 0 7.1959105437025527e-06 0.014990763085266512 0 1.0749427187178094e-05 0.014983197160762293 0 7.1959105437025527e-06 0.014990763085266512 0 1.7043596153695002e-05 0.014980704078514448 0 1.0749427187178094e-05 0.014983197160762293 0 1.395141732613099e-05 0.014988384954486702 0 7.1959105437025527e-06 0.014990763085266512 0 1.7043596153695002e-05 0.014980704078514448 0 2.3655181654577793e-05 0.014982927472950627 0 2.6294175131128772e-05 0.014968829973344925 0 1.7043596153695002e-05 0.014980704078514448 0 0.00019177414509686971 0.014015482120588438 0 6.0607414603615645e-05 0.015104222207139601 0 2.6294175131128772e-05 0.014968829973344925 0 1.7043596153695002e-05 0.014980704078514448 0 1.9124551080663679e-05 0.014971695002410175 0 3.1357621506232721e-05 0.014959433813252813 0 2.6206505078141714e-05 0.014963337533688401 0 1.9124551080663679e-05 0.014971695002410175 0 1.7043596153695002e-05 0.014980704078514448 0 1.9124551080663679e-05 0.014971695002410175 0 1.0749427187178094e-05 0.014983197160762293 0 1.2916536725963693e-05 0.014973464350733788 0 1.9124551080663679e-05 0.014971695002410175 0 1.0749427187178094e-05 0.014983197160762293 0 -0.00017768822344532286 0.006105781219918587 0 -4.1078227549249166e-05 0.0060493902596624469 0 -7.0342446746432448e-05 0.0061828204795250207 0 -4.1078227549249166e-05 0.0060493902596624469 0 0.00016502508280841343 0.0060210797420172006 0 7.3165906165464749e-05 0.006134138366972298 0 -4.1078227549249166e-05 0.0060493902596624469 0 -7.0342446746432448e-05 0.0061828204795250207 0 7.3165906165464749e-05 0.006134138366972298 0 -4.1078227549249166e-05 0.0060493902596624469 0 3.0107833602055184e-06 0.0058829371537734649 0 0.00016502508280841343 0.0060210797420172006 0 -0.00017768822344532286 0.006105781219918587 0 -4.1078227549249166e-05 0.0060493902596624469 0 -0.00019345945126976051 0.0059508707684386439 0 -4.1078227549249166e-05 0.0060493902596624469 0 -0.00019345945126976051 0.0059508707684386439 0 3.0107833602055184e-06 0.0058829371537734649 0 -0.00019345945126976051 0.0059508707684386439 0 -0.00034016605841085502 0.0060892351163549631 0 -0.00047446519126430846 0.0058913715475135478 0 -0.00017768822344532286 0.006105781219918587 0 -0.00034016605841085502 0.0060892351163549631 0 -0.00020249131748517922 0.0062600585189900955 0 -0.00017768822344532286 0.006105781219918587 0 -0.00019345945126976051 0.0059508707684386439 0 -0.00034016605841085502 0.0060892351163549631 0 -0.00040591349151987931 0.0063856920033094899 0 -0.00034981103391808384 0.0064720217402620146 0 -0.00078777376970415596 0.0066074451225844886 0 -0.00024174296394462307 0.0062796650526294488 0 -0.00051012754903748884 0.006255551560223639 0 -0.00020249131748517922 0.0062600585189900955 0 -0.00040591349151987931 0.0063856920033094899 0 -0.00062859797984405837 0.006377650858597329 0 -0.00034016605841085502 0.0060892351163549631 0 -0.00020249131748517922 0.0062600585189900955 0 -0.00046442172195783517 0.0062835645370567829 0 -0.00020249131748517922 0.0062600585189900955 0 -0.00040591349151987931 0.0063856920033094899 0 -0.00029224446026787697 0.0063848176617607773 0 -0.00020249131748517922 0.0062600585189900955 0 -0.00029224446026787697 0.0063848176617607773 0 -0.00020507882405892177 0.0064009593916095221 0 -0.00040591349151987931 0.0063856920033094899 0 -0.00029224446026787697 0.0063848176617607773 0 -0.00034981103391808384 0.0064720217402620146 0 -0.00029224446026787697 0.0063848176617607773 0 -0.00020507882405892177 0.0064009593916095221 0 -0.00034981103391808384 0.0064720217402620146 0 -0.00018307053573454911 0.0063983471043494011 0 3.0437277926387996e-05 0.0064143470104125995 0 -0.000205