<?xml version="1.0"?>
<VTKFile type="UnstructuredGrid" version="0.1" byte_order="LittleEndian">
<UnstructuredGrid>
<Piece NumberOfPoints="31898" NumberOfCells="11152">
<Points>
<DataArray type="Float64" NumberOfComponents="3" format="ascii">
-0.5 -0.5 0 -0.47620991077874902 -0.44978878706170539 0 -0.49999999999999473 -0.42132396840504388 0 -0.5 -0.5 0 -0.47160970827802529 -0.4793630013852106 0 -0.47620991077874902 -0.44978878706170539 0 -0.5 -0.5 0 -0.47160970827802529 -0.4793630013852106 0 -0.44860394795025399 -0.5 0 -0.47160970827802529 -0.4793630013852106 0 -0.44860394795025399 -0.5 0 -0.4490820238307246 -0.45820516232899983 0 -0.44860394795025399 -0.5 0 -0.4490820238307246 -0.45820516232899983 0 -0.42881687682924802 -0.47781464288736519 0 -0.4490820238307246 -0.45820516232899983 0 -0.45555437223955858 -0.42914059360647611 0 -0.4490820238307246 -0.45820516232899983 0 -0.45555437223955858 -0.42914059360647611 0 -0.43867285131603428 -0.4271457417558665 0 -0.4490820238307246 -0.45820516232899983 0 -0.43867285131603428 -0.4271457417558665 0 -0.4263356171060747 -0.44269880333887462 0 -0.47160970827802529 -0.4793630013852106 0 -0.4490820238307246 -0.45820516232899983 0 -0.47620991077874902 -0.44978878706170539 0 -0.4490820238307246 -0.45820516232899983 0 -0.47620991077874902 -0.44978878706170539 0 -0.45555437223955858 -0.42914059360647611 0 -0.47620991077874902 -0.44978878706170539 0 -0.48101336032419229 -0.41069999664450008 0 -0.45555437223955858 -0.42914059360647611 0 -0.47620991077874902 -0.44978878706170539 0 -0.49999999999999473 -0.42132396840504388 0 -0.48101336032419229 -0.41069999664450008 0 -0.49999999999999473 -0.42132396840504388 0 -0.48101336032419229 -0.41069999664450008 0 -0.5 -0.393886241813306 0 -0.49999999999999473 -0.42132396840504388 0 -0.48101336032419229 -0.41069999664450008 0 -0.5 -0.393886241813306 0 -0.47854472220918332 -0.38978458738689759 0 -0.48422759779560409 -0.37130120630367158 0 -0.5 -0.393886241813306 0 -0.5 -0.36644851522156802 0 -0.48422759779560409 -0.37130120630367158 0 -0.48101336032419229 -0.41069999664450008 0 -0.5 -0.393886241813306 0 -0.47854472220918332 -0.38978458738689759 0 -0.48101336032419229 -0.41069999664450008 0 -0.47854472220918332 -0.38978458738689759 0 -0.46202672064839212 -0.40007602488395211 0 -0.48101336032419229 -0.41069999664450008 0 -0.46202672064839212 -0.40007602488395211 0 -0.47854472220918332 -0.38978458738689759 0 -0.46725442735267431 -0.37660061361585562 0 -0.46202672064839212 -0.40007602488395211 0 -0.47854472220918332 -0.38978458738689759 0 -0.46725442735267431 -0.37660061361585562 0 -0.48422759779560409 -0.37130120630367158 0 -0.46725442735267431 -0.37660061361585562 0 -0.46202672064839212 -0.40007602488395211 0 -0.46725442735267431 -0.37660061361585562 0 -0.45645674801697989 -0.38644133236760531 0 -0.46202672064839212 -0.40007602488395211 0 -0.46725442735267431 -0.37660061361585562 0 -0.45645674801697989 -0.38644133236760531 0 -0.4540003998136638 -0.37455519391687309 0 -0.45645674801697989 -0.38644133236760531 0 -0.46202672064839212 -0.40007602488395211 0 -0.44257020456291563 -0.38918913383950271 0 -0.46202672064839212 -0.40007602488395211 0 -0.44257020456291563 -0.38918913383950271 0 -0.44727608925983742 -0.41095911152778891 0 -0.46202672064839212 -0.40007602488395211 0 -0.44257020456291563 -0.38918913383950271 0 -0.44257020456291563 -0.38918913383950271 0 -0.44727608925983742 -0.41095911152778891 0 -0.43479358559901082 -0.4041454901736512 0 -0.44257020456291563 -0.38918913383950271 0 -0.4540003998136638 -0.37455519391687309 0 -0.44172858264042247 -0.37082207246888088 0 -0.45645674801697989 -0.38644133236760531 0 -0.44257020456291563 -0.38918913383950271 0 -0.4540003998136638 -0.37455519391687309 0 -0.46202672064839212 -0.40007602488395211 0 -0.45555437223955858 -0.42914059360647611 0 -0.44727608925983742 -0.41095911152778891 0 -0.46202672064839212 -0.40007602488395211 0 -0.45555437223955858 -0.42914059360647611 0 -0.48101336032419229 -0.41069999664450008 0 -0.46202672064839212 -0.40007602488395211 0 -0.45555437223955858 -0.42914059360647611 0 -0.44727608925983742 -0.41095911152778891 0 -0.43867285131603428 -0.4271457417558665 0 -0.43676601469929588 -0.41441201227470881 0 -0.44727608925983742 -0.41095911152778891 0 -0.43676601469929588 -0.41441201227470881 0 -0.43479358559901082 -0.4041454901736512 0 -0.45555437223955858 -0.42914059360647611 0 -0.44727608925983742 -0.41095911152778891 0 -0.43867285131603428 -0.4271457417558665 0 -0.43867285131603428 -0.4271457417558665 0 -0.42681803064840879 -0.42717069814352421 0 -0.4263356171060747 -0.44269880333887462 0 -0.42681803064840879 -0.42717069814352421 0 -0.41531815884496182 -0.42985383783075998 0 -0.4263356171060747 -0.44269880333887462 0 -0.42681803064840879 -0.42717069814352421 0 -0.42624289495594048 -0.42089725947505818 0 -0.42083332353326591 -0.42146747131641099 0 -0.42681803064840879 -0.42717069814352421 0 -0.43096994786351572 -0.41951492446283251 0 -0.42624289495594048 -0.42089725947505818 0 -0.43867285131603428 -0.4271457417558665 0 -0.42681803064840879 -0.42717069814352421 0 -0.43096994786351572 -0.41951492446283251 0 -0.43867285131603428 -0.4271457417558665 0 -0.43676601469929588 -0.41441201227470881 0 -0.43096994786351572 -0.41951492446283251 0 -0.43676601469929588 -0.41441201227470881 0 -0.43096994786351572 -0.41951492446283251 0 -0.42907264086257813 -0.41311715872526122 0 -0.43676601469929588 -0.41441201227470881 0 -0.42907264086257813 -0.41311715872526122 0 -0.43479358559901082 -0.4041454901736512 0 -0.42907264086257813 -0.41311715872526122 0 -0.43479358559901082 -0.4041454901736512 0 -0.42460885511582858 -0.40417321677700252 0 -0.42907264086257813 -0.41311715872526122 0 -0.41997834854398469 -0.41180534796019508 0 -0.42907264086257813 -0.41311715872526122 0 -0.42635027777857132 -0.41543594397746519 0 -0.41997834854398469 -0.41180534796019508 0 -0.42907264086257813 -0.41311715872526122 0 -0.41997834854398469 -0.41180534796019508 0 -0.42460885511582858 -0.40417321677700252 0 -0.42635027777857132 -0.41543594397746519 0 -0.41997834854398469 -0.41180534796019508 0 -0.42635027777857132 -0.41543594397746519 0 -0.42083332353326591 -0.42146747131641099 0 -0.41997834854398469 -0.41180534796019508 0 -0.43096994786351572 -0.41951492446283251 0 -0.42624289495594048 -0.42089725947505818 0 -0.42635027777857132 -0.41543594397746519 0 -0.43096994786351572 -0.41951492446283251 0 -0.42907264086257813 -0.41311715872526122 0 -0.42635027777857132 -0.41543594397746519 0 -0.42624289495594048 -0.42089725947505818 0 -0.42635027777857132 -0.41543594397746519 0 -0.42083332353326591 -0.42146747131641099 0 -0.42083332353326591 -0.42146747131641099 0 -0.41997834854398469 -0.41180534796019508 0 -0.40992282953163789 -0.42011435591993562 0 -0.41997834854398469 -0.41180534796019508 0 -0.39756877647335259 -0.40857286797681719 0 -0.41997834854398469 -0.41180534796019508 0 -0.40992282953163789 -0.42011435591993562 0 -0.39756877647335259 -0.40857286797681719 0 -0.40992282953163789 -0.42011435591993562 0 -0.41531815884496182 -0.42985383783075998 0 -0.39591554026262499 -0.42887225451549271 0 -0.41531815884496182 -0.42985383783075998 0 -0.39591554026262499 -0.42887225451549271 0 -0.41160927495564159 -0.44339431233754628 0 -0.42083332353326591 -0.42146747131641099 0 -0.40992282953163789 -0.42011435591993562 0 -0.41531815884496182 -0.42985383783075998 0 -0.42681803064840879 -0.42717069814352421 0 -0.42083332353326591 -0.42146747131641099 0 -0.41531815884496182 -0.42985383783075998 0 -0.44257020456291563 -0.38918913383950271 0 -0.42311368847744002 -0.37830224279505142 0 -0.42594061475171041 -0.39368797999533162 0 -0.44257020456291563 -0.38918913383950271 0 -0.42311368847744002 -0.37830224279505142 0 -0.44172858264042247 -0.37082207246888088 0 -0.44257020456291563 -0.38918913383950271 0 -0.42311368847744002 -0.37830224279505142 0 -0.42311368847744002 -0.37830224279505142 0 -0.42594061475171041 -0.39368797999533162 0 -0.416587075656149 -0.38785930376960043 0 -0.44257020456291563 -0.38918913383950271 0 -0.42594061475171041 -0.39368797999533162 0 -0.43479358559901082 -0.4041454901736512 0 -0.42594061475171041 -0.39368797999533162 0 -0.43479358559901082 -0.4041454901736512 0 -0.42460885511582858 -0.40417321677700252 0 -0.41997834854398469 -0.41180534796019508 0 -0.41325908582185972 -0.39811010703057192 0 -0.39770572831670092 -0.39911486077581648 0 -0.41997834854398469 -0.41180534796019508 0 -0.39770572831670092 -0.39911486077581648 0 -0.42594061475171041 -0.39368797999533162 0 -0.42460885511582858 -0.40417321677700252 0 -0.41325908582185972 -0.39811010703057192 0 -0.41997834854398469 -0.41180534796019508 0 -0.42460885511582858 -0.40417321677700252 0 -0.41325908582185972 -0.39811010703057192 0 -0.42594061475171041 -0.39368797999533162 0 -0.41325908582185972 -0.39811010703057192 0 -0.416587075656149 -0.38785930376960043 0 -0.41325908582185972 -0.39811010703057192 0 -0.416587075656149 -0.38785930376960043 0 -0.40403491357358612 -0.38133688525744702 0 -0.42311368847744002 -0.37830224279505142 0 -0.40403491357358612 -0.38133688525744702 0 -0.40365717239196519 -0.36741535175059892 0 -0.42311368847744002 -0.37830224279505142 0 -0.416587075656149 -0.38785930376960043 0 -0.40403491357358612 -0.38133688525744702 0 -0.40403491357358612 -0.38133688525744702 0 -0.39190790742475001 -0.38540387676521748 0 -0.39770572831670092 -0.39911486077581648 0 -0.40403491357358612 -0.38133688525744702 0 -0.39190790742475001 -0.38540387676521748 0 -0.3904578797192948 -0.37473938743617019 0 -0.41325908582185972 -0.39811010703057192 0 -0.40403491357358612 -0.38133688525744702 0 -0.39770572831670092 -0.39911486077581648 0 -0.39770572831670092 -0.39911486077581648 0 -0.37543310808941849 -0.38642437359143528 0 -0.39770572831670092 -0.39911486077581648 0 -0.37515920440272033 -0.40534038799344108 0 -0.37543310808941849 -0.38642437359143528 0 -0.39770572831670092 -0.39911486077581648 0 -0.37515920440272033 -0.40534038799344108 0 -0.39756877647335259 -0.40857286797681719
[...]
<PointData Scalars="" Vectors="displacement," Tensors="">
<DataArray type="Float64" Name="displacement" NumberOfComponents="3" format="ascii">
-0.0049996393061811327 -0.0049997184546602723 0 -0.0046614023395476351 -0.0049108668300969355 0 -0.0042147535893218143 -0.0049993337760695835 0 -0.0049996393061811327 -0.0049997184546602723 0 -0.0049202512374638329 -0.0048176833270259043 0 -0.0046614023395476351 -0.0049108668300969355 0 -0.0049996393061811327 -0.0049997184546602723 0 -0.0049202512374638329 -0.0048176833270259043 0 -0.0049997198946153216 -0.0044864713503874228 0 -0.0049202512374638329 -0.0048176833270259043 0 -0.0049997198946153216 -0.0044864713503874228 0 -0.0049505759437579386 -0.0047481184904382143 0 -0.0049997198946153216 -0.0044864713503874228 0 -0.0049505759437579386 -0.0047481184904382143 0 -0.005015924681099535 -0.0043942910790592017 0 -0.0048504332267335819 -0.0048820471101509791 0 -0.0048313975509972976 -0.0049214456421658535 0 -0.0049505759437579386 -0.0047481184904382143 0 -0.0053792315472254749 -0.0047916472780871753 0 -0.0054127377129497044 -0.0045779391391391677 0 -0.0049505759437579386 -0.0047481184904382143 0 -0.0054127377129497044 -0.0045779391391391677 0 -0.0052330419907411262 -0.0044134985752308526 0 -0.0049202512374638329 -0.0048176833270259043 0 -0.0049505759437579386 -0.0047481184904382143 0 -0.0046614023395476351 -0.0049108668300969355 0 -0.0049505759437579386 -0.0047481184904382143 0 -0.0046614023395476351 -0.0049108668300969355 0 -0.0045492370780601645 -0.0049970722916644773 0 -0.0046614023395476351 -0.0049108668300969355 0 -0.0043381528930049023 -0.0049465981418551431 0 -0.0045492370780601645 -0.0049970722916644773 0 -0.0046614023395476351 -0.0049108668300969355 0 -0.0042147535893218143 -0.0049993337760695835 0 -0.0043381528930049023 -0.0049465981418551431 0 -0.0042132383537548564 -0.0049999994127849241 0 -0.0041068678764391809 -0.0051885985491723985 0 -0.003938863110902289 -0.0049999991939208635 0 -0.0042133871345124783 -0.0050000643028706437 0 -0.0042815914893779986 -0.0050246878184132615 0 -0.003938863110902289 -0.0049999991939208635 0 -0.0038982314216434067 -0.0052130786199063419 0 -0.0037133354218451555 -0.0051566893162788337 0 -0.003938863110902289 -0.0049999991939208635 0 -0.0036644855523980681 -0.0049999990502424116 0 -0.0037133354218451555 -0.0051566893162788337 0 -0.0041068678764391809 -0.0051885985491723985 0 -0.003938863110902289 -0.0049999991939208635 0 -0.0038982314216434067 -0.0052130786199063419 0 -0.0041068678764391809 -0.0051885985491723985 0 -0.0038982314216434067 -0.0052130786199063419 0 -0.0040013369586794122 -0.0053767116635771535 0 -0.0042815914893779986 -0.0050246878184132615 0 -0.0044287490342757507 -0.0049379546117913307 0 -0.0038982314216434067 -0.0052130786199063419 0 -0.003766643796330983 -0.0053253733956241493 0 -0.0040013369586794122 -0.0053767116635771535 0 -0.0038982314216434067 -0.0052130786199063419 0 -0.003766643796330983 -0.0053253733956241493 0 -0.0037133354218451555 -0.0051566893162788337 0 -0.0037970802460853652 -0.0050644124072206096 0 -0.0044287490342757507 -0.0049379546117913307 0 -0.0034829220771721301 -0.0052844315962217222 0 -0.0034734451888222802 -0.0052814079463484702 0 -0.0034669757117987742 -0.0052844913909561855 0 -0.0034829220771721301 -0.0052844315962217222 0 -0.0034734451888222802 -0.0052814079463484702 0 -0.0034748569377628601 -0.0052832424915027175 0 -0.0034734451888222802 -0.0052814079463484702 0 -0.0034669757117987742 -0.0052844913909561855 0 -0.0034685344752765986 -0.0052733853952486569 0 -0.0056797324299701964 -0.0048159285316101107 0 -0.0057651121305733518 -0.0046158568641867558 0 -0.0055752368397615076 -0.0046730552225646965 0 -0.0044287490342757507 -0.0049379546117913307 0 -0.0044711161266827101 -0.004854253637103143 0 -0.0057651121305733518 -0.0046158568641867558 0 -0.0055752368397615076 -0.0046730552225646965 0 -0.0056364234024040526 -0.0045448523742736956 0 -0.0034685344752765986 -0.0052733853952486569 0 -0.0034748569377628601 -0.0052832424915027175 0 -0.0034750960192602592 -0.0052729886157373744 0 -0.0034734451888222802 -0.0052814079463484702 0 -0.0034685344752765986 -0.0052733853952486569 0 -0.0034748569377628601 -0.0052832424915027175 0 -0.0056797324299701964 -0.0048159285316101107 0 -0.0053792315472254749 -0.0047916472780871753 0 -0.0055752368397615076 -0.0046730552225646965 0 -0.0044287490342757507 -0.0049379546117913307 0 -0.0048313975509972976 -0.0049214456421658535 0 -0.0043381528930049023 -0.0049465981418551431 0 -0.004316377214526811 -0.0050213496798402349 0 -0.0045492370780601645 -0.0049970722916644773 0 -0.0055752368397615076 -0.0046730552225646965 0 -0.0054127377129497044 -0.0045779391391391677 0 -0.0055439180082066135 -0.0045612238646248653 0 -0.0055752368397615076 -0.0046730552225646965 0 -0.0055439180082066135 -0.0045612238646248653 0 -0.0056364234024040526 -0.0045448523742736956 0 -0.0053792315472254749 -0.0047916472780871753 0 -0.0055752368397615076 -0.0046730552225646965 0 -0.0054127377129497044 -0.0045779391391391677 0 -0.0054127377129497044 -0.0045779391391391677 0 -0.0054080743646013514 -0.0044374600186177461 0 -0.0052330419907411262 -0.0044134985752308526 0 -0.0054080743646013514 -0.0044374600186177461 0 -0.0053774278988355803 -0.0043056788822387572 0 -0.0052330419907411262 -0.0044134985752308526 0 -0.0054080743646013514 -0.0044374600186177461 0 -0.0054766425333405838 -0.0044370158816087251 0 -0.0054696317577643833 -0.0043723348357264736 0 -0.0054080743646013514 -0.0044374600186177461 0 -0.0054924301556516569 -0.004494924724536168 0 -0.0054766425333405838 -0.0044370158816087251 0 -0.0054127377129497044 -0.0045779391391391677 0 -0.0054080743646013514 -0.0044374600186177461 0 -0.0054924301556516569 -0.004494924724536168 0 -0.0054127377129497044 -0.0045779391391391677 0 -0.0055439180082066135 -0.0045612238646248653 0 -0.0054924301556516569 -0.004494924724536168 0 -0.0055439180082066135 -0.0045612238646248653 0 -0.0054924301556516569 -0.004494924724536168 0 -0.0055634184879906476 -0.0044835842322318862 0 -0.0055439180082066135 -0.0045612238646248653 0 -0.0055634184879906476 -0.0044835842322318862 0 -0.0056364234024040526 -0.0045448523742736956 0 -0.0055634184879906476 -0.0044835842322318862 0 -0.0056364234024040526 -0.0045448523742736956 0 -0.0056350349083193543 -0.0044592140217445302 0 -0.0053817497588612758 -0.0041897988010789235 0 -0.0053789078229054352 -0.0041558793648285635 0 -0.0055634184879906476 -0.0044835842322318862 0 -0.0055365645845131097 -0.0044435154076720718 0 -0.0055880026214696022 -0.0043550719501506642 0 -0.0055634184879906476 -0.0044835842322318862 0 -0.0055803783423164438 -0.0044243268191166696 0 -0.0056350349083193543 -0.0044592140217445302 0 -0.0053782958481646496 -0.004168908252612181 0 -0.0053789078229054352 -0.0041558793648285635 0 -0.0055365645845131097 -0.0044435154076720718 0 -0.0054696317577643833 -0.0043723348357264736 0 -0.0055792733558520085 -0.0043627451544700551 0 -0.0054924301556516569 -0.004494924724536168 0 -0.0054766425333405838 -0.0044370158816087251 0 -0.0055365645845131097 -0.0044435154076720718 0 -0.0054924301556516569 -0.004494924724536168 0 -0.0055634184879906476 -0.0044835842322318862 0 -0.0055365645845131097 -0.0044435154076720718 0 -0.0054766425333405838 -0.0044370158816087251 0 -0.0055365645845131097 -0.0044435154076720718 0 -0.0054696317577643833 -0.0043723348357264736 0 -0.0054696317577643833 -0.0043723348357264736 0 -0.0055792733558520085 -0.0043627451544700551 0 -0.0054848437151339613 -0.0042485804506859331 0 -0.0053789078229054352 -0.0041558793648285635 0 -0.0054125907427713628 -0.0039766431608479385 0 -0.0055792733558520085 -0.0043627451544700551 0 -0.0054848437151339613 -0.0042485804506859331 0 -0.0056103263794580931 -0.0041128027570065543 0 -0.0054848437151339613 -0.0042485804506859331 0 -0.0053774278988355803 -0.0043056788822387572 0 -0.005390205649152437 -0.0040954940429556485 0 -0.0053774278988355803 -0.0043056788822387572 0 -0.005390205649152437 -0.0040954940429556485 0 -0.0052353691738417588 -0.0042629801783800976 0 -0.0054696317577643833 -0.0043723348357264736 0 -0.0054848437151339613 -0.0042485804506859331 0 -0.0053774278988355803 -0.0043056788822387572 0 -0.0054080743646013514 -0.0044374600186177461 0 -0.0054696317577643833 -0.0043723348357264736 0 -0.0053774278988355803 -0.0043056788822387572 0 -0.0057651121305733518 -0.0046158568641867558 0 -0.0058216496546996633 -0.0044511612382509644 0 -0.0057155228823604276 -0.0044730655298942917 0 -0.0034685344752765986 -0.0052733853952486569 0 -0.0034697617893913804 -0.0052546786858163651 0 -0.0034750960192602592 -0.0052729886157373744 0 -0.0044711161266827101 -0.004854253637103143 0 -0.0044679762248739817 -0.004703356047643035 0 -0.0058216496546996633 -0.0044511612382509644 0 -0.0057155228823604276 -0.0044730655298942917 0 -0.0057516463648754597 -0.0044044391940499788 0 -0.0057651121305733518 -0.0046158568641867558 0 -0.0057155228823604276 -0.0044730655298942917 0 -0.0056364234024040526 -0.0045448523742736956 0 -0.0057155228823604276 -0.0044730655298942917 0 -0.0056364234024040526 -0.0045448523742736956 0 -0.0056350349083193543 -0.0044592140217445302 0 -0.0055803783423164438 -0.0044243268191166696 0 -0.0056803450549155901 -0.0043798181736072932 0 -0.0056767947206147942 -0.0042771936085203351 0 -0.0053789078229054352 -0.0041558793648285635 0 -0.005347035573465231 -0.0039841119492332322 0 -0.0057155228823604276 -0.0044730655298942917 0 -0.0056350349083193543 -0.0044592140217445302 0 -0.0056803450549155901 -0.0043798181736072932 0 -0.0055803783423164438 -0.0044243268191166696 0 -0.0056350349083193543 -0.0044592140217445302 0 -0.0056803450549155901 -0.0043798181736072932 0 -0.0057155228823604276 -0.0044730655298942917 0 -0.0056803450549155901 -0.0043798181736072932 0 -0.0057516463648754597 -0.0044044391940499788 0 -0.0056803450549155901 -0.0043798181736072932 0 -0.0057516463648754597 -0.0044044391940499788 0 -0.0057883693115793012 -0.0043159414552548644 0 -0.0058216496546996633 -0.0044511612382509644 0 -0.0057883693115793012 -0.0043159414552548644 0 -0.0058847561645604335 -0.0043136959899331617 0 -0.0058216496546996633 -0.0044511612382509644 0 -0.0057516463648754597 -0.0044044391940499788 0 -0.0057883693115793012 -0.0043159414552548644 0 -0.0057883693115793012 -0.0043159414552548644 0 -0.0057592674239930284 -0.0042463077166849262 0 -0.0056767947206147942 -0.0042771936085203351 0 -0.0057883693115793012 -0.0043159414552548644 0 -0.0057592674239930284 -0.0042463077166849262 0 -0.0058166780092398047 -0.0042392658784226487 0 -0.0056803450549155901 -0.0043798181736072932 0 -0.0057883693115793012 -0.0043159414552548644 0 -0.0056767947206147942 -0.0042771936085203351 0 -0.005347035573465231 -0.0039841119492332322 0 -0.0052265570773549624 -0.0037163226079166382 0 -0.0053863830753944136 -0.0039177411383633691 0 -0.0053450181452681872 -0.0037679321293828086 0 -0.0054699081183387458 -0.0037696357784378237 0 -0.0053863830753944136 -0.0039177411383633691 0 -0.0053450181452681872 -0.0037679321293828086 0 -0.0053236936399749333 -0.0039169232497219316 0 -0.0054304310635757205 -0.0037232567209678738 0 -0.0052265570773549624 -0.0037163226079166382 0 -0.0057534450026049773 -0.0041560605033618622 0 -0.0058166780092398047 -0.0042392658784226487 0 -0.0058434465277597131 -0.0041612139394916993 0 -0.0057592674239930284 -0.0042463077166849262 0 -0.0057534450026049773 -0.0041560605033618622 0 -0.0058166780092398047 -0.0042392658784226487 0 -0.0052265570773549624 -0.0037163226079166382 0 -0.0049473344338634498 -0.0038094760372963587 0 -0.0057592674239930284 -0.0042463077166849262 0 -0.0056767947206147942 -0.0042771936085203351 0 -0.0057534450026049773 -0.0041560605033618622 0 -0.0053025948377184509 -0.0040665337991007923 0 -0.0053863830753944136 -0.0039177411383633691 0 -0.0053236936399749333 -0.0039169232497219316 0 -0.0054848437151339613 -0.0042485804506859331 0 -0.005390205649152437 -0.0040954940429556485 0 -0.0056103263794580931 -0.0041128027570065543 0 -0.0056441162561688442 -0.0038712447719792594 0 -0.005390205649152437 -0.0040954940429556485 0 -0.0056103263794580931 -0.0041128027570065543 0 -0.0054304310635757205 -0.0037232567209678738 0 -0.0054125907427713628 -0.0039766431608479385 0 -0.0056441162561688442 -0.0038712447719792594 0 -0.005390205649152437 -0.0040954940429556485 0 -0.005320015641809667 -0.003868055300903373 0 -0.005390205649152437 -0.0040954940429556485 0 -0.0052017474519982614 -0.0040639740162096583 0 -0.005320015641809667 -0.003868055300903373 0 -0.0052017474519982614 -0.0040639740162096583 0 -0.0049994354974628929 -0.0038639504209274154 0 -0.005320015641809667 -0.003868055300903373 0 -0.005390205649152437 -0.0040954940429556485 0 -0.0052017474519982614 -0.0040639740162096583 0 -0.0052353691738417588 -0.0042629801783800976 0 -0.0052017474519982614 -0.0040639740162096583 0 -0.0050848504096374838 -0.0041806732499068723 0 -0.0052353691738417588 -0.0042629801783800976 0 -0.0051479400651945617 -0.0041897776216814619 0 -0.0050855830451640698 -0.004024884627040844 0 -0.0050825216228470547 -0.0042327085800389578 0 -0.0054145612904725037 -0.0040302730178229619 0 -0.0053759773605043283 -0.003887239194804618 0 -0.0052094912522126008 -0.0039200624292816512 0 -0.0052405477996802603 -0.0039770325013571599 0 -0.0051267860971786483 -0.0039092273275443947 0 -0.0052405477996802603 -0.0039770325013571599 0 -0.00524066839965397 -0.0039790594453068063 0 -0.0052405477996802603 -0.0039770325013571599 0 -0.0052411910214988167 -0.0038956501742515776 0 -0.0052017474519982614 -0.0040639740162096583 0 -0.0050848504096374838 -0.0041806732499068723 0 -0.005042182433940218 -0.0040222506175274569 0 -0.0052017474519982614 -0.0040639740162096583 0 -0.005042182433940218 -0.0040222506175274569 0 -0.0049994354974628929 -0.0038639504209274154 0 -0.0052411910214988167 -0.0038956501742515776 0 -0.005239590135321574 -0.0037713812639051376 0 -0.0053759773605043283 -0.003887239194804618 0 -0.0052790300940635821 -0.0038353959402962906 0 -0.0053373536527460434 -0.0037431347724434971 0 -0.0052790300940635821 -0.0038353959402962906 0 -0.0052094912522126008 -0.0039200624292816512 0 -0.005223598983922495 -0.0037408439041532525 0 -0.0052094912522126008 -0.0039200624292816512 0 -0.0051013944430206249 -0.0037238955790206561 0 -0.005223598983922495 -0.0037408439041532525 0 -0.0052790300940635821 -0.0038353959402962906 0 -0.005223598983922495 -0.0037408439041532525 0 -0.0053373536527460434 -0.0037431347724434971 0 -0.0053759773605043283 -0.003887239194804618 0 -0.0052790300940635821 -0.0038353959402962906 0 -0.0052094912522126008 -0.0039200624292816512 0 -0.0050000945229347572 -0.0038095948305405468 0 -0.0051267860971786483 -0.0039092273275443947 0 -0.0050000004677931264 -0.0038094655587555416 0 -0.0052094912522126008 -0.0039200624292816512 0 -0.0051013944430206249 -0.0037238955790206561 0 -0.004999983386273949 -0.0038096423936127017 0 -0.0050855830451640698 -0.004024884627040844 0 -0.004999875976856279 -0.0040998689489990707 0 -0.0050855830451640698 -0.004024884627040844 0 -0.0050825216228470547 -0.0042327085800389578 0 -0.004999875976856279 -0.0040998689489990707 0 -0.0050825216228470547 -0.0042327085800389578 0 -0.004999875976856279 -0.0040998689489990707 0 -0.005015924681099535 -0.0043942910790592017 0 -0.0049997198946153216 -0.0044864713503874228 0 -0.004999875976856279 -0.0040998689489990707 0 -0.005015924681099535 -0.0043942910790592017 0 -0.0050825216228470547 -0.0042327085800389578 0 -0.005015924681099535 -0.0043942910790592017 0 -0.0050732212960580333 -0.0044058803552889025 0 -0.0049505759437579386 -0.0047481184904382143 0 -0.005015924681099535 -0.0043942910790592017 0 -0.0050732212960580333 -0.0044058803552889025 0 -0.0049505759437579386 -0.0047481184904382143 0 -0.0050732212960580333 -0.0044058803552889025 0 -0.0052330419907411262 -0.0044134985752308526 0 -0.0050732212960580333 -0.0044058803552889025 0 -0.0052330419907411262 -0.0044134985752308526 0 -0.0051486607882148903 -0.0043013332931643592 0 -0.0052330419907411262 -0.0044134985752308526 0 -0.0052353691738417588 -0.0042629801783800976 0 -0.0051486607882148903 -0.0043013332931643592 0 -0.0053774278988355803 -0.0043056788822387572 0 -0.0052330419907411262 -0.0044134985752308526 0 -0.0052353691738417588 -0.0042629801783800976 0 -0.0051425922938275279 -0.0041907668171524762 0 -0.0052353691738417588 -0.0042629801783800976 0 -0.0051467716266244967 -0.0042104881439843046 0 -0.0052353691738417588 -0.0042629801783800976 0 -0.0051467716266244967 -0.0042104881439843046 0 -0.0051486607882148903 -0.0043013332931643592 0 -0.0052405477996802603 -0.0039770325013571599 0 -0.0052507882758765249 -0.0040100835712977446 0 -0.0050825216228470547 -0.0042327085800389578 0 -0.0051467716266244967 -0.0042104881439843046 0 -0.0051486607882148903 -0.0043013332931643592 0 -0.0051479400651945617 -0.0041897776216814619 0 -0.0050825216228470547 -0.0042327085800389578 0 -0.0051467716266244967 -0.0042104881439843046 0 -0.0050825216228470547 -0.0042327085800389578 0 -0.0050732212960580333 -0.0044058803552889025 0 -0.0051486607882148903 -0.0043013332931643592 0 -0.0021407754228631192 -0.0052436196165838254 0 -0.001916064625150742 -0.0049685698812572711 0 -0.0025161228275333942 -0.0053971518810255817 0 -0.0025023756856304004 -0.0056983986277472868 0 -0.0023425401442477667 -0.0054684434137171802 0 -0.0027476378620451213 -0.0054687063143161064 0 -0.0025586088208621269 -0.0054060233106000147 0 -0.0025424488135929787 -0.0056191772147700138 0 -0.0027476378620451213 -0.0054687063143161064 0 -0.0027373028467230871 -0.005654093627038225 0 -0.0025424488135929787 -0.0056191772147700138 0 -0.0027476378620451213 -0.0054687063143161064 0 -0.0029198690339489238 -0.00554887202233362 0 -0.0027373028467230871 -0.005654093627038225 0 -0.0027476378620451213 -0.0054687063143161064 0 -0.0026757839527470463 -0.0053043555136802669 0 -0.0028254299336473803 -0.005285724305962562 0 -0.0027476378620451213 -0.0054687063143161064 0 -0.0026757839527470463 -0.0053043555136802669 0 -0.0025586088208621269 -0.0054060233106000147 0 -0.0021407754228631192 -0.0052436196165838254 0 -0.0022141897931424789 -0.0052322915408298263 0 -0.0026757839527470463 -0.0053043555136802669 0 -0.0025586088208621269 -0.0054060233106000147 0 -0.0025634070255929403 -0.0051828746130868431 0 -0.0025161228275333942 -0.0053971518810255817 0 -0.0025634070255929403 -0.0051828746130868431 0 -0.002308719134299371 -0.0052355558353340799 0 -0.0025634070255929403 -0.0051828746130868431 0 -0.0025669523118403456 -0.0049999555049036462 0 -0.0027357451816628861 -0.0051459811500042495 0 -0.0025634070255929403 -0.0051828746130868431 0 -0.0025669523118403456 -0.0049999555049036462 0 -0.0023996057860876667 -0.0050966907684910521 0 -0.0025669523118403456 -0.0049999555049036462 0 -0.0027357451816628861 -0.0051459811500042495 0 -0.0028413459864595359 -0.0049999937918891769 0 -0.0026757839527470463 -0.0053043555136802669 0 -0.0025634070255929403 -0.0051828746130868431 0 -0.0027357451816628861 -0.0051459811500042495 0 -0.0026757839527470463 -0.0053043555136802669 0 -0.0027357451816628861 -0.0051459811500042495 0 -0.0028254299336473803 -0.005285724305962562 0 -0.0028254299336473803 -0.005285724305962562 0 -0.0029153337524144489 -0.0051308535085669649 0 -0.0029788996654417283 -0.005262329447759965 0 -0.0027357451816628861 -0.0051459811500042495 0 -0.0028254299336473803 -0.005285724305962562 0 -0.0029153337524144489 -0.0051308535085669649 0 -0.0028413459864595359 -0.0049999937918891769 0 -0.0029153337524144489 -0.0051308535085669649 0 -0.0031157197851785969 -0.0049999917004463117 0 -0.0027357451816628861 -0.0051459811500042495 0 -0.0028413459864595359 -0.0049999937918891769 0 -0.0029153337524144489 -0.0051308535085669649 0 -0.0029153337524144489 -0.0051308535085669649 0 -0.0031157197851785969 -0.0049999917004463117 0 -0.0030561143689310424 -0.005160492786061086 0 -0.0030561143689310424 -0.005160492786061086 0 -0.0029788996654417283 -0.005262329447759965 0 -0.0031374934600320765 -0.0052562320947962425 0 -0.0029