<?xml version="1.0"?>
<VTKFile type="UnstructuredGrid" version="0.1" byte_order="LittleEndian">
<UnstructuredGrid>
<Piece NumberOfPoints="30408" NumberOfCells="10660">
<Points>
<DataArray type="Float64" NumberOfComponents="3" format="ascii">
-0.5 -0.5 0 -0.48728920567917788 -0.47812354948905478 0 -0.47457841135835821 -0.49999999999999889 0 -0.5 -0.5 0 -0.48728920567917788 -0.47812354948905478 0 -0.49999999999999878 -0.45624709897811161 0 -0.48728920567917788 -0.47812354948905478 0 -0.45796865371873302 -0.47359212681047042 0 -0.4753129816133379 -0.45509707814115657 0 -0.48728920567917788 -0.47812354948905478 0 -0.47457841135835821 -0.49999999999999889 0 -0.45796865371873302 -0.47359212681047042 0 -0.48728920567917788 -0.47812354948905478 0 -0.47457841135835821 -0.49999999999999889 0 -0.47457841135835821 -0.49999999999999889 0 -0.45796865371873302 -0.47359212681047042 0 -0.44554127646562608 -0.5 0 -0.45796865371873302 -0.47359212681047042 0 -0.43895256107788272 -0.46418604935823582 0 -0.431143392866355 -0.4829056483630087 0 -0.45796865371873302 -0.47359212681047042 0 -0.44554127646562608 -0.5 0 -0.431143392866355 -0.4829056483630087 0 -0.44406115625028347 -0.44557703332384968 0 -0.43895256107788272 -0.46418604935823582 0 -0.45755621545568831 -0.45508379997785497 0 -0.45796865371873302 -0.47359212681047042 0 -0.43895256107788272 -0.46418604935823582 0 -0.45755621545568831 -0.45508379997785497 0 -0.45796865371873302 -0.47359212681047042 0 -0.45755621545568831 -0.45508379997785497 0 -0.4753129816133379 -0.45509707814115657 0 -0.44406115625028347 -0.44557703332384968 0 -0.46270743750018922 -0.43383980450693532 0 -0.45755621545568831 -0.45508379997785497 0 -0.4753129816133379 -0.45509707814115657 0 -0.46270743750018922 -0.43383980450693532 0 -0.44406115625028347 -0.44557703332384968 0 -0.45755621545568831 -0.45508379997785497 0 -0.46270743750018922 -0.43383980450693532 0 -0.48355582246932982 -0.43955597354456699 0 -0.4753129816133379 -0.45509707814115657 0 -0.46270743750018922 -0.43383980450693532 0 -0.48728920567917788 -0.47812354948905478 0 -0.4753129816133379 -0.45509707814115657 0 -0.49999999999999878 -0.45624709897811161 0 -0.48728920567917788 -0.47812354948905478 0 -0.49999999999999878 -0.45624709897811161 0 -0.48355582246932982 -0.43955597354456699 0 -0.4753129816133379 -0.45509707814115657 0 -0.49999999999999878 -0.45624709897811161 0 -0.48355582246932982 -0.43955597354456699 0 -0.49999999999999878 -0.45624709897811161 0 -0.5 -0.43330622292560877 0 -0.5 -0.43330622292560877 0 -0.50000000000000033 -0.41036534687310622 0 -0.48135371875009481 -0.42210257569002091 0 -0.48355582246932982 -0.43955597354456699 0 -0.5 -0.43330622292560877 0 -0.48135371875009481 -0.42210257569002091 0 -0.50000000000000033 -0.41036534687310622 0 -0.48135371875009481 -0.42210257569002091 0 -0.48119457335462751 -0.39876517600984052 0 -0.50000000000000033 -0.41036534687310622 0 -0.48135371875009481 -0.42210257569002091 0 -0.48135371875009481 -0.42210257569002091 0 -0.48119457335462751 -0.39876517600984052 0 -0.46213276538250309 -0.40907779854437148 0 -0.48355582246932982 -0.43955597354456699 0 -0.48135371875009481 -0.42210257569002091 0 -0.46270743750018922 -0.43383980450693532 0 -0.48135371875009481 -0.42210257569002091 0 -0.46270743750018922 -0.43383980450693532 0 -0.5 -0.3866586425210472 0 -0.48119457335462751 -0.39876517600984052 0 -0.48214980597205981 -0.37354478465247692 0 -0.50000000000000033 -0.41036534687310622 0 -0.5 -0.3866586425210472 0 -0.48119457335462751 -0.39876517600984052 0 -0.48119457335462751 -0.39876517600984052 0 -0.45965944934187197 -0.3835265264780266 0 -0.48214980597205981 -0.37354478465247692 0 -0.45965944934187197 -0.3835265264780266 0 -0.44512036584187192 -0.39515352896851152 0 -0.46213276538250309 -0.40907779854437148 0 -0.48119457335462751 -0.39876517600984052 0 -0.45965944934187197 -0.3835265264780266 0 -0.46213276538250309 -0.40907779854437148 0 -0.44512036584187192 -0.39515352896851152 0 -0.46213276538250309 -0.40907779854437148 0 -0.44219295780541518 -0.4127650862795158 0 -0.45965944934187197 -0.3835265264780266 0 -0.43773489970876062 -0.37893272234885411 0 -0.44595923176202978 -0.36285224699860202 0 -0.45965944934187197 -0.3835265264780266 0 -0.44512036584187192 -0.39515352896851152 0 -0.43773489970876062 -0.37893272234885411 0 -0.48135371875009481 -0.42210257569002091 0 -0.46270743750018922 -0.43383980450693532 0 -0.46213276538250309 -0.40907779854437148 0 -0.46270743750018922 -0.43383980450693532 0 -0.46213276538250309 -0.40907779854437148 0 -0.44219295780541518 -0.4127650862795158 0 -0.44406115625028347 -0.44557703332384968 0 -0.46270743750018922 -0.43383980450693532 0 -0.43613018164064621 -0.43054320296919629 0 -0.46270743750018922 -0.43383980450693532 0 -0.44219295780541518 -0.4127650862795158 0 -0.43613018164064621 -0.43054320296919629 0 -0.43613018164064621 -0.43054320296919629 0 -0.41580689616692151 -0.41931562626284641 0 -0.42127618011461121 -0.44494189178820998 0 -0.44219295780541518 -0.4127650862795158 0 -0.41580689616692151 -0.41931562626284641 0 -0.42388175697080882 -0.39146551119179002 0 -0.44219295780541518 -0.4127650862795158 0 -0.43613018164064621 -0.43054320296919629 0 -0.41580689616692151 -0.41931562626284641 0 -0.41580689616692151 -0.41931562626284641 0 -0.40492669662672248 -0.43798144108999898 0 -0.42127618011461121 -0.44494189178820998 0 -0.43773489970876062 -0.37893272234885411 0 -0.42388175697080882 -0.39146551119179002 0 -0.42164047719416831 -0.36571281550079932 0 -0.44512036584187192 -0.39515352896851152 0 -0.43773489970876062 -0.37893272234885411 0 -0.42388175697080882 -0.39146551119179002 0 -0.44512036584187192 -0.39515352896851152 0 -0.44219295780541518 -0.4127650862795158 0 -0.42388175697080882 -0.39146551119179002 0 -0.41580689616692151 -0.41931562626284641 0 -0.42388175697080882 -0.39146551119179002 0 -0.40466629537859061 -0.39383192658213789 0 -0.42388175697080882 -0.39146551119179002 0 -0.40466629537859061 -0.39383192658213789 0 -0.40041477615190257 -0.37421588034056702 0 -0.42388175697080882 -0.39146551119179002 0 -0.42164047719416831 -0.36571281550079932 0 -0.40041477615190257 -0.37421588034056702 0 -0.40466629537859061 -0.39383192658213789 0 -0.38418505506694889 -0.38324518264567631 0 -0.40041477615190257 -0.37421588034056702 0 -0.40466629537859061 -0.39383192658213789 0 -0.38418505506694889 -0.38324518264567631 0 -0.39240925305874041 -0.4075924160768542 0 -0.39240925305874041 -0.4075924160768542 0 -0.36901160995055871 -0.39586920589086277 0 -0.38418505506694889 -0.38324518264567631 0 -0.39240925305874041 -0.4075924160768542 0 -0.36901160995055871 -0.39586920589086277 0 -0.39040948516682877 -0.42707199842964833 0 -0.40492669662672248 -0.43798144108999898 0 -0.39349440114382189 -0.44640943604882938 0 -0.41580689616692151 -0.41931562626284641 0 -0.39040948516682877 -0.42707199842964833 0 -0.40492669662672248 -0.43798144108999898 0 -0.41580689616692151 -0.41931562626284641 0 -0.40466629537859061 -0.39383192658213789 0 -0.39240925305874041 -0.4075924160768542 0 -0.41580689616692151 -0.41931562626284641 0 -0.39240925305874041 -0.4075924160768542 0 -0.41580689616692151 -0.41931562626284641 0 -0.39240925305874041 -0.4075924160768542 0 -0.39040948516682877 -0.42707199842964833 0 -0.39240925305874041 -0.4075924160768542 0 -0.37131414953934072 -0.41650685080044397 0 -0.36901160995055871 -0.39586920589086277 0 -0.39240925305874041 -0.4075924160768542 0 -0.39040948516682877 -0.42707199842964833 0 -0.37131414953934072 -0.41650685080044397 0 -0.39040948516682877 -0.42707199842964833 0 -0.3736166891281224 -0.43714449571002539 0 -0.37131414953934072 -0.41650685080044397 0 -0.39040948516682877 -0.42707199842964833 0 -0.39349440114382189 -0.44640943604882938 0 -0.3736166891281224 -0.43714449571002539 0 -0.39349440114382189 -0.44640943604882938 0 -0.3736166891281224 -0.43714449571002539 0 -0.39349440114382189 -0.44640943604882938 0 -0.37555412519250708 -0.45450972049335719 0 -0.3736166891281224 -0.43714449571002539 0 -0.40492669662672248 -0.43798144108999898 0 -0.39349440114382189 -0.44640943604882938 0 -0.40542061812618552 -0.45850642187159429 0 -0.39349440114382189 -0.44640943604882938 0 -0.40542061812618552 -0.45850642187159429 0 -0.39345103148875782 -0.47157122915297589 0 -0.39349440114382189 -0.44640943604882938 0 -0.37555412519250708 -0.45450972049335719 0 -0.39345103148875782 -0.47157122915297589 0 -0.37555412519250708 -0.45450972049335719 0 -0.37709726016953132 -0.48180856267781452 0 -0.39345103148875782 -0.47157122915297589 0 -0.37709726016953132 -0.48180856267781452 0 -0.38746700668016187 -0.5 0 -0.39345103148875782 -0.47157122915297589 0 -0.38746700668016187 -0.5 0 -0.39345103148875782 -0.47157122915297589 0 -0.40906861719514143 -0.48213408807100161 0 -0.38746700668016187 -0.5 0 -0.40906861719514143 -0.48213408807100161 0 -0.416504141572894 -0.5 0 -0.40542061812618552 -0.45850642187159429 0 -0.39345103148875782 -0.47157122915297589 0 -0.40906861719514143 -0.48213408807100161 0 -0.40542061812618552 -0.45850642187159429 0 -0.40906861719514143 -0.48213408807100161 0 -0.41912587376411509 -0.46713929473837967 0 -0.40906861719514143 -0.48213408807100161 0 -0.431143392866355 -0.4829056483630087 0 -0.41912587376411509 -0.46713929473837967 0 -0.40906861719514143 -0.48213408807100161 0 -0.416504141572894 -0.5 0 -0.431143392866355 -0.4829056483630087 0 -0.44554127646562608 -0.5 0 -0.416504141572894 -0.5 0 -0.431143392866355 -0.4829056483630087 0 -0.43895256107788272 -0.46418604935823582 0 -0.431143392866355 -0.4829056483630087 0 -0.41912587376411509 -0.46713929473837967 0 -0.43895256107788272 -0.46418604935823582 0 -0.42127618011461121 -0.44494189178820998 0 -0.41912587376411509 -0.46713929473837967 0 -0.44406115625028347 -0.44557703332384968 0 -0.43613018164064621 -0.43054320296919629 0 -0.42127618011461121 -0.44494189178820998 0 -0.44406115625028347 -0.44557703332384968 0 -0.43895256107788272 -0.46418604935823582 0 -0.42127618011461121 -0.44494189178820998 0 -0.40492669662672248 -0.4
[...]
<PointData Scalars="" Vectors="displacement," Tensors="">
<DataArray type="Float64" Name="displacement" NumberOfComponents="3" format="ascii">
-0.044999305106126403 -0.04499747873726654 0 -0.04359768894903291 -0.045216389368531493 0 -0.044998879641925713 -0.042717019588796402 0 -0.044999305106126403 -0.04499747873726654 0 -0.04359768894903291 -0.045216389368531493 0 -0.041064738581939153 -0.045000058948932685 0 -0.042763526546867069 -0.042851730707084583 0 -0.043464875817603534 -0.041933786002600497 0 -0.041734780427000351 -0.043333179234212038 0 -0.042763526546867069 -0.042851730707084583 0 -0.044996638677892116 -0.042708334257137 0 -0.043464875817603534 -0.041933786002600497 0 -0.043177506228540545 -0.044014711198554143 0 -0.044999092494015576 -0.042712479189126761 0 -0.044996638677892116 -0.042708334257137 0 -0.043464875817603534 -0.041933786002600497 0 -0.044998618932029083 -0.04010113953236303 0 -0.043464875817603534 -0.041933786002600497 0 -0.043533447438992595 -0.040861770063786593 0 -0.044522261146105163 -0.0396729338955297 0 -0.043464875817603534 -0.041933786002600497 0 -0.044998618932029083 -0.04010113953236303 0 -0.044522261146105163 -0.0396729338955297 0 -0.042181741884032675 -0.04155347512396388 0 -0.043533447438992595 -0.040861770063786593 0 -0.042347861681371918 -0.042285594451295073 0 -0.043464875817603534 -0.041933786002600497 0 -0.043533447438992595 -0.040861770063786593 0 -0.042347861681371918 -0.042285594451295073 0 -0.043464875817603534 -0.041933786002600497 0 -0.042347861681371918 -0.042285594451295073 0 -0.041734780427000351 -0.043333179234212038 0 -0.041804260998821771 -0.041880627580550472 0 -0.040466661892283096 -0.042741374816057269 0 -0.042347861681371918 -0.042285594451295073 0 -0.041734780427000351 -0.043333179234212038 0 -0.041500808776924941 -0.04336510569048297 0 -0.042181741884032675 -0.04155347512396388 0 -0.042347861681371918 -0.042285594451295073 0 -0.041500808776924941 -0.04336510569048297 0 -0.040569530722135781 -0.044370699934339689 0 -0.041734780427000351 -0.043333179234212038 0 -0.041500808776924941 -0.04336510569048297 0 -0.042763526546867069 -0.042851730707084583 0 -0.041734780427000351 -0.043333179234212038 0 -0.04106228374788401 -0.044995314386262197 0 -0.043177506228540545 -0.044014711198554143 0 -0.041063209812804764 -0.044999700382325869 0 -0.040569530722135781 -0.044370699934339689 0 -0.041734780427000351 -0.043333179234212038 0 -0.04106228374788401 -0.044995314386262197 0 -0.040569530722135781 -0.044370699934339689 0 -0.04106228374788401 -0.044995314386262197 0 -0.038999699497250101 -0.044999401067183864 0 -0.038999699497250101 -0.044999401067183864 0 -0.036934651618482833 -0.044999443096069007 0 -0.039572647031498924 -0.044786636298673785 0 -0.040569530722135781 -0.044370699934339689 0 -0.038999699497250101 -0.044999401067183864 0 -0.039572647031498924 -0.044786636298673785 0 -0.036930637078149912 -0.044997372373736522 0 -0.037523074917774214 -0.043335844313808977 0 -0.036547925346749 -0.044067343548138044 0 -0.036933500861941082 -0.044999423258119661 0 -0.038562309528906935 -0.043983757060449186 0 -0.037523074917774214 -0.043335844313808977 0 -0.036547925346749 -0.044067343548138044 0 -0.037791460235238418 -0.04289329038367435 0 -0.040569530722135781 -0.044370699934339689 0 -0.039572647031498924 -0.044786636298673785 0 -0.041500808776924941 -0.04336510569048297 0 -0.038562309528906935 -0.043983757060449186 0 -0.040466661892283096 -0.042741374816057269 0 -0.034801524561949022 -0.044998838561621436 0 -0.036547925346749 -0.044067343548138044 0 -0.03460661909574219 -0.044556088501755575 0 -0.036930637078149912 -0.044997372373736522 0 -0.034801524561949022 -0.044998838561621436 0 -0.036547925346749 -0.044067343548138044 0 -0.036547925346749 -0.044067343548138044 0 -0.036224378526871846 -0.043620914474551707 0 -0.03460661909574219 -0.044556088501755575 0 -0.036224378526871846 -0.043620914474551707 0 -0.037407682989556851 -0.042924449584925556 0 -0.037791460235238418 -0.04289329038367435 0 -0.036547925346749 -0.044067343548138044 0 -0.036224378526871846 -0.043620914474551707 0 -0.037791460235238418 -0.04289329038367435 0 -0.037407682989556851 -0.042924449584925556 0 -0.037791460235238418 -0.04289329038367435 0 -0.038983266147693998 -0.042283275376347969 0 -0.036224378526871846 -0.043620914474551707 0 -0.036643424241971034 -0.043299873313212993 0 -0.035701149749873588 -0.043739151308041332 0 -0.036224378526871846 -0.043620914474551707 0 -0.037407682989556851 -0.042924449584925556 0 -0.036643424241971034 -0.043299873313212993 0 -0.037523074917774214 -0.043335844313808977 0 -0.039385124745108184 -0.042059425271375392 0 -0.037791460235238418 -0.04289329038367435 0 -0.039385124745108184 -0.042059425271375392 0 -0.037791460235238418 -0.04289329038367435 0 -0.038983266147693998 -0.042283275376347969 0 -0.042181741884032675 -0.04155347512396388 0 -0.039385124745108184 -0.042059425271375392 0 -0.040918651274764899 -0.041707782681014417 0 -0.039385124745108184 -0.042059425271375392 0 -0.038983266147693998 -0.042283275376347969 0 -0.040918651274764899 -0.041707782681014417 0 -0.040918651274764899 -0.041707782681014417 0 -0.04074291031861469 -0.041817630354487254 0 -0.04303114657740445 -0.040734121958805353 0 -0.038983266147693998 -0.042283275376347969 0 -0.04074291031861469 -0.041817630354487254 0 -0.037503377902173798 -0.042880170332589472 0 -0.038983266147693998 -0.042283275376347969 0 -0.040918651274764899 -0.041707782681014417 0 -0.04074291031861469 -0.041817630354487254 0 -0.04074291031861469 -0.041817630354487254 0 -0.043275979626205156 -0.04040442037031728 0 -0.04303114657740445 -0.040734121958805353 0 -0.036643424241971034 -0.043299873313212993 0 -0.037503377902173798 -0.042880170332589472 0 -0.036467549033981549 -0.04346821356135324 0 -0.037407682989556851 -0.042924449584925556 0 -0.036643424241971034 -0.043299873313212993 0 -0.037503377902173798 -0.042880170332589472 0 -0.037407682989556851 -0.042924449584925556 0 -0.038983266147693998 -0.042283275376347969 0 -0.037503377902173798 -0.042880170332589472 0 -0.04074291031861469 -0.041817630354487254 0 -0.037503377902173798 -0.042880170332589472 0 -0.037665285031836679 -0.043262669214460543 0 -0.037503377902173798 -0.042880170332589472 0 -0.037665285031836679 -0.043262669214460543 0 -0.036912096456547271 -0.043418830752383883 0 -0.037503377902173798 -0.042880170332589472 0 -0.036467549033981549 -0.04346821356135324 0 -0.036912096456547271 -0.043418830752383883 0 -0.037665285031836679 -0.043262669214460543 0 -0.037150571122445943 -0.043403868123804354 0 -0.036912096456547271 -0.043418830752383883 0 -0.037665285031836679 -0.043262669214460543 0 -0.037150571122445943 -0.043403868123804354 0 -0.038469376875265443 -0.043728152417091819 0 -0.039994021307954833 -0.04268051740485479 0 -0.039460345654104889 -0.041316320290599728 0 -0.037150571122445943 -0.043403868123804354 0 -0.038469376875265443 -0.043728152417091819 0 -0.037431657868183955 -0.043605054917064096 0 -0.042389978623467384 -0.040920730607210291 0 -0.043275979626205156 -0.04040442037031728 0 -0.045030936591565977 -0.039462652723654755 0 -0.04074291031861469 -0.041817630354487254 0 -0.042389978623467384 -0.040920730607210291 0 -0.043275979626205156 -0.04040442037031728 0 -0.04074291031861469 -0.041817630354487254 0 -0.037665285031836679 -0.043262669214460543 0 -0.038469376875265443 -0.043728152417091819 0 -0.040765670108498839 -0.041616683012030704 0 -0.039994021307954833 -0.04268051740485479 0 -0.04074291031861469 -0.041817630354487254 0 -0.041686320253471895 -0.041093407678197975 0 -0.042389978623467384 -0.040920730607210291 0 -0.041686320253471895 -0.041093407678197975 0 -0.041947640921707934 -0.042142330281039989 0 -0.040995673930422853 -0.042231674333780542 0 -0.041686320253471895 -0.041093407678197975 0 -0.042389978623467384 -0.040920730607210291 0 -0.041947640921707934 -0.042142330281039989 0 -0.042389978623467384 -0.040920730607210291 0 -0.043512478297810589 -0.042316090968255816 0 -0.041947640921707934 -0.042142330281039989 0 -0.042389978623467384 -0.040920730607210291 0 -0.045030936591565977 -0.039462652723654755 0 -0.043512478297810589 -0.042316090968255816 0 -0.045151118225044494 -0.040126373109608746 0 -0.044630614828688825 -0.036879472981391666 0 -0.045030936591565977 -0.039462652723654755 0 -0.046221144164064004 -0.036196418749920072 0 -0.047768692374399513 -0.036239006726906095 0 -0.043275979626205156 -0.04040442037031728 0 -0.045030936591565977 -0.039462652723654755 0 -0.044578130810675458 -0.039308108217796324 0 -0.045030936591565977 -0.039462652723654755 0 -0.044578130810675458 -0.039308108217796324 0 -0.045055185606942647 -0.037428020097806623 0 -0.045030936591565977 -0.039462652723654755 0 -0.046221144164064004 -0.036196418749920072 0 -0.045055185606942647 -0.037428020097806623 0 -0.046221144164064004 -0.036196418749920072 0 -0.045223667904844563 -0.034983408265915089 0 -0.045055185606942647 -0.037428020097806623 0 -0.045223667904844563 -0.034983408265915089 0 -0.044998737518168963 -0.034874249708339147 0 -0.045055185606942647 -0.037428020097806623 0 -0.044998737518168963 -0.034874249708339147 0 -0.045055185606942647 -0.037428020097806623 0 -0.044838925595409557 -0.038028745738777799 0 -0.044998737518168963 -0.034874249708339147 0 -0.044838925595409557 -0.038028745738777799 0 -0.044998454986808753 -0.037487007875496033 0 -0.044578130810675458 -0.039308108217796324 0 -0.045055185606942647 -0.037428020097806623 0 -0.044838925595409557 -0.038028745738777799 0 -0.044578130810675458 -0.039308108217796324 0 -0.044838925595409557 -0.038028745738777799 0 -0.044315864791210351 -0.03962762168686651 0 -0.044838925595409557 -0.038028745738777799 0 -0.044522261146105163 -0.0396729338955297 0 -0.044315864791210351 -0.03962762168686651 0 -0.044838925595409557 -0.038028745738777799 0 -0.044998454986808753 -0.037487007875496033 0 -0.044522261146105163 -0.0396729338955297 0 -0.044998618932029083 -0.04010113953236303 0 -0.044998454986808753 -0.037487007875496033 0 -0.044522261146105163 -0.0396729338955297 0 -0.043533447438992595 -0.040861770063786593 0 -0.044522261146105163 -0.0396729338955297 0 -0.044315864791210351 -0.03962762168686651 0 -0.043533447438992595 -0.040861770063786593 0 -0.04303114657740445 -0.040734121958805353 0 -0.044315864791210351 -0.03962762168686651 0 -0.042181741884032675 -0.04155347512396388 0 -0.040918651274764899 -0.041707782681014417 0 -0.04303114657740445 -0.040734121958805353 0 -0.042181741884032675 -0.04155347512396388 0 -0.043533447438992595 -0.040861770063786593 0 -0.04303114657740445 -0.040734121958805353 0 -0.043275979626205156 -0.04040442037031728 0 -0.044578130810675458 -0.039308108217796324 0 -0.04303114657740445 -0.040734121958805353 0 -0.044578130810675458 -0.039308108217796324 0 -0.04303114657740445 -0.040734121958805353 0 -0.044315864791210351 -0.03962762168686651 0 -0.020282440511913333 -0.045791998027488706 0 -0.020915743792242814 -0.047049651936991399 0 -0.019612308708433328 -0.046369155047451607 0 -0.021193451106237167 -0.045900448751645284 0 -0.019634276077632389 -0.045319462117689953 0 -0.021336170833717163 -0.045656272298414111 0 -0.020945327999064182 -0.045233857106671792 0 -0.021007582318292046 -0.046444454595022354 0 -0.020282440511913333 -0.045791998027488706 0 -0.020945327999064182 -0.045233857106671792 0 -0.020915743792242814 -0.047049651936991399 0 -0.019634276077632389 -0.045319462117689953 0 -0.016642668217596579 -0.046735413514247662 0 -0.021975349859279139 -0.046363493589016869 0 -0.021826802555152278 -0.045819363755670868 0 -0.021007582318292046 -0.046444454595022354 0 -0.021826802555152278 -0.045819363755670868 0 -0.021336170833717163 -0.045656272298414111 0 -0.021007582318292046 -0.046444454595022354 0 -0.021336170833717163 -0.045656272298414111 0 -0.021586190870470506 -0.045094058079742802 0 -0.020945327999064182 -0.045233857106671792 0 -0.021826802555152278 -0.045819363755670868 0 -0.021336170833717163 -0.045656272298414111 0 -0.021586190870470506 -0.045094058079742802 0 -0.021826802555152278 -0.045819363755670868 0 -0.021586190870470506 -0.045094058079742802 0 -0.022136753815256073 -0.045331772947550107 0 -0.021586190870470506 -0.045094058079742802 0 -0.021827229204455081 -0.044502816609484637 0 -0.022136753815256073 -0.045331772947550107 0 -0.021586190870470506 -0.045094058079742802 0 -0.020945327999064182 -0.045233857106671792 0 -0.021227315068182158 -0.044665290730566222 0 -0.021586190870470506 -0.045094058079742802 0 -0.021227315068182158 -0.044665290730566222 0 -0.021827229204455081 -0.044502816609484637 0 -0.020945327999064182 -0.045233857106671792 0 -0.02043140739037181 -0.04459101109478026 0 -0.021227315068182158 -0.044665290730566222 0 -0.020282440511913333 -0.045791998027488706 0 -0.020945327999064182 -0.045233857106671792 0 -0.020275103964993293 -0.045096133297128221 0 -0.020945327999064182 -0.045233857106671792 0 -0.020275103964993293 -0.045096133297128221 0 -0.02043140739037181 -0.04459101109478026 0 -0.020275103964993293 -0.045096133297128221 0 -0.02043140739037181 -0.04459101109478026 0 -0.019944300099857402 -0.044663441744263135 0 -0.023514713997904387 -0.046308719544398878 0 -0.022216760429392003 -0.046340297231675633 0 -0.022009574278568995 -0.047612586794904807 0 -0.020220786627538987 -0.045373943987574807 0 -0.020418458652144918 -0.045881395406263306 0 -0.02043140739037181 -0.04459101109478026 0 -0.021298005724632578 -0.043882433398201658 0 -0.019986565370673576 -0.044542737933175876 0 -0.023450493722287184 -0.04629603208192571 0 -0.021852257080328976 -0.047634683914195529 0 -0.022041621075761547 -0.047655506895112679 0 -0.023450493722287184 -0.04629603208192571 0 -0.023990156930060794 -0.046625743754191477 0 -0.022041621075761547 -0.047655506895112679 0 -0.022659433702699201 -0.045227846656556804 0 -0.020418458652144918 -0.045881395406263306 0 -0.023615934576211466 -0.046372655345636414 0 -0.020456064213113547 -0.046393058114455259 0 -0.02043140739037181 -0.04459101109478026 0 -0.021298005724632578 -0.043882433398201658 0 -0.021227315068182158 -0.044665290730566222 0 -0.023514713997904387 -0.046308719544398878 0 -0.022318751290207384 -0.044999990923577898 0 -0.022216760429392003 -0.046340297231675633 0 -0.023514713997904387 -0.046308719544398878 0 -0.025016057656715506 -0.044999998174194561 0 -0.022318751290207384 -0.044999990923577898 0 -0.023450493722287184 -0.04629603208192571 0 -0.025015991096509625 -0.044999945314458618 0 -0.023990156930060794 -0.046625743754191477 0 -0.023615934576211466 -0.046372655345636414 0 -0.025015626443474416 -0.045000310085127226 0 -0.025015991096509625 -0.044999945314458618 0 -0.023990156930060794 -0.046625743754191477 0 -0.025874310631246341 -0.045615779804660923 0 -0.022659433702699201 -0.045227846656556804 0 -0.024810193397981933 -0.044808512365955136 0 -0.021298005724632578 -0.043882433398201658 0 -0.021827229204455081 -0.044502816609484637 0 -0.022756618914225667 -0.044146387986887699 0 -0.021298005724632578 -0.043882433398201658 0 -0.021227315068182158 -0.044665290730566222 0 -0.021827229204455081 -0.044502816609484637 0 -0.021827229204455081 -0.044502816609484637 0 -0.022756618914225667 -0.044146387986887699 0 -0.0228947203272734 -0.045165906737337648 0 -0.021298005724632578 -0.043882433398201658 0 -0.022756618914225667 -0.044146387986887699 0 -0.022642243139528315 -0.043171876878319186 0 -0.026135873965131756 -0.046838930486055794 0 -0.027369023860937706 -0.047489162074651321 0 -0.026303265537215743 -0.048101242806230925 0 -0.02443652247548293 -0.045531832636449485 0 -0.023682691708711602 -0.045995742810140482 0 -0.02443652247548293 -0.045531832636449485 0 -0.024810193397981933 -0.044808512365955136 0 -0.026135873965131756 -0.046838930486055794 0 -0.026708421948021414 -0.045970742887091173 0 -0.025970399555646596 -0.045571834616816354 0 -0.025797474379515014 -0.04499999309481905 0 -0.025873072646348149 -0.045612313991641021 0 -0.026990404434259829 -0.044999999887854761 0 -0.026708421948021414 -0.045970742887091173 0 -0.025970399555646596 -0.045571834616816354 0 -0.026990553873162869 -0.044999965864313429 0 -0.024810193397981933 -0.044808512365955136 0 -0.026990203671372011 -0.044999787367811635 0 -0.025015991096509625 -0.044999945314458618 0 -0.02579750872563415 -0.045000024986952034 0 -0.025874310631246341 -0.045615779804660923 0 -0.025796349843819035 -0.045000346601270495 0 -0.024810193397981933 -0.044808512365955136 0 -0.026990553873162869 -0.044999965864313429 0 -0.02774507556009791 -0.046478512868496018 0 -0.028505785396621772 -0.044999970880378992 0 -0.026708421948021414 -0.045970742887091173 0 -0.026990553873162869 -0.044999965864313429 0 -0.02774507556009791 -0.046478512868496018 0 -0.026135873965131756 -0.046838930486055794 0 -0.02774507556009791 -0.046478512868496018 0 -0.027369023860937706 -0.047489162074651321 0 -0.026135873965131756 -0.046838930486055794 0 -0.026708421948021414 -0.045970742887091173 0 -0.02774507556009791 -0.046478512868496018 0 -0.027369023860937706 -0.047489162074651321 0 -0.027429439385559726 -0.048768149032775973 0 -0.029229655324540495 -0.047253881834565331 0 -0.025480166760665255 -0.047117588264424574 0 -0.023682691708711602 -0.045995742810140482 0 -0.027369023860937706 -0.047489162074651321 0 -0.027429439385559726 -0.048768149032775973 0 -0.026303265537215743 -0.048101242806230925 0 -0.021827229204455081 -0.044502816609484637 0 -0.022651658049441494 -0.045052507182816857 0 -0.022136753815256073 -0.045331772947550107 0 -0.022651658049441494 -0.045052507182816857 0 -0.022136753815256073 -0.045331772947550107 0 -0.022778260524013591 -0.046135149965588221 0 -0.023437439337140178 -0.045584765686927299 0 -0.02283497285649215 -0.045228279262682414 0 -0.022925046909483982 -0.046161500532300469 0 -0.021549461040956567 -0.044331466360560713 0 -0.023682691708711602 -0.045995742810140482 0 -0.021975349859279139 -0.046363493589016869 0 -0.021826802555152278 -0.045819363755670868 0 -0.022778260524013591 -0.046135149965588221 0 -0.021826802555152278 -0.045819363755670868 0 -0.022136753815256073 -0.045331772947550107 0 -0.022778260524013591 -0.046135149965588221 0 -0.023682691708711602 -0.045995742810140482 0 -0.022780796213536007 -0.045979377097452957 0 -0.023501054471192093 -0.046220416911591483 0 -0.024081141396887776 -0.045950054284479763 0 -0.023827894885455371 -0.046779395285713947 0 -0.022925046909483982 -0.046161500532300469 0 -0.023501054471192093 -0.046220416911591483 0 -0.023300877561702231 -0.046579756057164245 0 -0.025480166760665255 -0.047117588264424574 0 -0.028163576820503123 -0.046634019501059852 0 -0.023437439337140178 -0.045584765686927299 0 -0.023501054471192093 -0.046220416911591483 0 -0.024081141396887776 -0.045950054284479763 0 -0.023437439337140178 -0.045584765686927299 0 -0.022925046909483982 -0.046161500532300469 0 -0.023501054471192093 -0.046220416911591483 0 -0.029257250861508526 -0.045933368853572479 0 -0.02888527916654041 -0.045702482401817429 0 -0.029570693097592009 -0.044803303193975963 0 -0.028163576820503123 -0.046634019501059852 0 -0.026672230689443875 -0.046010165278403244 0 -0.028163576820503123 -0.046634019501059852 0 -0.032804523779269019 -0.045370885139174755 0 -0.035178735245916186 -0.043974251639279795 0 -0.035139414171487186 -0.043969452056259767 0 -0.036007376407488301 -0.043783117307275014 0 -0.035178735245916186 -0.043974251639279795 0 -0.034210298139665217 -0.044412013061262468 0 -0.035139414171487186 -0.043969452056259767 0 -0.027429439385559726 -0.048768149032775973 0 -0.028536610314800828 -0.049419566325640006 0 -0.029229655324540495 -0.047253881834565331 0 -0.02953371854368254 -0.047350298305862001 0 -0.029727781158446414 -0.047456751182313982 0 -0.029973587265432634 -0.046576073867080313 0 -0.02953371854368254 -0.047350298305862001 0 -0.029721389766099473 -0.046491343846620667 0 -0.029973587265432634 -0.046576073867080313 0 -0.032804523779269019 -0.045370885139174755 0 -0.031981491323027585 -0.045423932548237421 0 -0.028163576820503123 -0.046634019501059852 0 -0.029557605