<?xml version="1.0"?>
<VTKFile type="UnstructuredGrid" version="0.1" byte_order="LittleEndian">
<UnstructuredGrid>
<Piece NumberOfPoints="30408" NumberOfCells="10660">
<Points>
<DataArray type="Float64" NumberOfComponents="3" format="ascii">
-0.5 -0.5 0 -0.48728920567917788 -0.47812354948905478 0 -0.47457841135835821 -0.49999999999999889 0 -0.5 -0.5 0 -0.48728920567917788 -0.47812354948905478 0 -0.49999999999999878 -0.45624709897811161 0 -0.48728920567917788 -0.47812354948905478 0 -0.45796865371873302 -0.47359212681047042 0 -0.4753129816133379 -0.45509707814115657 0 -0.48728920567917788 -0.47812354948905478 0 -0.47457841135835821 -0.49999999999999889 0 -0.45796865371873302 -0.47359212681047042 0 -0.48728920567917788 -0.47812354948905478 0 -0.47457841135835821 -0.49999999999999889 0 -0.47457841135835821 -0.49999999999999889 0 -0.45796865371873302 -0.47359212681047042 0 -0.44554127646562608 -0.5 0 -0.45796865371873302 -0.47359212681047042 0 -0.43895256107788272 -0.46418604935823582 0 -0.431143392866355 -0.4829056483630087 0 -0.45796865371873302 -0.47359212681047042 0 -0.44554127646562608 -0.5 0 -0.431143392866355 -0.4829056483630087 0 -0.44406115625028347 -0.44557703332384968 0 -0.43895256107788272 -0.46418604935823582 0 -0.45755621545568831 -0.45508379997785497 0 -0.45796865371873302 -0.47359212681047042 0 -0.43895256107788272 -0.46418604935823582 0 -0.45755621545568831 -0.45508379997785497 0 -0.45796865371873302 -0.47359212681047042 0 -0.45755621545568831 -0.45508379997785497 0 -0.4753129816133379 -0.45509707814115657 0 -0.44406115625028347 -0.44557703332384968 0 -0.46270743750018922 -0.43383980450693532 0 -0.45755621545568831 -0.45508379997785497 0 -0.4753129816133379 -0.45509707814115657 0 -0.46270743750018922 -0.43383980450693532 0 -0.44406115625028347 -0.44557703332384968 0 -0.45755621545568831 -0.45508379997785497 0 -0.46270743750018922 -0.43383980450693532 0 -0.48355582246932982 -0.43955597354456699 0 -0.4753129816133379 -0.45509707814115657 0 -0.46270743750018922 -0.43383980450693532 0 -0.48728920567917788 -0.47812354948905478 0 -0.4753129816133379 -0.45509707814115657 0 -0.49999999999999878 -0.45624709897811161 0 -0.48728920567917788 -0.47812354948905478 0 -0.49999999999999878 -0.45624709897811161 0 -0.48355582246932982 -0.43955597354456699 0 -0.4753129816133379 -0.45509707814115657 0 -0.49999999999999878 -0.45624709897811161 0 -0.48355582246932982 -0.43955597354456699 0 -0.49999999999999878 -0.45624709897811161 0 -0.5 -0.43330622292560877 0 -0.5 -0.43330622292560877 0 -0.50000000000000033 -0.41036534687310622 0 -0.48135371875009481 -0.42210257569002091 0 -0.48355582246932982 -0.43955597354456699 0 -0.5 -0.43330622292560877 0 -0.48135371875009481 -0.42210257569002091 0 -0.50000000000000033 -0.41036534687310622 0 -0.48135371875009481 -0.42210257569002091 0 -0.48119457335462751 -0.39876517600984052 0 -0.50000000000000033 -0.41036534687310622 0 -0.48135371875009481 -0.42210257569002091 0 -0.48135371875009481 -0.42210257569002091 0 -0.48119457335462751 -0.39876517600984052 0 -0.46213276538250309 -0.40907779854437148 0 -0.48355582246932982 -0.43955597354456699 0 -0.48135371875009481 -0.42210257569002091 0 -0.46270743750018922 -0.43383980450693532 0 -0.48135371875009481 -0.42210257569002091 0 -0.46270743750018922 -0.43383980450693532 0 -0.5 -0.3866586425210472 0 -0.48119457335462751 -0.39876517600984052 0 -0.48214980597205981 -0.37354478465247692 0 -0.50000000000000033 -0.41036534687310622 0 -0.5 -0.3866586425210472 0 -0.48119457335462751 -0.39876517600984052 0 -0.48119457335462751 -0.39876517600984052 0 -0.45965944934187197 -0.3835265264780266 0 -0.48214980597205981 -0.37354478465247692 0 -0.45965944934187197 -0.3835265264780266 0 -0.44512036584187192 -0.39515352896851152 0 -0.46213276538250309 -0.40907779854437148 0 -0.48119457335462751 -0.39876517600984052 0 -0.45965944934187197 -0.3835265264780266 0 -0.46213276538250309 -0.40907779854437148 0 -0.44512036584187192 -0.39515352896851152 0 -0.46213276538250309 -0.40907779854437148 0 -0.44219295780541518 -0.4127650862795158 0 -0.45965944934187197 -0.3835265264780266 0 -0.43773489970876062 -0.37893272234885411 0 -0.44595923176202978 -0.36285224699860202 0 -0.45965944934187197 -0.3835265264780266 0 -0.44512036584187192 -0.39515352896851152 0 -0.43773489970876062 -0.37893272234885411 0 -0.48135371875009481 -0.42210257569002091 0 -0.46270743750018922 -0.43383980450693532 0 -0.46213276538250309 -0.40907779854437148 0 -0.46270743750018922 -0.43383980450693532 0 -0.46213276538250309 -0.40907779854437148 0 -0.44219295780541518 -0.4127650862795158 0 -0.44406115625028347 -0.44557703332384968 0 -0.46270743750018922 -0.43383980450693532 0 -0.43613018164064621 -0.43054320296919629 0 -0.46270743750018922 -0.43383980450693532 0 -0.44219295780541518 -0.4127650862795158 0 -0.43613018164064621 -0.43054320296919629 0 -0.43613018164064621 -0.43054320296919629 0 -0.41580689616692151 -0.41931562626284641 0 -0.42127618011461121 -0.44494189178820998 0 -0.44219295780541518 -0.4127650862795158 0 -0.41580689616692151 -0.41931562626284641 0 -0.42388175697080882 -0.39146551119179002 0 -0.44219295780541518 -0.4127650862795158 0 -0.43613018164064621 -0.43054320296919629 0 -0.41580689616692151 -0.41931562626284641 0 -0.41580689616692151 -0.41931562626284641 0 -0.40492669662672248 -0.43798144108999898 0 -0.42127618011461121 -0.44494189178820998 0 -0.43773489970876062 -0.37893272234885411 0 -0.42388175697080882 -0.39146551119179002 0 -0.42164047719416831 -0.36571281550079932 0 -0.44512036584187192 -0.39515352896851152 0 -0.43773489970876062 -0.37893272234885411 0 -0.42388175697080882 -0.39146551119179002 0 -0.44512036584187192 -0.39515352896851152 0 -0.44219295780541518 -0.4127650862795158 0 -0.42388175697080882 -0.39146551119179002 0 -0.41580689616692151 -0.41931562626284641 0 -0.42388175697080882 -0.39146551119179002 0 -0.40466629537859061 -0.39383192658213789 0 -0.42388175697080882 -0.39146551119179002 0 -0.40466629537859061 -0.39383192658213789 0 -0.40041477615190257 -0.37421588034056702 0 -0.42388175697080882 -0.39146551119179002 0 -0.42164047719416831 -0.36571281550079932 0 -0.40041477615190257 -0.37421588034056702 0 -0.40466629537859061 -0.39383192658213789 0 -0.38418505506694889 -0.38324518264567631 0 -0.40041477615190257 -0.37421588034056702 0 -0.40466629537859061 -0.39383192658213789 0 -0.38418505506694889 -0.38324518264567631 0 -0.39240925305874041 -0.4075924160768542 0 -0.39240925305874041 -0.4075924160768542 0 -0.36901160995055871 -0.39586920589086277 0 -0.38418505506694889 -0.38324518264567631 0 -0.39240925305874041 -0.4075924160768542 0 -0.36901160995055871 -0.39586920589086277 0 -0.39040948516682877 -0.42707199842964833 0 -0.40492669662672248 -0.43798144108999898 0 -0.39349440114382189 -0.44640943604882938 0 -0.41580689616692151 -0.41931562626284641 0 -0.39040948516682877 -0.42707199842964833 0 -0.40492669662672248 -0.43798144108999898 0 -0.41580689616692151 -0.41931562626284641 0 -0.40466629537859061 -0.39383192658213789 0 -0.39240925305874041 -0.4075924160768542 0 -0.41580689616692151 -0.41931562626284641 0 -0.39240925305874041 -0.4075924160768542 0 -0.41580689616692151 -0.41931562626284641 0 -0.39240925305874041 -0.4075924160768542 0 -0.39040948516682877 -0.42707199842964833 0 -0.39240925305874041 -0.4075924160768542 0 -0.37131414953934072 -0.41650685080044397 0 -0.36901160995055871 -0.39586920589086277 0 -0.39240925305874041 -0.4075924160768542 0 -0.39040948516682877 -0.42707199842964833 0 -0.37131414953934072 -0.41650685080044397 0 -0.39040948516682877 -0.42707199842964833 0 -0.3736166891281224 -0.43714449571002539 0 -0.37131414953934072 -0.41650685080044397 0 -0.39040948516682877 -0.42707199842964833 0 -0.39349440114382189 -0.44640943604882938 0 -0.3736166891281224 -0.43714449571002539 0 -0.39349440114382189 -0.44640943604882938 0 -0.3736166891281224 -0.43714449571002539 0 -0.39349440114382189 -0.44640943604882938 0 -0.37555412519250708 -0.45450972049335719 0 -0.3736166891281224 -0.43714449571002539 0 -0.40492669662672248 -0.43798144108999898 0 -0.39349440114382189 -0.44640943604882938 0 -0.40542061812618552 -0.45850642187159429 0 -0.39349440114382189 -0.44640943604882938 0 -0.40542061812618552 -0.45850642187159429 0 -0.39345103148875782 -0.47157122915297589 0 -0.39349440114382189 -0.44640943604882938 0 -0.37555412519250708 -0.45450972049335719 0 -0.39345103148875782 -0.47157122915297589 0 -0.37555412519250708 -0.45450972049335719 0 -0.37709726016953132 -0.48180856267781452 0 -0.39345103148875782 -0.47157122915297589 0 -0.37709726016953132 -0.48180856267781452 0 -0.38746700668016187 -0.5 0 -0.39345103148875782 -0.47157122915297589 0 -0.38746700668016187 -0.5 0 -0.39345103148875782 -0.47157122915297589 0 -0.40906861719514143 -0.48213408807100161 0 -0.38746700668016187 -0.5 0 -0.40906861719514143 -0.48213408807100161 0 -0.416504141572894 -0.5 0 -0.40542061812618552 -0.45850642187159429 0 -0.39345103148875782 -0.47157122915297589 0 -0.40906861719514143 -0.48213408807100161 0 -0.40542061812618552 -0.45850642187159429 0 -0.40906861719514143 -0.48213408807100161 0 -0.41912587376411509 -0.46713929473837967 0 -0.40906861719514143 -0.48213408807100161 0 -0.431143392866355 -0.4829056483630087 0 -0.41912587376411509 -0.46713929473837967 0 -0.40906861719514143 -0.48213408807100161 0 -0.416504141572894 -0.5 0 -0.431143392866355 -0.4829056483630087 0 -0.44554127646562608 -0.5 0 -0.416504141572894 -0.5 0 -0.431143392866355 -0.4829056483630087 0 -0.43895256107788272 -0.46418604935823582 0 -0.431143392866355 -0.4829056483630087 0 -0.41912587376411509 -0.46713929473837967 0 -0.43895256107788272 -0.46418604935823582 0 -0.42127618011461121 -0.44494189178820998 0 -0.41912587376411509 -0.46713929473837967 0 -0.44406115625028347 -0.44557703332384968 0 -0.43613018164064621 -0.43054320296919629 0 -0.42127618011461121 -0.44494189178820998 0 -0.44406115625028347 -0.44557703332384968 0 -0.43895256107788272 -0.46418604935823582 0 -0.42127618011461121 -0.44494189178820998 0 -0.40492669662672248 -0.4
[...]
<PointData Scalars="" Vectors="displacement," Tensors="">
<DataArray type="Float64" Name="displacement" NumberOfComponents="3" format="ascii">
-5.9166456163522354e-07 -0.044998287842226183 0 -2.3500495030099256e-07 -0.043823227936536667 0 2.9315150405867901e-07 -0.044999827988930895 0 -5.9166456163522354e-07 -0.044998287842226183 0 -2.3500495030099256e-07 -0.043823227936536667 0 8.8647445281776783e-07 -0.041065826215128713 0 -0.00045618238062987681 -0.042855510915651984 0 -0.00038596197948823785 -0.043566603795764304 0 -0.00032383676500124419 -0.042112064170694123 0 -0.00045618238062987681 -0.042855510915651984 0 -1.3744402703415886e-06 -0.044996173698835615 0 -0.00038596197948823785 -0.043566603795764304 0 -0.00022598026898898235 -0.043304467549217789 0 1.3072167607179997e-08 -0.044999296257108384 0 -1.3744402703415886e-06 -0.044996173698835615 0 -0.00038596197948823785 -0.043566603795764304 0 3.8990863470075857e-08 -0.04499909089795729 0 -0.00038596197948823785 -0.043566603795764304 0 -0.00044852725798462026 -0.043177763570599777 0 -0.00027189169774910921 -0.044195258175525373 0 -0.00038596197948823785 -0.043566603795764304 0 3.8990863470075857e-08 -0.04499909089795729 0 -0.00027189169774910921 -0.044195258175525373 0 -0.00071431613703019025 -0.041997326902321365 0 -0.00044852725798462026 -0.043177763570599777 0 -0.00037737111771741745 -0.042696869969745407 0 -0.00038596197948823785 -0.043566603795764304 0 -0.00044852725798462026 -0.043177763570599777 0 -0.00037737111771741745 -0.042696869969745407 0 -0.00038596197948823785 -0.043566603795764304 0 -0.00037737111771741745 -0.042696869969745407 0 -0.00032383676500124419 -0.042112064170694123 0 -0.0007099815845613809 -0.041729700716046841 0 -0.00053297257673004387 -0.04064477928992475 0 -0.00037737111771741745 -0.042696869969745407 0 -0.00032383676500124419 -0.042112064170694123 0 -6.2429608467193468e-05 -0.042181705504391508 0 -0.00071431613703019025 -0.041997326902321365 0 -0.00037737111771741745 -0.042696869969745407 0 -6.2429608467193468e-05 -0.042181705504391508 0 -0.00012447929861816368 -0.040863652698945215 0 -0.00032383676500124419 -0.042112064170694123 0 -6.2429608467193468e-05 -0.042181705504391508 0 -0.00045618238062987681 -0.042855510915651984 0 -0.00032383676500124419 -0.042112064170694123 0 -1.6581143388533772e-06 -0.041061326331937612 0 -0.00022598026898898235 -0.043304467549217789 0 -1.121799794830134e-07 -0.04106316683633373 0 -0.00012447929861816368 -0.040863652698945215 0 -0.00032383676500124419 -0.042112064170694123 0 -1.6581143388533772e-06 -0.041061326331937612 0 -0.00012447929861816368 -0.040863652698945215 0 -1.6581143388533772e-06 -0.041061326331937612 0 -2.4613643256749384e-07 -0.038998342460681887 0 -2.4613643256749384e-07 -0.038998342460681887 0 2.3947413733142439e-06 -0.036936050433393625 0 0.00058186175053290626 -0.040328184163437315 0 -0.00012447929861816368 -0.040863652698945215 0 -2.4613643256749384e-07 -0.038998342460681887 0 0.00058186175053290626 -0.040328184163437315 0 -1.7417593805863215e-06 -0.036929366883499348 0 -0.00072760352094249287 -0.037270498770282254 0 -0.00021337246073986388 -0.036594740745861609 0 -1.0480179945322437e-07 -0.036933863628210259 0 -0.0001784793483223778 -0.038887298947846254 0 -0.00072760352094249287 -0.037270498770282254 0 -0.00021337246073986388 -0.036594740745861609 0 -0.00030358291763942061 -0.038439476032621565 0 -0.00012447929861816368 -0.040863652698945215 0 0.00058186175053290626 -0.040328184163437315 0 -6.2429608467193468e-05 -0.042181705504391508 0 -0.0001784793483223778 -0.038887298947846254 0 -0.00053297257673004387 -0.04064477928992475 0 2.6735975992439697e-07 -0.034801175734999162 0 -0.00021337246073986388 -0.036594740745861609 0 4.5616061751977865e-05 -0.035208381395123292 0 -1.7417593805863215e-06 -0.036929366883499348 0 2.6735975992439697e-07 -0.034801175734999162 0 -0.00021337246073986388 -0.036594740745861609 0 -0.00021337246073986388 -0.036594740745861609 0 0.00012709227864246463 -0.037728313526696193 0 4.5616061751977865e-05 -0.035208381395123292 0 0.00012709227864246463 -0.037728313526696193 0 5.9612041224847244e-05 -0.039277825073841789 0 -0.00030358291763942061 -0.038439476032621565 0 -0.00021337246073986388 -0.036594740745861609 0 0.00012709227864246463 -0.037728313526696193 0 -0.00030358291763942061 -0.038439476032621565 0 5.9612041224847244e-05 -0.039277825073841789 0 -0.00030358291763942061 -0.038439476032621565 0 -0.00020806830906230047 -0.040187956906151269 0 0.00012709227864246463 -0.037728313526696193 0 0.00049484524492149936 -0.039321578439622279 0 0.00094171564608364511 -0.038438651990794617 0 0.00012709227864246463 -0.037728313526696193 0 5.9612041224847244e-05 -0.039277825073841789 0 0.00049484524492149936 -0.039321578439622279 0 -0.00072760352094249287 -0.037270498770282254 0 -0.0011511362496450734 -0.039292784334762437 0 -0.00030358291763942061 -0.038439476032621565 0 -0.0011511362496450734 -0.039292784334762437 0 -0.00030358291763942061 -0.038439476032621565 0 -0.00020806830906230047 -0.040187956906151269 0 -0.00071431613703019025 -0.041997326902321365 0 -0.0011511362496450734 -0.039292784334762437 0 -0.00051693798955838757 -0.041423987622596747 0 -0.0011511362496450734 -0.039292784334762437 0 -0.00020806830906230047 -0.040187956906151269 0 -0.00051693798955838757 -0.041423987622596747 0 -0.00051693798955838757 -0.041423987622596747 0 9.2805806385360016e-06 -0.041746160247778746 0 -0.00051429714666738422 -0.042619877172343709 0 -0.00020806830906230047 -0.040187956906151269 0 9.2805806385360016e-06 -0.041746160247778746 0 0.00025461632770939309 -0.040391319102500767 0 -0.00020806830906230047 -0.040187956906151269 0 -0.00051693798955838757 -0.041423987622596747 0 9.2805806385360016e-06 -0.041746160247778746 0 9.2805806385360016e-06 -0.041746160247778746 0 -0.00028552753377556893 -0.042994576643464226 0 -0.00051429714666738422 -0.042619877172343709 0 0.00049484524492149936 -0.039321578439622279 0 0.00025461632770939309 -0.040391319102500767 0 0.0010019527176624984 -0.040062523158315662 0 5.9612041224847244e-05 -0.039277825073841789 0 0.00049484524492149936 -0.039321578439622279 0 0.00025461632770939309 -0.040391319102500767 0 5.9612041224847244e-05 -0.039277825073841789 0 -0.00020806830906230047 -0.040187956906151269 0 0.00025461632770939309 -0.040391319102500767 0 9.2805806385360016e-06 -0.041746160247778746 0 0.00025461632770939309 -0.040391319102500767 0 0.00025664483391623597 -0.040973376979832346 0 0.00025461632770939309 -0.040391319102500767 0 0.00025664483391623597 -0.040973376979832346 0 0.00078374654619830391 -0.040848828136923684 0 0.00025461632770939309 -0.040391319102500767 0 0.0010019527176624984 -0.040062523158315662 0 0.00078374654619830391 -0.040848828136923684 0 0.00025664483391623597 -0.040973376979832346 0 0.00058658578038131646 -0.041218710050649053 0 0.00078374654619830391 -0.040848828136923684 0 0.00025664483391623597 -0.040973376979832346 0 0.00058658578038131646 -0.041218710050649053 0 0.00016345933473453181 -0.04113383584842753 0 0.00052907773367134555 -0.042271679235671392 0 0.00057521599691254613 -0.042606183423506298 0 0.00058658578038131646 -0.041218710050649053 0 0.00016345933473453181 -0.04113383584842753 0 0.00035617960496640491 -0.041522338380373912 0 1.4156432813640057e-05 -0.043464498905789309 0 -0.00028552753377556893 -0.042994576643464226 0 -0.00023947052774083555 -0.043652888459194822 0 9.2805806385360016e-06 -0.041746160247778746 0 1.4156432813640057e-05 -0.043464498905789309 0 -0.00028552753377556893 -0.042994576643464226 0 9.2805806385360016e-06 -0.041746160247778746 0 0.00025664483391623597 -0.040973376979832346 0 0.00016345933473453181 -0.04113383584842753 0 4.6431996487026158e-05 -0.041711906275490193 0 0.00052907773367134555 -0.042271679235671392 0 9.2805806385360016e-06 -0.041746160247778746 0 0.00087374696533763568 -0.043287602461548232 0 1.4156432813640057e-05 -0.043464498905789309 0 0.00087374696533763568 -0.043287602461548232 0 0.00045803345159089797 -0.044093212293057966 0 0.0012657245232157656 -0.044168768131364819 0 0.00087374696533763568 -0.043287602461548232 0 1.4156432813640057e-05 -0.043464498905789309 0 0.00045803345159089797 -0.044093212293057966 0 1.4156432813640057e-05 -0.043464498905789309 0 -0.00018491804912319459 -0.043921988842462359 0 0.00045803345159089797 -0.044093212293057966 0 1.4156432813640057e-05 -0.043464498905789309 0 -0.00023947052774083555 -0.043652888459194822 0 -0.00018491804912319459 -0.043921988842462359 0 -0.00020318681662545896 -0.043751477497127399 0 0.00016013778487174269 -0.044022940221084952 0 -0.00023947052774083555 -0.043652888459194822 0 -0.0001817836588845235 -0.04442341084887011 0 0.00032070606740032629 -0.044444831803243941 0 -0.00028552753377556893 -0.042994576643464226 0 -0.00023947052774083555 -0.043652888459194822 0 -0.00039777400860634208 -0.043619745632255576 0 -0.00023947052774083555 -0.043652888459194822 0 -0.00039777400860634208 -0.043619745632255576 0 -0.00032742262079689009 -0.044253012002604612 0 -0.00023947052774083555 -0.043652888459194822 0 -0.0001817836588845235 -0.04442341084887011 0 -0.00032742262079689009 -0.044253012002604612 0 -0.0001817836588845235 -0.04442341084887011 0 -0.00019815301991082775 -0.044700526382664502 0 -0.00032742262079689009 -0.044253012002604612 0 -0.00019815301991082775 -0.044700526382664502 0 -2.7561772115244239e-07 -0.0449993878019656 0 -0.00032742262079689009 -0.044253012002604612 0 -2.7561772115244239e-07 -0.0449993878019656 0 -0.00032742262079689009 -0.044253012002604612 0 -0.00027340227642477365 -0.044372335115102537 0 -2.7561772115244239e-07 -0.0449993878019656 0 -0.00027340227642477365 -0.044372335115102537 0 -3.564854119646465e-07 -0.044998653071652364 0 -0.00039777400860634208 -0.043619745632255576 0 -0.00032742262079689009 -0.044253012002604612 0 -0.00027340227642477365 -0.044372335115102537 0 -0.00039777400860634208 -0.043619745632255576 0 -0.00027340227642477365 -0.044372335115102537 0 -0.00040190978795114898 -0.043648873666991349 0 -0.00027340227642477365 -0.044372335115102537 0 -0.00027189169774910921 -0.044195258175525373 0 -0.00040190978795114898 -0.043648873666991349 0 -0.00027340227642477365 -0.044372335115102537 0 -3.564854119646465e-07 -0.044998653071652364 0 -0.00027189169774910921 -0.044195258175525373 0 3.8990863470075857e-08 -0.04499909089795729 0 -3.564854119646465e-07 -0.044998653071652364 0 -0.00027189169774910921 -0.044195258175525373 0 -0.00044852725798462026 -0.043177763570599777 0 -0.00027189169774910921 -0.044195258175525373 0 -0.00040190978795114898 -0.043648873666991349 0 -0.00044852725798462026 -0.043177763570599777 0 -0.00051429714666738422 -0.042619877172343709 0 -0.00040190978795114898 -0.043648873666991349 0 -0.00071431613703019025 -0.041997326902321365 0 -0.00051693798955838757 -0.041423987622596747 0 -0.00051429714666738422 -0.042619877172343709 0 -0.00071431613703019025 -0.041997326902321365 0 -0.00044852725798462026 -0.043177763570599777 0 -0.00051429714666738422 -0.042619877172343709 0 -0.00028552753377556893 -0.042994576643464226 0 -0.00039777400860634208 -0.043619745632255576 0 -0.00051429714666738422 -0.042619877172343709 0 -0.00039777400860634208 -0.043619745632255576 0 -0.00051429714666738422 -0.042619877172343709 0 -0.00040190978795114898 -0.043648873666991349 0 0.00058633389480758824 -0.022939547371666424 0 0.00091906227701578488 -0.022283607847824041 0 0.00028814899732355209 -0.022647342370373878 0 0.00091807566678322008 -0.024345954330344029 0 0.00075403551409017713 -0.020089636750376352 0 0.00089957447159038511 -0.023318195049933432 0 0.00086585691442025178 -0.023256673878705298 0 0.00095594703100353401 -0.023375273625265584 0 0.00058633389480758824 -0.022939547371666424 0 0.00086585691442025178 -0.023256673878705298 0 0.00091906227701578488 -0.022283607847824041 0 0.00075403551409017713 -0.020089636750376352 0 0.00017773520795476156 -0.018413668960429376 0 0.00090280158903453638 -0.023401520700970846 0 0.00090570667615800572 -0.0233522944180235 0 0.00095594703100353401 -0.023375273625265584 0 0.00090570667615800572 -0.0233522944180235 0 0.00089957447159038511 -0.023318195049933432 0 0.00095594703100353401 -0.023375273625265584 0 0.00089957447159038511 -0.023318195049933432 0 0.00090651360242811928 -0.023344278728221965 0 0.00086585691442025178 -0.023256673878705298 0 0.00090570667615800572 -0.0233522944180235 0 0.00089957447159038511 -0.023318195049933432 0 0.00090651360242811928 -0.023344278728221965 0 0.00090570667615800572 -0.0233522944180235 0 0.00090651360242811928 -0.023344278728221965 0 0.00092011145216258335 -0.023359478680301905 0 0.00090651360242811928 -0.023344278728221965 0 0.00094227066394356543 -0.02343458734161891 0 0.00092011145216258335 -0.023359478680301905 0 0.00090651360242811928 -0.023344278728221965 0 0.00086585691442025178 -0.023256673878705298 0 0.00086177425113672767 -0.023399943545144949 0 0.00090651360242811928 -0.023344278728221965 0 0.00086177425113672767 -0.023399943545144949 0 0.00094227066394356543 -0.02343458734161891 0 0.00086585691442025178 -0.023256673878705298 0 0.00066459196920732211 -0.023428466800451551 0 0.00086177425113672767 -0.023399943545144949 0 0.00058633389480758824 -0.022939547371666424 0 0.00086585691442025178 -0.023256673878705298 0 0.00059299183273528217 -0.023249063790098515 0 0.00086585691442025178 -0.023256673878705298 0 0.00059299183273528217 -0.023249063790098515 0 0.00066459196920732211 -0.023428466800451551 0 0.00059299183273528217 -0.023249063790098515 0 0.00066459196920732211 -0.023428466800451551 0 0.00045573971719624389 -0.023403425166941424 0 0.0002635583847125454 -0.022101186567548062 0 2.1966631904739085e-05 -0.021329143476795979 0 1.9441808007668734e-05 -0.020565531934536561 0 0.00050821168244895971 -0.022127457482491127 0 0.00061841344705200073 -0.021322136418628842 0 0.00066459196920732211 -0.023428466800451551 0 0.00085138746439068281 -0.023565982507043316 0 0.00057054432676301994 -0.023437407207344146 0 7.330557035259659e-05 -0.02509832671218307 0 -3.4611613661001854e-05 -0.024887381681708211 0 -1.8349222904667462e-05 -0.024891310843126679 0 7.330557035259659e-05 -0.02509832671218307 0 8.4618975834037716e-05 -0.025106515692590422 0 -1.8349222904667462e-05 -0.024891310843126679 0 0.00047607447999090081 -0.024516367510793887 0 0.00061841344705200073 -0.021322136418628842 0 0.0001063517672093936 -0.023837143845855693 0 0.00038479939514433626 -0.020468801966137675 0 0.00066459196920732211 -0.023428466800451551 0 0.00085138746439068281 -0.023565982507043316 0 0.00086177425113672767 -0.023399943545144949 0 0.0002635583847125454 -0.022101186567548062 0 -5.0350893449776202e-07 -0.02231820759311241 0 2.1966631904739085e-05 -0.021329143476795979 0 0.0002635583847125454 -0.022101186567548062 0 1.6760846606489407e-06 -0.025013407870266808 0 -5.0350893449776202e-07 -0.02231820759311241 0 7.330557035259659e-05 -0.02509832671218307 0 -6.0499024604934688e-07 -0.025018971098053282 0 8.4618975834037716e-05 -0.025106515692590422 0 0.0001063517672093936 -0.023837143845855693 0 -2.9297861255712874e-07 -0.025015016467949919 0 -6.0499024604934688e-07 -0.025018971098053282 0 8.4618975834037716e-05 -0.025106515692590422 0 -6.2252412605022753e-05 -0.02529402460972947 0 0.00047607447999090081 -0.024516367510793887 0 0.00048655102323513603 -0.025628661681046695 0 0.00085138746439068281 -0.023565982507043316 0 0.00094227066394356543 -0.02343458734161891 0 0.0011087062205212472 -0.023528005591489751 0 0.00085138746439068281 -0.023565982507043316 0 0.00086177425113672767 -0.023399943545144949 0 0.00094227066394356543 -0.02343458734161891 0 0.00094227066394356543 -0.02343458734161891 0 0.0011087062205212472 -0.023528005591489751 0 0.001122342177499721 -0.023361967813443751 0 0.00085138746439068281 -0.023565982507043316 0 0.0011087062205212472 -0.023528005591489751 0 0.0010865983083872921 -0.023726381667160748 0 0.00051993569303096651 -0.028196069568215711 0 0.00010161291616002498 -0.028401876850590705 0 0.00038394173118813375 -0.028519310624601026 0 0.00078150105146648969 -0.025946813890482694 0 0.00064203429737876439 -0.02508048451193072 0 0.00078150105146648969 -0.025946813890482694 0 0.00048655102323513603 -0.025628661681046695 0 0.00051993569303096651 -0.028196069568215711 0 0.00031623646121619681 -0.027778003705178984 0 0.00077316470744192406 -0.027510670957393089 0 3.2533424693636006e-09 -0.025799319391925833 0 1.0457808488440779e-06 -0.025876871796003533 0 -1.682873496521264e-10 -0.026988567201094417 0 0.00031623646121619681 -0.027778003705178984 0 0.00077316470744192406 -0.027510670957393089 0 1.0955596941107613e-06 -0.026992834320984038 0 0.00048655102323513603 -0.025628661681046695 0 3.147199193906665e-07 -0.026989961849737582 0 -6.0499024604934688e-07 -0.025018971098053282 0 6.0371453579949855e-07 -0.025794501747748805 0 -6.2252412605022753e-05 -0.02529402460972947 0 5.5876523854953566e-07 -0.02579742494160793 0 0.00048655102323513603 -0.025628661681046695 0 1.0955596941107613e-06 -0.026992834320984038 0 -6.0480132825544024e-05 -0.028202594855145514 0 -1.1376770501045723e-06 -0.028506704624475639 0 0.00031623646121619681 -0.027778003705178984 0 1.0955596941107613e-06 -0.026992834320984038 0 -6.0480132825544024e-05 -0.028202594855145514 0 0.00051993569303096651 -0.028196069568215711 0 -6.0480132825544024e-05 -0.028202594855145514 0 0.00010161291616002498 -0.028401876850590705 0 0.00051993569303096651 -0.028196069568215711 0 0.00031623646121619681 -0.027778003705178984 0 -6.0480132825544024e-05 -0.028202594855145514 0 0.00010161291616002498 -0.028401876850590705 0 0.00011724523480324962 -0.028590372439182402 0 -7.0395467453785267e-05 -0.028398373715214035 0 0.00067848307641157294 -0.026746557997431503 0 0.00064203429737876439 -0.02508048451193072 0 0.00010161291616002498 -0.028401876850590705 0 0.00011724523480324962 -0.028590372439182402 0 0.00038394173118813375 -0.028519310624601026 0 0.00094227066394356543 -0.02343458734161891 0 0.00092073644534598949 -0.023368482375966771 0 0.00092011145216258335 -0.023359478680301905 0 0.00092073644534598949 -0.023368482375966771 0 0.00092011145216258335 -0.023359478680301905 0 0.0008949204056209755 -0.023415757164778457 0 0.001219825552290501 -0.024779858424718384 0 0.00069549932590047688 -0.025098132155751022 0 0.00081082286788424862 -0.024269315086249472 0 0.0012773156325571941 -0.023162889817271104 0 0.00064203429737876439 -0.02508048451193072 0 0.00090280158903453638 -0.023401520700970846 0 0.00090570667615800572 -0.0233522944180235 0 0.0008949204056209755 -0.023415757164778457 0 0.00090570667615800572 -0.0233522944180235 0 0.00092011145216258335 -0.023359478680301905 0 0.0008949204056209755 -0.023415757164778457 0 0.00064203429737876439 -0.02508048451193072 0 0.00089640295597494539 -0.02366434863177945 0 0.0012792014975179088 -0.024229978872432084 0 0.0017284478302146667 -0.024476524888100867 0 0.0014838922212265452 -0.023785464524633031 0 0.00081082286788424862 -0.024269315086249472 0 0.0012792014975179088 -0.024229978872432084 0 0.001154548296861737 -0.023933609124980451 0 0.00067848307641157294 -0.026746557997431503 0 0.0016286435922064177 -0.029337097752015352 0 0.001219825552290501 -0.024779858424718384 0 0.0012792014975179088 -0.024229978872432084 0 0.0017284478302146667 -0.024476524888100867 0 0.001219825552290501 -0.024779858424718384 0 0.00081082286788424862 -0.024269315086249472 0 0.0012792014975179088 -0.024229978872432084 0 0.0023570506252366553 -0.031970265883403737 0 0.0025460975765389097 -0.031865694080044769 0 0.002196526444394279 -0.031408717926146329 0 0.0016286435922064177 -0.029337097752015352 0 0.001808508474211136 -0.027557951973306963 0 0.0016286435922064177 -0.029337097752015352 0 0.0019595604298459977 -0.034942560876365519 0 0.0039375611747366583 -0.03846448512830225 0 0.0021189459177938063 -0.037788469783025434 0 0.0019431819928280043 -0.039521974593603591 0 0.0039375611747366583 -0.03846448512830225 0 0.0031657941209654113 -0.035564000843463103 0 0.0021189459177