<?xml version="1.0"?>
<VTKFile type="UnstructuredGrid" version="0.1" byte_order="LittleEndian">
<UnstructuredGrid>
<Piece NumberOfPoints="30408" NumberOfCells="10660">
<Points>
<DataArray type="Float64" NumberOfComponents="3" format="ascii">
-0.5 -0.5 0 -0.48728920567917788 -0.47812354948905478 0 -0.47457841135835821 -0.49999999999999889 0 -0.5 -0.5 0 -0.48728920567917788 -0.47812354948905478 0 -0.49999999999999878 -0.45624709897811161 0 -0.48728920567917788 -0.47812354948905478 0 -0.45796865371873302 -0.47359212681047042 0 -0.4753129816133379 -0.45509707814115657 0 -0.48728920567917788 -0.47812354948905478 0 -0.47457841135835821 -0.49999999999999889 0 -0.45796865371873302 -0.47359212681047042 0 -0.48728920567917788 -0.47812354948905478 0 -0.47457841135835821 -0.49999999999999889 0 -0.47457841135835821 -0.49999999999999889 0 -0.45796865371873302 -0.47359212681047042 0 -0.44554127646562608 -0.5 0 -0.45796865371873302 -0.47359212681047042 0 -0.43895256107788272 -0.46418604935823582 0 -0.431143392866355 -0.4829056483630087 0 -0.45796865371873302 -0.47359212681047042 0 -0.44554127646562608 -0.5 0 -0.431143392866355 -0.4829056483630087 0 -0.44406115625028347 -0.44557703332384968 0 -0.43895256107788272 -0.46418604935823582 0 -0.45755621545568831 -0.45508379997785497 0 -0.45796865371873302 -0.47359212681047042 0 -0.43895256107788272 -0.46418604935823582 0 -0.45755621545568831 -0.45508379997785497 0 -0.45796865371873302 -0.47359212681047042 0 -0.45755621545568831 -0.45508379997785497 0 -0.4753129816133379 -0.45509707814115657 0 -0.44406115625028347 -0.44557703332384968 0 -0.46270743750018922 -0.43383980450693532 0 -0.45755621545568831 -0.45508379997785497 0 -0.4753129816133379 -0.45509707814115657 0 -0.46270743750018922 -0.43383980450693532 0 -0.44406115625028347 -0.44557703332384968 0 -0.45755621545568831 -0.45508379997785497 0 -0.46270743750018922 -0.43383980450693532 0 -0.48355582246932982 -0.43955597354456699 0 -0.4753129816133379 -0.45509707814115657 0 -0.46270743750018922 -0.43383980450693532 0 -0.48728920567917788 -0.47812354948905478 0 -0.4753129816133379 -0.45509707814115657 0 -0.49999999999999878 -0.45624709897811161 0 -0.48728920567917788 -0.47812354948905478 0 -0.49999999999999878 -0.45624709897811161 0 -0.48355582246932982 -0.43955597354456699 0 -0.4753129816133379 -0.45509707814115657 0 -0.49999999999999878 -0.45624709897811161 0 -0.48355582246932982 -0.43955597354456699 0 -0.49999999999999878 -0.45624709897811161 0 -0.5 -0.43330622292560877 0 -0.5 -0.43330622292560877 0 -0.50000000000000033 -0.41036534687310622 0 -0.48135371875009481 -0.42210257569002091 0 -0.48355582246932982 -0.43955597354456699 0 -0.5 -0.43330622292560877 0 -0.48135371875009481 -0.42210257569002091 0 -0.50000000000000033 -0.41036534687310622 0 -0.48135371875009481 -0.42210257569002091 0 -0.48119457335462751 -0.39876517600984052 0 -0.50000000000000033 -0.41036534687310622 0 -0.48135371875009481 -0.42210257569002091 0 -0.48135371875009481 -0.42210257569002091 0 -0.48119457335462751 -0.39876517600984052 0 -0.46213276538250309 -0.40907779854437148 0 -0.48355582246932982 -0.43955597354456699 0 -0.48135371875009481 -0.42210257569002091 0 -0.46270743750018922 -0.43383980450693532 0 -0.48135371875009481 -0.42210257569002091 0 -0.46270743750018922 -0.43383980450693532 0 -0.5 -0.3866586425210472 0 -0.48119457335462751 -0.39876517600984052 0 -0.48214980597205981 -0.37354478465247692 0 -0.50000000000000033 -0.41036534687310622 0 -0.5 -0.3866586425210472 0 -0.48119457335462751 -0.39876517600984052 0 -0.48119457335462751 -0.39876517600984052 0 -0.45965944934187197 -0.3835265264780266 0 -0.48214980597205981 -0.37354478465247692 0 -0.45965944934187197 -0.3835265264780266 0 -0.44512036584187192 -0.39515352896851152 0 -0.46213276538250309 -0.40907779854437148 0 -0.48119457335462751 -0.39876517600984052 0 -0.45965944934187197 -0.3835265264780266 0 -0.46213276538250309 -0.40907779854437148 0 -0.44512036584187192 -0.39515352896851152 0 -0.46213276538250309 -0.40907779854437148 0 -0.44219295780541518 -0.4127650862795158 0 -0.45965944934187197 -0.3835265264780266 0 -0.43773489970876062 -0.37893272234885411 0 -0.44595923176202978 -0.36285224699860202 0 -0.45965944934187197 -0.3835265264780266 0 -0.44512036584187192 -0.39515352896851152 0 -0.43773489970876062 -0.37893272234885411 0 -0.48135371875009481 -0.42210257569002091 0 -0.46270743750018922 -0.43383980450693532 0 -0.46213276538250309 -0.40907779854437148 0 -0.46270743750018922 -0.43383980450693532 0 -0.46213276538250309 -0.40907779854437148 0 -0.44219295780541518 -0.4127650862795158 0 -0.44406115625028347 -0.44557703332384968 0 -0.46270743750018922 -0.43383980450693532 0 -0.43613018164064621 -0.43054320296919629 0 -0.46270743750018922 -0.43383980450693532 0 -0.44219295780541518 -0.4127650862795158 0 -0.43613018164064621 -0.43054320296919629 0 -0.43613018164064621 -0.43054320296919629 0 -0.41580689616692151 -0.41931562626284641 0 -0.42127618011461121 -0.44494189178820998 0 -0.44219295780541518 -0.4127650862795158 0 -0.41580689616692151 -0.41931562626284641 0 -0.42388175697080882 -0.39146551119179002 0 -0.44219295780541518 -0.4127650862795158 0 -0.43613018164064621 -0.43054320296919629 0 -0.41580689616692151 -0.41931562626284641 0 -0.41580689616692151 -0.41931562626284641 0 -0.40492669662672248 -0.43798144108999898 0 -0.42127618011461121 -0.44494189178820998 0 -0.43773489970876062 -0.37893272234885411 0 -0.42388175697080882 -0.39146551119179002 0 -0.42164047719416831 -0.36571281550079932 0 -0.44512036584187192 -0.39515352896851152 0 -0.43773489970876062 -0.37893272234885411 0 -0.42388175697080882 -0.39146551119179002 0 -0.44512036584187192 -0.39515352896851152 0 -0.44219295780541518 -0.4127650862795158 0 -0.42388175697080882 -0.39146551119179002 0 -0.41580689616692151 -0.41931562626284641 0 -0.42388175697080882 -0.39146551119179002 0 -0.40466629537859061 -0.39383192658213789 0 -0.42388175697080882 -0.39146551119179002 0 -0.40466629537859061 -0.39383192658213789 0 -0.40041477615190257 -0.37421588034056702 0 -0.42388175697080882 -0.39146551119179002 0 -0.42164047719416831 -0.36571281550079932 0 -0.40041477615190257 -0.37421588034056702 0 -0.40466629537859061 -0.39383192658213789 0 -0.38418505506694889 -0.38324518264567631 0 -0.40041477615190257 -0.37421588034056702 0 -0.40466629537859061 -0.39383192658213789 0 -0.38418505506694889 -0.38324518264567631 0 -0.39240925305874041 -0.4075924160768542 0 -0.39240925305874041 -0.4075924160768542 0 -0.36901160995055871 -0.39586920589086277 0 -0.38418505506694889 -0.38324518264567631 0 -0.39240925305874041 -0.4075924160768542 0 -0.36901160995055871 -0.39586920589086277 0 -0.39040948516682877 -0.42707199842964833 0 -0.40492669662672248 -0.43798144108999898 0 -0.39349440114382189 -0.44640943604882938 0 -0.41580689616692151 -0.41931562626284641 0 -0.39040948516682877 -0.42707199842964833 0 -0.40492669662672248 -0.43798144108999898 0 -0.41580689616692151 -0.41931562626284641 0 -0.40466629537859061 -0.39383192658213789 0 -0.39240925305874041 -0.4075924160768542 0 -0.41580689616692151 -0.41931562626284641 0 -0.39240925305874041 -0.4075924160768542 0 -0.41580689616692151 -0.41931562626284641 0 -0.39240925305874041 -0.4075924160768542 0 -0.39040948516682877 -0.42707199842964833 0 -0.39240925305874041 -0.4075924160768542 0 -0.37131414953934072 -0.41650685080044397 0 -0.36901160995055871 -0.39586920589086277 0 -0.39240925305874041 -0.4075924160768542 0 -0.39040948516682877 -0.42707199842964833 0 -0.37131414953934072 -0.41650685080044397 0 -0.39040948516682877 -0.42707199842964833 0 -0.3736166891281224 -0.43714449571002539 0 -0.37131414953934072 -0.41650685080044397 0 -0.39040948516682877 -0.42707199842964833 0 -0.39349440114382189 -0.44640943604882938 0 -0.3736166891281224 -0.43714449571002539 0 -0.39349440114382189 -0.44640943604882938 0 -0.3736166891281224 -0.43714449571002539 0 -0.39349440114382189 -0.44640943604882938 0 -0.37555412519250708 -0.45450972049335719 0 -0.3736166891281224 -0.43714449571002539 0 -0.40492669662672248 -0.43798144108999898 0 -0.39349440114382189 -0.44640943604882938 0 -0.40542061812618552 -0.45850642187159429 0 -0.39349440114382189 -0.44640943604882938 0 -0.40542061812618552 -0.45850642187159429 0 -0.39345103148875782 -0.47157122915297589 0 -0.39349440114382189 -0.44640943604882938 0 -0.37555412519250708 -0.45450972049335719 0 -0.39345103148875782 -0.47157122915297589 0 -0.37555412519250708 -0.45450972049335719 0 -0.37709726016953132 -0.48180856267781452 0 -0.39345103148875782 -0.47157122915297589 0 -0.37709726016953132 -0.48180856267781452 0 -0.38746700668016187 -0.5 0 -0.39345103148875782 -0.47157122915297589 0 -0.38746700668016187 -0.5 0 -0.39345103148875782 -0.47157122915297589 0 -0.40906861719514143 -0.48213408807100161 0 -0.38746700668016187 -0.5 0 -0.40906861719514143 -0.48213408807100161 0 -0.416504141572894 -0.5 0 -0.40542061812618552 -0.45850642187159429 0 -0.39345103148875782 -0.47157122915297589 0 -0.40906861719514143 -0.48213408807100161 0 -0.40542061812618552 -0.45850642187159429 0 -0.40906861719514143 -0.48213408807100161 0 -0.41912587376411509 -0.46713929473837967 0 -0.40906861719514143 -0.48213408807100161 0 -0.431143392866355 -0.4829056483630087 0 -0.41912587376411509 -0.46713929473837967 0 -0.40906861719514143 -0.48213408807100161 0 -0.416504141572894 -0.5 0 -0.431143392866355 -0.4829056483630087 0 -0.44554127646562608 -0.5 0 -0.416504141572894 -0.5 0 -0.431143392866355 -0.4829056483630087 0 -0.43895256107788272 -0.46418604935823582 0 -0.431143392866355 -0.4829056483630087 0 -0.41912587376411509 -0.46713929473837967 0 -0.43895256107788272 -0.46418604935823582 0 -0.42127618011461121 -0.44494189178820998 0 -0.41912587376411509 -0.46713929473837967 0 -0.44406115625028347 -0.44557703332384968 0 -0.43613018164064621 -0.43054320296919629 0 -0.42127618011461121 -0.44494189178820998 0 -0.44406115625028347 -0.44557703332384968 0 -0.43895256107788272 -0.46418604935823582 0 -0.42127618011461121 -0.44494189178820998 0 -0.40492669662672248 -0.4
[...]
<PointData Scalars="" Vectors="displacement," Tensors="">
<DataArray type="Float64" Name="displacement" NumberOfComponents="3" format="ascii">
-0.044997056711688202 -7.2808910643272313e-07 0 -0.044830529989228075 1.3263344790875632e-06 0 -0.042716889529971214 1.0943914370746459e-06 0 -0.044997056711688202 -7.2808910643272313e-07 0 -0.044830529989228075 1.3263344790875632e-06 0 -0.045001030590921622 3.6384038360227449e-07 0 -0.042366779458691849 -5.2405170785277002e-06 0 -0.041215844100130468 -6.1790616495655608e-05 0 -0.043051182538517203 -5.0557448660668136e-06 0 -0.042366779458691849 -5.2405170785277002e-06 0 -0.042707266920000833 -1.0080267928061056e-07 0 -0.041215844100130468 -6.1790616495655608e-05 0 -0.043621240064019545 1.3389501323079749e-05 0 -0.042712523729194464 -8.063555239585133e-08 0 -0.042707266920000833 -1.0080267928061056e-07 0 -0.041215844100130468 -6.1790616495655608e-05 0 -0.040100181808030454 -2.2294602125206389e-07 0 -0.041215844100130468 -6.1790616495655608e-05 0 -0.040265852632698163 -3.8335135768084239e-05 0 -0.039113301995694842 -3.7038379515940979e-05 0 -0.041215844100130468 -6.1790616495655608e-05 0 -0.040100181808030454 -2.2294602125206389e-07 0 -0.039113301995694842 -3.7038379515940979e-05 0 -0.041358904960059555 -6.3893939484339411e-05 0 -0.040265852632698163 -3.8335135768084239e-05 0 -0.041905638296150474 -7.4161915012484951e-07 0 -0.041215844100130468 -6.1790616495655608e-05 0 -0.040265852632698163 -3.8335135768084239e-05 0 -0.041905638296150474 -7.4161915012484951e-07 0 -0.041215844100130468 -6.1790616495655608e-05 0 -0.041905638296150474 -7.4161915012484951e-07 0 -0.043051182538517203 -5.0557448660668136e-06 0 -0.041678247167139533 -2.0655356545353136e-05 0 -0.042803682714641265 -0.00016557932579364842 0 -0.041905638296150474 -7.4161915012484951e-07 0 -0.043051182538517203 -5.0557448660668136e-06 0 -0.043294507909112691 0.00012973943415370886 0 -0.041358904960059555 -6.3893939484339411e-05 0 -0.041905638296150474 -7.4161915012484951e-07 0 -0.043294507909112691 0.00012973943415370886 0 -0.044111978193946078 -8.8828607870537621e-05 0 -0.043051182538517203 -5.0557448660668136e-06 0 -0.043294507909112691 0.00012973943415370886 0 -0.042366779458691849 -5.2405170785277002e-06 0 -0.043051182538517203 -5.0557448660668136e-06 0 -0.044994357835238911 -1.7325142623277158e-06 0 -0.043621240064019545 1.3389501323079749e-05 0 -0.044999358125999762 3.4891982884192521e-08 0 -0.044111978193946078 -8.8828607870537621e-05 0 -0.043051182538517203 -5.0557448660668136e-06 0 -0.044994357835238911 -1.7325142623277158e-06 0 -0.044111978193946078 -8.8828607870537621e-05 0 -0.044994357835238911 -1.7325142623277158e-06 0 -0.045000043929547623 1.7573229735170147e-07 0 -0.045000043929547623 1.7573229735170147e-07 0 -0.044999550240625935 -1.0806717769573029e-07 0 -0.044564500823488687 -4.5291926136450506e-05 0 -0.044111978193946078 -8.8828607870537621e-05 0 -0.045000043929547623 1.7573229735170147e-07 0 -0.044564500823488687 -4.5291926136450506e-05 0 -0.044997780677756005 -9.4664381662469674e-07 0 -0.043609650051951235 -0.00042747717958499678 0 -0.044289871542067406 -0.00024783633235861798 0 -0.04499952837455358 -1.3866811556815619e-08 0 -0.044045449299702708 -0.00018753178009219112 0 -0.043609650051951235 -0.00042747717958499678 0 -0.044289871542067406 -0.00024783633235861798 0 -0.0433872354009293 -0.00022963426494028118 0 -0.044111978193946078 -8.8828607870537621e-05 0 -0.044564500823488687 -4.5291926136450506e-05 0 -0.043294507909112691 0.00012973943415370886 0 -0.044045449299702708 -0.00018753178009219112 0 -0.042803682714641265 -0.00016557932579364842 0 -0.044999523671410219 -9.0021231065887613e-09 0 -0.044289871542067406 -0.00024783633235861798 0 -0.044569803675547977 -0.00012117623272539259 0 -0.044997780677756005 -9.4664381662469674e-07 0 -0.044999523671410219 -9.0021231065887613e-09 0 -0.044289871542067406 -0.00024783633235861798 0 -0.044289871542067406 -0.00024783633235861798 0 -0.043939217759245849 -8.8481095416241594e-05 0 -0.044569803675547977 -0.00012117623272539259 0 -0.043939217759245849 -8.8481095416241594e-05 0 -0.043351028549393815 1.4993736974245885e-05 0 -0.0433872354009293 -0.00022963426494028118 0 -0.044289871542067406 -0.00024783633235861798 0 -0.043939217759245849 -8.8481095416241594e-05 0 -0.0433872354009293 -0.00022963426494028118 0 -0.043351028549393815 1.4993736974245885e-05 0 -0.0433872354009293 -0.00022963426494028118 0 -0.042637540569919592 -4.2756676182815037e-05 0 -0.043939217759245849 -8.8481095416241594e-05 0 -0.043594767392885737 0.00021742112304568115 0 -0.043958777282696197 0.00016688018877346203 0 -0.043939217759245849 -8.8481095416241594e-05 0 -0.043351028549393815 1.4993736974245885e-05 0 -0.043594767392885737 0.00021742112304568115 0 -0.043609650051951235 -0.00042747717958499678 0 -0.042364708969772832 -0.00037173211059155983 0 -0.0433872354009293 -0.00022963426494028118 0 -0.042364708969772832 -0.00037173211059155983 0 -0.0433872354009293 -0.00022963426494028118 0 -0.042637540569919592 -4.2756676182815037e-05 0 -0.041358904960059555 -6.3893939484339411e-05 0 -0.042364708969772832 -0.00037173211059155983 0 -0.04160840964010596 -4.6976189746823734e-05 0 -0.042364708969772832 -0.00037173211059155983 0 -0.042637540569919592 -4.2756676182815037e-05 0 -0.04160840964010596 -4.6976189746823734e-05 0 -0.04160840964010596 -4.6976189746823734e-05 0 -0.041739500952379875 0.00036934564521653264 0 -0.04000601437607082 0.00010780564554275449 0 -0.042637540569919592 -4.2756676182815037e-05 0 -0.041739500952379875 0.00036934564521653264 0 -0.043160503431121759 0.00037801195005699432 0 -0.042637540569919592 -4.2756676182815037e-05 0 -0.04160840964010596 -4.6976189746823734e-05 0 -0.041739500952379875 0.00036934564521653264 0 -0.041739500952379875 0.00036934564521653264 0 -0.039630400078335501 0.0006207896336251201 0 -0.04000601437607082 0.00010780564554275449 0 -0.043594767392885737 0.00021742112304568115 0 -0.043160503431121759 0.00037801195005699432 0 -0.043582168141165389 0.00054714396531258121 0 -0.043351028549393815 1.4993736974245885e-05 0 -0.043594767392885737 0.00021742112304568115 0 -0.043160503431121759 0.00037801195005699432 0 -0.043351028549393815 1.4993736974245885e-05 0 -0.042637540569919592 -4.2756676182815037e-05 0 -0.043160503431121759 0.00037801195005699432 0 -0.041739500952379875 0.00036934564521653264 0 -0.043160503431121759 0.00037801195005699432 0 -0.042962191744185835 0.00077499648843901245 0 -0.043160503431121759 0.00037801195005699432 0 -0.042962191744185835 0.00077499648843901245 0 -0.043271900464977892 0.00082700654549996717 0 -0.043160503431121759 0.00037801195005699432 0 -0.043582168141165389 0.00054714396531258121 0 -0.043271900464977892 0.00082700654549996717 0 -0.042962191744185835 0.00077499648843901245 0 -0.043077899097555369 0.00094652866516788689 0 -0.043271900464977892 0.00082700654549996717 0 -0.042962191744185835 0.00077499648843901245 0 -0.043077899097555369 0.00094652866516788689 0 -0.042603457943013096 0.001023169171286137 0 -0.042772321052222159 0.0015745645133138076 0 -0.040271046434524879 0.0019018945323702105 0 -0.043077899097555369 0.00094652866516788689 0 -0.042603457943013096 0.001023169171286137 0 -0.042950777612065928 0.0010444583390662287 0 -0.040555402863135234 0.0017970134517442146 0 -0.039630400078335501 0.0006207896336251201 0 -0.037898074568974774 0.0010031221250266504 0 -0.041739500952379875 0.00036934564521653264 0 -0.040555402863135234 0.0017970134517442146 0 -0.039630400078335501 0.0006207896336251201 0 -0.041739500952379875 0.00036934564521653264 0 -0.042962191744185835 0.00077499648843901245 0 -0.042603457943013096 0.001023169171286137 0 -0.04164196927814745 0.00026521099507006047 0 -0.042772321052222159 0.0015745645133138076 0 -0.041739500952379875 0.00036934564521653264 0 -0.042147558182907219 0.0017334225527128441 0 -0.040555402863135234 0.0017970134517442146 0 -0.042147558182907219 0.0017334225527128441 0 -0.041413508376050387 0.0036185525097086691 0 -0.043149465352469218 0.0037783942052995872 0 -0.042147558182907219 0.0017334225527128441 0 -0.040555402863135234 0.0017970134517442146 0 -0.041413508376050387 0.0036185525097086691 0 -0.040555402863135234 0.0017970134517442146 0 -0.039301737370815069 0.0036128915115403171 0 -0.041413508376050387 0.0036185525097086691 0 -0.040555402863135234 0.0017970134517442146 0 -0.037898074568974774 0.0010031221250266504 0 -0.039301737370815069 0.0036128915115403171 0 -0.038140257476490282 0.0012241308463996265 0 -0.036323765901723926 0.0024781589864469561 0 -0.037898074568974774 0.0010031221250266504 0 -0.035479850351863018 0.0010027061988903134 0 -0.036902828505985197 0.0013544048606616728 0 -0.039630400078335501 0.0006207896336251201 0 -0.037898074568974774 0.0010031221250266504 0 -0.038036011871851627 0.0004075537398843149 0 -0.037898074568974774 0.0010031221250266504 0 -0.038036011871851627 0.0004075537398843149 0 -0.036382660695573145 0.00044329306136674224 0 -0.037898074568974774 0.0010031221250266504 0 -0.035479850351863018 0.0010027061988903134 0 -0.036382660695573145 0.00044329306136674224 0 -0.035479850351863018 0.0010027061988903134 0 -0.034669885715284947 0.0002507633716461824 0 -0.036382660695573145 0.00044329306136674224 0 -0.034669885715284947 0.0002507633716461824 0 -0.034872601638353505 4.7416854148120589e-07 0 -0.036382660695573145 0.00044329306136674224 0 -0.034872601638353505 4.7416854148120589e-07 0 -0.036382660695573145 0.00044329306136674224 0 -0.037297092652619573 0.0001335270482593181 0 -0.034872601638353505 4.7416854148120589e-07 0 -0.037297092652619573 0.0001335270482593181 0 -0.037485312313426507 4.6925451042620779e-08 0 -0.038036011871851627 0.0004075537398843149 0 -0.036382660695573145 0.00044329306136674224 0 -0.037297092652619573 0.0001335270482593181 0 -0.038036011871851627 0.0004075537398843149 0 -0.037297092652619573 0.0001335270482593181 0 -0.038698261900064437 0.00011100974354578344 0 -0.037297092652619573 0.0001335270482593181 0 -0.039113301995694842 -3.7038379515940979e-05 0 -0.038698261900064437 0.00011100974354578344 0 -0.037297092652619573 0.0001335270482593181 0 -0.037485312313426507 4.6925451042620779e-08 0 -0.039113301995694842 -3.7038379515940979e-05 0 -0.040100181808030454 -2.2294602125206389e-07 0 -0.037485312313426507 4.6925451042620779e-08 0 -0.039113301995694842 -3.7038379515940979e-05 0 -0.040265852632698163 -3.8335135768084239e-05 0 -0.039113301995694842 -3.7038379515940979e-05 0 -0.038698261900064437 0.00011100974354578344 0 -0.040265852632698163 -3.8335135768084239e-05 0 -0.04000601437607082 0.00010780564554275449 0 -0.038698261900064437 0.00011100974354578344 0 -0.041358904960059555 -6.3893939484339411e-05 0 -0.04160840964010596 -4.6976189746823734e-05 0 -0.04000601437607082 0.00010780564554275449 0 -0.041358904960059555 -6.3893939484339411e-05 0 -0.040265852632698163 -3.8335135768084239e-05 0 -0.04000601437607082 0.00010780564554275449 0 -0.039630400078335501 0.0006207896336251201 0 -0.038036011871851627 0.0004075537398843149 0 -0.04000601437607082 0.00010780564554275449 0 -0.038036011871851627 0.0004075537398843149 0 -0.04000601437607082 0.00010780564554275449 0 -0.038698261900064437 0.00011100974354578344 0 -0.041096778360322432 0.00071056535430943956 0 -0.041191790179496666 0.00049464420641647325 0 -0.040975084060016383 0.00060913605090087317 0 -0.041589765789149351 0.00058257672731501953 0 -0.039203182346210293 0.0011070344261171162 0 -0.041281534156457668 0.00075396698881881558 0 -0.041222322323025119 0.00080971048854532567 0 -0.041227490635901351 0.00065095065438437228 0 -0.041096778360322432 0.00071056535430943956 0 -0.041222322323025119 0.00080971048854532567 0 -0.041191790179496666 0.00049464420641647325 0 -0.039203182346210293 0.0011070344261171162 0 -0.039674226961670701 0.00079646437458626076 0 -0.041364481968552691 0.00066418793724212321 0 -0.041351530156631379 0.00073369617724138058 0 -0.041227490635901351 0.00065095065438437228 0 -0.041351530156631379 0.00073369617724138058 0 -0.041281534156457668 0.00075396698881881558 0 -0.041227490635901351 0.00065095065438437228 0 -0.041281534156457668 0.00075396698881881558 0 -0.041331755612828029 0.00083255616444363029 0 -0.041222322323025119 0.00080971048854532567 0 -0.041351530156631379 0.00073369617724138058 0 -0.041281534156457668 0.00075396698881881558 0 -0.041331755612828029 0.00083255616444363029 0 -0.041351530156631379 0.00073369617724138058 0 -0.041331755612828029 0.00083255616444363029 0 -0.041403626005035318 0.00080010723030612149 0 -0.041331755612828029 0.00083255616444363029 0 -0.04139321694000439 0.00092042611415420899 0 -0.041403626005035318 0.00080010723030612149 0 -0.041331755612828029 0.00083255616444363029 0 -0.041222322323025119 0.00080971048854532567 0 -0.041274245380455529 0.00090365427806974805 0 -0.041331755612828029 0.00083255616444363029 0 -0.041274245380455529 0.00090365427806974805 0 -0.04139321694000439 0.00092042611415420899 0 -0.041222322323025119 0.00080971048854532567 0 -0.041134193259553788 0.00092165941350217772 0 -0.041274245380455529 0.00090365427806974805 0 -0.041096778360322432 0.00071056535430943956 0 -0.041222322323025119 0.00080971048854532567 0 -0.041101778016143897 0.00083347083985640523 0 -0.041222322323025119 0.00080971048854532567 0 -0.041101778016143897 0.00083347083985640523 0 -0.041134193259553788 0.00092165941350217772 0 -0.041101778016143897 0.00083347083985640523 0 -0.041134193259553788 0.00092165941350217772 0 -0.04104634680991319 0.00091027322879907644 0 -0.044996960843652622 -7.7454029691882758e-07 0 -0.044992930306695572 -9.873916100124532e-07 0 -0.044983713414368118 -7.4163999835327665e-07 0 -0.041275548117119761 0.00075171205400376552 0 -0.042394121240714525 0.00054704009721796235 0 -0.041134193259553788 0.00092165941350217772 0 -0.041284598399738658 0.0010581465573371218 0 -0.041060721168975703 0.00092644219068979303 0 -0.044728005076344828 -0.00012700381754665675 0 -0.04435863404804833 -0.00040394297180115351 0 -0.044401675694249125 -0.00040967926666249447 0 -0.044728005076344828 -0.00012700381754665675 0 -0.044828916828280913 -0.00018587109730421405 0 -0.044401675694249125 -0.00040967926666249447 0 -0.04300200200389364 0.00040611487231110655 0 -0.042394121240714525 0.00054704009721796235 0 -0.045044330805035927 -5.3850387193087001e-05 0 -0.043113376281195027 0.00040867477122507792 0 -0.041134193259553788 0.00092165941350217772 0 -0.041284598399738658 0.0010581465573371218 0 -0.041274245380455529 0.00090365427806974805 0 -0.044996960843652622 -7.7454029691882758e-07 0 -0.044999985004566249 8.9152462870850366e-10 0 -0.044992930306695572 -9.873916100124532e-07 0 -0.044996960843652622 -7.7454029691882758e-07 0 -0.045000004014773401 -1.0846047822842179e-09 0 -0.044999985004566249 8.9152462870850366e-10 0 -0.044728005076344828 -0.00012700381754665675 0 -0.04499965276039139 1.0291614358331434e-07 0 -0.044828916828280913 -0.00018587109730421405 0 -0.045044330805035927 -5.3850387193087001e-05 0 -0.044999791685797791 -1.1446735137495832e-07 0 -0.04499965276039139 1.0291614358331434e-07 0 -0.044828916828280913 -0.00018587109730421405 0 -0.045041491883075553 -4.3036432830799257e-05 0 -0.04300200200389364 0.00040611487231110655 0 -0.043924471787939623 0.00046037182633128763 0 -0.041284598399738658 0.0010581465573371218 0 -0.04139321694000439 0.00092042611415420899 0 -0.041634450470425098 0.0010045471579641656 0 -0.041284598399738658 0.0010581465573371218 0 -0.041274245380455529 0.00090365427806974805 0 -0.04139321694000439 0.00092042611415420899 0 -0.04139321694000439 0.00092042611415420899 0 -0.041634450470425098 0.0010045471579641656 0 -0.041674219598271584 0.00074196154479037315 0 -0.041284598399738658 0.0010581465573371218 0 -0.041634450470425098 0.0010045471579641656 0 -0.041618920986278798 0.001235326802646735 0 -0.044982996350684666 1.938629759810253e-05 0 -0.044976898275777014 2.3580536454766352e-05 0 -0.044971865181479963 3.1070990975864016e-05 0 -0.04329250520839014 0.00051701070354784383 0 -0.042320785219935486 0.00044230121243941895 0 -0.04329250520839014 0.00051701070354784383 0 -0.043924471787939623 0.00046037182633128763 0 -0.044982996350684666 1.938629759810253e-05 0 -0.044989845359008317 1.064411747277e-05 0 -0.044988719620487068 1.0711964988972952e-05 0 -0.044999993019463128 3.1854742217169638e-09 0 -0.044997305627568443 1.7852588340269357e-06 0 -0.044999998713273766 -3.1706483435396933e-10 0 -0.044989845359008317 1.064411747277e-05 0 -0.044988719620487068 1.0711964988972952e-05 0 -0.044999969067250713 2.4495954909639265e-08 0 -0.043924471787939623 0.00046037182633128763 0 -0.045000258243376577 3.9495076197589692e-07 0 -0.04499965276039139 1.0291614358331434e-07 0 -0.045000291512318838 -9.4679389257311661e-08 0 -0.045041491883075553 -4.3036432830799257e-05 0 -0.044998770206553601 -1.9410432131680134e-08 0 -0.043924471787939623 0.00046037182633128763 0 -0.044999969067250713 2.4495954909639265e-08 0 -0.044985281499581385 1.3451713763783631e-05 0 -0.044999990090205055 1.8115479514868958e-09 0 -0.044989845359008317 1.064411747277e-05 0 -0.044999969067250713 2.4495954909639265e-08 0 -0.044985281499581385 1.3451713763783631e-05 0 -0.044982996350684666 1.938629759810253e-05 0 -0.044985281499581385 1.3451713763783631e-05 0 -0.044976898275777014 2.3580536454766352e-05 0 -0.044982996350684666 1.938629759810253e-05 0 -0.044989845359008317 1.064411747277e-05 0 -0.044985281499581385 1.3451713763783631e-05 0 -0.044976898275777014 2.3580536454766352e-05 0 -0.044966674251560784 3.5270532528093894e-05 0 -0.044974297033311322 1.8452397805962283e-05 0 -0.04333297942236889 0.00029789304573664112 0 -0.042320785219935486 0.00044230121243941895 0 -0.044976898275777014 2.3580536454766352e-05 0 -0.044966674251560784 3.5270532528093894e-05 0 -0.044971865181479963 3.1070990975864016e-05 0 -0.04139321694000439 0.00092042611415420899 0 -0.041470896260482983 0.00083470425759777365 0 -0.041403626005035318 0.00080010723030612149 0 -0.041470896260482983 0.00083470425759777365 0 -0.041403626005035318 0.00080010723030612149 0 -0.041472589811805412 0.0006936030042746479 0 -0.041556595213747549 0.00065844694224584572 0 -0.041535132084725777 0.00067014855044977492 0 -0.041521156604631973 0.00063351791083513073 0 -0.041158213377068119 0.00105065545145905 0 -0.042320785219935486 0.00044230121243941895 0 -0.041364481968552691 0.00066418793724212321 0 -0.041351530156631379 0.00073369617724138058 0 -0.041472589811805412 0.0006936030042746479 0 -0.041351530156631379 0.00073369617724138058 0 -0.041403626005035318 0.00080010723030612149 0 -0.041472589811805412 0.0006936030042746479 0 -0.042320785219935486 0.00044230121243941895 0 -0.041440006771160387 0.00073824557827791481 0 -0.041552609305950138 0.00062865505642462473 0 -0.041597101968608316 0.00064317194140757516 0 -0.041573087171364813 0.0005942453359254529 0 -0.041521156604631973 0.00063351791083513073 0 -0.041552609305950138 0.00062865505642462473 0 -0.0415307659719883 0.00060711738056816109 0 -0.04333297942236889 0.00029789304573664112 0 -0.043640846429962833 0.00041815387831579547 0 -0.041556595213747549 0.00065844694224584572 0 -0.041552609305950138 0.00062865505642462473 0 -0.041597101968608316 0.00064317194140757516 0 -0.041556595213747549 0.00065844694224584572 0 -0.041521156604631973 0.00063351791083513073 0 -0.041552609305950138 0.00062865505642462473 0 -0.042625661912082925 0.00062276174533102389 0 -0.042557652861545101 0.00066382697892404313 0 -0.042667609176736003 0.00082713712870271453 0 -0.043640846429962833 0.00041815387831579547 0 -0.042117447307002454 0.00065851542234599523 0 -0.043640846429962833 0.00041815387831579547 0 -0.044085400498411254 0.00043764749543227847 0 -0.044539558015638657 0.00025657190839860144 0 -0.044247142973598677 0.00012065672817410408 0 -0.043895177130885213 0.00050724278454896603 0 -0.044539558015638657 0.00025657190839860144 0 -0.044554687455296012 -7.6237581779308955e-05 0 -0.044247142973598677 0.00012065672817410408 0 -0.044966674251560784 3.527053252809