<?xml version="1.0"?>
<VTKFile type="UnstructuredGrid" version="0.1" byte_order="LittleEndian">
<UnstructuredGrid>
<Piece NumberOfPoints="31211" NumberOfCells="10898">
<Points>
<DataArray type="Float64" NumberOfComponents="3" format="ascii">
-0.5 -0.5 0 -0.45589340108526011 -0.47731100519934422 0 -0.47231195116000302 -0.45983042647413419 0 -0.5 -0.5 0 -0.45589340108526011 -0.47731100519934422 0 -0.44311715934209278 -0.5 0 -0.45589340108526011 -0.47731100519934422 0 -0.44113100164694791 -0.47142867570799601 0 -0.43808753024089292 -0.48148952960568719 0 -0.45589340108526011 -0.47731100519934422 0 -0.43808753024089292 -0.48148952960568719 0 -0.44311715934209278 -0.5 0 -0.44369481634844582 -0.45507035029546422 0 -0.44327401931244392 -0.43496822185754241 0 -0.42856267251903818 -0.45686260936625711 0 -0.44369481634844582 -0.45507035029546422 0 -0.46054137378369808 -0.43829688285943907 0 -0.44327401931244392 -0.43496822185754241 0 -0.44369481634844582 -0.45507035029546422 0 -0.46054137378369808 -0.43829688285943907 0 -0.45589340108526011 -0.47731100519934422 0 -0.44113100164694791 -0.47142867570799601 0 -0.44369481634844582 -0.45507035029546422 0 -0.45589340108526011 -0.47731100519934422 0 -0.44369481634844582 -0.45507035029546422 0 -0.47231195116000302 -0.45983042647413419 0 -0.44369481634844582 -0.45507035029546422 0 -0.46054137378369808 -0.43829688285943907 0 -0.47231195116000302 -0.45983042647413419 0 -0.5 -0.5 0 -0.47231195116000302 -0.45983042647413419 0 -0.50000000000000244 -0.44590339782924732 0 -0.46054137378369808 -0.43829688285943907 0 -0.48027068689185048 -0.44210014034434209 0 -0.47231195116000302 -0.45983042647413419 0 -0.46054137378369808 -0.43829688285943907 0 -0.48027068689185048 -0.44210014034434209 0 -0.48027068689185048 -0.44210014034434209 0 -0.47231195116000302 -0.45983042647413419 0 -0.50000000000000244 -0.44590339782924732 0 -0.48027068689185048 -0.44210014034434209 0 -0.50000000000000244 -0.44590339782924732 0 -0.48027068689185048 -0.44210014034434209 0 -0.50000000000000244 -0.44590339782924732 0 -0.4900484660496584 -0.43147024756206981 0 -0.4900484660496584 -0.43147024756206981 0 -0.5 -0.41887828339189043 0 -0.47992317730678308 -0.41899916868279918 0 -0.50000000000000244 -0.44590339782924732 0 -0.4900484660496584 -0.43147024756206981 0 -0.5 -0.41887828339189043 0 -0.5 -0.41887828339189043 0 -0.47992317730678308 -0.41899916868279918 0 -0.48465957059762799 -0.40343624290755381 0 -0.47992317730678308 -0.41899916868279918 0 -0.48465957059762799 -0.40343624290755381 0 -0.46665820821482901 -0.40016634405562229 0 -0.46054137378369808 -0.43829688285943907 0 -0.47992317730678308 -0.41899916868279918 0 -0.48027068689185048 -0.44210014034434209 0 -0.4900484660496584 -0.43147024756206981 0 -0.47992317730678308 -0.41899916868279918 0 -0.46054137378369808 -0.43829688285943907 0 -0.48027068689185048 -0.44210014034434209 0 -0.47992317730678308 -0.41899916868279918 0 -0.5 -0.39185316895453348 0 -0.4761312134676482 -0.38756385394548132 0 -0.4830250196908622 -0.37120017167334662 0 -0.5 -0.39185316895453348 0 -0.5 -0.36482805451717648 0 -0.4830250196908622 -0.37120017167334662 0 -0.48465957059762799 -0.40343624290755381 0 -0.5 -0.39185316895453348 0 -0.4761312134676482 -0.38756385394548132 0 -0.5 -0.41887828339189043 0 -0.48465957059762799 -0.40343624290755381 0 -0.5 -0.39185316895453348 0 -0.48465957059762799 -0.40343624290755381 0 -0.4761312134676482 -0.38756385394548132 0 -0.46665820821482901 -0.40016634405562229 0 -0.4761312134676482 -0.38756385394548132 0 -0.4830250196908622 -0.37120017167334662 0 -0.46371292331358283 -0.36943493203374028 0 -0.4761312134676482 -0.38756385394548132 0 -0.45873155898898799 -0.38929226404809147 0 -0.46371292331358283 -0.36943493203374028 0 -0.45873155898898799 -0.38929226404809147 0 -0.44129776775928881 -0.38709003401313891 0 -0.46371292331358283 -0.36943493203374028 0 -0.4761312134676482 -0.38756385394548132 0 -0.45873155898898799 -0.38929226404809147 0 -0.46665820821482901 -0.40016634405562229 0 -0.45873155898898799 -0.38929226404809147 0 -0.46665820821482901 -0.40016634405562229 0 -0.44527242819071161 -0.40248576068503278 0 -0.44527242819071161 -0.40248576068503278 0 -0.44129776775928881 -0.38709003401313891 0 -0.42695398996336043 -0.39130050078672862 0 -0.45873155898898799 -0.38929226404809147 0 -0.44527242819071161 -0.40248576068503278 0 -0.44129776775928881 -0.38709003401313891 0 -0.44129776775928881 -0.38709003401313891 0 -0.46371292331358283 -0.36943493203374028 0 -0.43978277818578759 -0.37167677147171641 0 -0.46054137378369808 -0.43829688285943907 0 -0.47992317730678308 -0.41899916868279918 0 -0.4549661137636366 -0.41756728295658241 0 -0.46665820821482901 -0.40016634405562229 0 -0.44527242819071161 -0.40248576068503278 0 -0.4549661137636366 -0.41756728295658241 0 -0.46665820821482901 -0.40016634405562229 0 -0.4549661137636366 -0.41756728295658241 0 -0.47992317730678308 -0.41899916868279918 0 -0.46665820821482901 -0.40016634405562229 0 -0.4549661137636366 -0.41756728295658241 0 -0.44527242819071161 -0.40248576068503278 0 -0.4549661137636366 -0.41756728295658241 0 -0.43105846287872818 -0.41372269178492482 0 -0.46054137378369808 -0.43829688285943907 0 -0.4549661137636366 -0.41756728295658241 0 -0.44327401931244392 -0.43496822185754241 0 -0.4549661137636366 -0.41756728295658241 0 -0.44327401931244392 -0.43496822185754241 0 -0.4549661137636366 -0.41756728295658241 0 -0.44327401931244392 -0.43496822185754241 0 -0.43105846287872818 -0.41372269178492482 0 -0.46054137378369808 -0.43829688285943907 0 -0.44327401931244392 -0.43496822185754241 0 -0.44327401931244392 -0.43496822185754241 0 -0.43105846287872818 -0.41372269178492482 0 -0.41834139056886149 -0.43016191124918068 0 -0.44327401931244392 -0.43496822185754241 0 -0.41834139056886149 -0.43016191124918068 0 -0.44327401931244392 -0.43496822185754241 0 -0.41834139056886149 -0.43016191124918068 0 -0.41653749261704343 -0.44609768360881319 0 -0.43105846287872818 -0.41372269178492482 0 -0.41210935906420321 -0.41814211803263379 0 -0.41834139056886149 -0.43016191124918068 0 -0.43105846287872818 -0.41372269178492482 0 -0.41210935906420321 -0.41814211803263379 0 -0.43105846287872818 -0.41372269178492482 0 -0.41210935906420321 -0.41814211803263379 0 -0.4160609402308591 -0.40386764089033411 0 -0.41210935906420321 -0.41814211803263379 0 -0.4160609402308591 -0.40386764089033411 0 -0.40217472997888198 -0.40810073097146599 0 -0.41210935906420321 -0.41814211803263379 0 -0.41834139056886149 -0.43016191124918068 0 -0.39340876182527901 -0.42535560064082018 0 -0.44129776775928881 -0.38709003401313891 0 -0.42695398996336043 -0.39130050078672862 0 -0.43978277818578759 -0.37167677147171641 0 -0.42695398996336043 -0.39130050078672862 0 -0.43978277818578759 -0.37167677147171641 0 -0.41400505498742568 -0.36910418949551882 0 -0.44527242819071161 -0.40248576068503278 0 -0.43105846287872818 -0.41372269178492482 0 -0.42695398996336043 -0.39130050078672862 0 -0.43105846287872818 -0.41372269178492482 0 -0.42695398996336043 -0.39130050078672862 0 -0.4160609402308591 -0.40386764089033411 0 -0.42695398996336043 -0.39130050078672862 0 -0.4160609402308591 -0.40386764089033411 0 -0.40952055858721981 -0.39034041384356699 0 -0.4160609402308591 -0.40386764089033411 0 -0.40952055858721981 -0.39034041384356699 0 -0.40217472997888198 -0.40810073097146599 0 -0.42695398996336043 -0.39130050078672862 0 -0.40952055858721981 -0.39034041384356699 0 -0.41400505498742568 -0.36910418949551882 0 -0.40952055858721981 -0.39034041384356699 0 -0.39758897468402687 -0.39296020228643541 0 -0.38954040266335499 -0.38186212971397121 0 -0.38954040266335499 -0.38186212971397121 0 -0.41400505498742568 -0.36910418949551882 0 -0.40952055858721981 -0.39034041384356699 0 -0.38954040266335499 -0.38186212971397121 0 -0.41400505498742568 -0.36910418949551882 0 -0.40952055858721981 -0.39034041384356699 0 -0.39758897468402687 -0.39296020228643541 0 -0.40217472997888198 -0.40810073097146599 0 -0.39758897468402687 -0.39296020228643541 0 -0.39135032895651628 -0.40221183699715712 0 -0.38954040266335499 -0.38186212971397121 0 -0.39758897468402687 -0.39296020228643541 0 -0.39135032895651628 -0.40221183699715712 0 -0.40217472997888198 -0.40810073097146599 0 -0.39135032895651628 -0.40221183699715712 0 -0.38954040266335499 -0.38186212971397121 0 -0.39135032895651628 -0.40221183699715712 0 -0.38115034759646599 -0.39384311594396121 0 -0.38808703558456192 -0.3826200383104677 0 -0.39135032895651628 -0.40221183699715712 0 -0.38115034759646599 -0.39384311594396121 0 -0.3776851368106805 -0.40846693248074489 0 -0.39135032895651628 -0.40221183699715712 0 -0.38808703558456192 -0.3826200383104677 0 -0.38954040266335499 -0.38186212971397121 0 -0.38115034759646599 -0.39384311594396121 0 -0.38108909448591899 -0.38472285043287641 0 -0.38808703558456192 -0.3826200383104677 0 -0.38115034759646599 -0.39384311594396121 0 -0.38108909448591899 -0.38472285043287641 0 -0.37406354031986361 -0.38271422226867191 0 -0.38105545444278482 -0.37971402520840469 0 -0.3743501061123069 -0.3672002368705311 0 -0.37406354031986361 -0.38271422226867191 0 -0.38108909448591899 -0.38472285043287641 0 -0.38105545444278482 -0.37971402520840469 0 -0.37406354031986361 -0.38271422226867191 0 -0.38105545444278482 -0.37971402520840469 0 -0.38808703558456192 -0.3826200383104677 0 -0.384082135442261 -0.37378844148765761 0 -0.38808703558456192 -0.3826200383104677 0 -0.38954040266335499 -0.38186212971397121 0 -0.384082135442261 -0.37378844148765761 0 -0.38108909448591899 -0.38472285043287641 0 -0.38105545444278482 -0.37971402520840469 0 -0.38808703558456192 -0.3826200383104677 0 -0.38808703558456192 -0.3826200383104677 0 -0.38954040266335499 -0.38186212971397121 0 -0.41834139056886149 -0.43016191124918068 0 -0.39340876182527901 -0.42535560064082018 0 -0.41210935906420321 -0.41814211803263379 0 -0.39340876182527901 -0.42535560064082018 0 -0.39316025524967818 -0.42256154428034293 0 -0.41834139056886149 -0.43016191124918068 0 -0.39340876182527901 -0.42535560064082
[...]
<PointData Scalars="" Vectors="displacement," Tensors="">
<DataArray type="Float64" Name="displacement" NumberOfComponents="3" format="ascii">
-0.024998617629250462 -5.5266713173665757e-07 0 -0.023511105297299304 -0.00013696276138290187 0 -0.024285528781063742 -0.00018881583678832833 0 -0.024998617629250462 -5.5266713173665757e-07 0 -0.023511105297299304 -0.00013696276138290187 0 -0.022157622199000786 4.0291588147344107e-07 0 -0.023511105297299304 -0.00013696276138290187 0 -0.023429964142509051 9.3969029593542075e-05 0 -0.022780331681956738 7.6642604494595766e-05 0 -0.023511105297299304 -0.00013696276138290187 0 -0.022780331681956738 7.6642604494595766e-05 0 -0.022157622199000786 4.0291588147344107e-07 0 -0.0190097453168789 -0.00074570597440992193 0 -0.02004603579408919 -0.00071515575662927289 0 -0.018891403807980794 -3.5195328369365639e-05 0 -0.0190097453168789 -0.00074570597440992193 0 -0.019901543925952989 -0.0015937436454116745 0 -0.02004603579408919 -0.00071515575662927289 0 -0.021386476541657831 -0.00033112454908633339 0 -0.023344918313602487 -0.00048317128093517694 0 -0.023511105297299304 -0.00013696276138290187 0 -0.023429964142509051 9.3969029593542075e-05 0 -0.024035641440513039 8.6979227121340081e-05 0 -0.023511105297299304 -0.00013696276138290187 0 -0.024035641440513039 8.6979227121340081e-05 0 -0.024285528781063742 -0.00018881583678832833 0 -0.024035641440513039 8.6979227121340081e-05 0 -0.024423759317475376 -6.255870820607078e-05 0 -0.024285528781063742 -0.00018881583678832833 0 -0.024998617629250462 -5.5266713173665757e-07 0 -0.024285528781063742 -0.00018881583678832833 0 -0.024998413938631343 -8.3829134588884621e-08 0 -0.024423759317475376 -6.255870820607078e-05 0 -0.024529104976503669 -0.00015471120849321852 0 -0.024285528781063742 -0.00018881583678832833 0 -0.023344918313602487 -0.00048317128093517694 0 -0.024861105678047141 3.4019278309060969e-06 0 -0.024529104976503669 -0.00015471120849321852 0 -0.024285528781063742 -0.00018881583678832833 0 -0.024998413938631343 -8.3829134588884621e-08 0 -0.024861105678047141 3.4019278309060969e-06 0 -0.02499983156434421 -2.301704733207763e-07 0 -0.024997661263872342 -1.891573551785028e-05 0 -0.025000020201128688 -4.5614969970073473e-09 0 -0.024987494549306273 -4.2925604691191782e-06 0 -0.024987494549306273 -4.2925604691191782e-06 0 -0.024999921735165968 1.1314787870765269e-08 0 -0.024947470276921107 -1.6631719959585463e-05 0 -0.025000020201128688 -4.5614969970073473e-09 0 -0.024987494549306273 -4.2925604691191782e-06 0 -0.024999921735165968 1.1314787870765269e-08 0 -0.024999921735165968 1.1314787870765269e-08 0 -0.024947470276921107 -1.6631719959585463e-05 0 -0.024931827200770831 -7.1608000136454121e-06 0 -0.024947470276921107 -1.6631719959585463e-05 0 -0.024931827200770831 -7.1608000136454121e-06 0 -0.024828783539999517 -3.207757435777074e-05 0 -0.023344918313602487 -0.00048317128093517694 0 -0.025445962457476969 -2.1220960770489822e-05 0 -0.024997661263872342 -1.891573551785028e-05 0 -0.024987494549306273 -4.2925604691191782e-06 0 -0.024947470276921107 -1.6631719959585463e-05 0 -0.024978124676381126 -6.6854132079485567e-05 0 -0.024997661263872342 -1.891573551785028e-05 0 -0.024947470276921107 -1.6631719959585463e-05 0 -0.024999865127673646 -1.5946808169789262e-08 0 -0.024893341854960681 -1.1192958216808504e-05 0 -0.024939839099331663 -5.0952157230815713e-06 0 -0.024999865127673646 -1.5946808169789262e-08 0 -0.024999911122763899 -2.2360663192551899e-09 0 -0.024939839099331663 -5.0952157230815713e-06 0 -0.024931827200770831 -7.1608000136454121e-06 0 -0.024999865127673646 -1.5946808169789262e-08 0 -0.024893341854960681 -1.1192958216808504e-05 0 -0.024999921735165968 1.1314787870765269e-08 0 -0.024931827200770831 -7.1608000136454121e-06 0 -0.024999865127673646 -1.5946808169789262e-08 0 -0.024931827200770831 -7.1608000136454121e-06 0 -0.024893341854960681 -1.1192958216808504e-05 0 -0.024828783539999517 -3.207757435777074e-05 0 -0.024893341854960681 -1.1192958216808504e-05 0 -0.024939839099331663 -5.0952157230815713e-06 0 -0.024885264931380515 2.5442371603181587e-05 0 -0.024893341854960681 -1.1192958216808504e-05 0 -0.024819115720042507 2.1708640971081566e-05 0 -0.024885264931380515 2.5442371603181587e-05 0 -0.024819115720042507 2.1708640971081566e-05 0 -0.02475795826756684 0.00010598249219574276 0 -0.024885264931380515 2.5442371603181587e-05 0 -0.024893341854960681 -1.1192958216808504e-05 0 -0.024819115720042507 2.1708640971081566e-05 0 -0.024828783539999517 -3.207757435777074e-05 0 -0.024819115720042507 2.1708640971081566e-05 0 -0.024828783539999517 -3.207757435777074e-05 0 -0.024680078063248848 8.6974795371418695e-05 0 -0.024680078063248848 8.6974795371418695e-05 0 -0.02475795826756684 0.00010598249219574276 0 -0.024687541831269769 0.00019323425309132676 0 -0.024819115720042507 2.1708640971081566e-05 0 -0.024680078063248848 8.6974795371418695e-05 0 -0.02475795826756684 0.00010598249219574276 0 -0.02475795826756684 0.00010598249219574276 0 -0.024885264931380515 2.5442371603181587e-05 0 -0.02480938095686281 0.0001092788219170307 0 -0.024909622208150121 -6.396605423973246e-05 0 -0.024947470276921107 -1.6631719959585463e-05 0 -0.024905810844251721 -7.024346437896574e-05 0 -0.024828783539999517 -3.207757435777074e-05 0 -0.024680078063248848 8.6974795371418695e-05 0 -0.024538705304434701 -5.9247453475173208e-06 0 -0.024642739720608313 5.6847329863039254e-05 0 -0.02518777942915619 -0.00021277055318896269 0 -0.024947470276921107 -1.6631719959585463e-05 0 -0.024828783539999517 -3.207757435777074e-05 0 -0.024905810844251721 -7.024346437896574e-05 0 -0.024680078063248848 8.6974795371418695e-05 0 -0.024538705304434701 -5.9247453475173208e-06 0 -0.024538858149248641 0.00019543601782940229 0 -0.024909622208150121 -6.396605423973246e-05 0 -0.024905810844251721 -7.024346437896574e-05 0 -0.024889005816411746 -6.855429988085094e-05 0 -0.02518777942915619 -0.00021277055318896269 0 -0.021601631177135327 -0.00019003305091326123 0 -0.024538705304434701 -5.9247453475173208e-06 0 -0.024311990573352805 8.1613699572507771e-05 0 -0.024538858149248641 0.00019543601782940229 0 -0.023344918313602487 -0.00048317128093517694 0 -0.021601631177135327 -0.00019003305091326123 0 -0.024311990573352805 8.1613699572507771e-05 0 -0.024538858149248641 0.00019543601782940229 0 -0.024317057053983945 0.00033754342770629382 0 -0.021601631177135327 -0.00019003305091326123 0 -0.021324849261004121 0.00042283792989210843 0 -0.018005398689679462 0.00027288033324836367 0 -0.018001717848269934 0.00037515084309835343 0 -0.017910388280438626 0.00039228134063970808 0 -0.024538858149248641 0.00019543601782940229 0 -0.024443580745331071 0.00040798451093487336 0 -0.024317057053983945 0.00033754342770629382 0 -0.024497946122237074 0.00027069214292220673 0 -0.02463413268380775 0.00019685586590285721 0 -0.024538858149248641 0.00019543601782940229 0 -0.02447291770209109 0.00028496404642893564 0 -0.024573474366267022 0.00026397167331640642 0 -0.02447291770209109 0.00028496404642893564 0 -0.024573474366267022 0.00026397167331640642 0 -0.024519583752802783 0.00034264856532198939 0 -0.024443580745331071 0.00040798451093487336 0 -0.024317057053983945 0.00033754342770629382 0 -0.024305085569822176 0.00061970381992583836 0 -0.02475795826756684 0.00010598249219574276 0 -0.024687541831269769 0.00019323425309132676 0 -0.02480938095686281 0.0001092788219170307 0 -0.024687541831269769 0.00019323425309132676 0 -0.02480938095686281 0.0001092788219170307 0 -0.024765830441104895 0.00025776921812996665 0 -0.024680078063248848 8.6974795371418695e-05 0 -0.024538858149248641 0.00019543601782940229 0 -0.024687541831269769 0.00019323425309132676 0 -0.024538858149248641 0.00019543601782940229 0 -0.024687541831269769 0.00019323425309132676 0 -0.024573474366267022 0.00026397167331640642 0 -0.024687541831269769 0.00019323425309132676 0 -0.024573474366267022 0.00026397167331640642 0 -0.024643562279707348 0.00029466675400081335 0 -0.024573474366267022 0.00026397167331640642 0 -0.024643562279707348 0.00029466675400081335 0 -0.024519583752802783 0.00034264856532198939 0 -0.024687541831269769 0.00019323425309132676 0 -0.024643562279707348 0.00029466675400081335 0 -0.024765830441104895 0.00025776921812996665 0 -0.024643562279707348 0.00029466675400081335 0 -0.024601315163810724 0.00036479882556170483 0 -0.024641509884768657 0.00040526421736281781 0 -0.018307648901662858 -0.0011905193531877849 0 -0.019935079649349645 -0.00053518364678186651 0 -0.024643562279707348 0.00029466675400081335 0 -0.024641509884768657 0.00040526421736281781 0 -0.024765830441104895 0.00025776921812996665 0 -0.024643562279707348 0.00029466675400081335 0 -0.024601315163810724 0.00036479882556170483 0 -0.024519583752802783 0.00034264856532198939 0 -0.024601315163810724 0.00036479882556170483 0 -0.024538446725718612 0.00040409593755459146 0 -0.024641509884768657 0.00040526421736281781 0 -0.024601315163810724 0.00036479882556170483 0 -0.024538446725718612 0.00040409593755459146 0 -0.024519583752802783 0.00034264856532198939 0 -0.020712051897498415 0.0003129327866643692 0 -0.018307648901662858 -0.0011905193531877849 0 -0.016171127081806326 6.5400506344750827e-05 0 -0.015947753448037449 -0.00019796904700764332 0 -0.015688728614212409 -4.236429023969609e-05 0 -0.016171127081806326 6.5400506344750827e-05 0 -0.015947753448037449 -0.00019796904700764332 0 -0.016305703481942515 -0.00027282564059271356 0 -0.016171127081806326 6.5400506344750827e-05 0 -0.015688728614212409 -4.236429023969609e-05 0 -0.01567229810642547 -8.1107265057923019e-06 0 -0.015947753448037449 -0.00019796904700764332 0 -0.015732280955893407 -0.00020587011571603596 0 -0.015688728614212409 -4.236429023969609e-05 0 -0.015947753448037449 -0.00019796904700764332 0 -0.015732280955893407 -0.00020587011571603596 0 -0.015679242615411999 -0.00037312434382226565 0 -0.015612904415718784 -0.00021014337876913185 0 -0.015315145761183934 -0.00037165075160795345 0 -0.015679242615411999 -0.00037312434382226565 0 -0.015732280955893407 -0.00020587011571603596 0 -0.015612904415718784 -0.00021014337876913185 0 -0.015679242615411999 -0.00037312434382226565 0 -0.015612904415718784 -0.00021014337876913185 0 -0.015688728614212409 -4.236429023969609e-05 0 -0.015473625018438927 -0.00014245026369646792 0 -0.015688728614212409 -4.236429023969609e-05 0 -0.015672020231435005 -9.2947507265448104e-06 0 -0.015473625018438927 -0.00014245026369646792 0 -0.015732280955893407 -0.00020587011571603596 0 -0.015612904415718784 -0.00021014337876913185 0 -0.015688728614212409 -4.236429023969609e-05 0 -0.018161824790271612 -0.001013118623005832 0 -0.018307648901662858 -0.0011905193531877849 0 -0.021324849261004121 0.00042283792989210843 0 -0.019295339842804484 0.0007669681219100382 0 -0.024443580745331071 0.00040798451093487336 0 -0.024305085569822176 0.00061970381992583836 0 -0.024337496337036166 0.00062274284023612929 0 -0.018001717848269934 0.00037515084309835343 0 -0.018042157937501541 0.00052535249689262392 0 -0.017939846533235656 0.00043633614484156458 0 -0.019295339842804484 0.0007669681219100382 0 -0.020570382756199192 0.00058698000441775389 0 -0.019183144826532599 0.0010866646808241009 0 -0.018814532495981764 0.00105366094078334 0 -0.019008804101786344 0.00020074848209629493 0 -0.020712051897498415 0.0003129327866643692 0 -0.020570382756199192 0.00058698000441775389 0 -0.02463413268380775 0.00019685586590285721 0 -0.020570382756199192 0.00058698000441775389 0 -0.016171127081806326 6.5400506344750827e-05 0 -0.016704912587181885 0.00013277216101648278 0 -0.016448432390923369 -2.0412058537464966e-05 0 -0.024538446725718612 0.00040409593755459146 0 -0.024403745924303534 0.00040212555331356633 0 -0.024519583752802783 0.00034264856532198939 0 -0.02447291770209109 0.00028496404642893564 0 -0.024403745924303534 0.00040212555331356633 0 -0.024519583752802783 0.00034264856532198939 0 -0.016448432390923369 -2.0412058537464966e-05 0 -0.016305703481942515 -0.00027282564059271356 0 -0.016736158422304737 -3.8759291763330184e-05 0 -0.016305703481942515 -0.00027282564059271356 0 -0.016736158422304737 -3.8759291763330184e-05 0 -0.016617370022491883 -0.00050223710086510218 0 -0.016704912587181885 0.00013277216101648278 0 -0.016448432390923369 -2.0412058537464966e-05 0 -0.016736158422304737 -3.8759291763330184e-05 0 -0.016171127081806326 6.5400506344750827e-05 0 -0.016448432390923369 -2.0412058537464966e-05 0 -0.016305703481942515 -0.00027282564059271356 0 -0.018089060586385642 0.00023487615720058533 0 -0.016558457090366522 -0.0006361022753934751 0 -0.017465623435021845 0.00033424275580339161 0 -0.017574224711773792 0.0003477580140413256 0 -0.017498066414955087 0.00024573713081136537 0 -0.017455067591846948 0.00040499582737558217 0 -0.017465623435021845 0.00033424275580339161 0 -0.017574224711773792 0.0003477580140413256 0 -0.019295339842804484 0.0007669681219100382 0 -0.018089060586385642 0.00023487615720058533 0 -0.020570382756199192 0.00058698000441775389 0 -0.018089060586385642 0.00023487615720058533 0 -0.017574224711773792 0.0003477580140413256 0 -0.017715869376854237 0.00034361417250573263 0 -0.017498066414955087 0.00024573713081136537 0 -0.017574224711773792 0.0003477580140413256 0 -0.017792725618142814 0.00045462617677594758 0 -0.017715869376854237 0.00034361417250573263 0 -0.017455067591846948 0.00040499582737558217 0 -0.017574224711773792 0.0003477580140413256 0 -0.017792725618142814 0.00045462617677594758 0 -0.017939846533235656 0.00043633614484156458 0 -0.017792725618142814 0.00045462617677594758 0 -0.017910388280438626 0.00039228134063970808 0 -0.019295339842804484 0.0007669681219100382 0 -0.0171139112315567 0.00035006172590995268 0 -0.018042157937501541 0.00052535249689262392 0 -0.017939846533235656 0.00043633614484156458 0 -0.017792725618142814 0.00045462617677594758 0 -0.017792725618142814 0.00045462617677594758 0 -0.017861914389174345 0.00037935456369016295 0 -0.017884017314034814 0.00043480718493916272 0 -0.017792725618142814 0.00045462617677594758 0 -0.017884017314034814 0.00043480718493916272 0 -0.017874112099111297 0.00040588518676951081 0 -0.017715869376854237 0.00034361417250573263 0 -0.017861914389174345 0.00037935456369016295 0 -0.017798300249338723 0.00024223182310150081 0 -0.017792725618142814 0.00045462617677594758 0 -0.017715869376854237 0.00034361417250573263 0 -0.017861914389174345 0.00037935456369016295 0 -0.017861914389174345 0.00037935456369016295 0 -0.017936300584566703 0.00027641321563461643 0 -0.017798300249338723 0.00024223182310150081 0 -0.017861914389174345 0.00037935456369016295 0 -0.017899546075661226 0.00045365483683222076 0 -0.017936300584566703 0.00027641321563461643 0 -0.019362899608757925 -3.308590036792907e-05 0 -0.018504241823037081 3.4218611555913429e-07 0 -0.019175386828824741 9.9326068060205208e-05 0 -0.019362899608757925 -3.308590036792907e-05 0 -0.020054067813568235 2.6430453691165512e-08 0 -0.018504241823037081 3.4218611555913429e-07 0 -0.019161806531687593 9.2144716163059524e-05 0 -0.01786423757365637 0.00018801176494901187 0 -0.019362899608757925 -3.308590036792907e-05 0 -0.019860353832287781 -6.7719020216216484e-05 0 -0.019175386828824741 9.9326068060205208e-05 0 -0.019362899608757925 -3.308590036792907e-05 0 -0.019860353832287781 -6.7719020216216484e-05 0 -0.020054067813568235 2.6430453691165512e-08 0 -0.019161806531687593 9.2144716163059524e-05 0 -0.020356238766257553 0.00081152196750542891 0 -0.017899546075661226 0.00045365483683222076 0 -0.017891162058467486 0.00045323046255789275 0 -0.017753984386267432 0.00046587329221152348 0 -0.019860353832287781 -6.7719020216216484e-05 0 -0.020054067813568235 2.6430453691165512e-08 0 -0.020475501304145455 5.5173626884133533e-05 0 -0.017861914389174345 0.00037935456369016295 0 -0.017899546075661226 0.00045365483683222076 0 -0.017884017314034814 0.00043480718493916272 0 -0.017899546075661226 0.00045365483683222076 0 -0.017891162058467486 0.00045323046255789275 0 -0.017884017314034814 0.00043480718493916272 0 -0.017884017314034814 0.00043480718493916272 0 -0.017968825510575649 0.00038515065554025577 0 -0.017874112099111297 0.00040588518676951081 0 -0.017968825510575649 0.00038515065554025577 0 -0.017753984386267432 0.00046587329221152348 0 -0.018240108008567391 1.7830710729979128e-06 0 -0.022157622199000786 4.0291588147344107e-07 0 -0.020054067813568235 2.6430453691165512e-08 0 -0.021741858208268555 0.00021266988463044208 0 -0.021920747932917168 0.0017449780876091937 0 -0.021741858208268555 0.00021266988463044208 0 -0.023338175683039419 0.00056390138725060832 0 -0.020356238766257553 0.00081152196750542891 0 -0.020714084011261874 0.00034277153099035538 0 -0.017891162058467486 0.00045323046255789275 0 -0.017968825510575649 0.00038515065554025577 0 -0.017753984386267432 0.00046587329221152348 0 -0.017891162058467486 0.00045323046255789275 0 -0.017884017314034814 0.00043480718493916272 0 -0.017968825510575649 0.00038515065554025577 0 -0.020054067813568235 2.6430453691165512e-08 0 -0.020475501304145455 5.5173626884133533e-05 0 -0.021741858208268555 0.00021266988463044208 0 -0.020356238766257553 0.00081152196750542891 0 -0.021577144914068553 0.00025293267830746167 0 -0.022780331681956738 7.6642604494595766e-05 0 -0.022157622199000786 4.0291588147344107e-07 0 -0.021741858208268555 0.00021266988463044208 0 -0.022780331681956738 7.6642604494595766e-05 0 -0.021741858208268555 0.00021266988463044208 0 -0.023338175683039419 0.00056390138725060832 0 -0.017968825510575649 0.00038515065554025577 0 -0.018240108008567391 1.7830710729979128e-06 0 -0.018891403807980794 -3.5195328369365639e-05 0 -0.023429964142509051 9.3969029593542075e-05 0 -0.022780331681956738 7.6642604494595766e-05 0 -0.023338175683039419 0.00056390138725060832 0 -0.023429964142509051 9.3969029593542075e-05 0 -0.024035641440513039 8.6979227121340081e-05 0 -0.023338175683039419 0.00056390138725060832 0 -0.0190097453168789 -0.00074570597440992193 0 -0.018240108008567391 1.7830710729979128e-06 0 -0.018891403807980794 -3.5195328369365639e-05 0 -0.021386476541657831 -0.00033112454908633339 0 -0.020714084011261874 0.00034277153099035538 0 -0.021601631177135327 -0.00019003305091326123 0 -0.017884852283421935 0.00028764368880979075 0 -0.018005398689679462 0.00027288033324836367 0 -0.017878218408955444 0.00036834715792882533 0 -0.017910388280438626 0.00039228134063970808 0 -0.018001717848269934 0.00037515084309835343 0 -0.017939846533235656 0.00043633614484156458 0 -0.017910388280438626 0.00039228134063970808 0 -0.017878218408955444 0.00036834715792882533 0 -0.017910388280438626 0.00039228134063970808 0 -0.017874112099111297 0.00040588518676951081 0 -0.01819933926630312 0.00029134351079311522 0 -0.017884852283421935 0.00028764368880979075 0 -0.017968825510575649 0.00038515065554025577 0 -0.017878218408955444 0.00036834715792882533 0 -0.017874112099111297 0.00040588518676951081 0 -0.017792725618142814 0.00045462617677594758 0 -0.017910388280438626 0.00039228134063970808 0 -0.017874112099111297 0.00040588518676951081 0 -0.014999334415700456 -0.0023544043597243484 0 -0.015044079989024539 -0.002315868713104964 0 -0.015062142716541846 -0.0022462910753589726 0 -0.021425729918311532 -0.0016405620846194789 0 -0.022908826991898574 -0.00066263186325646642 0 -0.022501666998922712 -0.0006668859704892328 0 -0.018105777277876156 -0.0019486332067958278 0 -0.020179639690862883 -0.0016494955702759198 0 -0.015044079989024539 -0.002315868713104964 0 -0.015064410871546271 -0.0022744448631240761 0 -0.015062142716541846 -0.0022462910753589726 0 -0.015044079989024539 -0.002315868713104964 0 -0.015056344821555497 -0.0023265453899240143 0 -0.015064410871546271 -0.0022744448631240761 0 -0.015064410871546271 -0.0022744448631240761 0 -0.015085696825374683 -0.0022258662127708044 0 -0.015060873784465804 -0.0022881557639581368 0 -0.015056344821555497 -0.0023265453899240143 0 -0.015060873784465804 -0.0022881557639581368 0 -0.015058232775234607 -0.0023541764739584982 0 -0.015056344821555497 -0.0023265453899240143 0 -0.015064410871546271 -0.0022744448631240761 0 -0.015060