<?xml version="1.0"?>
<VTKFile type="UnstructuredGrid" version="0.1" byte_order="LittleEndian">
<UnstructuredGrid>
<Piece NumberOfPoints="31211" NumberOfCells="10898">
<Points>
<DataArray type="Float64" NumberOfComponents="3" format="ascii">
-0.5 -0.5 0 -0.45589340108526011 -0.47731100519934422 0 -0.47231195116000302 -0.45983042647413419 0 -0.5 -0.5 0 -0.45589340108526011 -0.47731100519934422 0 -0.44311715934209278 -0.5 0 -0.45589340108526011 -0.47731100519934422 0 -0.44113100164694791 -0.47142867570799601 0 -0.43808753024089292 -0.48148952960568719 0 -0.45589340108526011 -0.47731100519934422 0 -0.43808753024089292 -0.48148952960568719 0 -0.44311715934209278 -0.5 0 -0.44369481634844582 -0.45507035029546422 0 -0.44327401931244392 -0.43496822185754241 0 -0.42856267251903818 -0.45686260936625711 0 -0.44369481634844582 -0.45507035029546422 0 -0.46054137378369808 -0.43829688285943907 0 -0.44327401931244392 -0.43496822185754241 0 -0.44369481634844582 -0.45507035029546422 0 -0.46054137378369808 -0.43829688285943907 0 -0.45589340108526011 -0.47731100519934422 0 -0.44113100164694791 -0.47142867570799601 0 -0.44369481634844582 -0.45507035029546422 0 -0.45589340108526011 -0.47731100519934422 0 -0.44369481634844582 -0.45507035029546422 0 -0.47231195116000302 -0.45983042647413419 0 -0.44369481634844582 -0.45507035029546422 0 -0.46054137378369808 -0.43829688285943907 0 -0.47231195116000302 -0.45983042647413419 0 -0.5 -0.5 0 -0.47231195116000302 -0.45983042647413419 0 -0.50000000000000244 -0.44590339782924732 0 -0.46054137378369808 -0.43829688285943907 0 -0.48027068689185048 -0.44210014034434209 0 -0.47231195116000302 -0.45983042647413419 0 -0.46054137378369808 -0.43829688285943907 0 -0.48027068689185048 -0.44210014034434209 0 -0.48027068689185048 -0.44210014034434209 0 -0.47231195116000302 -0.45983042647413419 0 -0.50000000000000244 -0.44590339782924732 0 -0.48027068689185048 -0.44210014034434209 0 -0.50000000000000244 -0.44590339782924732 0 -0.48027068689185048 -0.44210014034434209 0 -0.50000000000000244 -0.44590339782924732 0 -0.4900484660496584 -0.43147024756206981 0 -0.4900484660496584 -0.43147024756206981 0 -0.5 -0.41887828339189043 0 -0.47992317730678308 -0.41899916868279918 0 -0.50000000000000244 -0.44590339782924732 0 -0.4900484660496584 -0.43147024756206981 0 -0.5 -0.41887828339189043 0 -0.5 -0.41887828339189043 0 -0.47992317730678308 -0.41899916868279918 0 -0.48465957059762799 -0.40343624290755381 0 -0.47992317730678308 -0.41899916868279918 0 -0.48465957059762799 -0.40343624290755381 0 -0.46665820821482901 -0.40016634405562229 0 -0.46054137378369808 -0.43829688285943907 0 -0.47992317730678308 -0.41899916868279918 0 -0.48027068689185048 -0.44210014034434209 0 -0.4900484660496584 -0.43147024756206981 0 -0.47992317730678308 -0.41899916868279918 0 -0.46054137378369808 -0.43829688285943907 0 -0.48027068689185048 -0.44210014034434209 0 -0.47992317730678308 -0.41899916868279918 0 -0.5 -0.39185316895453348 0 -0.4761312134676482 -0.38756385394548132 0 -0.4830250196908622 -0.37120017167334662 0 -0.5 -0.39185316895453348 0 -0.5 -0.36482805451717648 0 -0.4830250196908622 -0.37120017167334662 0 -0.48465957059762799 -0.40343624290755381 0 -0.5 -0.39185316895453348 0 -0.4761312134676482 -0.38756385394548132 0 -0.5 -0.41887828339189043 0 -0.48465957059762799 -0.40343624290755381 0 -0.5 -0.39185316895453348 0 -0.48465957059762799 -0.40343624290755381 0 -0.4761312134676482 -0.38756385394548132 0 -0.46665820821482901 -0.40016634405562229 0 -0.4761312134676482 -0.38756385394548132 0 -0.4830250196908622 -0.37120017167334662 0 -0.46371292331358283 -0.36943493203374028 0 -0.4761312134676482 -0.38756385394548132 0 -0.45873155898898799 -0.38929226404809147 0 -0.46371292331358283 -0.36943493203374028 0 -0.45873155898898799 -0.38929226404809147 0 -0.44129776775928881 -0.38709003401313891 0 -0.46371292331358283 -0.36943493203374028 0 -0.4761312134676482 -0.38756385394548132 0 -0.45873155898898799 -0.38929226404809147 0 -0.46665820821482901 -0.40016634405562229 0 -0.45873155898898799 -0.38929226404809147 0 -0.46665820821482901 -0.40016634405562229 0 -0.44527242819071161 -0.40248576068503278 0 -0.44527242819071161 -0.40248576068503278 0 -0.44129776775928881 -0.38709003401313891 0 -0.42695398996336043 -0.39130050078672862 0 -0.45873155898898799 -0.38929226404809147 0 -0.44527242819071161 -0.40248576068503278 0 -0.44129776775928881 -0.38709003401313891 0 -0.44129776775928881 -0.38709003401313891 0 -0.46371292331358283 -0.36943493203374028 0 -0.43978277818578759 -0.37167677147171641 0 -0.46054137378369808 -0.43829688285943907 0 -0.47992317730678308 -0.41899916868279918 0 -0.4549661137636366 -0.41756728295658241 0 -0.46665820821482901 -0.40016634405562229 0 -0.44527242819071161 -0.40248576068503278 0 -0.4549661137636366 -0.41756728295658241 0 -0.46665820821482901 -0.40016634405562229 0 -0.4549661137636366 -0.41756728295658241 0 -0.47992317730678308 -0.41899916868279918 0 -0.46665820821482901 -0.40016634405562229 0 -0.4549661137636366 -0.41756728295658241 0 -0.44527242819071161 -0.40248576068503278 0 -0.4549661137636366 -0.41756728295658241 0 -0.43105846287872818 -0.41372269178492482 0 -0.46054137378369808 -0.43829688285943907 0 -0.4549661137636366 -0.41756728295658241 0 -0.44327401931244392 -0.43496822185754241 0 -0.4549661137636366 -0.41756728295658241 0 -0.44327401931244392 -0.43496822185754241 0 -0.4549661137636366 -0.41756728295658241 0 -0.44327401931244392 -0.43496822185754241 0 -0.43105846287872818 -0.41372269178492482 0 -0.46054137378369808 -0.43829688285943907 0 -0.44327401931244392 -0.43496822185754241 0 -0.44327401931244392 -0.43496822185754241 0 -0.43105846287872818 -0.41372269178492482 0 -0.41834139056886149 -0.43016191124918068 0 -0.44327401931244392 -0.43496822185754241 0 -0.41834139056886149 -0.43016191124918068 0 -0.44327401931244392 -0.43496822185754241 0 -0.41834139056886149 -0.43016191124918068 0 -0.41653749261704343 -0.44609768360881319 0 -0.43105846287872818 -0.41372269178492482 0 -0.41210935906420321 -0.41814211803263379 0 -0.41834139056886149 -0.43016191124918068 0 -0.43105846287872818 -0.41372269178492482 0 -0.41210935906420321 -0.41814211803263379 0 -0.43105846287872818 -0.41372269178492482 0 -0.41210935906420321 -0.41814211803263379 0 -0.4160609402308591 -0.40386764089033411 0 -0.41210935906420321 -0.41814211803263379 0 -0.4160609402308591 -0.40386764089033411 0 -0.40217472997888198 -0.40810073097146599 0 -0.41210935906420321 -0.41814211803263379 0 -0.41834139056886149 -0.43016191124918068 0 -0.39340876182527901 -0.42535560064082018 0 -0.44129776775928881 -0.38709003401313891 0 -0.42695398996336043 -0.39130050078672862 0 -0.43978277818578759 -0.37167677147171641 0 -0.42695398996336043 -0.39130050078672862 0 -0.43978277818578759 -0.37167677147171641 0 -0.41400505498742568 -0.36910418949551882 0 -0.44527242819071161 -0.40248576068503278 0 -0.43105846287872818 -0.41372269178492482 0 -0.42695398996336043 -0.39130050078672862 0 -0.43105846287872818 -0.41372269178492482 0 -0.42695398996336043 -0.39130050078672862 0 -0.4160609402308591 -0.40386764089033411 0 -0.42695398996336043 -0.39130050078672862 0 -0.4160609402308591 -0.40386764089033411 0 -0.40952055858721981 -0.39034041384356699 0 -0.4160609402308591 -0.40386764089033411 0 -0.40952055858721981 -0.39034041384356699 0 -0.40217472997888198 -0.40810073097146599 0 -0.42695398996336043 -0.39130050078672862 0 -0.40952055858721981 -0.39034041384356699 0 -0.41400505498742568 -0.36910418949551882 0 -0.40952055858721981 -0.39034041384356699 0 -0.39758897468402687 -0.39296020228643541 0 -0.38954040266335499 -0.38186212971397121 0 -0.38954040266335499 -0.38186212971397121 0 -0.41400505498742568 -0.36910418949551882 0 -0.40952055858721981 -0.39034041384356699 0 -0.38954040266335499 -0.38186212971397121 0 -0.41400505498742568 -0.36910418949551882 0 -0.40952055858721981 -0.39034041384356699 0 -0.39758897468402687 -0.39296020228643541 0 -0.40217472997888198 -0.40810073097146599 0 -0.39758897468402687 -0.39296020228643541 0 -0.39135032895651628 -0.40221183699715712 0 -0.38954040266335499 -0.38186212971397121 0 -0.39758897468402687 -0.39296020228643541 0 -0.39135032895651628 -0.40221183699715712 0 -0.40217472997888198 -0.40810073097146599 0 -0.39135032895651628 -0.40221183699715712 0 -0.38954040266335499 -0.38186212971397121 0 -0.39135032895651628 -0.40221183699715712 0 -0.38115034759646599 -0.39384311594396121 0 -0.38808703558456192 -0.3826200383104677 0 -0.39135032895651628 -0.40221183699715712 0 -0.38115034759646599 -0.39384311594396121 0 -0.3776851368106805 -0.40846693248074489 0 -0.39135032895651628 -0.40221183699715712 0 -0.38808703558456192 -0.3826200383104677 0 -0.38954040266335499 -0.38186212971397121 0 -0.38115034759646599 -0.39384311594396121 0 -0.38108909448591899 -0.38472285043287641 0 -0.38808703558456192 -0.3826200383104677 0 -0.38115034759646599 -0.39384311594396121 0 -0.38108909448591899 -0.38472285043287641 0 -0.37406354031986361 -0.38271422226867191 0 -0.38105545444278482 -0.37971402520840469 0 -0.3743501061123069 -0.3672002368705311 0 -0.37406354031986361 -0.38271422226867191 0 -0.38108909448591899 -0.38472285043287641 0 -0.38105545444278482 -0.37971402520840469 0 -0.37406354031986361 -0.38271422226867191 0 -0.38105545444278482 -0.37971402520840469 0 -0.38808703558456192 -0.3826200383104677 0 -0.384082135442261 -0.37378844148765761 0 -0.38808703558456192 -0.3826200383104677 0 -0.38954040266335499 -0.38186212971397121 0 -0.384082135442261 -0.37378844148765761 0 -0.38108909448591899 -0.38472285043287641 0 -0.38105545444278482 -0.37971402520840469 0 -0.38808703558456192 -0.3826200383104677 0 -0.38808703558456192 -0.3826200383104677 0 -0.38954040266335499 -0.38186212971397121 0 -0.41834139056886149 -0.43016191124918068 0 -0.39340876182527901 -0.42535560064082018 0 -0.41210935906420321 -0.41814211803263379 0 -0.39340876182527901 -0.42535560064082018 0 -0.39316025524967818 -0.42256154428034293 0 -0.41834139056886149 -0.43016191124918068 0 -0.39340876182527901 -0.42535560064082
[...]
<PointData Scalars="" Vectors="displacement," Tensors="">
<DataArray type="Float64" Name="displacement" NumberOfComponents="3" format="ascii">
-0.024997381057036572 -0.024998819534845441 0 -0.024734726539602236 -0.023237933372320056 0 -0.024078292706091148 -0.024130645541297038 0 -0.024997381057036572 -0.024998819534845441 0 -0.024734726539602236 -0.023237933372320056 0 -0.024998955545092495 -0.02215812599528616 0 -0.024734726539602236 -0.023237933372320056 0 -0.024874096416104267 -0.022671674301883341 0 -0.024972443140156054 -0.02233876185497 0 -0.024734726539602236 -0.023237933372320056 0 -0.024972443140156054 -0.02233876185497 0 -0.024998955545092495 -0.02215812599528616 0 -0.023899298790819333 -0.022681048646756487 0 -0.025144350269986189 -0.022674321118406841 0 -0.023800205823625235 -0.021702516202076628 0 -0.023899298790819333 -0.022681048646756487 0 -0.024927438167723477 -0.023767357889821841 0 -0.025144350269986189 -0.022674321118406841 0 -0.024472618169517183 -0.022690096463246635 0 -0.023182716886129179 -0.025263910716141584 0 -0.024734726539602236 -0.023237933372320056 0 -0.024874096416104267 -0.022671674301883341 0 -0.024779686812018465 -0.023048338715115704 0 -0.024734726539602236 -0.023237933372320056 0 -0.024779686812018465 -0.023048338715115704 0 -0.024078292706091148 -0.024130645541297038 0 -0.024779686812018465 -0.023048338715115704 0 -0.024549445003703627 -0.023794680434589734 0 -0.024078292706091148 -0.024130645541297038 0 -0.024997381057036572 -0.024998819534845441 0 -0.024078292706091148 -0.024130645541297038 0 -0.022302431482412819 -0.024997925750837868 0 -0.024549445003703627 -0.023794680434589734 0 -0.023858838218893379 -0.024314426571699986 0 -0.024078292706091148 -0.024130645541297038 0 -0.023182716886129179 -0.025263910716141584 0 -0.022919829854788347 -0.025023749028028997 0 -0.023858838218893379 -0.024314426571699986 0 -0.024078292706091148 -0.024130645541297038 0 -0.022302431482412819 -0.024997925750837868 0 -0.022919829854788347 -0.025023749028028997 0 -0.022295567279674074 -0.024999755618928809 0 -0.022053018134961584 -0.025873771454369764 0 -0.022295030874154766 -0.024999920795828558 0 -0.021519416862760279 -0.025418228621966483 0 -0.021519416862760279 -0.025418228621966483 0 -0.020943691830433334 -0.024999827007527335 0 -0.020791095702602635 -0.025834777656466332 0 -0.022295030874154766 -0.024999920795828558 0 -0.021519416862760279 -0.025418228621966483 0 -0.020943691830433334 -0.024999827007527335 0 -0.020943691830433334 -0.024999827007527335 0 -0.020791095702602635 -0.025834777656466332 0 -0.02001019610175301 -0.025626885106190829 0 -0.020791095702602635 -0.025834777656466332 0 -0.02001019610175301 -0.025626885106190829 0 -0.019566240411712978 -0.026288986066068491 0 -0.023182716886129179 -0.025263910716141584 0 -0.020481947643535746 -0.026275238782646929 0 -0.022053018134961584 -0.025873771454369764 0 -0.021519416862760279 -0.025418228621966483 0 -0.020791095702602635 -0.025834777656466332 0 -0.021853867512389848 -0.026909435647119461 0 -0.022053018134961584 -0.025873771454369764 0 -0.020791095702602635 -0.025834777656466332 0 -0.019592409375853805 -0.024999990298593226 0 -0.01928745004723216 -0.025955605784621784 0 -0.018661717629927858 -0.025686075560296076 0 -0.019592409375853805 -0.024999990298593226 0 -0.018241730887038735 -0.024999862404283264 0 -0.018661717629927858 -0.025686075560296076 0 -0.02001019610175301 -0.025626885106190829 0 -0.019592409375853805 -0.024999990298593226 0 -0.01928745004723216 -0.025955605784621784 0 -0.020943691830433334 -0.024999827007527335 0 -0.02001019610175301 -0.025626885106190829 0 -0.019592409375853805 -0.024999990298593226 0 -0.02001019610175301 -0.025626885106190829 0 -0.01928745004723216 -0.025955605784621784 0 -0.019566240411712978 -0.026288986066068491 0 -0.01928745004723216 -0.025955605784621784 0 -0.018661717629927858 -0.025686075560296076 0 -0.018862869168448232 -0.026266344035634537 0 -0.01928745004723216 -0.025955605784621784 0 -0.019265419708607262 -0.026219078271842996 0 -0.018862869168448232 -0.026266344035634537 0 -0.019265419708607262 -0.026219078271842996 0 -0.019178377422824886 -0.026052195499548049 0 -0.018862869168448232 -0.026266344035634537 0 -0.01928745004723216 -0.025955605784621784 0 -0.019265419708607262 -0.026219078271842996 0 -0.019566240411712978 -0.026288986066068491 0 -0.019265419708607262 -0.026219078271842996 0 -0.019566240411712978 -0.026288986066068491 0 -0.019213090362643945 -0.026065663465640342 0 -0.019213090362643945 -0.026065663465640342 0 -0.019178377422824886 -0.026052195499548049 0 -0.019144797748142515 -0.025887744406659519 0 -0.019265419708607262 -0.026219078271842996 0 -0.019213090362643945 -0.026065663465640342 0 -0.019178377422824886 -0.026052195499548049 0 -0.019178377422824886 -0.026052195499548049 0 -0.018862869168448232 -0.026266344035634537 0 -0.019114159837246403 -0.026004523273237632 0 -0.021617504673514584 -0.026702372789153248 0 -0.020791095702602635 -0.025834777656466332 0 -0.02064661498692669 -0.026976221709467847 0 -0.019566240411712978 -0.026288986066068491 0 -0.019213090362643945 -0.026065663465640342 0 -0.019039632169774886 -0.026199578680795619 0 -0.019636066942801841 -0.026337572421858638 0 -0.019575186223184937 -0.026636501859886853 0 -0.020791095702602635 -0.025834777656466332 0 -0.019566240411712978 -0.026288986066068491 0 -0.02064661498692669 -0.026976221709467847 0 -0.019213090362643945 -0.026065663465640342 0 -0.019039632169774886 -0.026199578680795619 0 -0.019064215495480614 -0.025845613643992897 0 -0.021617504673514584 -0.026702372789153248 0 -0.02064661498692669 -0.026976221709467847 0 -0.021462179372370504 -0.027476079478389578 0 -0.019575186223184937 -0.026636501859886853 0 -0.022687018235857715 -0.024392077194775996 0 -0.019039632169774886 -0.026199578680795619 0 -0.018708029678848447 -0.026026441020695304 0 -0.019064215495480614 -0.025845613643992897 0 -0.023182716886129179 -0.025263910716141584 0 -0.022687018235857715 -0.024392077194775996 0 -0.018708029678848447 -0.026026441020695304 0 -0.019064215495480614 -0.025845613643992897 0 -0.018711752306356379 -0.02548046843735419 0 -0.022687018235857715 -0.024392077194775996 0 -0.021918937858046987 -0.023470261000385271 0 -0.02499863710715524 -0.022407556810136377 0 -0.025287874802788362 -0.020930380193444887 0 -0.024378471166325116 -0.020820086224678375 0 -0.019064215495480614 -0.025845613643992897 0 -0.019084615283215093 -0.025255857296083969 0 -0.018711752306356379 -0.02548046843735419 0 -0.018993093856369332 -0.025507337859073307 0 -0.019162869680797726 -0.026253573970468329 0 -0.019064215495480614 -0.025845613643992897 0 -0.018917289396834656 -0.025700487837686241 0 -0.019048342337844974 -0.025749896350008371 0 -0.018917289396834656 -0.025700487837686241 0 -0.019048342337844974 -0.025749896350008371 0 -0.018990172917437004 -0.025591040246835849 0 -0.019084615283215093 -0.025255857296083969 0 -0.018711752306356379 -0.02548046843735419 0 -0.018836444126551447 -0.024503683706977447 0 -0.019178377422824886 -0.026052195499548049 0 -0.019144797748142515 -0.025887744406659519 0 -0.019114159837246403 -0.026004523273237632 0 -0.019144797748142515 -0.025887744406659519 0 -0.019114159837246403 -0.026004523273237632 0 -0.019215090847972332 -0.025735283935034454 0 -0.019213090362643945 -0.026065663465640342 0 -0.019064215495480614 -0.025845613643992897 0 -0.019144797748142515 -0.025887744406659519 0 -0.019064215495480614 -0.025845613643992897 0 -0.019144797748142515 -0.025887744406659519 0 -0.019048342337844974 -0.025749896350008371 0 -0.019144797748142515 -0.025887744406659519 0 -0.019048342337844974 -0.025749896350008371 0 -0.019124130454407182 -0.025684665966275801 0 -0.019048342337844974 -0.025749896350008371 0 -0.019124130454407182 -0.025684665966275801 0 -0.018990172917437004 -0.025591040246835849 0 -0.019144797748142515 -0.025887744406659519 0 -0.019124130454407182 -0.025684665966275801 0 -0.019215090847972332 -0.025735283935034454 0 -0.019124130454407182 -0.025684665966275801 0 -0.019097272552820427 -0.025543441219245261 0 -0.019174934782781455 -0.025446752690611595 0 -0.017164447005384144 -0.017078579347362632 0 -0.016251296807477042 -0.020028030500005879 0 -0.019124130454407182 -0.025684665966275801 0 -0.019174934782781455 -0.025446752690611595 0 -0.019215090847972332 -0.025735283935034454 0 -0.019124130454407182 -0.025684665966275801 0 -0.019097272552820427 -0.025543441219245261 0 -0.018990172917437004 -0.025591040246835849 0 -0.019097272552820427 -0.025543441219245261 0 -0.019026975840901544 -0.025475438942821341 0 -0.019174934782781455 -0.025446752690611595 0 -0.019097272552820427 -0.025543441219245261 0 -0.019026975840901544 -0.025475438942821341 0 -0.018990172917437004 -0.025591040246835849 0 -0.017250373124242591 -0.019550660640817522 0 -0.017164447005384144 -0.017078579347362632 0 -0.015793408469488047 -0.013504936793697093 0 -0.01600755173767698 -0.013198852913420309 0 -0.01630529172564478 -0.013381779017001239 0 -0.015793408469488047 -0.013504936793697093 0 -0.01600755173767698 -0.013198852913420309 0 -0.015611923661918076 -0.013094724215441561 0 -0.015793408469488047 -0.013504936793697093 0 -0.01630529172564478 -0.013381779017001239 0 -0.016326023406246289 -0.013422480759624347 0 -0.01600755173767698 -0.013198852913420309 0 -0.016244872019005218 -0.013193986328460944 0 -0.01630529172564478 -0.013381779017001239 0 -0.01600755173767698 -0.013198852913420309 0 -0.016244872019005218 -0.013193986328460944 0 -0.016294288387201306 -0.013003589680252458 0 -0.016369753075995381 -0.013191500189040055 0 -0.016671536455905925 -0.013018645333688369 0 -0.016294288387201306 -0.013003589680252458 0 -0.016244872019005218 -0.013193986328460944 0 -0.016369753075995381 -0.013191500189040055 0 -0.016294288387201306 -0.013003589680252458 0 -0.016369753075995381 -0.013191500189040055 0 -0.01630529172564478 -0.013381779017001239 0 -0.016510866782840184 -0.01326738211284113 0 -0.01630529172564478 -0.013381779017001239 0 -0.016323367893575139 -0.013414507481887682 0 -0.016510866782840184 -0.01326738211284113 0 -0.016244872019005218 -0.013193986328460944 0 -0.016369753075995381 -0.013191500189040055 0 -0.01630529172564478 -0.013381779017001239 0 -0.017016804325870476 -0.016741365811557583 0 -0.017164447005384144 -0.017078579347362632 0 -0.021918937858046987 -0.023470261000385271 0 -0.021877692398587809 -0.020534195583581907 0 -0.019084615283215093 -0.025255857296083969 0 -0.018836444126551447 -0.024503683706977447 0 -0.018944246892147954 -0.024491670732289007 0 -0.025287874802788362 -0.020930380193444887 0 -0.025534676215229316 -0.019498226000110121 0 -0.024823164560860318 -0.020170089564848243 0 -0.021877692398587809 -0.020534195583581907 0 -0.018380788082024688 -0.020881855254521041 0 -0.018787633687136068 -0.02138663150715173 0 -0.020525085601774882 -0.02123187531171741 0 -0.019586141407956004 -0.017208042066942774 0 -0.017250373124242591 -0.019550660640817522 0 -0.018380788082024688 -0.020881855254521041 0 -0.019162869680797726 -0.026253573970468329 0 -0.018380788082024688 -0.020881855254521041 0 -0.015793408469488047 -0.013504936793697093 0 -0.015224904816148977 -0.013594990814746756 0 -0.01548498316493511 -0.013405477231558393 0 -0.019026975840901544 -0.025475438942821341 0 -0.018840368543702378 -0.025468780054990949 0 -0.018990172917437004 -0.025591040246835849 0 -0.018917289396834656 -0.025700487837686241 0 -0.018840368543702378 -0.025468780054990949 0 -0.018990172917437004 -0.025591040246835849 0 -0.01548498316493511 -0.013405477231558393 0 -0.015611923661918076 -0.013094724215441561 0 -0.0151726131093547 -0.013390229864744325 0 -0.015611923661918076 -0.013094724215441561 0 -0.0151726131093547 -0.013390229864744325 0 -0.015271196858631203 -0.012810666750940971 0 -0.015224904816148977 -0.013594990814746756 0 -0.01548498316493511 -0.013405477231558393 0 -0.0151726131093547 -0.013390229864744325 0 -0.015793408469488047 -0.013504936793697093 0 -0.01548498316493511 -0.013405477231558393 0 -0.015611923661918076 -0.013094724215441561 0 -0.018936361967622901 -0.016252897415024205 0 -0.01526980939460342 -0.012103340588137201 0 -0.025725780965971771 -0.018849066746079224 0 -0.024829261198048659 -0.018806435472991587 0 -0.024733575608308425 -0.017879317005695717 0 -0.025669825867638805 -0.019252964168629576 0 -0.025725780965971771 -0.018849066746079224 0 -0.024829261198048659 -0.018806435472991587 0 -0.021877692398587809 -0.020534195583581907 0 -0.018936361967622901 -0.016252897415024205 0 -0.018380788082024688 -0.020881855254521041 0 -0.018936361967622901 -0.016252897415024205 0 -0.024829261198048659 -0.018806435472991587 0 -0.023957047707965699 -0.018616542811988771 0 -0.024733575608308425 -0.017879317005695717 0 -0.024829261198048659 -0.018806435472991587 0 -0.023909036264143303 -0.019562507677360744 0 -0.023957047707965699 -0.018616542811988771 0 -0.025669825867638805 -0.019252964168629576 0 -0.024829261198048659 -0.018806435472991587 0 -0.023909036264143303 -0.019562507677360744 0 -0.024823164560860318 -0.020170089564848243 0 -0.023909036264143303 -0.019562507677360744 0 -0.024378471166325116 -0.020820086224678375 0 -0.021877692398587809 -0.020534195583581907 0 -0.02560955575536979 -0.019172761810299914 0 -0.025534676215229316 -0.019498226000110121 0 -0.024823164560860318 -0.020170089564848243 0 -0.023909036264143303 -0.019562507677360744 0 -0.023909036264143303 -0.019562507677360744 0 -0.022898218443349719 -0.01891945227322735 0 -0.022784684747061471 -0.019841062449526103 0 -0.023909036264143303 -0.019562507677360744 0 -0.022784684747061471 -0.019841062449526103 0 -0.023456283632033764 -0.020491103840126736 0 -0.023957047707965699 -0.018616542811988771 0 -0.022898218443349719 -0.01891945227322735 0 -0.023403401798948373 -0.017898020646758283 0 -0.023909036264143303 -0.019562507677360744 0 -0.023957047707965699 -0.018616542811988771 0 -0.022898218443349719 -0.01891945227322735 0 -0.022898218443349719 -0.01891945227322735 0 -0.02213771576385316 -0.017916442740914532 0 -0.023403401798948373 -0.017898020646758283 0 -0.022898218443349719 -0.01891945227322735 0 -0.021894143494019188 -0.019743233059528902 0 -0.02213771576385316 -0.017916442740914532 0 -0.025353901952967564 -0.019254359566229392 0 -0.024999975544579417 -0.01850234949767746 0 -0.02579967058369215 -0.018499694838626669 0 -0.025353901952967564 -0.019254359566229392 0 -0.024999990302647553 -0.020054612591283369 0 -0.024999975544579417 -0.01850234949767746 0 -0.023801269613031834 -0.019853939765947032 0 -0.024184901709111733 -0.018232389702318257 0 -0.025353901952967564 -0.019254359566229392 0 -0.025619290542599014 -0.019961204317214695 0 -0.02579967058369215 -0.018499694838626669 0 -0.025353901952967564 -0.019254359566229392 0 -0.025619290542599014 -0.019961204317214695 0 -0.024999990302647553 -0.020054612591283369 0 -0.023801269613031834 -0.019853939765947032 0 -0.024234781093829386 -0.020750768555441945 0 -0.021894143494019188 -0.019743233059528902 0 -0.022291678366970834 -0.020134576586647211 0 -0.021801426548939348 -0.020426306875215471 0 -0.025619290542599014 -0.019961204317214695 0 -0.024999990302647553 -0.020054612591283369 0 -0.025517965277184699 -0.020585886268065907 0 -0.022898218443349719 -0.01891945227322735 0 -0.021894143494019188 -0.019743233059528902 0 -0.022784684747061471 -0.019841062449526103 0 -0.021894143494019188 -0.019743233059528902 0 -0.022291678366970834 -0.020134576586647211 0 -0.022784684747061471 -0.019841062449526103 0 -0.022784684747061471 -0.019841062449526103 0 -0.022441597658294073 -0.02068543688664581 0 -0.023456283632033764 -0.020491103840126736 0 -0.022441597658294073 -0.02068543688664581 0 -0.021801426548939348 -0.020426306875215471 0 -0.022864031868355367 -0.021561389588070971 0 -0.024998955545092495 -0.02215812599528616 0 -0.024999990302647553 -0.020054612591283369 0 -0.025167985901996953 -0.021697846875719431 0 -0.025138342829865365 -0.021931725753123143 0 -0.025167985901996953 -0.021697846875719431 0 -0.024999305382873621 -0.022148390798367664 0 -0.024234781093829386 -0.020750768555441945 0 -0.023789886246740215 -0.021897530524953759 0 -0.022291678366970834 -0.020134576586647211 0 -0.022441597658294073 -0.02068543688664581 0 -0.021801426548939348 -0.020426306875215471 0 -0.022291678366970834 -0.020134576586647211 0 -0.022784684747061471 -0.019841062449526103 0 -0.022441597658294073 -0.02068543688664581 0 -0.024999990302647553 -0.020054612591283369 0 -0.025517965277184699 -0.020585886268065907 0 -0.025167985901996953 -0.021697846875719431 0 -0.024234781093829386 -0.020750768555441945 0 -0.025229079407056786 -0.021767103144442974 0 -0.024972443140156054 -0.02233876185497 0 -0.024998955545092495 -0.02215812599528616 0 -0.025167985901996953 -0.021697846875719431 0 -0.024972443140156054 -0.02233876185497 0 -0.025167985901996953 -0.021697846875719431 0 -0.024999305382873621 -0.022148390798367664 0 -0.022441597658294073 -0.02068543688664581 0 -0.022864031868355367 -0.021561389588070971 0 -0.023800205823625235 -0.021702516202076628 0 -0.024874096416104267 -0.022671674301883341 0 -0.024972443140156054 -0.02233876185497 0 -0.024999305382873621 -0.022148390798367664 0 -0.024874096416104267 -0.022671674301883341 0 -0.024779686812018465 -0.023048338715115704 0 -0.024999305382873621 -0.022148390798367664 0 -0.023899298790819333 -0.022681048646756487 0 -0.022864031868355367 -0.021561389588070971 0 -0.023800205823625235 -0.021702516202076628 0 -0.024472618169517183 -0.022690096463246635 0 -0.023789886246740215 -0.021897530524953759 0 -0.022687018235857715 -0.024392077194775996 0 -0.024130079008307496 -0.021440414199972696 0 -0.02499863710715524 -0.022407556810136377 0 -0.023750225832956988 -0.021530239103186022 0 -0.024378471166325116 -0.020820086224678375 0 -0.025287874802788362 -0.020930380193444887 0 -0.024823164560860318 -0.020170089564848243 0 -0.024378471166325116 -0.020820086224678375 0 -0.023750225832956988 -0.021530239103186022 0 -0.024378471166325116 -0.020820086224678375 0 -0.023456283632033764 -0.020491103840126736 0 -0.022387424505048017 -0.020752178227289475 0 -0.024130079008307496 -0.021440414199972696 0 -0.022441597658294073 -0.02068543688664581 0 -0.023750225832956988 -0.021530239103186022 0 -0.023456283632033764 -0.020491103840126736 0 -0.023909036264143303 -0.019562507677360744 0 -0.024378471166325116 -0.020820086224678375 0 -0.023456283632033764 -0.020491103840126736 0 -0.014417852659276623 -0.015652972180080913 0 -0.01389677548263271 -0.015864013184113401 0 -0.014040848774486874 -0.016585687679841556 0 -0.011727318821697121 -0.022774997796675245 0 -0.011559469774460167 -0.025199313215670274 0 -0.012336217545372128 -0.025181845300177641 0 -0.013072601971027888 -0.018905047571665695 0 -0.013509411942209899 -0.02238335971703339 0 -0.01389677548263271 -0.015864013184113401 0 -0.013608634769143613 -0.016189103832753148 0 -0.014040848774486874 -0.016585687679841556 0 -0.01389677548263271 -0.015864013184113401 0 -0.013558996135533229 -0.015673897637252531 0 -0.013608634769143613 -0.016189103832753148 0 -0.013608634769143613 -0.016189103832753148 0 -0.013180416772766134 -0.016616641771763908 0 -0.013161861931289045 -0.015855449327699497 0 -0.013558996135533229 -0.015673897637252531 0 -0.013161861931289045 -0.015855449327699497 0 -0.013288932959350365 -0.015321425249796152 0 -0.013558996135533229 -0.015673897637252531 0 -0.013608634769143613 -0.016189103832753148 0 -0.013161861931289045 -0.015855449327699497 0 -0.012741056012728708 -0.025835612952948183 0 -0.01269447031438911 -0.025918414272595031 0 -0.013961468857393175 -0.026525815311971287 0 -0.013608634769143613 -0.016189103832753148 0 -0.014040848774486874 -0.016585687679841556 0 -0.013180416772766134 -0.016616641771763908 0 -0.013509411942209899 -0.02238335971703339 0 -0.013611410064822112 -0.021448909834097713 0 -0.012741056012728708 -0.025835612952948183 0 -0.013373364916218055 -0.025944523929009457 0 -0.013961468857393175 -0.026525815311971287 0 -0.012336217545372128 -0.0251818