<?xml version="1.0"?>
<VTKFile type="UnstructuredGrid" version="0.1" byte_order="LittleEndian">
<UnstructuredGrid>
<Piece NumberOfPoints="30469" NumberOfCells="10739">
<Points>
<DataArray type="Float64" NumberOfComponents="3" format="ascii">
-0.5 -0.5 0 -0.48737218499034718 -0.46936505912627757 0 -0.49999999999999872 -0.4537468450137353 0 -0.5 -0.5 0 -0.48213708854309001 -0.48877441876148892 0 -0.4609852154388589 -0.49999999999999922 0 -0.5 -0.5 0 -0.48737218499034718 -0.46936505912627757 0 -0.48213708854309001 -0.48877441876148892 0 -0.48737218499034718 -0.46936505912627757 0 -0.47622331792491529 -0.47709726044091438 0 -0.48213708854309001 -0.48877441876148892 0 -0.48737218499034718 -0.46936505912627757 0 -0.47622331792491529 -0.47709726044091438 0 -0.47821843143094028 -0.4671384261001148 0 -0.47622331792491529 -0.47709726044091438 0 -0.46902531577246392 -0.48704441371489859 0 -0.46182392915126669 -0.47708657266115168 0 -0.47622331792491529 -0.47709726044091438 0 -0.48213708854309001 -0.48877441876148892 0 -0.46902531577246392 -0.48704441371489859 0 -0.47622331792491529 -0.47709726044091438 0 -0.46182392915126669 -0.47708657266115168 0 -0.47200411442247159 -0.46492305362778791 0 -0.47622331792491529 -0.47709726044091438 0 -0.47200411442247159 -0.46492305362778791 0 -0.47821843143094028 -0.4671384261001148 0 -0.47622331792491529 -0.47709726044091438 0 -0.47200411442247159 -0.46492305362778791 0 -0.48213708854309001 -0.48877441876148892 0 -0.46902531577246392 -0.48704441371489859 0 -0.4609852154388589 -0.49999999999999922 0 -0.4609852154388589 -0.49999999999999922 0 -0.4570934178956696 -0.49730879104834619 0 -0.44264667174180228 -0.49999999999999878 0 -0.4609852154388589 -0.49999999999999922 0 -0.4516437438800579 -0.48925009169451239 0 -0.4609852154388589 -0.49999999999999922 0 -0.4570934178956696 -0.49730879104834619 0 -0.4516437438800579 -0.48925009169451239 0 -0.4609852154388589 -0.49999999999999922 0 -0.46063898777291379 -0.48936090125684728 0 -0.4516437438800579 -0.48925009169451239 0 -0.46063898777291379 -0.48936090125684728 0 -0.46182392915126669 -0.47708657266115168 0 -0.4516437438800579 -0.48925009169451239 0 -0.46902531577246392 -0.48704441371489859 0 -0.46063898777291379 -0.48936090125684728 0 -0.46182392915126669 -0.47708657266115168 0 -0.46902531577246392 -0.48704441371489859 0 -0.4609852154388589 -0.49999999999999922 0 -0.46063898777291379 -0.48936090125684728 0 -0.46182392915126669 -0.47708657266115168 0 -0.45965267104653479 -0.4656954867325811 0 -0.47200411442247159 -0.46492305362778791 0 -0.46182392915126669 -0.47708657266115168 0 -0.47200411442247159 -0.46492305362778791 0 -0.46182392915126669 -0.47708657266115168 0 -0.45099158654787319 -0.47625263310722937 0 -0.45965267104653479 -0.4656954867325811 0 -0.46182392915126669 -0.47708657266115168 0 -0.4516437438800579 -0.48925009169451239 0 -0.46182392915126669 -0.47708657266115168 0 -0.45099158654787319 -0.47625263310722937 0 -0.4516437438800579 -0.48925009169451239 0 -0.45099158654787319 -0.47625263310722937 0 -0.4516437438800579 -0.48925009169451239 0 -0.43447148976049732 -0.47057694299067399 0 -0.4516437438800579 -0.48925009169451239 0 -0.43447148976049732 -0.47057694299067399 0 -0.4516437438800579 -0.48925009169451239 0 -0.42702169712058408 -0.48411120095360832 0 -0.43447148976049732 -0.47057694299067399 0 -0.45099158654787319 -0.47625263310722937 0 -0.44709368373482578 -0.46829924187096411 0 -0.43447148976049732 -0.47057694299067399 0 -0.45099158654787319 -0.47625263310722937 0 -0.44709368373482578 -0.46829924187096411 0 -0.45965267104653479 -0.4656954867325811 0 -0.44817491777365892 -0.49339472474829948 0 -0.42702169712058408 -0.48411120095360832 0 -0.44264667174180228 -0.49999999999999878 0 -0.44817491777365892 -0.49339472474829948 0 -0.42702169712058408 -0.48411120095360832 0 -0.44817491777365892 -0.49339472474829948 0 -0.4516437438800579 -0.48925009169451239 0 -0.42702169712058408 -0.48411120095360832 0 -0.4570934178956696 -0.49730879104834619 0 -0.44264667174180228 -0.49999999999999878 0 -0.44817491777365892 -0.49339472474829948 0 -0.4570934178956696 -0.49730879104834619 0 -0.44817491777365892 -0.49339472474829948 0 -0.4570934178956696 -0.49730879104834619 0 -0.44817491777365892 -0.49339472474829948 0 -0.4516437438800579 -0.48925009169451239 0 -0.44264667174180228 -0.49999999999999878 0 -0.44817491777365892 -0.49339472474829948 0 -0.44817491777365892 -0.49339472474829948 0 -0.4516437438800579 -0.48925009169451239 0 -0.44242383457260342 -0.45224782063959218 0 -0.44295143895182948 -0.43006120276574261 0 -0.42926916732061082 -0.43849415085602589 0 -0.44242383457260342 -0.45224782063959218 0 -0.4611608245018487 -0.4336355241327296 0 -0.44295143895182948 -0.43006120276574261 0 -0.44242383457260342 -0.45224782063959218 0 -0.43847595334373651 -0.4587996405097074 0 -0.45965267104653479 -0.4656954867325811 0 -0.43847595334373651 -0.4587996405097074 0 -0.45965267104653479 -0.4656954867325811 0 -0.43847595334373651 -0.4587996405097074 0 -0.44709368373482578 -0.46829924187096411 0 -0.45965267104653479 -0.4656954867325811 0 -0.43847595334373651 -0.4587996405097074 0 -0.44709368373482578 -0.46829924187096411 0 -0.43447148976049732 -0.47057694299067399 0 -0.44242383457260342 -0.45224782063959218 0 -0.45965267104653479 -0.4656954867325811 0 -0.46784060883328582 -0.45290955911845721 0 -0.45965267104653479 -0.4656954867325811 0 -0.46784060883328582 -0.45290955911845721 0 -0.47200411442247159 -0.46492305362778791 0 -0.44242383457260342 -0.45224782063959218 0 -0.46784060883328582 -0.45290955911845721 0 -0.46784060883328582 -0.45290955911845721 0 -0.4611608245018487 -0.4336355241327296 0 -0.44242383457260342 -0.45224782063959218 0 -0.46784060883328582 -0.45290955911845721 0 -0.4611608245018487 -0.4336355241327296 0 -0.46784060883328582 -0.45290955911845721 0 -0.48392030441664219 -0.45332820206609681 0 -0.46784060883328582 -0.45290955911845721 0 -0.48160124324655201 -0.43929018029456168 0 -0.4611608245018487 -0.4336355241327296 0 -0.46784060883328582 -0.45290955911845721 0 -0.48160124324655201 -0.43929018029456168 0 -0.48392030441664219 -0.45332820206609681 0 -0.48737218499034718 -0.46936505912627757 0 -0.48392030441664219 -0.45332820206609681 0 -0.48079426569736589 -0.46319222806978277 0 -0.46784060883328582 -0.45290955911845721 0 -0.47366614195153411 -0.46293722498664203 0 -0.48392030441664219 -0.45332820206609681 0 -0.47200411442247159 -0.46492305362778791 0 -0.47366614195153411 -0.46293722498664203 0 -0.47821843143094028 -0.4671384261001148 0 -0.47200411442247159 -0.46492305362778791 0 -0.47366614195153411 -0.46293722498664203 0 -0.46784060883328582 -0.45290955911845721 0 -0.47200411442247159 -0.46492305362778791 0 -0.47366614195153411 -0.46293722498664203 0 -0.46784060883328582 -0.45290955911845721 0 -0.47200411442247159 -0.46492305362778791 0 -0.47366614195153411 -0.46293722498664203 0 -0.48392030441664219 -0.45332820206609681 0 -0.48079426569736589 -0.46319222806978277 0 -0.48737218499034718 -0.46936505912627757 0 -0.48079426569736589 -0.46319222806978277 0 -0.47821843143094028 -0.4671384261001148 0 -0.47366614195153411 -0.46293722498664203 0 -0.48079426569736589 -0.46319222806978277 0 -0.47821843143094028 -0.4671384261001148 0 -0.48737218499034718 -0.46936505912627757 0 -0.48392030441664219 -0.45332820206609681 0 -0.49999999999999872 -0.4537468450137353 0 -0.48392030441664219 -0.45332820206609681 0 -0.49999999999999872 -0.4537468450137353 0 -0.48160124324655201 -0.43929018029456168 0 -0.49999999999999872 -0.4537468450137353 0 -0.5 -0.42462381895082579 0 -0.48160124324655201 -0.43929018029456168 0 -0.48392030441664219 -0.45332820206609681 0 -0.49999999999999872 -0.4537468450137353 0 -0.48160124324655201 -0.43929018029456168 0 -0.5 -0.42462381895082579 0 -0.47668572172753709 -0.41749713248552489 0 -0.5 -0.42462381895082579 0 -0.47668572172753709 -0.41749713248552489 0 -0.5 -0.3955007928879164 0 -0.48160124324655201 -0.43929018029456168 0 -0.47668572172753709 -0.41749713248552489 0 -0.4611608245018487 -0.4336355241327296 0 -0.5 -0.3955007928879164 0 -0.47285889649255758 -0.37717554086932031 0 -0.46822970505635142 -0.39765805739765531 0 -0.47668572172753709 -0.41749713248552489 0 -0.5 -0.3955007928879164 0 -0.46822970505635142 -0.39765805739765531 0 -0.5 -0.3955007928879164 0 -0.47285889649255758 -0.37717554086932031 0 -0.5 -0.366377766825007 0 -0.47285889649255758 -0.37717554086932031 0 -0.46047328431697371 -0.3857260600490765 0 -0.45300327988001171 -0.37298318776805578 0 -0.47285889649255758 -0.37717554086932031 0 -0.46047328431697371 -0.3857260600490765 0 -0.46822970505635142 -0.39765805739765531 0 -0.46047328431697371 -0.3857260600490765 0 -0.44780125583897401 -0.39508745416127461 0 -0.45300327988001171 -0.37298318776805578 0 -0.46047328431697371 -0.3857260600490765 0 -0.46822970505635142 -0.39765805739765531 0 -0.44780125583897401 -0.39508745416127461 0 -0.46822970505635142 -0.39765805739765531 0 -0.44780125583897401 -0.39508745416127461 0 -0.45448104017041141 -0.4143614891470021 0 -0.44780125583897401 -0.39508745416127461 0 -0.45448104017041141 -0.4143614891470021 0 -0.44780125583897401 -0.39508745416127461 0 -0.44044274682912038 -0.41345593827618199 0 -0.42994419639944559 -0.40414899386571312 0 -0.43310846113056939 -0.38875732209885278 0 -0.45300327988001171 -0.37298318776805578 0 -0.43442129093722859 -0.37281287898628918 0 -0.44780125583897401 -0.39508745416127461 0 -0.43310846113056939 -0.38875732209885278 0 -0.45300327988001171 -0.37298318776805578 0 -0.4611608245018487 -0.4336355241327296 0 -0.45448104017041141 -0.4143614891470021 0 -0.47668572172753709 -0.41749713248552489 0 -0.4611608245018487 -0.4336355241327296 0 -0.45448104017041141 -0.4143614891470021 0 -0.47668572172753709 -0.41749713248552489 0 -0.46822970505635142 -0.39765805739765531 0 -0.45448104017041141 -0.4143614891470021 0 -0.45448104017041141 -0.4143614891470021 0 -0.44044274682912038 -0.41345593827618199 0 -0.44295143895182948 -0.43006120276574261 0 -0.44780125583897401 -0.39
[...]
<PointData Scalars="" Vectors="displacement," Tensors="">
<DataArray type="Float64" Name="displacement" NumberOfComponents="3" format="ascii">
-9.2802700534497679e-07 -0.034998028203403093 0 -6.6018196361975783e-05 -0.033523028521316126 0 1.7826240525488275e-06 -0.031766815831297521 0 -9.2802700534497679e-07 -0.034998028203403093 0 -8.8510340933599363e-05 -0.034599861468067532 0 6.9796478239318927e-08 -0.03499930649271718 0 -9.2802700534497679e-07 -0.034998028203403093 0 -6.6018196361975783e-05 -0.033523028521316126 0 -8.8510340933599363e-05 -0.034599861468067532 0 -6.6018196361975783e-05 -0.033523028521316126 0 -3.1063665769942266e-05 -0.03432623828949237 0 -8.8510340933599363e-05 -0.034599861468067532 0 -6.6018196361975783e-05 -0.033523028521316126 0 -3.1063665769942266e-05 -0.03432623828949237 0 0.00010435352027192618 -0.033969665770139053 0 -3.1063665769942266e-05 -0.03432623828949237 0 -7.0794630586509103e-05 -0.034706956157905693 0 3.6046386358430438e-05 -0.034806923268048982 0 -3.1063665769942266e-05 -0.03432623828949237 0 -8.8510340933599363e-05 -0.034599861468067532 0 -7.0794630586509103e-05 -0.034706956157905693 0 -3.1063665769942266e-05 -0.03432623828949237 0 3.6046386358430438e-05 -0.034806923268048982 0 0.00039541311150823651 -0.034460802485310499 0 -3.1063665769942266e-05 -0.03432623828949237 0 0.00015309143331423679 -0.034072472378654121 0 0.00010435352027192618 -0.033969665770139053 0 0.00012954435656255457 -0.034147648715630814 0 0.00017259203293540132 -0.033496790929918835 0 -8.8510340933599363e-05 -0.034599861468067532 0 -7.0794630586509103e-05 -0.034706956157905693 0 6.9796478239318927e-08 -0.03499930649271718 0 6.1533287613341962e-09 -0.034999992829447088 0 -2.5571426140946511e-06 -0.034995860292533945 0 -7.822468313281102e-09 -0.034999988671726004 0 0.00032389274987064826 -0.035078086048041274 0 -0.00027246065791633088 -0.033397553666721078 0 6.1533287613341962e-09 -0.034999992829447088 0 -2.5571426140946511e-06 -0.034995860292533945 0 -1.2644187477970893e-05 -0.034983067648006121 0 6.9796478239318927e-08 -0.03499930649271718 0 -4.2501824187960791e-05 -0.03485699679911488 0 -4.4469262373582337e-05 -0.034862379320206069 0 -4.2501824187960791e-05 -0.03485699679911488 0 3.6046386358430438e-05 -0.034806923268048982 0 -4.4469262373582337e-05 -0.034862379320206069 0 -7.0794630586509103e-05 -0.034706956157905693 0 -4.2501824187960791e-05 -0.03485699679911488 0 3.6046386358430438e-05 -0.034806923268048982 0 -7.0794630586509103e-05 -0.034706956157905693 0 6.9796478239318927e-08 -0.03499930649271718 0 -4.2501824187960791e-05 -0.03485699679911488 0 -0.00024369252046042722 -0.031267283369526021 0 -0.00033736924142087148 -0.031229258824733323 0 -0.00035935146192772838 -0.031429975385694843 0 -1.936787908106453e-05 -0.032993612932515105 0 0.00017259203293540132 -0.033496790929918835 0 -0.00024369252046042722 -0.031267283369526021 0 -0.0002645281368195625 -0.031207740826737444 0 -0.00033736924142087148 -0.031229258824733323 0 -1.936787908106453e-05 -0.032993612932515105 0 -0.00027246065791633088 -0.033397553666721078 0 -0.00024369252046042722 -0.031267283369526021 0 -0.0002645281368195625 -0.031207740826737444 0 -0.00020189966483148382 -0.03122060148589078 0 -0.0002645281368195625 -0.031207740826737444 0 -0.00020189966483148382 -0.03122060148589078 0 -0.00029935294552196987 -0.031139683679715185 0 -0.00027246065791633088 -0.033397553666721078 0 -0.00058484942530941423 -0.032291279502834891 0 -0.00072849171330388422 -0.033546267389511525 0 -0.0007715991223708644 -0.033389394986973651 0 -0.00085032043112955274 -0.033426610159506417 0 -0.0002645281368195625 -0.031207740826737444 0 -0.00031088796318181179 -0.031187099526061978 0 -0.00029935294552196987 -0.031139683679715185 0 -0.0002645281368195625 -0.031207740826737444 0 -0.00031088796318181179 -0.031187099526061978 0 -0.00033736924142087148 -0.031229258824733323 0 -0.00016670109150535475 -0.034375411520911128 0 -0.0004359227027855942 -0.034175482172430306 0 -4.4071763426385235e-08 -0.03500009419553389 0 -4.1820157467381055e-06 -0.035000178958004044 0 -3.7857952029416476e-05 -0.035022865088516819 0 -0.00070137162011965507 -0.033525664776744554 0 -0.00072849171330388422 -0.033546267389511525 0 -0.0007715991223708644 -0.033389394986973651 0 -2.5571426140946511e-06 -0.034995860292533945 0 -7.822468313281102e-09 -0.034999988671726004 0 -4.4961495572649201e-08 -0.034997241573975928 0 5.3669069146400517e-05 -0.03501928661207572 0 -0.00016670109150535475 -0.034375411520911128 0 -2.5571426140946511e-06 -0.034995860292533945 0 -6.6345944094548494e-06 -0.034975841990121929 0 -1.2644187477970893e-05 -0.034983067648006121 0 -3.2751456078174897e-07 -0.034999606676630129 0 -0.00016670109150535475 -0.034375411520911128 0 -0.00016670109150535475 -0.034375411520911128 0 -0.00027246065791633088 -0.033397553666721078 0 -0.00037871456157451209 -0.025994240024667221 0 -0.0004474817689340969 -0.025967296630297908 0 -0.00042761528784118042 -0.025948457076553043 0 -0.00037871456157451209 -0.025994240024667221 0 -0.00043468803571465868 -0.026042262920264535 0 -0.0004474817689340969 -0.025967296630297908 0 -0.0006410114571517567 -0.030798453209236507 0 -0.00048587614098282681 -0.030705640600282021 0 -0.00033736924142087148 -0.031229258824733323 0 -0.00041562363084442119 -0.030851063123758609 0 -0.000334407162127704 -0.031236383055903795 0 -0.00034475127591274059 -0.031154904875253589 0 -0.00031088796318181179 -0.031187099526061978 0 -0.00033736924142087148 -0.031229258824733323 0 -0.00034475127591274059 -0.031154904875253589 0 -0.00031088796318181179 -0.031187099526061978 0 -0.00029935294552196987 -0.031139683679715185 0 -0.0006410114571517567 -0.030798453209236507 0 -0.00033736924142087148 -0.031229258824733323 0 -0.00059670929419376468 -0.03137758088060448 0 -0.00033736924142087148 -0.031229258824733323 0 -0.00059670929419376468 -0.03137758088060448 0 -0.00035935146192772838 -0.031429975385694843 0 -0.00054642529784595278 -0.027529391206411007 0 3.7760101147178501e-05 -0.029898146203764485 0 3.7760101147178501e-05 -0.029898146203764485 0 -0.0001555070193858293 -0.026613636086651623 0 -0.00037871456157451209 -0.025994240024667221 0 -0.00035890054065879968 -0.026108505078067841 0 -0.00043468803571465868 -0.026042262920264535 0 3.7760101147178501e-05 -0.029898146203764485 0 0.00066831973937168921 -0.03167684016371132 0 0.001157757611977973 -0.028215400790151605 0 0.00026705431014143025 -0.029052933458580864 0 0.00025461984034215365 -0.027577368636121511 0 0.001157757611977973 -0.028215400790151605 0 0.00026705431014143025 -0.029052933458580864 0 0.0010399477177484757 -0.029495596441729832 0 -6.6018196361975783e-05 -0.033523028521316126 0 0.00059812222687377246 -0.033492516270687382 0 0.00021332716796354523 -0.033775480926350236 0 0.00064881593811046449 -0.034276350290567206 0 0.00019895137018908167 -0.034041745926355914 0 0.00059812222687377246 -0.033492516270687382 0 0.00015309143331423679 -0.034072472378654121 0 0.00019895137018908167 -0.034041745926355914 0 0.00010435352027192618 -0.033969665770139053 0 0.00017259203293540132 -0.033496790929918835 0 0.00012847886723095042 -0.033570015803284524 0 0.00064881593811046449 -0.034276350290567206 0 0.00011102570518618427 -0.034114434673190926 0 0.00019895137018908167 -0.034041745926355914 0 3.7760101147178501e-05 -0.029898146203764485 0 0.00017259203293540132 -0.033496790929918835 0 0.00019895137018908167 -0.034041745926355914 0 0.00059812222687377246 -0.033492516270687382 0 0.00021332716796354523 -0.033775480926350236 0 -6.6018196361975783e-05 -0.033523028521316126 0 0.00021332716796354523 -0.033775480926350236 0 0.00010435352027192618 -0.033969665770139053 0 0.00019895137018908167 -0.034041745926355914 0 0.00021332716796354523 -0.033775480926350236 0 0.00010435352027192618 -0.033969665770139053 0 -6.6018196361975783e-05 -0.033523028521316126 0 0.00059812222687377246 -0.033492516270687382 0 1.7826240525488275e-06 -0.031766815831297521 0 0.00066831973937168921 -0.03167684016371132 0 4.9269986653513879e-07 -0.031761918625293324 0 0.00026705431014143025 -0.029052933458580864 0 3.2893191071068261e-06 -0.031758820400467735 0 -8.768424889923571e-07 -0.029723204964008605 0 0.00026705431014143025 -0.029052933458580864 0 0.0010399477177484757 -0.029495596441729832 0 3.2893191071068261e-06 -0.031758820400467735 0 0.00026705431014143025 -0.029052933458580864 0 -8.768424889923571e-07 -0.029723204964008605 0 -0.00011682919415134781 -0.02791728203516362 0 -8.768424889923571e-07 -0.029723204964008605 0 -0.00011682919415134781 -0.02791728203516362 0 -3.8970175136841433e-07 -0.027684447385867637 0 0.00026705431014143025 -0.029052933458580864 0 -0.00011682919415134781 -0.02791728203516362 0 0.00025461984034215365 -0.027577368636121511 0 -3.8970175136841433e-07 -0.027684447385867637 0 -0.00037814027512019091 -0.02582350315017853 0 -0.00029489569212877957 -0.026694044217053414 0 -0.00011682919415134781 -0.02791728203516362 0 -3.8970175136841433e-07 -0.027684447385867637 0 -0.00029489569212877957 -0.026694044217053414 0 -3.8970175136841433e-07 -0.027684447385867637 0 -0.00037814027512019091 -0.02582350315017853 0 -5.5949340848557468e-07 -0.025646337832417956 0 -0.00037814027512019091 -0.02582350315017853 0 -0.00043749510945615842 -0.025986501338463412 0 -0.00051148948549567487 -0.025440820992384965 0 -0.00037814027512019091 -0.02582350315017853 0 -0.00043749510945615842 -0.025986501338463412 0 -0.00029489569212877957 -0.026694044217053414 0 -0.00043749510945615842 -0.025986501338463412 0 -0.0004309516963942842 -0.025908413864788822 0 -0.00051148948549567487 -0.025440820992384965 0 -0.00043749510945615842 -0.025986501338463412 0 -0.00029489569212877957 -0.026694044217053414 0 -0.0004309516963942842 -0.025908413864788822 0 -0.00029489569212877957 -0.026694044217053414 0 -0.0004309516963942842 -0.025908413864788822 0 -8.8355285796672369e-05 -0.026759022861779214 0 -0.00048305793585660359 -0.025996004304870812 0 -0.0003022013224003351 -0.026353768713263358 0 -0.0004309516963942842 -0.025908413864788822 0 -0.00047317053125570455 -0.025928128208122837 0 -0.00049272400648190024 -0.025871306313920546 0 -0.00049769297641913672 -0.025792514926035355 0 -0.00051148948549567487 -0.025440820992384965 0 -0.00046332671976180659 -0.025661931030581737 0 -0.0004309516963942842 -0.025908413864788822 0 -0.00049769297641913672 -0.025792514926035355 0 -0.00051148948549567487 -0.025440820992384965 0 -0.0001555070193858293 -0.026613636086651623 0 -0.0003022013224003351 -0.026353768713263358 0 -0.00011682919415134781 -0.02791728203516362 0 0.00025461984034215365 -0.027577368636121511 0 -8.8355285796672369e-05 -0.026759022861779214 0 -0.00011682919415134781 -0.02791728203516362 0 -0.00029489569212877957 -0.026694044217053414 0 -8.8355285796672369e-05 -0.026759022861779214 0 -0.00047258835644614151 -0.025960678410587083 0 -0.00047317053125570455 -0.025928128208122837 0 -0.0004474817689340969 -0.025967296630297908 0 -0.0004309516963942842 -0.025908413864788822 0 -0.00047258835644614151 -0.025960678410587083 0 -0.00047317053125570455 -0.025928128208122837 0 -0.00043468803571465868 -0.026042262920264535 0 -0.00047258835644614151 -0.025960678410587083 0 -0.0004474817689340969 -0.025967296630297908 0 -0.0004474817689340969 -0.025967296630297908 0 -0.0004733658462596818 -0.025920085708671593 0 -0.00042761528784118042 -0.025948457076553043 0 -0.00047317053125570455 -0.025928128208122837 0 -0.0004474817689340969 -0.025967296630297908 0 -0.0004733658462596818 -0.025920085708671593 0 -0.0004733658462596818 -0.025920085708671593 0 -0.000446355334760226 -0.025917981984041605 0 -0.00042761528784118042 -0.025948457076553043 0 -0.00047317053125570455 -0.025928128208122837 0 -0.0004733658462596818 -0.025920085708671593 0 -0.00049272400648190024 -0.025871306313920546 0 -0.0004733658462596818 -0.025920085708671593 0 -0.00051495508800918522 -0.02588258837225553 0 -0.00049272400648190024 -0.025871306313920546 0 -0.00051495508800918522 -0.02588258837225553 0 -0.00049662057774826907 -0.025886693942364904 0 -0.00056683866859356285 -0.025844815553595996 0 -0.0004733658462596818 -0.025920085708671593 0 -0.00051495508800918522 -0.02588258837225553 0 -0.00049662057774826907 -0.025886693942364904 0 -0.00049662057774826907 -0.025886693942364904 0 -0.000446355334760226 -0.025917981984041605 0 -0.00045640006351764398 -0.025871419745981453 0 -0.0004733658462596818 -0.025920085708671593 0 -0.00049662057774826907 -0.025886693942364904 0 -0.000446355334760226 -0.025917981984041605 0 -0.00060342896746046681 -0.025796517551868028 0 -0.00060794813751991524 -0.025502162584246865 0 -0.00049769297641913672 -0.025792514926035355 0 -0.00050336967176120703 -0.025871071347864708 0 -0.00046332671976180659 -0.025661931030581737 0 -0.00071470544834285909 -0.025743767001976687 0 -0.0007058757989874706 -0.02543714608493999 0 -0.00062524202112769598 -0.025719650677223687 0 -0.0004309516963942842 -0.025908413864788822 0 -0.00049769297641913672 -0.025792514926035355 0 -0.00049272400648190024 -0.025871306313920546 0 -0.00049769297641913672 -0.025792514926035355 0 -0.00049272400648190024 -0.025871306313920546 0 -0.00050336967176120703 -0.025871071347864708 0 -0.00051495508800918522 -0.02588258837225553 0 -0.00049272400648190024 -0.025871306313920546 0 -0.00050336967176120703 -0.025871071347864708 0 -0.00060342896746046681 -0.025796517551868028 0 -0.00056464359020430945 -0.025830586609619285 0 -0.00051495508800918522 -0.02588258837225553 0 -0.00050336967176120703 -0.025871071347864708 0 -0.00056683866859356285 -0.025844815553595996 0 -0.00071470544834285909 -0.025743767001976687 0 -0.00065698176153150881 -0.02580316045873908 0 -0.00062524202112769598 -0.025719650677223687 0 -0.0021058556062322764 -0.024165048210866562 0 -0.0016595161744067343 -0.024364616795139699 0 -0.00071470544834285909 -0.025743767001976687 0 -0.0006300252083810612 -0.025811375805243977 0 -0.00056683866859356285 -0.025844815553595996 0 -0.00071470544834285909 -0.025743767001976687 0 -0.00065698176153150881 -0.02580316045873908 0 -0.0006300252083810612 -0.025811375805243977 0 -0.00065698176153150881 -0.02580316045873908 0 -0.0006300252083810612 -0.025811375805243977 0 -0.00064353870753769578 -0.025792240969939574 0 -0.0006300252083810612 -0.025811375805243977 0 -0.00056447407524831661 -0.025808924632456334 0 -0.00064353870753769578 -0.025792240969939574 0 -0.0021058556062322764 -0.024165048210866562 0 -0.0023392497091623654 -0.028204751979045796 0 -0.0037342237256123797 -0.023618460325480563 0 -0.0036273228972578055 -0.024538612080976373 0 -0.0045844554847907729 -0.024794195531294951 0 -0.00045640006351764398 -0.025871419745981453 0 -0.00052097285174816253 -0.025852127478606116 0 -0.00056447407524831661 -0.025808924632456334 0 -0.00086654081477244846 -0.029530738060378359 0 -0.001028196553188447 -0.029820233708181345 0 -0.0010900853487348561 -0.033628275270073928 0 -0.0017137362624910211 -0.033456897849675538 0 -0.0012037591811151385 -0.033388172257907335 0 -0.0010900853487348561 -0.033628275270073928 0 -0.0012037591811151385 -0.033388172257907335 0 -0.00093674640522872744 -0.033320917019815759 0 -0.00049662057774826907 -0.025886693942364904 0 -0.00045640006351764398 -0.025871419745981453 0 -0.00052097285174816253 -0.025852127478606116 0 -0.0006300252083810612 -0.025811375805243977 0 -0.00056683866859356285 -0.025844815553595996 0 -0.00056447407524831661 -0.025808924632456334 0 -0.00049662057774826907 -0.025886693942364904 0 -0.00052097285174816253 -0.025852127478606116 0 -0.00056683866859356285 -0.025844815553595996 0 -0.00052097285174816253 -0.025852127478606116 0 -0.00056683866859356285 -0.025844815553595996 0 -0.00056447407524831661 -0.025808924632456334 0 -0.001028196553188447 -0.029820233708181345 0 -0.0023392497091623654 -0.028204751979045796 0 -0.0017137362624910211 -0.033456897849675538 0 -0.0011573622322722484 -0.033121329203977382 0 -0.0016274385068280311 -0.032824228584234914 0 -0.0017137362624910211 -0.033456897849675538 0 -0.0012037591811151385 -0.033388172257907335 0 -0.0011573622322722484 -0.033121329203977382 0 -0.0012037591811151385 -0.033388172257907335 0 -0.0011573622322722484 -0.033121329203977382 0 -0.00093674640522872744 -0.033320917019815759 0 -0.0011573622322722484 -0.033121329203977382 0 -0.00092474028157051914 -0.033164304774184854 0 -0.00093674640522872744 -0.033320917019815759 0 -0.00092474028157051914 -0.033164304774184854 0 -0.00088353039481851435 -0.033265287093958949 0 -0.00093674640522872744 -0.033320917019815759 0 -0.00092474028157051914 -0.033164304774184854 0 -0.00085531962077488647 -0.03325538496778345 0 -0.00088353039481851435 -0.033265287093958949 0 -0.00088353039481851435 -0.033265287093958949 0 -0.00091032272864898965 -0.033271178954827278 0 -0.00093674640522872744 -0.033320917019815759 0 -0.00096464526034002632 -0.033208374401017531 0 -0.00077294354393308553 -0.033743446715918508 0 -0.0010900853487348561 -0.033628275270073928 0 -0.00093674640522872744 -0.033320917019815759 0 -0.00089569867811258779 -0.033605135243937108 0 -0.00091032272864898965 -0.033271178954827278 0 -0.0008821683431579527 -0.033188461450620189 0 -0.00093305214804530895 -0.033042730436133011 0 -0.00094312672062740808 -0.034147187401549976 0 -0.00074543100947150795 -0.03110862321796664 0 -0.00091032272864898965 -0.033271178954827278 0 -0.00090906531574123093 -0.033298678768299748 0 -0.00092753478138826837 -0.033324178926303502 0 -0.00091032272864898965 -0.033271178954827278 0 -0.00093674640522872744 -0.033320917019815759 0 -0.0008821683431579527 -0.033188461450620189 0 -0.00089444312470545286 -0.033270357747475159 0 -0.00090194354278756456 -0.033233141474333094 0 -0.00083789581729647037 -0.033299969260754694 0 -0.00089772309996918637 -0.03328911504385676 0 -0.00089444312470545286 -0.033270357747475159 0 -0.00083789581729647037 -0.033299969260754694 0 -0.00091032272864898965 -0.033271178954827278 0 -0.00090906531574123093 -0.033298678768299748 0 -0.00089772309996918637 -0.03328911504385676 0 -0.00091032272864898965 -0.033271178954827278 0 -0.00089772309996918637 -0.03328911504385676 0 -0.00089444312470545286 -0.033270357747475159 0 -0.00088353039481851435 -0.033265287093958949 0 -0.00091032272864898965 -0.033271178954827278 0 -0.00090194354278756456 -0.033233141474333094 0 -0.00085531962077488647 -0.03325538496778345 0 -0.00088353039481851435 -0.033265287093958949 0 -0.00090194354278756456 -0.033233141474333094 0 -0.00091032272864898965 -0.033271178954827278 0 -0.00089444312470545286 -0.033270357747475159 0 -0.00090194354278756456 -0.033233141474333094 0 -0.00051020439936303146 -0.034744225126966274 0 -9.9199734545741625e-05 -0.034858239257577701 0 -0.0002003956995438074 -0.034480381092526241 0 -0.00051020439936303146 -0.034744225126966274 0 -0.0002003956995438074 -0.034480381092526241 0 -0.00043462395859137726 -0.033999620221149766 0 -9.9199734545741625e-05 -0.034858239257577701 0 7.5752207971002007e-07 -0.034997524495255464 0 -0.0002003956995438074 -0.034480381092526241 0 -9.9199734545741625e-05 -0.034858239257577701 0 -2.5289900742908777e-07 -0.035000417322014719 0 7.5752207971002007e-07 -0.034997524495255464 0 -2.5289900742908777e-07 -0.035000417322014719 0 -5.1999789835253416e-05 -0.035005251217984791 0 1.1578940951704309e-08 -0.034999919995858518 0 -9.9199734545741625e-05 -0.034858239257577701 0 -2.5289900742908777e-07 -0.035000417322014719 0 -5.1999789835253416e-05 -0.035005251217984791 0 -9.9199734545741625e-05 -0.034858239257577701 0 -0.00018119081307253198 -0.035025582487704258 0 -5.1999789835253416e-05 -0.035005251217984791 0 -0.00069203521267630378 -0.033961160994606297 0 -0.00051453676529458433 -0.034161611928243837 0 -0.00051020439936303146 -0.034744225126966274 0 -9.9199734545741625e-05 -0.034858239257577701 0 -0.00018119081307253198 -0.035025582487704258 0 -0.00018119081307253198 -0.035025582487704258 0 -5.1999789835253416e-05 -0.035005251217984791 0 -3.7857952029416476e-05 -0.035022865088516819 0 -0.00083789581729647037 -0.033299969260754694 0 -0