<?xml version="1.0"?>
<VTKFile type="UnstructuredGrid" version="0.1" byte_order="LittleEndian">
<UnstructuredGrid>
<Piece NumberOfPoints="30469" NumberOfCells="10739">
<Points>
<DataArray type="Float64" NumberOfComponents="3" format="ascii">
-0.5 -0.5 0 -0.48737218499034718 -0.46936505912627757 0 -0.49999999999999872 -0.4537468450137353 0 -0.5 -0.5 0 -0.48213708854309001 -0.48877441876148892 0 -0.4609852154388589 -0.49999999999999922 0 -0.5 -0.5 0 -0.48737218499034718 -0.46936505912627757 0 -0.48213708854309001 -0.48877441876148892 0 -0.48737218499034718 -0.46936505912627757 0 -0.47622331792491529 -0.47709726044091438 0 -0.48213708854309001 -0.48877441876148892 0 -0.48737218499034718 -0.46936505912627757 0 -0.47622331792491529 -0.47709726044091438 0 -0.47821843143094028 -0.4671384261001148 0 -0.47622331792491529 -0.47709726044091438 0 -0.46902531577246392 -0.48704441371489859 0 -0.46182392915126669 -0.47708657266115168 0 -0.47622331792491529 -0.47709726044091438 0 -0.48213708854309001 -0.48877441876148892 0 -0.46902531577246392 -0.48704441371489859 0 -0.47622331792491529 -0.47709726044091438 0 -0.46182392915126669 -0.47708657266115168 0 -0.47200411442247159 -0.46492305362778791 0 -0.47622331792491529 -0.47709726044091438 0 -0.47200411442247159 -0.46492305362778791 0 -0.47821843143094028 -0.4671384261001148 0 -0.47622331792491529 -0.47709726044091438 0 -0.47200411442247159 -0.46492305362778791 0 -0.48213708854309001 -0.48877441876148892 0 -0.46902531577246392 -0.48704441371489859 0 -0.4609852154388589 -0.49999999999999922 0 -0.4609852154388589 -0.49999999999999922 0 -0.4570934178956696 -0.49730879104834619 0 -0.44264667174180228 -0.49999999999999878 0 -0.4609852154388589 -0.49999999999999922 0 -0.4516437438800579 -0.48925009169451239 0 -0.4609852154388589 -0.49999999999999922 0 -0.4570934178956696 -0.49730879104834619 0 -0.4516437438800579 -0.48925009169451239 0 -0.4609852154388589 -0.49999999999999922 0 -0.46063898777291379 -0.48936090125684728 0 -0.4516437438800579 -0.48925009169451239 0 -0.46063898777291379 -0.48936090125684728 0 -0.46182392915126669 -0.47708657266115168 0 -0.4516437438800579 -0.48925009169451239 0 -0.46902531577246392 -0.48704441371489859 0 -0.46063898777291379 -0.48936090125684728 0 -0.46182392915126669 -0.47708657266115168 0 -0.46902531577246392 -0.48704441371489859 0 -0.4609852154388589 -0.49999999999999922 0 -0.46063898777291379 -0.48936090125684728 0 -0.46182392915126669 -0.47708657266115168 0 -0.45965267104653479 -0.4656954867325811 0 -0.47200411442247159 -0.46492305362778791 0 -0.46182392915126669 -0.47708657266115168 0 -0.47200411442247159 -0.46492305362778791 0 -0.46182392915126669 -0.47708657266115168 0 -0.45099158654787319 -0.47625263310722937 0 -0.45965267104653479 -0.4656954867325811 0 -0.46182392915126669 -0.47708657266115168 0 -0.4516437438800579 -0.48925009169451239 0 -0.46182392915126669 -0.47708657266115168 0 -0.45099158654787319 -0.47625263310722937 0 -0.4516437438800579 -0.48925009169451239 0 -0.45099158654787319 -0.47625263310722937 0 -0.4516437438800579 -0.48925009169451239 0 -0.43447148976049732 -0.47057694299067399 0 -0.4516437438800579 -0.48925009169451239 0 -0.43447148976049732 -0.47057694299067399 0 -0.4516437438800579 -0.48925009169451239 0 -0.42702169712058408 -0.48411120095360832 0 -0.43447148976049732 -0.47057694299067399 0 -0.45099158654787319 -0.47625263310722937 0 -0.44709368373482578 -0.46829924187096411 0 -0.43447148976049732 -0.47057694299067399 0 -0.45099158654787319 -0.47625263310722937 0 -0.44709368373482578 -0.46829924187096411 0 -0.45965267104653479 -0.4656954867325811 0 -0.44817491777365892 -0.49339472474829948 0 -0.42702169712058408 -0.48411120095360832 0 -0.44264667174180228 -0.49999999999999878 0 -0.44817491777365892 -0.49339472474829948 0 -0.42702169712058408 -0.48411120095360832 0 -0.44817491777365892 -0.49339472474829948 0 -0.4516437438800579 -0.48925009169451239 0 -0.42702169712058408 -0.48411120095360832 0 -0.4570934178956696 -0.49730879104834619 0 -0.44264667174180228 -0.49999999999999878 0 -0.44817491777365892 -0.49339472474829948 0 -0.4570934178956696 -0.49730879104834619 0 -0.44817491777365892 -0.49339472474829948 0 -0.4570934178956696 -0.49730879104834619 0 -0.44817491777365892 -0.49339472474829948 0 -0.4516437438800579 -0.48925009169451239 0 -0.44264667174180228 -0.49999999999999878 0 -0.44817491777365892 -0.49339472474829948 0 -0.44817491777365892 -0.49339472474829948 0 -0.4516437438800579 -0.48925009169451239 0 -0.44242383457260342 -0.45224782063959218 0 -0.44295143895182948 -0.43006120276574261 0 -0.42926916732061082 -0.43849415085602589 0 -0.44242383457260342 -0.45224782063959218 0 -0.4611608245018487 -0.4336355241327296 0 -0.44295143895182948 -0.43006120276574261 0 -0.44242383457260342 -0.45224782063959218 0 -0.43847595334373651 -0.4587996405097074 0 -0.45965267104653479 -0.4656954867325811 0 -0.43847595334373651 -0.4587996405097074 0 -0.45965267104653479 -0.4656954867325811 0 -0.43847595334373651 -0.4587996405097074 0 -0.44709368373482578 -0.46829924187096411 0 -0.45965267104653479 -0.4656954867325811 0 -0.43847595334373651 -0.4587996405097074 0 -0.44709368373482578 -0.46829924187096411 0 -0.43447148976049732 -0.47057694299067399 0 -0.44242383457260342 -0.45224782063959218 0 -0.45965267104653479 -0.4656954867325811 0 -0.46784060883328582 -0.45290955911845721 0 -0.45965267104653479 -0.4656954867325811 0 -0.46784060883328582 -0.45290955911845721 0 -0.47200411442247159 -0.46492305362778791 0 -0.44242383457260342 -0.45224782063959218 0 -0.46784060883328582 -0.45290955911845721 0 -0.46784060883328582 -0.45290955911845721 0 -0.4611608245018487 -0.4336355241327296 0 -0.44242383457260342 -0.45224782063959218 0 -0.46784060883328582 -0.45290955911845721 0 -0.4611608245018487 -0.4336355241327296 0 -0.46784060883328582 -0.45290955911845721 0 -0.48392030441664219 -0.45332820206609681 0 -0.46784060883328582 -0.45290955911845721 0 -0.48160124324655201 -0.43929018029456168 0 -0.4611608245018487 -0.4336355241327296 0 -0.46784060883328582 -0.45290955911845721 0 -0.48160124324655201 -0.43929018029456168 0 -0.48392030441664219 -0.45332820206609681 0 -0.48737218499034718 -0.46936505912627757 0 -0.48392030441664219 -0.45332820206609681 0 -0.48079426569736589 -0.46319222806978277 0 -0.46784060883328582 -0.45290955911845721 0 -0.47366614195153411 -0.46293722498664203 0 -0.48392030441664219 -0.45332820206609681 0 -0.47200411442247159 -0.46492305362778791 0 -0.47366614195153411 -0.46293722498664203 0 -0.47821843143094028 -0.4671384261001148 0 -0.47200411442247159 -0.46492305362778791 0 -0.47366614195153411 -0.46293722498664203 0 -0.46784060883328582 -0.45290955911845721 0 -0.47200411442247159 -0.46492305362778791 0 -0.47366614195153411 -0.46293722498664203 0 -0.46784060883328582 -0.45290955911845721 0 -0.47200411442247159 -0.46492305362778791 0 -0.47366614195153411 -0.46293722498664203 0 -0.48392030441664219 -0.45332820206609681 0 -0.48079426569736589 -0.46319222806978277 0 -0.48737218499034718 -0.46936505912627757 0 -0.48079426569736589 -0.46319222806978277 0 -0.47821843143094028 -0.4671384261001148 0 -0.47366614195153411 -0.46293722498664203 0 -0.48079426569736589 -0.46319222806978277 0 -0.47821843143094028 -0.4671384261001148 0 -0.48737218499034718 -0.46936505912627757 0 -0.48392030441664219 -0.45332820206609681 0 -0.49999999999999872 -0.4537468450137353 0 -0.48392030441664219 -0.45332820206609681 0 -0.49999999999999872 -0.4537468450137353 0 -0.48160124324655201 -0.43929018029456168 0 -0.49999999999999872 -0.4537468450137353 0 -0.5 -0.42462381895082579 0 -0.48160124324655201 -0.43929018029456168 0 -0.48392030441664219 -0.45332820206609681 0 -0.49999999999999872 -0.4537468450137353 0 -0.48160124324655201 -0.43929018029456168 0 -0.5 -0.42462381895082579 0 -0.47668572172753709 -0.41749713248552489 0 -0.5 -0.42462381895082579 0 -0.47668572172753709 -0.41749713248552489 0 -0.5 -0.3955007928879164 0 -0.48160124324655201 -0.43929018029456168 0 -0.47668572172753709 -0.41749713248552489 0 -0.4611608245018487 -0.4336355241327296 0 -0.5 -0.3955007928879164 0 -0.47285889649255758 -0.37717554086932031 0 -0.46822970505635142 -0.39765805739765531 0 -0.47668572172753709 -0.41749713248552489 0 -0.5 -0.3955007928879164 0 -0.46822970505635142 -0.39765805739765531 0 -0.5 -0.3955007928879164 0 -0.47285889649255758 -0.37717554086932031 0 -0.5 -0.366377766825007 0 -0.47285889649255758 -0.37717554086932031 0 -0.46047328431697371 -0.3857260600490765 0 -0.45300327988001171 -0.37298318776805578 0 -0.47285889649255758 -0.37717554086932031 0 -0.46047328431697371 -0.3857260600490765 0 -0.46822970505635142 -0.39765805739765531 0 -0.46047328431697371 -0.3857260600490765 0 -0.44780125583897401 -0.39508745416127461 0 -0.45300327988001171 -0.37298318776805578 0 -0.46047328431697371 -0.3857260600490765 0 -0.46822970505635142 -0.39765805739765531 0 -0.44780125583897401 -0.39508745416127461 0 -0.46822970505635142 -0.39765805739765531 0 -0.44780125583897401 -0.39508745416127461 0 -0.45448104017041141 -0.4143614891470021 0 -0.44780125583897401 -0.39508745416127461 0 -0.45448104017041141 -0.4143614891470021 0 -0.44780125583897401 -0.39508745416127461 0 -0.44044274682912038 -0.41345593827618199 0 -0.42994419639944559 -0.40414899386571312 0 -0.43310846113056939 -0.38875732209885278 0 -0.45300327988001171 -0.37298318776805578 0 -0.43442129093722859 -0.37281287898628918 0 -0.44780125583897401 -0.39508745416127461 0 -0.43310846113056939 -0.38875732209885278 0 -0.45300327988001171 -0.37298318776805578 0 -0.4611608245018487 -0.4336355241327296 0 -0.45448104017041141 -0.4143614891470021 0 -0.47668572172753709 -0.41749713248552489 0 -0.4611608245018487 -0.4336355241327296 0 -0.45448104017041141 -0.4143614891470021 0 -0.47668572172753709 -0.41749713248552489 0 -0.46822970505635142 -0.39765805739765531 0 -0.45448104017041141 -0.4143614891470021 0 -0.45448104017041141 -0.4143614891470021 0 -0.44044274682912038 -0.41345593827618199 0 -0.44295143895182948 -0.43006120276574261 0 -0.44780125583897401 -0.39
[...]
<PointData Scalars="" Vectors="displacement," Tensors="">
<DataArray type="Float64" Name="displacement" NumberOfComponents="3" format="ascii">
-0.03499788594251229 -9.8368234927747849e-07 0 -0.034746744179509813 -9.0383092306266084e-05 0 -0.034999883857120724 1.5186811511778389e-07 0 -0.03499788594251229 -9.8368234927747849e-07 0 -0.034279404007525695 -9.5439565871649566e-05 0 -0.032273247219936393 1.8013897117003405e-06 0 -0.03499788594251229 -9.8368234927747849e-07 0 -0.034746744179509813 -9.0383092306266084e-05 0 -0.034279404007525695 -9.5439565871649566e-05 0 -0.034746744179509813 -9.0383092306266084e-05 0 -0.034423007594738694 -2.8887180119355466e-05 0 -0.034279404007525695 -9.5439565871649566e-05 0 -0.034746744179509813 -9.0383092306266084e-05 0 -0.034423007594738694 -2.8887180119355466e-05 0 -0.034713151998925655 1.2024179760553465e-06 0 -0.034423007594738694 -2.8887180119355466e-05 0 -0.033828574405768301 5.8929120951631243e-05 0 -0.034361827621047364 0.00038247045706106059 0 -0.034423007594738694 -2.8887180119355466e-05 0 -0.034279404007525695 -9.5439565871649566e-05 0 -0.033828574405768301 5.8929120951631243e-05 0 -0.034423007594738694 -2.8887180119355466e-05 0 -0.034361827621047364 0.00038247045706106059 0 -0.034738610493006042 9.1079057928145001e-05 0 -0.034423007594738694 -2.8887180119355466e-05 0 -0.034759101670491135 0.00013741726716885814 0 -0.034713151998925655 1.2024179760553465e-06 0 -0.034686849307150998 0.0001402862390258063 0 -0.033663637913500043 3.7189279601566617e-05 0 -0.034279404007525695 -9.5439565871649566e-05 0 -0.033828574405768301 5.8929120951631243e-05 0 -0.032273247219936393 1.8013897117003405e-06 0 -0.032267365238930402 8.7600443111178133e-09 0 -0.031978022269421556 -3.9937271313688402e-05 0 -0.030986858881727787 -4.9108016207583098e-09 0 -0.032438264195984452 0.00036509311667806254 0 -0.031324991922217424 -2.5815830863166275e-05 0 -0.032267365238930402 8.7600443111178133e-09 0 -0.031978022269421556 -3.9937271313688402e-05 0 -0.031417290845731811 -0.00015037522707272451 0 -0.032273247219936393 1.8013897117003405e-06 0 -0.033479461729731659 0.00040667646698753026 0 -0.033489043378718282 0.0012269782937297396 0 -0.033479461729731659 0.00040667646698753026 0 -0.034361827621047364 0.00038247045706106059 0 -0.033489043378718282 0.0012269782937297396 0 -0.033828574405768301 5.8929120951631243e-05 0 -0.033479461729731659 0.00040667646698753026 0 -0.034361827621047364 0.00038247045706106059 0 -0.033828574405768301 5.8929120951631243e-05 0 -0.032273247219936393 1.8013897117003405e-06 0 -0.033479461729731659 0.00040667646698753026 0 -0.031857154969848839 -0.00032069528809145452 0 -0.031836894351217525 -0.00032178337743857846 0 -0.031850091869381626 -0.00032716983210346354 0 -0.033146577665982627 -2.2159909494064824e-05 0 -0.033663637913500043 3.7189279601566617e-05 0 -0.031857154969848839 -0.00032069528809145452 0 -0.03185216779115372 -0.00035733796634104001 0 -0.031836894351217525 -0.00032178337743857846 0 -0.033146577665982627 -2.2159909494064824e-05 0 -0.031324991922217424 -2.5815830863166275e-05 0 -0.031857154969848839 -0.00032069528809145452 0 -0.03185216779115372 -0.00035733796634104001 0 -0.031905206239438884 -0.00035185678738067076 0 -0.03185216779115372 -0.00035733796634104001 0 -0.031905206239438884 -0.00035185678738067076 0 -0.031820967320279218 -0.00044285672588304946 0 -0.031324991922217424 -2.5815830863166275e-05 0 -0.029788795729435352 -0.00026026190842056552 0 -0.02861153311966012 0.00038147799751532942 0 -0.02848226126649633 -2.3463713899081847e-05 0 -0.028276297188667098 9.0596266602452393e-05 0 -0.03185216779115372 -0.00035733796634104001 0 -0.031817703772518191 -0.00037586556077412496 0 -0.031820967320279218 -0.00044285672588304946 0 -0.03185216779115372 -0.00035733796634104001 0 -0.031817703772518191 -0.00037586556077412496 0 -0.031836894351217525 -0.00032178337743857846 0 -0.03073577445603988 0.00015521501134799616 0 -0.028663224844018936 -9.785320695534693e-05 0 -0.030982508070839156 1.4087609708356794e-06 0 -0.030548700643259603 0.00036977742769356899 0 -0.029106648579111265 -1.8976561483894599e-05 0 -0.02868086973679726 0.0003237696280310645 0 -0.02861153311966012 0.00038147799751532942 0 -0.02848226126649633 -2.3463713899081847e-05 0 -0.031978022269421556 -3.9937271313688402e-05 0 -0.030986858881727787 -4.9108016207583098e-09 0 -0.031514086424794523 -2.8284333155314307e-06 0 -0.031410859700381238 8.0405354554212677e-05 0 -0.03073577445603988 0.00015521501134799616 0 -0.031978022269421556 -3.9937271313688402e-05 0 -0.03165790603740766 -0.00036421026809389529 0 -0.031417290845731811 -0.00015037522707272451 0 -0.03098530122249488 -1.1604450728707835e-08 0 -0.03073577445603988 0.00015521501134799616 0 -0.03073577445603988 0.00015521501134799616 0 -0.031324991922217424 -2.5815830863166275e-05 0 -0.034184912430993503 -0.00031380393432724223 0 -0.034385376530757447 -0.00031279744991137586 0 -0.034304928557659799 -0.00020940452265301316 0 -0.034184912430993503 -0.00031380393432724223 0 -0.034354724642804667 -0.0004792250856018867 0 -0.034385376530757447 -0.00031279744991137586 0 -0.031861581821336096 -0.00029293012278703255 0 -0.031851551394879114 -0.00028916923276535428 0 -0.031836894351217525 -0.00032178337743857846 0 -0.031914594222419795 -0.00032619980713042299 0 -0.031806182343547602 -0.00034556998069845555 0 -0.031744712483438874 -0.00041711805225452158 0 -0.031817703772518191 -0.00037586556077412496 0 -0.031836894351217525 -0.00032178337743857846 0 -0.031744712483438874 -0.00041711805225452158 0 -0.031817703772518191 -0.00037586556077412496 0 -0.031820967320279218 -0.00044285672588304946 0 -0.031861581821336096 -0.00029293012278703255 0 -0.031836894351217525 -0.00032178337743857846 0 -0.031868543096692264 -0.00033130246298033333 0 -0.031836894351217525 -0.00032178337743857846 0 -0.031868543096692264 -0.00033130246298033333 0 -0.031850091869381626 -0.00032716983210346354 0 -0.03319341248407652 -0.00030610119786267598 0 -0.03400392759889493 -0.00033296229126870849 0 -0.03400392759889493 -0.00033296229126870849 0 -0.034791092279205481 -0.00026194803393588353 0 -0.034184912430993503 -0.00031380393432724223 0 -0.034179758535825437 -0.00053761565946486246 0 -0.034354724642804667 -0.0004792250856018867 0 -0.03400392759889493 -0.00033296229126870849 0 -0.03494700816729835 3.2925741681278697e-05 0 -0.035031944969526059 -6.9782625045402809e-05 0 -0.035010588292250899 -3.7216719471395788e-05 0 -0.035010517563059528 -9.7893955780707976e-05 0 -0.035031944969526059 -6.9782625045402809e-05 0 -0.035010588292250899 -3.7216719471395788e-05 0 -0.035023912255547067 -3.3189991579562929e-05 0 -0.034746744179509813 -9.0383092306266084e-05 0 -0.03490159360335366 -2.2431607248169327e-05 0 -0.034788199918122813 -1.3626429488131565e-05 0 -0.034896727801951667 0.00014643665549669464 0 -0.034795004240332356 8.8688750632375134e-05 0 -0.03490159360335366 -2.2431607248169327e-05 0 -0.034759101670491135 0.00013741726716885814 0 -0.034795004240332356 8.8688750632375134e-05 0 -0.034713151998925655 1.2024179760553465e-06 0 -0.033663637913500043 3.7189279601566617e-05 0 -0.033837114235108781 -4.372676174484493e-05 0 -0.034896727801951667 0.00014643665549669464 0 -0.034773513717009076 0.00010560499431900743 0 -0.034795004240332356 8.8688750632375134e-05 0 -0.03400392759889493 -0.00033296229126870849 0 -0.033663637913500043 3.7189279601566617e-05 0 -0.034795004240332356 8.8688750632375134e-05 0 -0.03490159360335366 -2.2431607248169327e-05 0 -0.034788199918122813 -1.3626429488131565e-05 0 -0.034746744179509813 -9.0383092306266084e-05 0 -0.034788199918122813 -1.3626429488131565e-05 0 -0.034713151998925655 1.2024179760553465e-06 0 -0.034795004240332356 8.8688750632375134e-05 0 -0.034788199918122813 -1.3626429488131565e-05 0 -0.034713151998925655 1.2024179760553465e-06 0 -0.034746744179509813 -9.0383092306266084e-05 0 -0.03490159360335366 -2.2431607248169327e-05 0 -0.034999883857120724 1.5186811511778389e-07 0 -0.03494700816729835 3.2925741681278697e-05 0 -0.034999973627638625 -8.4544646485379426e-08 0 -0.035010588292250899 -3.7216719471395788e-05 0 -0.035000074180145925 -1.7721113565721791e-08 0 -0.034999993185409348 -2.7168220210753357e-08 0 -0.035010588292250899 -3.7216719471395788e-05 0 -0.035023912255547067 -3.3189991579562929e-05 0 -0.035000074180145925 -1.7721113565721791e-08 0 -0.035010588292250899 -3.7216719471395788e-05 0 -0.034999993185409348 -2.7168220210753357e-08 0 -0.034980076724590928 -5.2693218171800503e-05 0 -0.034999993185409348 -2.7168220210753357e-08 0 -0.034980076724590928 -5.2693218171800503e-05 0 -0.034999908286793995 -1.790541226319194e-08 0 -0.035010588292250899 -3.7216719471395788e-05 0 -0.034980076724590928 -5.2693218171800503e-05 0 -0.035010517563059528 -9.7893955780707976e-05 0 -0.034999908286793995 -1.790541226319194e-08 0 -0.034850788949270871 -6.6290499286444346e-05 0 -0.034901026210704747 -9.1247078770491868e-05 0 -0.034980076724590928 -5.2693218171800503e-05 0 -0.034999908286793995 -1.790541226319194e-08 0 -0.034901026210704747 -9.1247078770491868e-05 0 -0.034999908286793995 -1.790541226319194e-08 0 -0.034850788949270871 -6.6290499286444346e-05 0 -0.034999790800005808 6.2598054144724102e-08 0 -0.034850788949270871 -6.6290499286444346e-05 0 -0.034824821566860766 -0.00015317247379108794 0 -0.034766658098789441 -0.00019688422680475264 0 -0.034850788949270871 -6.6290499286444346e-05 0 -0.034824821566860766 -0.00015317247379108794 0 -0.034901026210704747 -9.1247078770491868e-05 0 -0.034824821566860766 -0.00015317247379108794 0 -0.034791316922999263 -0.00025478419285253026 0 -0.034766658098789441 -0.00019688422680475264 0 -0.034824821566860766 -0.00015317247379108794 0 -0.034901026210704747 -9.1247078770491868e-05 0 -0.034791316922999263 -0.00025478419285253026 0 -0.034901026210704747 -9.1247078770491868e-05 0 -0.034791316922999263 -0.00025478419285253026 0 -0.034966776995750237 -0.00015717113324090849 0 -0.034791199370080982 -0.0002604018106687537 0 -0.034727997661802387 -0.00028904302414566605 0 -0.034791316922999263 -0.00025478419285253026 0 -0.0345540957404495 -0.00027233026052267124 0 -0.034628926499329575 -0.00020651672594199408 0 -0.034750213959209693 -0.00023287453967914227 0 -0.034766658098789441 -0.00019688422680475264 0 -0.034764524811976553 -0.00025983885106667029 0 -0.034791316922999263 -0.00025478419285253026 0 -0.034750213959209693 -0.00023287453967914227 0 -0.034766658098789441 -0.00019688422680475264 0 -0.034791092279205481 -0.00026194803393588353 0 -0.034727997661802387 -0.00028904302414566605 0 -0.034980076724590928 -5.2693218171800503e-05 0 -0.035010517563059528 -9.7893955780707976e-05 0 -0.034966776995750237 -0.00015717113324090849 0 -0.034980076724590928 -5.2693218171800503e-05 0 -0.034901026210704747 -9.1247078770491868e-05 0 -0.034966776995750237 -0.00015717113324090849 0 -0.034545655982715653 -0.0004139479157519458 0 -0.0345540957404495 -0.00027233026052267124 0 -0.034385376530757447 -0.00031279744991137586 0 -0.034791316922999263 -0.00025478419285253026 0 -0.034545655982715653 -0.0004139479157519458 0 -0.0345540957404495 -0.00027233026052267124 0 -0.034354724642804667 -0.0004792250856018867 0 -0.034545655982715653 -0.0004139479157519458 0 -0.034385376530757447 -0.00031279744991137586 0 -0.034385376530757447 -0.00031279744991137586 0 -0.034435392397951889 -0.00018649901513820034 0 -0.034304928557659799 -0.00020940452265301316 0 -0.0345540957404495 -0.00027233026052267124 0 -0.034385376530757447 -0.00031279744991137586 0 -0.034435392397951889 -0.00018649901513820034 0 -0.034435392397951889 -0.00018649901513820034 0 -0.034330485363478581 -0.00012101916554481977 0 -0.034304928557659799 -0.00020940452265301316 0 -0.0345540957404495 -0.00027233026052267124 0 -0.034435392397951889 -0.00018649901513820034 0 -0.034628926499329575 -0.00020651672594199408 0 -0.034435392397951889 -0.00018649901513820034 0 -0.034526036990942095 -0.00012388597973344906 0 -0.034628926499329575 -0.00020651672594199408 0 -0.034526036990942095 -0.00012388597973344906 0 -0.034416232150989531 -7.7285428250443099e-05 0 -0.03445164682249454 -3.0566678006822064e-05 0 -0.034435392397951889 -0.00018649901513820034 0 -0.034526036990942095 -0.00012388597973344906 0 -0.034416232150989531 -7.7285428250443099e-05 0 -0.034416232150989531 -7.7285428250443099e-05 0 -0.034330485363478581 -0.00012101916554481977 0 -0.034338305945409008 -2.364353635798145e-05 0 -0.034435392397951889 -0.00018649901513820034 0 -0.034416232150989531 -7.7285428250443099e-05 0 -0.034330485363478581 -0.00012101916554481977 0 -0.034582925467480936 -0.00013826034179860786 0 -0.034646998856848452 -0.00025468796390837155 0 -0.034750213959209693 -0.00023287453967914227 0 -0.034715263366550307 -0.00013442348420910334 0 -0.034764524811976553 -0.00025983885106667029 0 -0.034453825783274959 -0.00012842631143408106 0 -0.034550035660733572 -0.00026760527741567894 0 -0.03456171270416164 -0.00013907398274202505 0 -0.034791316922999263 -0.00025478419285253026 0 -0.034750213959209693 -0.00023287453967914227 0 -0.034628926499329575 -0.00020651672594199408 0 -0.034750213959209693 -0.00023287453967914227 0 -0.034628926499329575 -0.00020651672594199408 0 -0.034715263366550307 -0.00013442348420910334 0 -0.034526036990942095 -0.00012388597973344906 0 -0.034628926499329575 -0.00020651672594199408 0 -0.034715263366550307 -0.00013442348420910334 0 -0.034582925467480936 -0.00013826034179860786 0 -0.034468275975150425 -4.0461962189098306e-05 0 -0.034526036990942095 -0.00012388597973344906 0 -0.034715263366550307 -0.00013442348420910334 0 -0.03445164682249454 -3.0566678006822064e-05 0 -0.034453825783274959 -0.00012842631143408106 0 -0.034483760500201154 -1.8025082437225186e-05 0 -0.03456171270416164 -0.00013907398274202505 0 -0.033381994770191104 0.00028068501200939681 0 -0.033302075861806106 0.00014001436520235403 0 -0.034453825783274959 -0.00012842631143408106 0 -0.034442926568896623 -1.1809245358066455e-05 0 -0.03445164682249454 -3.0566678006822064e-05 0 -0.034453825783274959 -0.00012842631143408106 0 -0.034483760500201154 -1.8025082437225186e-05 0 -0.034442926568896623 -1.1809245358066455e-05 0 -0.034483760500201154 -1.8025082437225186e-05 0 -0.034442926568896623 -1.1809245358066455e-05 0 -0.034420137626500473 2.5483988715207152e-05 0 -0.034442926568896623 -1.1809245358066455e-05 0 -0.034414515569924232 1.8168995976135009e-06 0 -0.034420137626500473 2.5483988715207152e-05 0 -0.033381994770191104 0.00028068501200939681 0 -0.031305032048462363 -0.00015741709500386496 0 -0.031745735449904285 0.00055289244052319207 0 -0.031679471055179702 0.00062786141579420089 0 -0.031775658227826679 0.0005800605962876039 0 -0.034338305945409008 -2.364353635798145e-05 0 -0.034406189979234732 -2.8226987686070396e-05 0 -0.034414515569924232 1.8168995976135009e-06 0 -0.031471939696108737 -0.00022116152540574199 0 -0.031516569036899214 -0.00016249309052478959 0 -0.028353338783704725 -0.00048440815705884979 0 -0.028572552437391149 -0.00035502015778517306 0 -0.028386043882150006 -0.00036383594256878866 0 -0.028353338783704725 -0.00048440815705884979 0 -0.028386043882150006 -0.00036383594256878866 0 -0.02824172836072655 -0.0003392504658256338 0 -0.034416232150989531 -7.7285428250443099e-05 0 -0.034338305945409008 -2.364353635798145e-05 0 -0.034406189979234732 -2.8226987686070396e-05 0 -0.034442926568896623 -1.1809245358066455e-05 0 -0.03445164682249454 -3.0566678006822064e-05 0 -0.034414515569924232 1.8168995976135009e-06 0 -0.034416232150989531 -7.7285428250443099e-05 0 -0.034406189979234732 -2.8226987686070396e-05 0 -0.03445164682249454 -3.0566678006822064e-05 0 -0.034406189979234732 -2.8226987686070396e-05 0 -0.03445164682249454 -3.0566678006822064e-05 0 -0.034414515569924232 1.8168995976135009e-06 0 -0.031516569036899214 -0.00016249309052478959 0 -0.031305032048462363 -0.00015741709500386496 0 -0.028572552437391149 -0.00035502015778517306 0 -0.028377016797786848 -0.0002777785070249922 0 -0.028556165837798363 -0.00024588127150832942 0 -0.028572552437391149 -0.00035502015778517306 0 -0.028386043882150006 -0.00036383594256878866 0 -0.028377016797786848 -0.0002777785070249922 0 -0.028386043882150006 -0.00036383594256878866 0 -0.028377016797786848 -0.0002777785070249922 0 -0.02824172836072655 -0.0003392504658256338 0 -0.028377016797786848 -0.0002777785070249922 0 -0.028200550994050333 -0.00022133280055416354 0 -0.02824172836072655 -0.0003392504658256338 0 -0.028200550994050333 -0.00022133280055416354 0 -0.02813276721025159 -0.00029036810063516204 0 -0.02824172836072655 -0.0003392504658256338 0 -0.028200550994050333 -0.00022133280055416354 0 -0.02809315849593692 -0.00018869405783392165 0 -0.02813276721025159 -0.00029036810063516204 0 -0.02813276721025159 -0.00029036810063516204 0 -0.028122759491016697 -0.00035363515139526241 0 -0.02824172836072655 -0.0003392504658256338 0 -0.028261824610979459 -0.00030097790750071662 0 -0.028184959034771848 -0.00061197752416913441 0 -0.028353338783704725 -0.00048440815705884979 0 -0.02824172836072655 -0.0003392504658256338 0 -0.028266003507316319 -0.00047707183356246843 0 -0.028122759491016697 -0.00035363515139526241 0 -0.02817656525380019 -0.00044066764292852108 0 -0.028173216625880817 -0.00056868549623008836 0 -0.027574558925765401 -0.00038941990259809995 0 -0.030401673720905121 -0.00029894655288726778 0 -0.028122759491016697 -0.00035363515139526241 0 -0.028112505939022571 -0.00025247111331077313 0 -0.028060128000219706 -0.00016037198333141038 0 -0.028122759491016697 -0.00035363515139526241 0 -0.02824172836072655 -0.0003392504658256338 0 -0.02817656525380019 -0.00044066764292852108 0 -0.028126981120183733 -0.00031394607331987481 0 -0.028057983524207054 -0.0003334919226331166 0 -0.028275104116421829 -0.00027370570338019259 0 -0.028133814336817373 -0.00027880166882199363 0 -0.028126981120183733 -0.00031394607331987481 0 -0.028275104116421829 -0.00027370570338019259 0 -0.028122759491016697 -0.00035363515139526241 0 -0.028112505939022571 -0.00025247111331077313 0 -0.028133814336817373 -0.00027880166882199363 0 -0.028122759491016697 -0.00035363515139526241 0 -0.028133814336817373 -0.00027880166882199363 0 -0.028126981120183733 -0.00031394607331987481 0 -0.02813276721025159 -0.00029036810063516204 0 -0.028122759491016697 -0.00035363515139526241 0 -0.028057983524207054 -0.0003334919226331166 0 -0.02809315849593692 -0.00018869405783392165 0 -0.02813276721025159 -0.00029036810063516204 0 -0.028057983524207054 -0.0003334919226331166 0 -0.028122759491016697 -0.00035363515139526241 0 -0.028126981120183733 -0.00031394607331987481 0 -0.028057983524207054 -0.0003334919226331166 0 -0.027685742575599307 -0.00027007106261115279 0 -0.027601735726870722 -0.00025211380471129157 0 -0.027298213592434947 -9.8673030164962266e-05 0 -0.027685742575599307 -0.00027007106261115279 0 -0.027298213592434947 -9.8673030164962266e-05 0 -0.027652019961553625 2.6520009749430149e-05 0 -0.027601735726870722 -0.00025211380471129157 0 -0.025710107409497925 6.9618587276929988e-07 0 -0.027298213592434947 -9.8673030164962266e-05 0 -0.027601735726870722 -0.00025211380471129157 0 -0.027465042777254419 -7.4253250201560779e-07 0 -0.025710107409497925 6.9618587276929988e-07 0 -0.027465042777254419 -7.4253250201560779e-07 0 -0.028313544891101064 -0.00015955857393961436 0 -0.029226034065235509 -6.1806752470994987e-07 0 -0.027601735726870722 -0.00025211380471129157 0 -0.027465042777254419 -7.4253250201560779e-07 0 -0.028313544891101064 -0.00015955857393961436 0 -0.027601735726870722 -0.00025211380471129157 0 -0.027975347209415104 -0.00020027285913794133 0 -0.028313544891101064 -0.00015955857393961436 0 -0.027896461135429085 -0.0002783068863655095 0 -0.02816049916914614 -0.00026022632059242594 0 -0.027685742575599307 -0.00027007106261115279 0 -0.027601735726870722 -0.00025211380471129157 0 -0.027975347209415104 -0.00020027285913794133 0 -0.027975347209415104 -0.00020027285913794133 0 -0.028313544891101064 -0.00015955857393961436 0 -0.029106648579111265 -1.8976561483894599e-05 0 -0.02827510411642