<?xml version="1.0"?>
<VTKFile type="UnstructuredGrid" version="0.1" byte_order="LittleEndian">
<UnstructuredGrid>
<Piece NumberOfPoints="31780" NumberOfCells="11173">
<Points>
<DataArray type="Float64" NumberOfComponents="3" format="ascii">
-0.5 -0.5 0 -0.48319190646450588 -0.47711482349794371 0 -0.49999999999999728 -0.45408921047276563 0 -0.48499620119032921 -0.50000000000000266 0 -0.5 -0.5 0 -0.48319190646450588 -0.47711482349794371 0 -0.48319190646450588 -0.47711482349794371 0 -0.47237275176400723 -0.48865574153886299 0 -0.4633446523784247 -0.47851346393110239 0 -0.48319190646450588 -0.47711482349794371 0 -0.4633446523784247 -0.47851346393110239 0 -0.47022046138236362 -0.46613061359957347 0 -0.48499620119032921 -0.50000000000000266 0 -0.48319190646450588 -0.47711482349794371 0 -0.47237275176400723 -0.48865574153886299 0 -0.48499620119032921 -0.50000000000000266 0 -0.48319190646450588 -0.47711482349794371 0 -0.48499620119032921 -0.50000000000000266 0 -0.47237275176400723 -0.48865574153886299 0 -0.4632151981456869 -0.5 0 -0.4632151981456869 -0.5 0 -0.45607538120128238 -0.48971403962113202 0 -0.44143419510104448 -0.49999999999999828 0 -0.47237275176400723 -0.48865574153886299 0 -0.45607538120128238 -0.48971403962113202 0 -0.4633446523784247 -0.47851346393110239 0 -0.47237275176400723 -0.48865574153886299 0 -0.4632151981456869 -0.5 0 -0.45607538120128238 -0.48971403962113202 0 -0.45607538120128238 -0.48971403962113202 0 -0.4633446523784247 -0.47851346393110239 0 -0.45107789102766688 -0.48494092829305913 0 -0.4633446523784247 -0.47851346393110239 0 -0.45604238691244142 -0.46659987312490259 0 -0.47022046138236362 -0.46613061359957347 0 -0.4633446523784247 -0.47851346393110239 0 -0.4500623361273639 -0.47861292566533792 0 -0.45604238691244142 -0.46659987312490259 0 -0.4633446523784247 -0.47851346393110239 0 -0.4500623361273639 -0.47861292566533792 0 -0.45107789102766688 -0.48494092829305913 0 -0.44351528561058873 -0.47032144468528952 0 -0.4424063633743498 -0.48613585053501868 0 -0.4318424324615075 -0.47424119986454188 0 -0.4500623361273639 -0.47861292566533792 0 -0.44351528561058873 -0.47032144468528952 0 -0.4424063633743498 -0.48613585053501868 0 -0.44351528561058873 -0.47032144468528952 0 -0.4424063633743498 -0.48613585053501868 0 -0.4500623361273639 -0.47861292566533792 0 -0.4424063633743498 -0.48613585053501868 0 -0.44423054224245478 -0.48631934744320809 0 -0.4500623361273639 -0.47861292566533792 0 -0.44423054224245478 -0.48631934744320809 0 -0.45107789102766688 -0.48494092829305913 0 -0.4500623361273639 -0.47861292566533792 0 -0.44351528561058873 -0.47032144468528952 0 -0.45604238691244142 -0.46659987312490259 0 -0.4424063633743498 -0.48613585053501868 0 -0.44423054224245478 -0.48631934744320809 0 -0.44143419510104448 -0.49999999999999828 0 -0.4424063633743498 -0.48613585053501868 0 -0.44423054224245478 -0.48631934744320809 0 -0.4424063633743498 -0.48613585053501868 0 -0.44143419510104448 -0.49999999999999828 0 -0.42998389901262257 -0.49223093413565128 0 -0.4424063633743498 -0.48613585053501868 0 -0.44143419510104448 -0.49999999999999828 0 -0.45607538120128238 -0.48971403962113202 0 -0.44423054224245478 -0.48631934744320809 0 -0.45107789102766688 -0.48494092829305913 0 -0.45607538120128238 -0.48971403962113202 0 -0.44423054224245478 -0.48631934744320809 0 -0.44143419510104448 -0.49999999999999828 0 -0.44462420784682849 -0.45450703883556048 0 -0.4463828207793834 -0.42942735539237342 0 -0.44462420784682849 -0.45450703883556048 0 -0.45774322903228593 -0.44230436361675468 0 -0.4463828207793834 -0.42942735539237342 0 -0.44462420784682849 -0.45450703883556048 0 -0.4463828207793834 -0.42942735539237342 0 -0.43574418429157241 -0.44562500293402801 0 -0.4410607089243882 -0.45453392659396152 0 -0.44462420784682849 -0.45450703883556048 0 -0.43574418429157241 -0.44562500293402801 0 -0.44351528561058873 -0.47032144468528952 0 -0.4410607089243882 -0.45453392659396152 0 -0.43545719660048932 -0.4578230811475259 0 -0.44351528561058873 -0.47032144468528952 0 -0.44462420784682849 -0.45450703883556048 0 -0.44351528561058873 -0.47032144468528952 0 -0.4410607089243882 -0.45453392659396152 0 -0.44462420784682849 -0.45450703883556048 0 -0.44351528561058873 -0.47032144468528952 0 -0.44462420784682849 -0.45450703883556048 0 -0.45604238691244142 -0.46659987312490259 0 -0.4410607089243882 -0.45453392659396152 0 -0.44462420784682849 -0.45450703883556048 0 -0.44462420784682849 -0.45450703883556048 0 -0.46300590979275552 -0.45436834291572342 0 -0.44462420784682849 -0.45450703883556048 0 -0.45604238691244142 -0.46659987312490259 0 -0.46300590979275552 -0.45436834291572342 0 -0.45604238691244142 -0.46659987312490259 0 -0.46300590979275552 -0.45436834291572342 0 -0.47022046138236362 -0.46613061359957347 0 -0.46300590979275552 -0.45436834291572342 0 -0.45774322903228593 -0.44230436361675468 0 -0.46881909130798038 -0.44212163451200648 0 -0.44462420784682849 -0.45450703883556048 0 -0.46300590979275552 -0.45436834291572342 0 -0.45774322903228593 -0.44230436361675468 0 -0.45774322903228593 -0.44230436361675468 0 -0.46881909130798038 -0.44212163451200648 0 -0.4625990924266018 -0.43119874154692422 0 -0.46881909130798038 -0.44212163451200648 0 -0.48138761173868239 -0.45422964699588481 0 -0.47935961354957601 -0.42850707748474492 0 -0.48138761173868239 -0.45422964699588481 0 -0.47935961354957601 -0.42850707748474492 0 -0.46300590979275552 -0.45436834291572342 0 -0.46881909130798038 -0.44212163451200648 0 -0.48138761173868239 -0.45422964699588481 0 -0.48138761173868239 -0.45422964699588481 0 -0.49018680632206391 -0.44064550810531627 0 -0.47935961354957601 -0.42850707748474492 0 -0.46300590979275552 -0.45436834291572342 0 -0.48138761173868239 -0.45422964699588481 0 -0.47022046138236362 -0.46613061359957347 0 -0.48319190646450588 -0.47711482349794371 0 -0.48138761173868239 -0.45422964699588481 0 -0.48319190646450588 -0.47711482349794371 0 -0.48138761173868239 -0.45422964699588481 0 -0.47022046138236362 -0.46613061359957347 0 -0.46300590979275552 -0.45436834291572342 0 -0.48138761173868239 -0.45422964699588481 0 -0.48319190646450588 -0.47711482349794371 0 -0.48138761173868239 -0.45422964699588481 0 -0.49999999999999728 -0.45408921047276563 0 -0.48138761173868239 -0.45422964699588481 0 -0.49999999999999728 -0.45408921047276563 0 -0.48138761173868239 -0.45422964699588481 0 -0.49999999999999728 -0.45408921047276563 0 -0.49018680632206391 -0.44064550810531627 0 -0.49999999999999728 -0.45408921047276563 0 -0.49018680632206391 -0.44064550810531627 0 -0.5 -0.4257560974678698 0 -0.49018680632206391 -0.44064550810531627 0 -0.5 -0.4257560974678698 0 -0.47935961354957601 -0.42850707748474492 0 -0.5 -0.4257560974678698 0 -0.48804702071529538 -0.41488092223989093 0 -0.47935961354957601 -0.42850707748474492 0 -0.5 -0.4257560974678698 0 -0.48804702071529538 -0.41488092223989093 0 -0.5 -0.3974229844629743 0 -0.47935961354957601 -0.42850707748474492 0 -0.4773316153604692 -0.40278450797360521 0 -0.48804702071529538 -0.41488092223989093 0 -0.47935961354957601 -0.42850707748474492 0 -0.4773316153604692 -0.40278450797360521 0 -0.47935961354957601 -0.42850707748474492 0 -0.4773316153604692 -0.40278450797360521 0 -0.46274594547517078 -0.41640382124184999 0 -0.46881909130798038 -0.44212163451200648 0 -0.47935961354957601 -0.42850707748474492 0 -0.4625990924266018 -0.43119874154692422 0 -0.5 -0.3974229844629743 0 -0.48302533777104251 -0.38214251036411861 0 -0.50000000000000067 -0.36908987145807859 0 -0.48804702071529538 -0.41488092223989093 0 -0.5 -0.3974229844629743 0 -0.4773316153604692 -0.40278450797360521 0 -0.5 -0.3974229844629743 0 -0.4773316153604692 -0.40278450797360521 0 -0.48302533777104251 -0.38214251036411861 0 -0.4773316153604692 -0.40278450797360521 0 -0.48302533777104251 -0.38214251036411861 0 -0.46221463481917069 -0.38289499813441241 0 -0.46221463481917069 -0.38289499813441241 0 -0.46069401266240662 -0.40014407855785539 0 -0.44978528752472741 -0.39006088072760198 0 -0.4773316153604692 -0.40278450797360521 0 -0.46221463481917069 -0.38289499813441241 0 -0.46069401266240662 -0.40014407855785539 0 -0.44814143371193832 -0.40434767194918619 0 -0.42953284928574709 -0.4145545832784821 0 -0.43554439847432919 -0.3941996887913064 0 -0.44814143371193832 -0.40434767194918619 0 -0.44978528752472741 -0.39006088072760198 0 -0.43554439847432919 -0.3941996887913064 0 -0.46069401266240662 -0.40014407855785539 0 -0.44814143371193832 -0.40434767194918619 0 -0.44978528752472741 -0.39006088072760198 0 -0.43554439847432919 -0.3941996887913064 0 -0.44233195795579228 -0.36871796620524971 0 -0.44978528752472741 -0.39006088072760198 0 -0.43554439847432919 -0.3941996887913064 0 -0.44233195795579228 -0.36871796620524971 0 -0.46221463481917069 -0.38289499813441241 0 -0.44978528752472741 -0.39006088072760198 0 -0.44233195795579228 -0.36871796620524971 0 -0.45774322903228593 -0.44230436361675468 0 -0.4625990924266018 -0.43119874154692422 0 -0.4463828207793834 -0.42942735539237342 0 -0.4625990924266018 -0.43119874154692422 0 -0.46274594547517078 -0.41640382124184999 0 -0.4463828207793834 -0.42942735539237342 0 -0.47935961354957601 -0.42850707748474492 0 -0.4625990924266018 -0.43119874154692422 0 -0.46274594547517078 -0.41640382124184999 0 -0.4773316153604692 -0.40278450797360521 0 -0.46069401266240662 -0.40014407855785539 0 -0.46274594547517078 -0.41640382124184999 0 -0.46069401266240662 -0.40014407855785539 0 -0.44814143371193832 -0.40434767194918619 0 -0.46274594547517078 -0.41640382124184999 0 -0.44814143371193832 -0.40434767194918619 0 -0.46274594547517078 -0.41640382124184999 0 -0.4463828207793834 -0.42942735539237342 0 -0.44814143371193832 -0.40434767194918619 0 -0.4463828207793834 -0.42942735539237342 0 -0.44814143371193832 -0.40434767194918619 0 -0.4463828207793834 -0.42942735539237342 0 -0.42953284928574709 -0.4145545832784821 0 -0.42670778597278308 -0.43271737934830468 0 -0.42953284928574709 -0.4145545832784821 0 -0.41583972448732448 -0.42483096564256151 0 -0.4463828207793834 -0.429427355
[...]
<PointData Scalars="" Vectors="displacement," Tensors="">
<DataArray type="Float64" Name="displacement" NumberOfComponents="3" format="ascii">
-0.035000251131130068 -0.034996985345353553 0 -0.033678378725475869 -0.035544859865946833 0 -0.031787494201761066 -0.035000423629086085 0 -0.034998284967942932 -0.033955309810210471 0 -0.035000251131130068 -0.034996985345353553 0 -0.033678378725475869 -0.035544859865946833 0 -0.036345837347167252 -0.033641142876142616 0 -0.035690549248700187 -0.033030381347076906 0 -0.036263162013524156 -0.032457865463600216 0 -0.036345837347167252 -0.033641142876142616 0 -0.036263162013524156 -0.032457865463600216 0 -0.036931055294571281 -0.032866093547545765 0 -0.034999957422245855 -0.033949404581877861 0 -0.036345837347167252 -0.033641142876142616 0 -0.035690549248700187 -0.033030381347076906 0 -0.034999063840104233 -0.033950108801288098 0 -0.035411130583873636 -0.034510078055675734 0 -0.034999957422245855 -0.033949404581877861 0 -0.035690549248700187 -0.033030381347076906 0 -0.034999911911295867 -0.032425099438595485 0 -0.034999911911295867 -0.032425099438595485 0 -0.035629697693564513 -0.031975615574456752 0 -0.034999943580615617 -0.030900747876321057 0 -0.035690549248700187 -0.033030381347076906 0 -0.035629697693564513 -0.031975615574456752 0 -0.036263162013524156 -0.032457865463600216 0 -0.035690549248700187 -0.033030381347076906 0 -0.034999911911295867 -0.032425099438595485 0 -0.035629697693564513 -0.031975615574456752 0 -0.035629697693564513 -0.031975615574456752 0 -0.036263162013524156 -0.032457865463600216 0 -0.035899626425614874 -0.031682025561900751 0 -0.036263162013524156 -0.032457865463600216 0 -0.036897163942976423 -0.03204169423663572 0 -0.036931055294571281 -0.032866093547545765 0 -0.036263162013524156 -0.032457865463600216 0 -0.036247897752664404 -0.031650186623277142 0 -0.036897163942976423 -0.03204169423663572 0 -0.036263162013524156 -0.032457865463600216 0 -0.036247897752664404 -0.031650186623277142 0 -0.035899626425614874 -0.031682025561900751 0 -0.027754309807096873 -0.034984096605710141 0 -0.028235647894553833 -0.034961588388573238 0 -0.027860355356565097 -0.035276620605489264 0 -0.036247897752664404 -0.031650186623277142 0 -0.036680425291231333 -0.031331195926210809 0 -0.03582975250369725 -0.03114711519623841 0 -0.032333846162974224 -0.033185983549248121 0 -0.033780819037832872 -0.03191415979588632 0 -0.036247897752664404 -0.031650186623277142 0 -0.03582975250369725 -0.03114711519623841 0 -0.035824000611086662 -0.031242629122345225 0 -0.036247897752664404 -0.031650186623277142 0 -0.035824000611086662 -0.031242629122345225 0 -0.035899626425614874 -0.031682025561900751 0 -0.036247897752664404 -0.031650186623277142 0 -0.036680425291231333 -0.031331195926210809 0 -0.036897163942976423 -0.03204169423663572 0 -0.035834848271479564 -0.031126376487923942 0 -0.035824000611086662 -0.031242629122345225 0 -0.034999943580615617 -0.030900747876321057 0 -0.033780819037832872 -0.03191415979588632 0 -0.033856333765489535 -0.031808891664306706 0 -0.03592773054310789 -0.03095835275900179 0 -0.034999968647170143 -0.030900312996949734 0 -0.03552194660148017 -0.030106306669873795 0 -0.033780819037832872 -0.03191415979588632 0 -0.035001400320539278 -0.030900810275777912 0 -0.035629697693564513 -0.031975615574456752 0 -0.035824000611086662 -0.031242629122345225 0 -0.035899626425614874 -0.031682025561900751 0 -0.035629697693564513 -0.031975615574456752 0 -0.035824000611086662 -0.031242629122345225 0 -0.034999943580615617 -0.030900747876321057 0 -0.029866377606169406 -0.035012630167680844 0 -0.02705593570235473 -0.035848127539842067 0 -0.028084138989598311 -0.036103357018137057 0 -0.027944028266448807 -0.035975195965424686 0 -0.027802045541593497 -0.036068087419309128 0 -0.027316668280107294 -0.035192635815090093 0 -0.027222554850509065 -0.035522885064511345 0 -0.027252055388383298 -0.035321132961911965 0 -0.027326358408544301 -0.035192057869736268 0 -0.027316668280107294 -0.035192635815090093 0 -0.027252055388383298 -0.035321132961911965 0 -0.027754309807096873 -0.034984096605710141 0 -0.027326358408544301 -0.035192057869736268 0 -0.027408003379413154 -0.035251506746251833 0 -0.032333846162974224 -0.033185983549248121 0 -0.029866377606169406 -0.035012630167680844 0 -0.027754309807096873 -0.034984096605710141 0 -0.027326358408544301 -0.035192057869736268 0 -0.027329854462495595 -0.035087219207580879 0 -0.036680425291231333 -0.031331195926210809 0 -0.037510056532367365 -0.031436585680040083 0 -0.036897163942976423 -0.03204169423663572 0 -0.029569167505716028 -0.035070950912603462 0 -0.029866377606169406 -0.035012630167680844 0 -0.029866377606169406 -0.035012630167680844 0 -0.032883475871141599 -0.033932948475993499 0 -0.037510056532367365 -0.031436585680040083 0 -0.036897163942976423 -0.03204169423663572 0 -0.037555711392953155 -0.032455047506398535 0 -0.036897163942976423 -0.03204169423663572 0 -0.037555711392953155 -0.032455047506398535 0 -0.036931055294571281 -0.032866093547545765 0 -0.028085329163027677 -0.035923841699298339 0 -0.027944028266448807 -0.035975195965424686 0 -0.027940831817699477 -0.035881270791564196 0 -0.028084138989598311 -0.036103357018137057 0 -0.028085329163027677 -0.035923841699298339 0 -0.027944028266448807 -0.035975195965424686 0 -0.027944028266448807 -0.035975195965424686 0 -0.027940831817699477 -0.035881270791564196 0 -0.027822560192948837 -0.035932527036410603 0 -0.027940831817699477 -0.035881270791564196 0 -0.028102586260173694 -0.035729978717733327 0 -0.02778066086794747 -0.035831620131086636 0 -0.032315168647941851 -0.03485878905921469 0 -0.028305012115900398 -0.036221302678850958 0 -0.028085329163027677 -0.035923841699298339 0 -0.027940831817699477 -0.035881270791564196 0 -0.028102586260173694 -0.035729978717733327 0 -0.031771557575430077 -0.036263832640949165 0 -0.030817173591766084 -0.035648780089223286 0 -0.029926321487369501 -0.036345894783905687 0 -0.037555711392953155 -0.032455047506398535 0 -0.037556197641137122 -0.033490672961598321 0 -0.036931055294571281 -0.032866093547545765 0 -0.035411130583873636 -0.034510078055675734 0 -0.032315168647941851 -0.03485878905921469 0 -0.036345837347167252 -0.033641142876142616 0 -0.037556197641137122 -0.033490672961598321 0 -0.036931055294571281 -0.032866093547545765 0 -0.032883475871141599 -0.033932948475993499 0 -0.032315168647941851 -0.03485878905921469 0 -0.033678378725475869 -0.035544859865946833 0 -0.031960784555694781 -0.035980843478950524 0 -0.031787494201761066 -0.035000423629086085 0 -0.032315168647941851 -0.03485878905921469 0 -0.031786256845794232 -0.035001475082954286 0 -0.031771557575430077 -0.036263832640949165 0 -0.031786173134430634 -0.035000033358916841 0 -0.030817173591766084 -0.035648780089223286 0 -0.031786173134430634 -0.035000033358916841 0 -0.030817173591766084 -0.035648780089223286 0 -0.02980279189260171 -0.034999735943883059 0 -0.030817173591766084 -0.035648780089223286 0 -0.02980279189260171 -0.034999735943883059 0 -0.029926321487369501 -0.036345894783905687 0 -0.02980279189260171 -0.034999735943883059 0 -0.028876246741676249 -0.03562490266956455 0 -0.029926321487369501 -0.036345894783905687 0 -0.02980279189260171 -0.034999735943883059 0 -0.028876246741676249 -0.03562490266956455 0 -0.027818677088214488 -0.03499974750642329 0 -0.028305012115900398 -0.036221302678850958 0 -0.028154871947298297 -0.035986703208056157 0 -0.028876246741676249 -0.03562490266956455 0 -0.029926321487369501 -0.036345894783905687 0 -0.027819555419546987 -0.036002267712281238 0 -0.02778066086794747 -0.035831620131086636 0 -0.027819555419546987 -0.036002267712281238 0 -0.027692335741458733 -0.035920646712044667 0 -0.027940831817699477 -0.035881270791564196 0 -0.02778066086794747 -0.035831620131086636 0 -0.027822560192948837 -0.035932527036410603 0 -0.027818677088214488 -0.03499974750642329 0 -0.026906583825694576 -0.035692543748491692 0 -0.025838773705467787 -0.034999922638750541 0 -0.028876246741676249 -0.03562490266956455 0 -0.027818677088214488 -0.03499974750642329 0 -0.027819555419546987 -0.036002267712281238 0 -0.027818677088214488 -0.03499974750642329 0 -0.027819555419546987 -0.036002267712281238 0 -0.026906583825694576 -0.035692543748491692 0 -0.027819555419546987 -0.036002267712281238 0 -0.026906583825694576 -0.035692543748491692 0 -0.027145501704505259 -0.035977112639188326 0 -0.027145501704505259 -0.035977112639188326 0 -0.027570626256160011 -0.035974708370651039 0 -0.027381761025168535 -0.035989521717745415 0 -0.027819555419546987 -0.036002267712281238 0 -0.027145501704505259 -0.035977112639188326 0 -0.027570626256160011 -0.035974708370651039 0 -0.027503274982826575 -0.035920216273375959 0 -0.027343086902844174 -0.035475480357437986 0 -0.027535945613012248 -0.035773122334892035 0 -0.027503274982826575 -0.035920216273375959 0 -0.027381761025168535 -0.035989521717745415 0 -0.027535945613012248 -0.035773122334892035 0 -0.027570626256160011 -0.035974708370651039 0 -0.027503274982826575 -0.035920216273375959 0 -0.027381761025168535 -0.035989521717745415 0 -0.027163950044428009 -0.035654141828309512 0 -0.028144624238528891 -0.036335132610380648 0 -0.027381761025168535 -0.035989521717745415 0 -0.027535945613012248 -0.035773122334892035 0 -0.0268946517629104 -0.036245486307612755 0 -0.027145501704505259 -0.035977112639188326 0 -0.027381761025168535 -0.035989521717745415 0 -0.0268946517629104 -0.036245486307612755 0 -0.027944028266448807 -0.035975195965424686 0 -0.027822560192948837 -0.035932527036410603 0 -0.027802045541593497 -0.036068087419309128 0 -0.027822560192948837 -0.035932527036410603 0 -0.027692335741458733 -0.035920646712044667 0 -0.027802045541593497 -0.036068087419309128 0 -0.02778066086794747 -0.035831620131086636 0 -0.027822560192948837 -0.035932527036410603 0 -0.027692335741458733 -0.035920646712044667 0 -0.027819555419546987 -0.036002267712281238 0 -0.027570626256160011 -0.035974708370651039 0 -0.027692335741458733 -0.035920646712044667 0 -0.027570626256160011 -0.035974708370651039 0 -0.027503274982826575 -0.035920216273375959 0 -0.027692335741458733 -0.035920646712044667 0 -0.027503274982826575 -0.035920216273375959 0 -0.027692335741458733 -0.035920646712044667 0 -0.027802045541593497 -0.036068087419309128 0 -0.027728958178815235 -0.035894027294222537 0 -0.02705593570235473 -0.035848127539842067 0 -0.027503274982826575 -0.035920216273375959 0 -0.027222554850509065 -0.035522885064511345 0 -0.027343086902844174 -0.035475480357437986 0 -0.027241961378181714 -0.035360286825246758 0 -0.027343086902844174 -0.035475480357437986 0 -0.027290766263037891 -0.035251700671853167 0 -0.027222554850509065 -0.035522885064511345 0 -0.027241961378181714 -0.035360286825246758 0 -0.027252055388383298 -0.035321132961911965 0 -0.027222554850509065 -0.035522885064511345 0 -0.027241961378181714 -0.035360286825246758 0 -0.027343086902844174 -0.035475480357437986 0 -0.027343086902844174 -0.035475480357437986 0 -0.027386960738784782 -0.035182909120388885 0 -0.027290766263037891 -0.035251700671853167 0 -0.027343086902844174 -0.035475480357437986 0 -0.027386960738784782 -0.035182909120388885 0 -0.027520181857965922 -0.035294827331687248 0 -0.027386960738784782 -0.035182909120388885 0 -0.027290766263037891 -0.035251700671853167 0 -0.027356528384336221 -0.035033300543980746 0 -0.027290766263037891 -0.035251700671853167 0 -0.027243167906308048 -0.035162959466463785 0 -0.027356528384336221 -0.035033300543980746 0 -0.027241961378181714 -0.035360286825246758 0 -0.027290766263037891 -0.035251700671853167 0 -0.027243167906308048 -0.035162959466463785 0 -0.027859130445974628 -0.03545681407291093 0 -0.027535945613012248 -0.035773122334892035 0 -0.028009186566605337 -0.03561399140797681 0 -0.027859130445974628 -0.03545681407291093 0 -0.027535945613012248 -0.035773122334892035 0 -0.027520181857965922 -0.035294827331687248 0 -0.027343086902844174 -0.035475480357437986 0 -0.027535945613012248 -0.035773122334892035 0 -0.027520181857965922 -0.035294827331687248 0 -0.027386960738784782 -0.035182909120388885 0 -0.027520181857965922 -0.035294827331687248 0 -0.027539443839070397 -0.034963635544608143 0 -0.027520181857965922 -0.035294827331687248 0 -0.027815350632075173 -0.035032006080809273 0 -0.027539443839070397 -0.034963635544608143 0 -0.027859130445974628 -0.03545681407291093 0 -0.027520181857965922 -0.035294827331687248 0 -0.027815350632075173 -0.035032006080809273 0 -0.027815350632075173 -0.035032006080809273 0 -0.02776889316677509 -0.034776488063690644 0 -0.027539443839070397 -0.034963635544608143 0 -0.027539443839070397 -0.034963635544608143 0 -0.027617986490848477 -0.03469341375282825 0 -0.02746502706690496 -0.034886835493483107 0 -0.02776889316677509 -0.034776488063690644 0 -0.027539443839070397 -0.034963635544608143 0 -0.027617986490848477 -0.03469341375282825 0 -0.02776889316677509 -0.034776488063690644 0 -0.027617986490848477 -0.03469341375282825 0 -0.028006659601170807 -0.034492865959914736 0 -0.028261798745437532 -0.033039848815372613 0 -0.028121580680232284 -0.033390184550341165 0 -0.028183729960936921 -0.03318025975808786 0 -0.027955331835893705 -0.033909637914783908 0 -0.028115424800050737 -0.033943848645777465 0 -0.027243167906308048 -0.035162959466463785 0 -0.027356528384336221 -0.035033300543980746 0 -0.027295300927683622 -0.034960355839822141 0 -0.027243167906308048 -0.035162959466463785 0 -0.027295300927683622 -0.034960355839822141 0 -0.027197581690231308 -0.034969947282340881 0 -0.027539443839070397 -0.034963635544608143 0 -0.027356528384336221 -0.035033300543980746 0 -0.02746502706690496 -0.034886835493483107 0 -0.027386960738784782 -0.035182909120388885 0 -0.027539443839070397 -0.034963635544608143 0 -0.027356528384336221 -0.035033300543980746 0 -0.027356528384336221 -0.035033300543980746 0 -0.027383271964263149 -0.034863913057487962 0 -0.027295300927683622 -0.034960355839822141 0 -0.027356528384336221 -0.035033300543980746 0 -0.02746502706690496 -0.034886835493483107 0 -0.027383271964263149 -0.034863913057487962 0 -0.027617986490848477 -0.03469341375282825 0 -0.027383271964263149 -0.034863913057487962 0 -0.027328904432156988 -0.034778609792225398 0 -0.027617986490848477 -0.03469341375282825 0 -0.02746502706690496 -0.034886835493483107 0 -0.027383271964263149 -0.034863913057487962 0 -0.028261798745437532 -0.033039848815372613 0 -0.028908997670690516 -0.032819700760397107 0 -0.028850426619426321 -0.03287544640584282 0 -0.027955331835893705 -0.033909637914783908 0 -0.028205318685838993 -0.033511907559850916 0 -0.028580876031830932 -0.033526440094184692 0 -0.028205318685838993 -0.033511907559850916 0 -0.027383271964263149 -0.034863913057487962 0 -0.027295300927683622 -0.034960355839822141 0 -0.027328904432156988 -0.034778609792225398 0 -0.029763313332627522 -0.032158290674836991 0 -0.029029329322515181 -0.032781811037405018 0 -0.028951005443711916 -0.032769830319073656 0 -0.029763313332627522 -0.032158290674836991 0 -0.029615320884308301 -0.032687049262702529 0 -0.029029329322515181 -0.032781811037405018 0 -0.027295300927683622 -0.034960355839822141 0 -0.027197581690231308 -0.034969947282340881 0 -0.027328904432156988 -0.034778609792225398 0 -0.030163343984737537 -0.03263999761267556 0 -0.029763313332627522 -0.032158290674836991 0 -0.029615320884308301 -0.032687049262702529 0 -0.030163343984737537 -0.03263999761267556 0 -0.029763313332627522 -0.032158290674836991 0 -0.030547082571375873 -0.032202929019486251 0 -0.027243167906308048 -0.035162959466463785 0 -0.027197581690231308 -0.034969947282340881 0 -0.027185866240661542 -0.0351787383005479 0 -0.027197581690231308 -0.034969947282340881 0 -0.027138500180648596 -0.03512424924771089 0 -0.027185866240661542 -0.0351787383005479 0 -0.030609888983962261 -0.031626616438751982 0 -0.030547082571375873 -0.032202929019486251 0 -0.031349623326681939 -0.032103334901240968 0 -0.028580876031830932 -0.033526440094184692 0 -0.028320913686964828 -0.033727369834660889 0 -0.030163343984737537 -0.03263999761267556 0 -0.030547082571375873 -0.032202929019486251 0 -0.03085165334087665 -0.032580153492410356 0 -0.029763313332627522 -0.032158290674836991 0 -0.030609888983962261 -0.031626616438751982 0 -0.030547082571375873 -0.032202929019486251 0 -0.03085165334087665 -0.032580153492410356 0 -0.031349623326681939 -0.032103334901240968 0 -0.031261473524855109 -0.033091158415149487 0 -0.030547082571375873 -0.032202929019486251 0 -0.03085165334087665 -0.032580153492410356 0 -0.031349623326681939 -0.032103334901240968 0 -0.033576382802516069 -0.030381512525734705 0 -0.033616192977870343 -0.028412042794714772 0 -0.035549799399565561 -0.028373094360195434 0 -0.035357310395592943 -0.028360577488810178 0 -0.035409554319630408 -0.027893121951422514 0 -0.035483407286138781 -0.028016751674568324 0 -0.035346885523349796 -0.025341481286276411 0 -0.034999966373259632 -0.027310154730695452 0 -0.035616245367371159 -0.027082888995218827 0 -0.035000010946554465 -0.025436836732498445 0 -0.034999966373259632 -0.027310154730695452 0 -0.035616245367371159 -0.027082888995218827 0 -0.035285447187340467 -0.028780923926515205 0 -0.035357310395592943 -0.028360577488810178 0 -0.035431641789568855 -0.028612502883075795 0 -0.035285447187340467 -0.028780923926515205 0 -0.035483407286138781 -0.028016751674568324 0 -0.035312732995927444 -0.028594868595382256 0 -0.034999966373259632 -0.027310154730695452 0 -0.035285447187340467 -0.028780923926515205 0 -0.034999924314631045 -0.029183187202518487 0 -0.035549799399565561 -0.028373094360195434 0 -0.035357310395592943 -0.028360577488810178 0 -0.035431641789568855 -0.028612502883075795 0 -0.028320913686964828 -0.033727369834660889 0 -0.03192873250096858 -0.031344248527797457 0 -0.033576382802516069 -0.030381512525734705 0 -0.03192873250096858 -0.031344248527797457 0 -0.030609888983962261 -0.031626616438751982 0 -0.031349623326681939 -0.032103334901240968 0 -0.031447242980822084 -0.031112856214512246 0 -0.035549799399565561 -0.028373094360195434 0 -0.035431641789568855 -0.028612502883075795 0 -0.035558483412111444 -0.028848302264450485 0 -0.027146360968364199 -0.035168703827532712 0 -0.027154561593640165 -0.035174427984800055 0 -0.027134364036152412 -0.035226969682664123 0 -0.027138500180648596 -0.03512424924771089 0 -0.027146360968364199 -0.035168703827532712 0 -0.027134364036152412 -0.035226969682664123 0 -0.031723120200134812 -0.032504009644040349 0 -0.026787613050958396 -0.035264732237255902 0 -0.03192873250096858 -0.031344248527797457 0 -0.031723120200134812 -0.032504009644040349 0 -0.031723120200134812 -0.032504009644040349 0 -0.035003056921670099 -0.029183862185117405 0 -0.035668272994787149 -0.029133504062556125 0 -0.035440362639611395 -0.02901914008511728 0 -0.034999924314631045 -0.029183187202518487 0 -0.035431641789568855 -0.028612502883075795 0 -0.035558483412111444 -0.028848302264450485 0 -0.035432371580930724 -0.028796920956476398 0 -0.035431641789568855 -0.028612502883075795 0 -0.035285447187340467 -0.028780923926515205 0 -0.035432371580930724 -0.028796920956476398 0 -0.035285447187340467 -0.028780923926515205 0 -0.035432371580930724 -0.028796920956476398 0 -0.035440362639611395 -0.02901914008511728 0 -0.035558483412111444 -0.028848302264450485 0 -0.035432371580930724 -0.028796920956476398 0 -0.035440362639611395 -0.02901914008511728 0 -0.03192873250096858 -0.031344248527797457 0 -0.03525719557520731 -0.029212141369411495 0 -0.035666035022616616 -0.028884422144068451 0 -0.035668272994787149 -0.029133504062556125 0 -0.035440362639611395 -0.02901914008511728 0 -0.035285447187340467 -0.028780923926515205 0 -0.035440362639611395 -0.02901914008511728 0 -0.034999924314631045 -0.029183187202518487 0 -0.034999968647170143 -0.030900312996949734 0 -0.034999962101048082 -0.029183368996731608 0 -0.03552194660148017 -0.030106306669873795 0 -0.03592773054310789 -0.03095835275900179 0 -0.036077898132546624 -0.029368687740450462 0 -0.03552194660148017 -0.030106306669873795 0 -0.036077898132546624 -0.029368687740450462 0 -0.034999962101048082 -0.029183368996731608 0 -0.03552194660148017 -0.0