<?xml version="1.0"?>
<VTKFile type="UnstructuredGrid" version="0.1" byte_order="LittleEndian">
<UnstructuredGrid>
<Piece NumberOfPoints="31780" NumberOfCells="11173">
<Points>
<DataArray type="Float64" NumberOfComponents="3" format="ascii">
-0.5 -0.5 0 -0.48319190646450588 -0.47711482349794371 0 -0.49999999999999728 -0.45408921047276563 0 -0.48499620119032921 -0.50000000000000266 0 -0.5 -0.5 0 -0.48319190646450588 -0.47711482349794371 0 -0.48319190646450588 -0.47711482349794371 0 -0.47237275176400723 -0.48865574153886299 0 -0.4633446523784247 -0.47851346393110239 0 -0.48319190646450588 -0.47711482349794371 0 -0.4633446523784247 -0.47851346393110239 0 -0.47022046138236362 -0.46613061359957347 0 -0.48499620119032921 -0.50000000000000266 0 -0.48319190646450588 -0.47711482349794371 0 -0.47237275176400723 -0.48865574153886299 0 -0.48499620119032921 -0.50000000000000266 0 -0.48319190646450588 -0.47711482349794371 0 -0.48499620119032921 -0.50000000000000266 0 -0.47237275176400723 -0.48865574153886299 0 -0.4632151981456869 -0.5 0 -0.4632151981456869 -0.5 0 -0.45607538120128238 -0.48971403962113202 0 -0.44143419510104448 -0.49999999999999828 0 -0.47237275176400723 -0.48865574153886299 0 -0.45607538120128238 -0.48971403962113202 0 -0.4633446523784247 -0.47851346393110239 0 -0.47237275176400723 -0.48865574153886299 0 -0.4632151981456869 -0.5 0 -0.45607538120128238 -0.48971403962113202 0 -0.45607538120128238 -0.48971403962113202 0 -0.4633446523784247 -0.47851346393110239 0 -0.45107789102766688 -0.48494092829305913 0 -0.4633446523784247 -0.47851346393110239 0 -0.45604238691244142 -0.46659987312490259 0 -0.47022046138236362 -0.46613061359957347 0 -0.4633446523784247 -0.47851346393110239 0 -0.4500623361273639 -0.47861292566533792 0 -0.45604238691244142 -0.46659987312490259 0 -0.4633446523784247 -0.47851346393110239 0 -0.4500623361273639 -0.47861292566533792 0 -0.45107789102766688 -0.48494092829305913 0 -0.44351528561058873 -0.47032144468528952 0 -0.4424063633743498 -0.48613585053501868 0 -0.4318424324615075 -0.47424119986454188 0 -0.4500623361273639 -0.47861292566533792 0 -0.44351528561058873 -0.47032144468528952 0 -0.4424063633743498 -0.48613585053501868 0 -0.44351528561058873 -0.47032144468528952 0 -0.4424063633743498 -0.48613585053501868 0 -0.4500623361273639 -0.47861292566533792 0 -0.4424063633743498 -0.48613585053501868 0 -0.44423054224245478 -0.48631934744320809 0 -0.4500623361273639 -0.47861292566533792 0 -0.44423054224245478 -0.48631934744320809 0 -0.45107789102766688 -0.48494092829305913 0 -0.4500623361273639 -0.47861292566533792 0 -0.44351528561058873 -0.47032144468528952 0 -0.45604238691244142 -0.46659987312490259 0 -0.4424063633743498 -0.48613585053501868 0 -0.44423054224245478 -0.48631934744320809 0 -0.44143419510104448 -0.49999999999999828 0 -0.4424063633743498 -0.48613585053501868 0 -0.44423054224245478 -0.48631934744320809 0 -0.4424063633743498 -0.48613585053501868 0 -0.44143419510104448 -0.49999999999999828 0 -0.42998389901262257 -0.49223093413565128 0 -0.4424063633743498 -0.48613585053501868 0 -0.44143419510104448 -0.49999999999999828 0 -0.45607538120128238 -0.48971403962113202 0 -0.44423054224245478 -0.48631934744320809 0 -0.45107789102766688 -0.48494092829305913 0 -0.45607538120128238 -0.48971403962113202 0 -0.44423054224245478 -0.48631934744320809 0 -0.44143419510104448 -0.49999999999999828 0 -0.44462420784682849 -0.45450703883556048 0 -0.4463828207793834 -0.42942735539237342 0 -0.44462420784682849 -0.45450703883556048 0 -0.45774322903228593 -0.44230436361675468 0 -0.4463828207793834 -0.42942735539237342 0 -0.44462420784682849 -0.45450703883556048 0 -0.4463828207793834 -0.42942735539237342 0 -0.43574418429157241 -0.44562500293402801 0 -0.4410607089243882 -0.45453392659396152 0 -0.44462420784682849 -0.45450703883556048 0 -0.43574418429157241 -0.44562500293402801 0 -0.44351528561058873 -0.47032144468528952 0 -0.4410607089243882 -0.45453392659396152 0 -0.43545719660048932 -0.4578230811475259 0 -0.44351528561058873 -0.47032144468528952 0 -0.44462420784682849 -0.45450703883556048 0 -0.44351528561058873 -0.47032144468528952 0 -0.4410607089243882 -0.45453392659396152 0 -0.44462420784682849 -0.45450703883556048 0 -0.44351528561058873 -0.47032144468528952 0 -0.44462420784682849 -0.45450703883556048 0 -0.45604238691244142 -0.46659987312490259 0 -0.4410607089243882 -0.45453392659396152 0 -0.44462420784682849 -0.45450703883556048 0 -0.44462420784682849 -0.45450703883556048 0 -0.46300590979275552 -0.45436834291572342 0 -0.44462420784682849 -0.45450703883556048 0 -0.45604238691244142 -0.46659987312490259 0 -0.46300590979275552 -0.45436834291572342 0 -0.45604238691244142 -0.46659987312490259 0 -0.46300590979275552 -0.45436834291572342 0 -0.47022046138236362 -0.46613061359957347 0 -0.46300590979275552 -0.45436834291572342 0 -0.45774322903228593 -0.44230436361675468 0 -0.46881909130798038 -0.44212163451200648 0 -0.44462420784682849 -0.45450703883556048 0 -0.46300590979275552 -0.45436834291572342 0 -0.45774322903228593 -0.44230436361675468 0 -0.45774322903228593 -0.44230436361675468 0 -0.46881909130798038 -0.44212163451200648 0 -0.4625990924266018 -0.43119874154692422 0 -0.46881909130798038 -0.44212163451200648 0 -0.48138761173868239 -0.45422964699588481 0 -0.47935961354957601 -0.42850707748474492 0 -0.48138761173868239 -0.45422964699588481 0 -0.47935961354957601 -0.42850707748474492 0 -0.46300590979275552 -0.45436834291572342 0 -0.46881909130798038 -0.44212163451200648 0 -0.48138761173868239 -0.45422964699588481 0 -0.48138761173868239 -0.45422964699588481 0 -0.49018680632206391 -0.44064550810531627 0 -0.47935961354957601 -0.42850707748474492 0 -0.46300590979275552 -0.45436834291572342 0 -0.48138761173868239 -0.45422964699588481 0 -0.47022046138236362 -0.46613061359957347 0 -0.48319190646450588 -0.47711482349794371 0 -0.48138761173868239 -0.45422964699588481 0 -0.48319190646450588 -0.47711482349794371 0 -0.48138761173868239 -0.45422964699588481 0 -0.47022046138236362 -0.46613061359957347 0 -0.46300590979275552 -0.45436834291572342 0 -0.48138761173868239 -0.45422964699588481 0 -0.48319190646450588 -0.47711482349794371 0 -0.48138761173868239 -0.45422964699588481 0 -0.49999999999999728 -0.45408921047276563 0 -0.48138761173868239 -0.45422964699588481 0 -0.49999999999999728 -0.45408921047276563 0 -0.48138761173868239 -0.45422964699588481 0 -0.49999999999999728 -0.45408921047276563 0 -0.49018680632206391 -0.44064550810531627 0 -0.49999999999999728 -0.45408921047276563 0 -0.49018680632206391 -0.44064550810531627 0 -0.5 -0.4257560974678698 0 -0.49018680632206391 -0.44064550810531627 0 -0.5 -0.4257560974678698 0 -0.47935961354957601 -0.42850707748474492 0 -0.5 -0.4257560974678698 0 -0.48804702071529538 -0.41488092223989093 0 -0.47935961354957601 -0.42850707748474492 0 -0.5 -0.4257560974678698 0 -0.48804702071529538 -0.41488092223989093 0 -0.5 -0.3974229844629743 0 -0.47935961354957601 -0.42850707748474492 0 -0.4773316153604692 -0.40278450797360521 0 -0.48804702071529538 -0.41488092223989093 0 -0.47935961354957601 -0.42850707748474492 0 -0.4773316153604692 -0.40278450797360521 0 -0.47935961354957601 -0.42850707748474492 0 -0.4773316153604692 -0.40278450797360521 0 -0.46274594547517078 -0.41640382124184999 0 -0.46881909130798038 -0.44212163451200648 0 -0.47935961354957601 -0.42850707748474492 0 -0.4625990924266018 -0.43119874154692422 0 -0.5 -0.3974229844629743 0 -0.48302533777104251 -0.38214251036411861 0 -0.50000000000000067 -0.36908987145807859 0 -0.48804702071529538 -0.41488092223989093 0 -0.5 -0.3974229844629743 0 -0.4773316153604692 -0.40278450797360521 0 -0.5 -0.3974229844629743 0 -0.4773316153604692 -0.40278450797360521 0 -0.48302533777104251 -0.38214251036411861 0 -0.4773316153604692 -0.40278450797360521 0 -0.48302533777104251 -0.38214251036411861 0 -0.46221463481917069 -0.38289499813441241 0 -0.46221463481917069 -0.38289499813441241 0 -0.46069401266240662 -0.40014407855785539 0 -0.44978528752472741 -0.39006088072760198 0 -0.4773316153604692 -0.40278450797360521 0 -0.46221463481917069 -0.38289499813441241 0 -0.46069401266240662 -0.40014407855785539 0 -0.44814143371193832 -0.40434767194918619 0 -0.42953284928574709 -0.4145545832784821 0 -0.43554439847432919 -0.3941996887913064 0 -0.44814143371193832 -0.40434767194918619 0 -0.44978528752472741 -0.39006088072760198 0 -0.43554439847432919 -0.3941996887913064 0 -0.46069401266240662 -0.40014407855785539 0 -0.44814143371193832 -0.40434767194918619 0 -0.44978528752472741 -0.39006088072760198 0 -0.43554439847432919 -0.3941996887913064 0 -0.44233195795579228 -0.36871796620524971 0 -0.44978528752472741 -0.39006088072760198 0 -0.43554439847432919 -0.3941996887913064 0 -0.44233195795579228 -0.36871796620524971 0 -0.46221463481917069 -0.38289499813441241 0 -0.44978528752472741 -0.39006088072760198 0 -0.44233195795579228 -0.36871796620524971 0 -0.45774322903228593 -0.44230436361675468 0 -0.4625990924266018 -0.43119874154692422 0 -0.4463828207793834 -0.42942735539237342 0 -0.4625990924266018 -0.43119874154692422 0 -0.46274594547517078 -0.41640382124184999 0 -0.4463828207793834 -0.42942735539237342 0 -0.47935961354957601 -0.42850707748474492 0 -0.4625990924266018 -0.43119874154692422 0 -0.46274594547517078 -0.41640382124184999 0 -0.4773316153604692 -0.40278450797360521 0 -0.46069401266240662 -0.40014407855785539 0 -0.46274594547517078 -0.41640382124184999 0 -0.46069401266240662 -0.40014407855785539 0 -0.44814143371193832 -0.40434767194918619 0 -0.46274594547517078 -0.41640382124184999 0 -0.44814143371193832 -0.40434767194918619 0 -0.46274594547517078 -0.41640382124184999 0 -0.4463828207793834 -0.42942735539237342 0 -0.44814143371193832 -0.40434767194918619 0 -0.4463828207793834 -0.42942735539237342 0 -0.44814143371193832 -0.40434767194918619 0 -0.4463828207793834 -0.42942735539237342 0 -0.42953284928574709 -0.4145545832784821 0 -0.42670778597278308 -0.43271737934830468 0 -0.42953284928574709 -0.4145545832784821 0 -0.41583972448732448 -0.42483096564256151 0 -0.4463828207793834 -0.429427355
[...]
<PointData Scalars="" Vectors="displacement," Tensors="">
<DataArray type="Float64" Name="displacement" NumberOfComponents="3" format="ascii">
-0.034997303106187774 -7.6959840991343563e-07 0 -0.034874473914252399 1.284133932922615e-05 0 -0.035001056353165041 3.5658704701717314e-07 0 -0.033954038118314982 1.1799510116409771e-06 0 -0.034997303106187774 -7.6959840991343563e-07 0 -0.034874473914252399 1.284133932922615e-05 0 -0.032531078115089908 0.00013345397688441612 0 -0.032842443071533209 -0.00012683040659083601 0 -0.032521803370290814 -0.00014503904729803224 0 -0.032531078115089908 0.00013345397688441612 0 -0.032521803370290814 -0.00014503904729803224 0 -0.032486263557324466 -3.6551931831443492e-05 0 -0.0339473316596932 1.0698447837445058e-06 0 -0.032531078115089908 0.00013345397688441612 0 -0.032842443071533209 -0.00012683040659083601 0 -0.033949717340876005 4.1371038349025451e-08 0 -0.033617965470352215 6.3965496461324215e-05 0 -0.0339473316596932 1.0698447837445058e-06 0 -0.032842443071533209 -0.00012683040659083601 0 -0.032425350517263668 -1.1459625703989782e-06 0 -0.032425350517263668 -1.1459625703989782e-06 0 -0.03225551091573195 -0.00011578886573303308 0 -0.030902287745806032 1.2171400984438287e-06 0 -0.032842443071533209 -0.00012683040659083601 0 -0.03225551091573195 -0.00011578886573303308 0 -0.032521803370290814 -0.00014503904729803224 0 -0.032842443071533209 -0.00012683040659083601 0 -0.032425350517263668 -1.1459625703989782e-06 0 -0.03225551091573195 -0.00011578886573303308 0 -0.03225551091573195 -0.00011578886573303308 0 -0.032521803370290814 -0.00014503904729803224 0 -0.032298831405983906 -9.2147613549859129e-06 0 -0.032521803370290814 -0.00014503904729803224 0 -0.03251798930604221 -5.3430090096160562e-05 0 -0.032486263557324466 -3.6551931831443492e-05 0 -0.032521803370290814 -0.00014503904729803224 0 -0.032408041425005502 1.053998275712091e-06 0 -0.03251798930604221 -5.3430090096160562e-05 0 -0.032521803370290814 -0.00014503904729803224 0 -0.032408041425005502 1.053998275712091e-06 0 -0.032298831405983906 -9.2147613549859129e-06 0 -0.033900444547727795 9.3884242262812117e-05 0 -0.033650871500729734 9.6896895781082329e-05 0 -0.03384007187173195 0.000255187610933057 0 -0.032408041425005502 1.053998275712091e-06 0 -0.03251126840052055 6.2600107382768859e-05 0 -0.032204680632345627 0.00019660732556517287 0 -0.033266710626605786 7.9030227285554439e-05 0 -0.032012126940422547 -0.00011991537719523126 0 -0.032408041425005502 1.053998275712091e-06 0 -0.032204680632345627 0.00019660732556517287 0 -0.032188773211723636 0.00015425809610372356 0 -0.032408041425005502 1.053998275712091e-06 0 -0.032188773211723636 0.00015425809610372356 0 -0.032298831405983906 -9.2147613549859129e-06 0 -0.032408041425005502 1.053998275712091e-06 0 -0.03251126840052055 6.2600107382768859e-05 0 -0.03251798930604221 -5.3430090096160562e-05 0 -0.032203688256238372 0.00030903450444659156 0 -0.032188773211723636 0.00015425809610372356 0 -0.030902287745806032 1.2171400984438287e-06 0 -0.032012126940422547 -0.00011991537719523126 0 -0.032020932579877641 -8.1695030526673511e-05 0 -0.030118804076090164 1.5816360000831543e-05 0 -0.030897206049344303 -4.1747207110299135e-08 0 -0.030079041919958395 -0.00010654959003714214 0 -0.032012126940422547 -0.00011991537719523126 0 -0.030900106104288439 9.3514520060796511e-08 0 -0.03225551091573195 -0.00011578886573303308 0 -0.032188773211723636 0.00015425809610372356 0 -0.032298831405983906 -9.2147613549859129e-06 0 -0.03225551091573195 -0.00011578886573303308 0 -0.032188773211723636 0.00015425809610372356 0 -0.030902287745806032 1.2171400984438287e-06 0 -0.033727451031410248 0.00026656081572030353 0 -0.034423843693908468 0.00027080883811452547 0 -0.034096957137173818 0.00035586224142004951 0 -0.034235518353130358 0.00021057918356081159 0 -0.034384220972648774 0.00032532537559881258 0 -0.034126572858962728 0.00014945067543160694 0 -0.034299192777947768 0.00022311487647462512 0 -0.0341958612066008 0.00023858584578849049 0 -0.034124047916121558 0.00016972047226871046 0 -0.034126572858962728 0.00014945067543160694 0 -0.0341958612066008 0.00023858584578849049 0 -0.033900444547727795 9.3884242262812117e-05 0 -0.034124047916121558 0.00016972047226871046 0 -0.034079710219395043 0.00022059741494604516 0 -0.033266710626605786 7.9030227285554439e-05 0 -0.033727451031410248 0.00026656081572030353 0 -0.033900444547727795 9.3884242262812117e-05 0 -0.034124047916121558 0.00016972047226871046 0 -0.034123879334582323 0.00011708903285659111 0 -0.03251126840052055 6.2600107382768859e-05 0 -0.032570475460297121 8.2005601430492006e-06 0 -0.03251798930604221 -5.3430090096160562e-05 0 -0.033774149425750438 0.00022480940700675959 0 -0.033727451031410248 0.00026656081572030353 0 -0.033727451031410248 0.00026656081572030353 0 -0.033277338076394346 5.8328017710030038e-05 0 -0.032570475460297121 8.2005601430492006e-06 0 -0.03251798930604221 -5.3430090096160562e-05 0 -0.032503913203702994 -4.8357804397782797e-05 0 -0.03251798930604221 -5.3430090096160562e-05 0 -0.032503913203702994 -4.8357804397782797e-05 0 -0.032486263557324466 -3.6551931831443492e-05 0 -0.03409848798825147 0.00015180002345120666 0 -0.034235518353130358 0.00021057918356081159 0 -0.034232788604710344 8.9407650494809581e-05 0 -0.034096957137173818 0.00035586224142004951 0 -0.03409848798825147 0.00015180002345120666 0 -0.034235518353130358 0.00021057918356081159 0 -0.034235518353130358 0.00021057918356081159 0 -0.034232788604710344 8.9407650494809581e-05 0 -0.034356004624106651 0.00016606493664869936 0 -0.034232788604710344 8.9407650494809581e-05 0 -0.034100793237856045 -4.8000853734259165e-05 0 -0.034378694709522081 -3.2250089129103957e-05 0 -0.034160212607656559 -8.0474510979385448e-05 0 -0.034778716924009301 -1.3229776925891819e-05 0 -0.03409848798825147 0.00015180002345120666 0 -0.034232788604710344 8.9407650494809581e-05 0 -0.034100793237856045 -4.8000853734259165e-05 0 -0.034999842422300122 -9.2310144165781711e-06 0 -0.034999878141421213 -7.4164133246297888e-06 0 -0.034996650332258475 -2.1558496928355191e-05 0 -0.032503913203702994 -4.8357804397782797e-05 0 -0.032449073906629287 1.4915802018072984e-05 0 -0.032486263557324466 -3.6551931831443492e-05 0 -0.033617965470352215 6.3965496461324215e-05 0 -0.034160212607656559 -8.0474510979385448e-05 0 -0.032531078115089908 0.00013345397688441612 0 -0.032449073906629287 1.4915802018072984e-05 0 -0.032486263557324466 -3.6551931831443492e-05 0 -0.033277338076394346 5.8328017710030038e-05 0 -0.034160212607656559 -8.0474510979385448e-05 0 -0.034874473914252399 1.284133932922615e-05 0 -0.034977659376821089 4.7382944178882419e-05 0 -0.035001056353165041 3.5658704701717314e-07 0 -0.034160212607656559 -8.0474510979385448e-05 0 -0.035000062878274965 9.128549327509117e-08 0 -0.034999842422300122 -9.2310144165781711e-06 0 -0.035000029203191375 -3.6483037116729483e-08 0 -0.034999878141421213 -7.4164133246297888e-06 0 -0.035000029203191375 -3.6483037116729483e-08 0 -0.034999878141421213 -7.4164133246297888e-06 0 -0.034999954883945757 4.0758401204407101e-08 0 -0.034999878141421213 -7.4164133246297888e-06 0 -0.034999954883945757 4.0758401204407101e-08 0 -0.034996650332258475 -2.1558496928355191e-05 0 -0.034999954883945757 4.0758401204407101e-08 0 -0.034935903568468804 1.3107577575441714e-05 0 -0.034996650332258475 -2.1558496928355191e-05 0 -0.034999954883945757 4.0758401204407101e-08 0 -0.034935903568468804 1.3107577575441714e-05 0 -0.034999729083800585 1.5699306105565963e-08 0 -0.034778716924009301 -1.3229776925891819e-05 0 -0.034757593652991449 -1.5486006791463431e-07 0 -0.034935903568468804 1.3107577575441714e-05 0 -0.034996650332258475 -2.1558496928355191e-05 0 -0.034798984502596081 9.6777448564599793e-06 0 -0.034378694709522081 -3.2250089129103957e-05 0 -0.034798984502596081 9.6777448564599793e-06 0 -0.034516680846920861 0.00018388868775307278 0 -0.034232788604710344 8.9407650494809581e-05 0 -0.034378694709522081 -3.2250089129103957e-05 0 -0.034356004624106651 0.00016606493664869936 0 -0.034999729083800585 1.5699306105565963e-08 0 -0.034917955910705296 2.2198213481525822e-05 0 -0.03499998557702122 -6.3050898184860468e-08 0 -0.034935903568468804 1.3107577575441714e-05 0 -0.034999729083800585 1.5699306105565963e-08 0 -0.034798984502596081 9.6777448564599793e-06 0 -0.034999729083800585 1.5699306105565963e-08 0 -0.034798984502596081 9.6777448564599793e-06 0 -0.034917955910705296 2.2198213481525822e-05 0 -0.034798984502596081 9.6777448564599793e-06 0 -0.034917955910705296 2.2198213481525822e-05 0 -0.034821441745382459 0.00014870158869128021 0 -0.034821441745382459 0.00014870158869128021 0 -0.034666628935762771 0.00018008617024428006 0 -0.034658406777653125 0.00027808551291147877 0 -0.034798984502596081 9.6777448564599793e-06 0 -0.034821441745382459 0.00014870158869128021 0 -0.034666628935762771 0.00018008617024428006 0 -0.034522987682081493 0.00030042875525206384 0 -0.034380684140022301 0.00037326097312322413 0 -0.034466810586495991 0.00045846023238182087 0 -0.034522987682081493 0.00030042875525206384 0 -0.034658406777653125 0.00027808551291147877 0 -0.034466810586495991 0.00045846023238182087 0 -0.034666628935762771 0.00018008617024428006 0 -0.034522987682081493 0.00030042875525206384 0 -0.034658406777653125 0.00027808551291147877 0 -0.034398862232910582 0.00050475294748760391 0 -0.034677966714159229 0.00037851611586991156 0 -0.034658406777653125 0.00027808551291147877 0 -0.034466810586495991 0.00045846023238182087 0 -0.034939019063833641 0.00036168879218759079 0 -0.034821441745382459 0.00014870158869128021 0 -0.034658406777653125 0.00027808551291147877 0 -0.034939019063833641 0.00036168879218759079 0 -0.034235518353130358 0.00021057918356081159 0 -0.034356004624106651 0.00016606493664869936 0 -0.034384220972648774 0.00032532537559881258 0 -0.034356004624106651 0.00016606493664869936 0 -0.034516680846920861 0.00018388868775307278 0 -0.034384220972648774 0.00032532537559881258 0 -0.034378694709522081 -3.2250089129103957e-05 0 -0.034356004624106651 0.00016606493664869936 0 -0.034516680846920861 0.00018388868775307278 0 -0.034798984502596081 9.6777448564599793e-06 0 -0.034666628935762771 0.00018008617024428006 0 -0.034516680846920861 0.00018388868775307278 0 -0.034666628935762771 0.00018008617024428006 0 -0.034522987682081493 0.00030042875525206384 0 -0.034516680846920861 0.00018388868775307278 0 -0.034522987682081493 0.00030042875525206384 0 -0.034516680846920861 0.00018388868775307278 0 -0.034384220972648774 0.00032532537559881258 0 -0.03447075305335992 0.00029612823392257347 0 -0.034423843693908468 0.00027080883811452547 0 -0.034522987682081493 0.00030042875525206384 0 -0.034299192777947768 0.00022311487647462512 0 -0.034380684140022301 0.00037326097312322413 0 -0.03428075348360226 0.00031731503843395321 0 -0.034380684140022301 0.00037326097312322413 0 -0.034316516338979315 0.00034443227036918357 0 -0.034299192777947768 0.00022311487647462512 0 -0.03428075348360226 0.00031731503843395321 0 -0.0341958612066008 0.00023858584578849049 0 -0.034299192777947768 0.00022311487647462512 0 -0.03428075348360226 0.00031731503843395321 0 -0.034380684140022301 0.00037326097312322413 0 -0.034380684140022301 0.00037326097312322413 0 -0.034338341399275052 0.00035100643992745688 0 -0.034316516338979315 0.00034443227036918357 0 -0.034380684140022301 0.00037326097312322413 0 -0.034338341399275052 0.00035100643992745688 0 -0.034339889106296512 0.00041384183585081654 0 -0.034338341399275052 0.00035100643992745688 0 -0.034316516338979315 0.00034443227036918357 0 -0.034320014713781107 0.00031181599892290133 0 -0.034316516338979315 0.00034443227036918357 0 -0.034268279463641214 0.00033849590894661157 0 -0.034320014713781107 0.00031181599892290133 0 -0.03428075348360226 0.00031731503843395321 0 -0.034316516338979315 0.00034443227036918357 0 -0.034268279463641214 0.00033849590894661157 0 -0.034200198740831009 0.00046702475007205614 0 -0.034466810586495991 0.00045846023238182087 0 -0.034107112194443914 0.00063541232887074099 0 -0.034200198740831009 0.00046702475007205614 0 -0.034466810586495991 0.00045846023238182087 0 -0.034339889106296512 0.00041384183585081654 0 -0.034380684140022301 0.00037326097312322413 0 -0.034466810586495991 0.00045846023238182087 0 -0.034339889106296512 0.00041384183585081654 0 -0.034338341399275052 0.00035100643992745688 0 -0.034339889106296512 0.00041384183585081654 0 -0.034294200393254926 0.00029257138048416581 0 -0.034339889106296512 0.00041384183585081654 0 -0.034104229759279431 0.00045209375960776686 0 -0.034294200393254926 0.00029257138048416581 0 -0.034200198740831009 0.00046702475007205614 0 -0.034339889106296512 0.00041384183585081654 0 -0.034104229759279431 0.00045209375960776686 0 -0.034104229759279431 0.00045209375960776686 0 -0.034078847383102503 0.00018575334974695631 0 -0.034294200393254926 0.00029257138048416581 0 -0.034294200393254926 0.00029257138048416581 0 -0.034252575520734838 8.6198022395427449e-05 0 -0.034301381610910384 0.00024625384669126873 0 -0.034078847383102503 0.00018575334974695631 0 -0.034294200393254926 0.00029257138048416581 0 -0.034252575520734838 8.6198022395427449e-05 0 -0.034078847383102503 0.00018575334974695631 0 -0.034252575520734838 8.6198022395427449e-05 0 -0.033592414669178387 -0.00011859689045662513 0 -0.030385251792160371 0.00020241798657361242 0 -0.031403661025339827 1.6996647595524133e-05 0 -0.030673714029537388 0.00083627122069962609 0 -0.032369819030540641 0.00012451910566078957 0 -0.032463920282510779 -2.1235481702945441e-05 0 -0.034268279463641214 0.00033849590894661157 0 -0.034320014713781107 0.00031181599892290133 0 -0.034286848627305029 0.00031613536809892015 0 -0.034268279463641214 0.00033849590894661157 0 -0.034286848627305029 0.00031613536809892015 0 -0.034236017897489215 0.0003584921593346225 0 -0.034294200393254926 0.00029257138048416581 0 -0.034320014713781107 0.00031181599892290133 0 -0.034301381610910384 0.00024625384669126873 0 -0.034338341399275052 0.00035100643992745688 0 -0.034294200393254926 0.00029257138048416581 0 -0.034320014713781107 0.00031181599892290133 0 -0.034320014713781107 0.00031181599892290133 0 -0.034303356554514011 0.00026756455478491091 0 -0.034286848627305029 0.00031613536809892015 0 -0.034320014713781107 0.00031181599892290133 0 -0.034301381610910384 0.00024625384669126873 0 -0.034303356554514011 0.00026756455478491091 0 -0.034252575520734838 8.6198022395427449e-05 0 -0.034303356554514011 0.00026756455478491091 0 -0.034294426378155295 0.00028834699905206507 0 -0.034252575520734838 8.6198022395427449e-05 0 -0.034301381610910384 0.00024625384669126873 0 -0.034303356554514011 0.00026756455478491091 0 -0.030385251792160371 0.00020241798657361242 0 -0.029478208890372979 0.00043949853326046316 0 -0.029562288843093528 0.00048985464526481745 0 -0.032369819030540641 0.00012451910566078957 0 -0.03159614523003159 0.00045288908145820774 0 -0.031667976898486841 0.0003115787017853524 0 -0.03159614523003159 0.00045288908145820774 0 -0.034303356554514011 0.00026756455478491091 0 -0.034286848627305029 0.00031613536809892015 0 -0.034294426378155295 0.00028834699905206507 0 -0.029088180881922037 0.00029206520813346683 0 -0.029449968225727673 0.00046935512575580542 0 -0.029487109921875199 0.00045924653974581858 0 -0.029088180881922037 0.00029206520813346683 0 -0.029148400038034299 0.00048887683675197301 0 -0.029449968225727673 0.00046935512575580542 0 -0.034286848627305029 0.00031613536809892015 0 -0.034236017897489215 0.0003584921593346225 0 -0.034294426378155295 0.00028834699905206507 0 -0.028932537967844254 0.00048522766653827306 0 -0.029088180881922037 0.00029206520813346683 0 -0.029148400038034299 0.00048887683675197301 0 -0.028932537967844254 0.00048522766653827306 0 -0.029088180881922037 0.00029206520813346683 0 -0.028806112014708299 0.00033387195278828069 0 -0.034268279463641214 0.00033849590894661157 0 -0.034236017897489215 0.0003584921593346225 0 -0.034187642985685406 0.00034070663228022181 0 -0.034236017897489215 0.0003584921593346225 0 -0.034108911701205759 0.00038557713061261552 0 -0.034187642985685406 0.00034070663228022181 0 -0.028794417376614718 0.00014631657913369544 0 -0.028806112014708299 0.00033387195278828069 0 -0.028542105499080914 0.00030591173928401022 0 -0.031667976898486841 0.0003115787017853524 0 -0.031667575463914653 0.0003088296831894855 0 -0.028932537967844254 0.00048522766653827306 0 -0.028806112014708299 0.00033387195278828069 0 -0.028693392103083682 0.00047222380094076436 0 -0.029088180881922037 0.00029206520813346683 0 -0.028794417376614718 0.00014631657913369544 0 -0.028806112014708299 0.00033387195278828069 0 -0.028693392103083682 0.00047222380094076436 0 -0.028542105499080914 0.00030591173928401022 0 -0.02853854657570316 0.00066009864710388113 0 -0.028806112014708299 0.00033387195278828069 0 -0.028693392103083682 0.00047222380094076436 0 -0.028542105499080914 0.00030591173928401022 0 -0.028539711896731088 -4.2314028617694852e-05 0 -0.026679762890573933 0.00010756085203254885 0 -0.028447254151301251 -0.00025885036310416845 0 -0.028545787137110784 -0.00026470753230792087 0 -0.028467169726792058 -0.00046689470890621095 0 -0.027970373952795415 -0.00026712738492859419 0 -0.025451036594694429 0.00013168189775148004 0 -0.027309524531918157 -4.7204771304221751e-07 0 -0.026971497155290892 -5.0699411005601735e-05 0 -0.025438985369403665 4.7890560541708504e-07 0 -0.027309524531918157 -4.7204771304221751e-07 0 -0.026971497155290892 -5.0699411005601735e-05 0 -0.028661743370270127 -2.2827139079441279e-05 0 -0.028545787137110784 -0.00026470753230792087 0 -0.028543456585606163 -0.00012675534543609966 0 -0.028661743370270127 -2.2827139079441279e-05 0 -0.027970373952795415 -0.00026712738492859419 0 -0.028425467878569508 -8.8338732106291423e-05 0 -0.027309524531918157 -4.7204771304221751e-07 0 -0.028661743370270127 -2.2827139079441279e-05 0 -0.029182204157901178 4.8320741844228905e-07 0 -0.028447254151301251 -0.00025885036310416845 0 -0.028545787137110784 -0.00026470753230792087 0 -0.028543456585606163 -0.00012675534543609966 0 -0.031667575463914653 0.0003088296831894855 0 -0.029899780883641355 0.00033285019110958051 0 -0.028539711896731088 -4.2314028617694852e-05 0 -0.029899780883641355 0.00033285019110958051 0 -0.028794417376614718 0.00014631657913369544 0 -0.028542105499080914 0.00030591173928401022 0 -0.028539317143334256 -8.2719170299924873e-06 0 -0.028447254151301251 -0.00025885036310416845 0 -0.028543456585606163 -0.00012675534543609966 0 -0.028500612640879042 -4.3706790699681965e-06 0 -0.033931374497975647 0.00032710749094015434 0 -0.033920847607553609 0.0002666447931756672 0 -0.034080261336136265 0.00026746913954945397 0 -0.034108911701205759 0.00038557713061261552 0 -0.033931374497975647 0.00032710749094015434 0 -0.034080261336136265 0.00026746913954945397 0 -0.03132346697662166 0.0001368470678794004 0 -0.034422042428614068 0.00027361798083808028 0 -0.029899780883641355 0.00033285019110958051 0 -0.03132346697662166 0.0001368470678794004 0 -0.03132346697662166 0.0001368470678794004 0 -0.029181565988979981 3.2140542306346144e-07 0 -0.028236583703503827 0.00029281264320950388 0 -0.028574326820263347 5.5642163135044278e-05 0 -0.029182204157901178 4.8320741844228905e-07 0 -0.028543456585606163 -0.00012675534543609966 0 -0.028500612640879042 -4.3706790699681965e-06 0 -0.028568441131225482 -2.7434536412053883e-05 0 -0.028543456585606163 -0.00012675534543609966 0 -0.028661743370270127 -2.2827139079441279e-05 0 -0.028568441131225482 -2.7434536412053883e-05 0 -0.028661743370270127 -2.2827139079441279e-05 0 -0.028568441131225482 -2.7434536412053883e-05 0 -0.028574326820263347 5.5642163135044278e-05 0 -0.028500612640879042 -4.3706790699681965e-06 0 -0.028568441131225482 -2.7434536412053883e-05 0 -0.028574326820263347 5.5642163135044278e-05 0 -0.029899780883641355 0.00033285019110958051 0 -0.02872576885464476 -0.00016027078927001733 0 -0.028192641594897459 -0.00017065132354871006 0 -0.028236583703503827 0.00029281264320950388 0 -0.028574326820263347 5.