<?xml version="1.0"?>
<VTKFile type="UnstructuredGrid" version="0.1" byte_order="LittleEndian">
<UnstructuredGrid>
<Piece NumberOfPoints="31780" NumberOfCells="11173">
<Points>
<DataArray type="Float64" NumberOfComponents="3" format="ascii">
-0.5 -0.5 0 -0.48319190646450588 -0.47711482349794371 0 -0.49999999999999728 -0.45408921047276563 0 -0.48499620119032921 -0.50000000000000266 0 -0.5 -0.5 0 -0.48319190646450588 -0.47711482349794371 0 -0.48319190646450588 -0.47711482349794371 0 -0.47237275176400723 -0.48865574153886299 0 -0.4633446523784247 -0.47851346393110239 0 -0.48319190646450588 -0.47711482349794371 0 -0.4633446523784247 -0.47851346393110239 0 -0.47022046138236362 -0.46613061359957347 0 -0.48499620119032921 -0.50000000000000266 0 -0.48319190646450588 -0.47711482349794371 0 -0.47237275176400723 -0.48865574153886299 0 -0.48499620119032921 -0.50000000000000266 0 -0.48319190646450588 -0.47711482349794371 0 -0.48499620119032921 -0.50000000000000266 0 -0.47237275176400723 -0.48865574153886299 0 -0.4632151981456869 -0.5 0 -0.4632151981456869 -0.5 0 -0.45607538120128238 -0.48971403962113202 0 -0.44143419510104448 -0.49999999999999828 0 -0.47237275176400723 -0.48865574153886299 0 -0.45607538120128238 -0.48971403962113202 0 -0.4633446523784247 -0.47851346393110239 0 -0.47237275176400723 -0.48865574153886299 0 -0.4632151981456869 -0.5 0 -0.45607538120128238 -0.48971403962113202 0 -0.45607538120128238 -0.48971403962113202 0 -0.4633446523784247 -0.47851346393110239 0 -0.45107789102766688 -0.48494092829305913 0 -0.4633446523784247 -0.47851346393110239 0 -0.45604238691244142 -0.46659987312490259 0 -0.47022046138236362 -0.46613061359957347 0 -0.4633446523784247 -0.47851346393110239 0 -0.4500623361273639 -0.47861292566533792 0 -0.45604238691244142 -0.46659987312490259 0 -0.4633446523784247 -0.47851346393110239 0 -0.4500623361273639 -0.47861292566533792 0 -0.45107789102766688 -0.48494092829305913 0 -0.44351528561058873 -0.47032144468528952 0 -0.4424063633743498 -0.48613585053501868 0 -0.4318424324615075 -0.47424119986454188 0 -0.4500623361273639 -0.47861292566533792 0 -0.44351528561058873 -0.47032144468528952 0 -0.4424063633743498 -0.48613585053501868 0 -0.44351528561058873 -0.47032144468528952 0 -0.4424063633743498 -0.48613585053501868 0 -0.4500623361273639 -0.47861292566533792 0 -0.4424063633743498 -0.48613585053501868 0 -0.44423054224245478 -0.48631934744320809 0 -0.4500623361273639 -0.47861292566533792 0 -0.44423054224245478 -0.48631934744320809 0 -0.45107789102766688 -0.48494092829305913 0 -0.4500623361273639 -0.47861292566533792 0 -0.44351528561058873 -0.47032144468528952 0 -0.45604238691244142 -0.46659987312490259 0 -0.4424063633743498 -0.48613585053501868 0 -0.44423054224245478 -0.48631934744320809 0 -0.44143419510104448 -0.49999999999999828 0 -0.4424063633743498 -0.48613585053501868 0 -0.44423054224245478 -0.48631934744320809 0 -0.4424063633743498 -0.48613585053501868 0 -0.44143419510104448 -0.49999999999999828 0 -0.42998389901262257 -0.49223093413565128 0 -0.4424063633743498 -0.48613585053501868 0 -0.44143419510104448 -0.49999999999999828 0 -0.45607538120128238 -0.48971403962113202 0 -0.44423054224245478 -0.48631934744320809 0 -0.45107789102766688 -0.48494092829305913 0 -0.45607538120128238 -0.48971403962113202 0 -0.44423054224245478 -0.48631934744320809 0 -0.44143419510104448 -0.49999999999999828 0 -0.44462420784682849 -0.45450703883556048 0 -0.4463828207793834 -0.42942735539237342 0 -0.44462420784682849 -0.45450703883556048 0 -0.45774322903228593 -0.44230436361675468 0 -0.4463828207793834 -0.42942735539237342 0 -0.44462420784682849 -0.45450703883556048 0 -0.4463828207793834 -0.42942735539237342 0 -0.43574418429157241 -0.44562500293402801 0 -0.4410607089243882 -0.45453392659396152 0 -0.44462420784682849 -0.45450703883556048 0 -0.43574418429157241 -0.44562500293402801 0 -0.44351528561058873 -0.47032144468528952 0 -0.4410607089243882 -0.45453392659396152 0 -0.43545719660048932 -0.4578230811475259 0 -0.44351528561058873 -0.47032144468528952 0 -0.44462420784682849 -0.45450703883556048 0 -0.44351528561058873 -0.47032144468528952 0 -0.4410607089243882 -0.45453392659396152 0 -0.44462420784682849 -0.45450703883556048 0 -0.44351528561058873 -0.47032144468528952 0 -0.44462420784682849 -0.45450703883556048 0 -0.45604238691244142 -0.46659987312490259 0 -0.4410607089243882 -0.45453392659396152 0 -0.44462420784682849 -0.45450703883556048 0 -0.44462420784682849 -0.45450703883556048 0 -0.46300590979275552 -0.45436834291572342 0 -0.44462420784682849 -0.45450703883556048 0 -0.45604238691244142 -0.46659987312490259 0 -0.46300590979275552 -0.45436834291572342 0 -0.45604238691244142 -0.46659987312490259 0 -0.46300590979275552 -0.45436834291572342 0 -0.47022046138236362 -0.46613061359957347 0 -0.46300590979275552 -0.45436834291572342 0 -0.45774322903228593 -0.44230436361675468 0 -0.46881909130798038 -0.44212163451200648 0 -0.44462420784682849 -0.45450703883556048 0 -0.46300590979275552 -0.45436834291572342 0 -0.45774322903228593 -0.44230436361675468 0 -0.45774322903228593 -0.44230436361675468 0 -0.46881909130798038 -0.44212163451200648 0 -0.4625990924266018 -0.43119874154692422 0 -0.46881909130798038 -0.44212163451200648 0 -0.48138761173868239 -0.45422964699588481 0 -0.47935961354957601 -0.42850707748474492 0 -0.48138761173868239 -0.45422964699588481 0 -0.47935961354957601 -0.42850707748474492 0 -0.46300590979275552 -0.45436834291572342 0 -0.46881909130798038 -0.44212163451200648 0 -0.48138761173868239 -0.45422964699588481 0 -0.48138761173868239 -0.45422964699588481 0 -0.49018680632206391 -0.44064550810531627 0 -0.47935961354957601 -0.42850707748474492 0 -0.46300590979275552 -0.45436834291572342 0 -0.48138761173868239 -0.45422964699588481 0 -0.47022046138236362 -0.46613061359957347 0 -0.48319190646450588 -0.47711482349794371 0 -0.48138761173868239 -0.45422964699588481 0 -0.48319190646450588 -0.47711482349794371 0 -0.48138761173868239 -0.45422964699588481 0 -0.47022046138236362 -0.46613061359957347 0 -0.46300590979275552 -0.45436834291572342 0 -0.48138761173868239 -0.45422964699588481 0 -0.48319190646450588 -0.47711482349794371 0 -0.48138761173868239 -0.45422964699588481 0 -0.49999999999999728 -0.45408921047276563 0 -0.48138761173868239 -0.45422964699588481 0 -0.49999999999999728 -0.45408921047276563 0 -0.48138761173868239 -0.45422964699588481 0 -0.49999999999999728 -0.45408921047276563 0 -0.49018680632206391 -0.44064550810531627 0 -0.49999999999999728 -0.45408921047276563 0 -0.49018680632206391 -0.44064550810531627 0 -0.5 -0.4257560974678698 0 -0.49018680632206391 -0.44064550810531627 0 -0.5 -0.4257560974678698 0 -0.47935961354957601 -0.42850707748474492 0 -0.5 -0.4257560974678698 0 -0.48804702071529538 -0.41488092223989093 0 -0.47935961354957601 -0.42850707748474492 0 -0.5 -0.4257560974678698 0 -0.48804702071529538 -0.41488092223989093 0 -0.5 -0.3974229844629743 0 -0.47935961354957601 -0.42850707748474492 0 -0.4773316153604692 -0.40278450797360521 0 -0.48804702071529538 -0.41488092223989093 0 -0.47935961354957601 -0.42850707748474492 0 -0.4773316153604692 -0.40278450797360521 0 -0.47935961354957601 -0.42850707748474492 0 -0.4773316153604692 -0.40278450797360521 0 -0.46274594547517078 -0.41640382124184999 0 -0.46881909130798038 -0.44212163451200648 0 -0.47935961354957601 -0.42850707748474492 0 -0.4625990924266018 -0.43119874154692422 0 -0.5 -0.3974229844629743 0 -0.48302533777104251 -0.38214251036411861 0 -0.50000000000000067 -0.36908987145807859 0 -0.48804702071529538 -0.41488092223989093 0 -0.5 -0.3974229844629743 0 -0.4773316153604692 -0.40278450797360521 0 -0.5 -0.3974229844629743 0 -0.4773316153604692 -0.40278450797360521 0 -0.48302533777104251 -0.38214251036411861 0 -0.4773316153604692 -0.40278450797360521 0 -0.48302533777104251 -0.38214251036411861 0 -0.46221463481917069 -0.38289499813441241 0 -0.46221463481917069 -0.38289499813441241 0 -0.46069401266240662 -0.40014407855785539 0 -0.44978528752472741 -0.39006088072760198 0 -0.4773316153604692 -0.40278450797360521 0 -0.46221463481917069 -0.38289499813441241 0 -0.46069401266240662 -0.40014407855785539 0 -0.44814143371193832 -0.40434767194918619 0 -0.42953284928574709 -0.4145545832784821 0 -0.43554439847432919 -0.3941996887913064 0 -0.44814143371193832 -0.40434767194918619 0 -0.44978528752472741 -0.39006088072760198 0 -0.43554439847432919 -0.3941996887913064 0 -0.46069401266240662 -0.40014407855785539 0 -0.44814143371193832 -0.40434767194918619 0 -0.44978528752472741 -0.39006088072760198 0 -0.43554439847432919 -0.3941996887913064 0 -0.44233195795579228 -0.36871796620524971 0 -0.44978528752472741 -0.39006088072760198 0 -0.43554439847432919 -0.3941996887913064 0 -0.44233195795579228 -0.36871796620524971 0 -0.46221463481917069 -0.38289499813441241 0 -0.44978528752472741 -0.39006088072760198 0 -0.44233195795579228 -0.36871796620524971 0 -0.45774322903228593 -0.44230436361675468 0 -0.4625990924266018 -0.43119874154692422 0 -0.4463828207793834 -0.42942735539237342 0 -0.4625990924266018 -0.43119874154692422 0 -0.46274594547517078 -0.41640382124184999 0 -0.4463828207793834 -0.42942735539237342 0 -0.47935961354957601 -0.42850707748474492 0 -0.4625990924266018 -0.43119874154692422 0 -0.46274594547517078 -0.41640382124184999 0 -0.4773316153604692 -0.40278450797360521 0 -0.46069401266240662 -0.40014407855785539 0 -0.46274594547517078 -0.41640382124184999 0 -0.46069401266240662 -0.40014407855785539 0 -0.44814143371193832 -0.40434767194918619 0 -0.46274594547517078 -0.41640382124184999 0 -0.44814143371193832 -0.40434767194918619 0 -0.46274594547517078 -0.41640382124184999 0 -0.4463828207793834 -0.42942735539237342 0 -0.44814143371193832 -0.40434767194918619 0 -0.4463828207793834 -0.42942735539237342 0 -0.44814143371193832 -0.40434767194918619 0 -0.4463828207793834 -0.42942735539237342 0 -0.42953284928574709 -0.4145545832784821 0 -0.42670778597278308 -0.43271737934830468 0 -0.42953284928574709 -0.4145545832784821 0 -0.41583972448732448 -0.42483096564256151 0 -0.4463828207793834 -0.429427355
[...]
<PointData Scalars="" Vectors="displacement," Tensors="">
<DataArray type="Float64" Name="displacement" NumberOfComponents="3" format="ascii">
-4.4601048173893985e-07 -0.034998740467047249 0 -0.00014015385782310805 -0.033623868354374503 0 7.4605214742317871e-07 -0.031789744171607841 0 1.4431329781432514e-07 -0.034999011525098087 0 -4.4601048173893985e-07 -0.034998740467047249 0 -0.00014015385782310805 -0.033623868354374503 0 -2.1611529689124133e-05 -0.034979270937530484 0 -7.6772066337189308e-06 -0.034984071977699337 0 -1.9169980454308103e-05 -0.034960681709579701 0 -2.1611529689124133e-05 -0.034979270937530484 0 -1.9169980454308103e-05 -0.034960681709579701 0 -3.9592323631426328e-05 -0.034950150226356336 0 -2.2579510678734961e-09 -0.034999997445021205 0 -2.1611529689124133e-05 -0.034979270937530484 0 -7.6772066337189308e-06 -0.034984071977699337 0 -2.9877544428358724e-07 -0.03499959715075196 0 -0.00012561834651419855 -0.03453410636414516 0 -2.2579510678734961e-09 -0.034999997445021205 0 -7.6772066337189308e-06 -0.034984071977699337 0 -4.7045873092999475e-09 -0.034999955694047756 0 -4.7045873092999475e-09 -0.034999955694047756 0 -4.5849666525343803e-06 -0.034975056379757744 0 2.1782012745329537e-09 -0.034999920303067006 0 -7.6772066337189308e-06 -0.034984071977699337 0 -4.5849666525343803e-06 -0.034975056379757744 0 -1.9169980454308103e-05 -0.034960681709579701 0 -7.6772066337189308e-06 -0.034984071977699337 0 -4.7045873092999475e-09 -0.034999955694047756 0 -4.5849666525343803e-06 -0.034975056379757744 0 -4.5849666525343803e-06 -0.034975056379757744 0 -1.9169980454308103e-05 -0.034960681709579701 0 -9.4703933874854463e-06 -0.034958845731988514 0 -1.9169980454308103e-05 -0.034960681709579701 0 -3.9655237518318597e-05 -0.034928959448804024 0 -3.9592323631426328e-05 -0.034950150226356336 0 -1.9169980454308103e-05 -0.034960681709579701 0 -1.8555619761640118e-05 -0.034942610877830238 0 -3.9655237518318597e-05 -0.034928959448804024 0 -1.9169980454308103e-05 -0.034960681709579701 0 -1.8555619761640118e-05 -0.034942610877830238 0 -9.4703933874854463e-06 -0.034958845731988514 0 -0.00079664372094213085 -0.028876318029056162 0 -0.00081946509833098465 -0.028910097406900256 0 -0.0008048203829464735 -0.02890633446328341 0 -1.8555619761640118e-05 -0.034942610877830238 0 -3.4260151376917282e-05 -0.034906223668204506 0 -6.6967891737915222e-06 -0.034949189434107471 0 -0.00042707438581092807 -0.031878877419518822 0 0.00016980731819788534 -0.032906888550377308 0 -1.8555619761640118e-05 -0.034942610877830238 0 -6.6967891737915222e-06 -0.034949189434107471 0 -6.1463581123078328e-06 -0.034955062778368982 0 -1.8555619761640118e-05 -0.034942610877830238 0 -6.1463581123078328e-06 -0.034955062778368982 0 -9.4703933874854463e-06 -0.034958845731988514 0 -1.8555619761640118e-05 -0.034942610877830238 0 -3.4260151376917282e-05 -0.034906223668204506 0 -3.9655237518318597e-05 -0.034928959448804024 0 -5.9766613061045289e-06 -0.03495463201543534 0 -6.1463581123078328e-06 -0.034955062778368982 0 2.1782012745329537e-09 -0.034999920303067006 0 0.00016980731819788534 -0.032906888550377308 0 0.00018231491279784159 -0.033156058430602188 0 -1.6175720017922729e-06 -0.034985234768223954 0 4.4806578069272236e-10 -0.034999973407502938 0 -1.2034788495669224e-06 -0.034990411431076097 0 0.00016980731819788534 -0.032906888550377308 0 -2.2552390304835419e-07 -0.034999469313869193 0 -4.5849666525343803e-06 -0.034975056379757744 0 -6.1463581123078328e-06 -0.034955062778368982 0 -9.4703933874854463e-06 -0.034958845731988514 0 -4.5849666525343803e-06 -0.034975056379757744 0 -6.1463581123078328e-06 -0.034955062778368982 0 2.1782012745329537e-09 -0.034999920303067006 0 -0.00095806745991492532 -0.030447081281062483 0 -0.00050876329938229832 -0.028418310709003226 0 -0.00077080577244648368 -0.028593468436063318 0 -0.0006639640297265029 -0.028463121217991837 0 -0.00055422680753600411 -0.028552511211160259 0 -0.00076541323661123305 -0.028797414440512283 0 -0.00059939359297562806 -0.028671988199201987 0 -0.00071043719844249168 -0.02881916034856661 0 -0.00076355833860827381 -0.028825017788051927 0 -0.00076541323661123305 -0.028797414440512283 0 -0.00071043719844249168 -0.02881916034856661 0 -0.00079664372094213085 -0.028876318029056162 0 -0.00076355833860827381 -0.028825017788051927 0 -0.00076940834093466566 -0.028856381801734901 0 -0.00042707438581092807 -0.031878877419518822 0 -0.00095806745991492532 -0.030447081281062483 0 -0.00079664372094213085 -0.028876318029056162 0 -0.00076355833860827381 -0.028825017788051927 0 -0.00076408327364563744 -0.028824872236545514 0 -3.4260151376917282e-05 -0.034906223668204506 0 -7.0893960910052889e-05 -0.034876991336367499 0 -3.9655237518318597e-05 -0.034928959448804024 0 -0.00093211597349516357 -0.02982924498496509 0 -0.00095806745991492532 -0.030447081281062483 0 -0.00095806745991492532 -0.030447081281062483 0 -0.00041384704793789276 -0.031904824025414037 0 -7.0893960910052889e-05 -0.034876991336367499 0 -3.9655237518318597e-05 -0.034928959448804024 0 -6.239110736755943e-05 -0.034924522993076253 0 -3.9655237518318597e-05 -0.034928959448804024 0 -6.239110736755943e-05 -0.034924522993076253 0 -3.9592323631426328e-05 -0.034950150226356336 0 -0.00076234677553709831 -0.028432658766150986 0 -0.0006639640297265029 -0.028463121217991837 0 -0.00066049656563753356 -0.028367354824174438 0 -0.00077080577244648368 -0.028593468436063318 0 -0.00076234677553709831 -0.028432658766150986 0 -0.0006639640297265029 -0.028463121217991837 0 -0.0006639640297265029 -0.028463121217991837 0 -0.00066049656563753356 -0.028367354824174438 0 -0.00056788603855189418 -0.028403722984665574 0 -0.00066049656563753356 -0.028367354824174438 0 -0.00075291783137110496 -0.028292452588634557 0 -0.00054641851474664625 -0.028251369124938686 0 0.00012288607333201613 -0.031614231629268519 0 -0.00048152417325677459 -0.028543164451886021 0 -0.00076234677553709831 -0.028432658766150986 0 -0.00066049656563753356 -0.028367354824174438 0 -0.00075291783137110496 -0.028292452588634557 0 0.00043699722631160504 -0.030174176817443939 0 -3.4092575160905615e-05 -0.030367140623652547 0 -0.0001721354503644517 -0.029484904929709229 0 -6.239110736755943e-05 -0.034924522993076253 0 -5.6706217394993651e-05 -0.034945518125946762 0 -3.9592323631426328e-05 -0.034950150226356336 0 -0.00012561834651419855 -0.03453410636414516 0 0.00012288607333201613 -0.031614231629268519 0 -2.1611529689124133e-05 -0.034979270937530484 0 -5.6706217394993651e-05 -0.034945518125946762 0 -3.9592323631426328e-05 -0.034950150226356336 0 -0.00041384704793789276 -0.031904824025414037 0 0.00012288607333201613 -0.031614231629268519 0 -0.00014015385782310805 -0.033623868354374503 0 0.00031192447742085512 -0.033000434606801084 0 7.4605214742317871e-07 -0.031789744171607841 0 0.00012288607333201613 -0.031614231629268519 0 2.2309030280800414e-07 -0.031786138975903266 0 0.00043699722631160504 -0.030174176817443939 0 1.5136243138771363e-06 -0.031783249429891365 0 -3.4092575160905615e-05 -0.030367140623652547 0 1.5136243138771363e-06 -0.031783249429891365 0 -3.4092575160905615e-05 -0.030367140623652547 0 -6.3879042214052214e-07 -0.029803310871298453 0 -3.4092575160905615e-05 -0.030367140623652547 0 -6.3879042214052214e-07 -0.029803310871298453 0 -0.0001721354503644517 -0.029484904929709229 0 -6.3879042214052214e-07 -0.029803310871298453 0 -0.00016529617953682819 -0.028908403390779956 0 -0.0001721354503644517 -0.029484904929709229 0 -6.3879042214052214e-07 -0.029803310871298453 0 -0.00016529617953682819 -0.028908403390779956 0 -1.0989147490650909e-06 -0.027818862030133094 0 -0.00048152417325677459 -0.028543164451886021 0 -0.00030435568502641826 -0.028398416767925663 0 -0.00016529617953682819 -0.028908403390779956 0 -0.0001721354503644517 -0.029484904929709229 0 -0.00026644525098367278 -0.028207978920472315 0 -0.00054641851474664625 -0.028251369124938686 0 -0.00026644525098367278 -0.028207978920472315 0 -0.00043334069037264983 -0.028377644818783628 0 -0.00066049656563753356 -0.028367354824174438 0 -0.00054641851474664625 -0.028251369124938686 0 -0.00056788603855189418 -0.028403722984665574 0 -1.0989147490650909e-06 -0.027818862030133094 0 -0.00014642058716073152 -0.027461645041542252 0 1.8542227222067705e-06 -0.025840075362549536 0 -0.00016529617953682819 -0.028908403390779956 0 -1.0989147490650909e-06 -0.027818862030133094 0 -0.00026644525098367278 -0.028207978920472315 0 -1.0989147490650909e-06 -0.027818862030133094 0 -0.00026644525098367278 -0.028207978920472315 0 -0.00014642058716073152 -0.027461645041542252 0 -0.00026644525098367278 -0.028207978920472315 0 -0.00014642058716073152 -0.027461645041542252 0 -5.7975894946156448e-05 -0.028184643980237834 0 -5.7975894946156448e-05 -0.028184643980237834 0 -0.00026864750021921333 -0.028338227118196582 0 -0.00015734600025599886 -0.028471305315760285 0 -0.00026644525098367278 -0.028207978920472315 0 -5.7975894946156448e-05 -0.028184643980237834 0 -0.00026864750021921333 -0.028338227118196582 0 -0.00034126530978352695 -0.028534944549112162 0 -0.00045981258232205861 -0.028794589234915523 0 -0.0002475350161138151 -0.028711565037108554 0 -0.00034126530978352695 -0.028534944549112162 0 -0.00015734600025599886 -0.028471305315760285 0 -0.0002475350161138151 -0.028711565037108554 0 -0.00026864750021921333 -0.028338227118196582 0 -0.00034126530978352695 -0.028534944549112162 0 -0.00015734600025599886 -0.028471305315760285 0 -0.00015213038044271053 -0.028574275022398749 0 0.00010429175565792341 -0.029118145994317019 0 -0.00015734600025599886 -0.028471305315760285 0 -0.0002475350161138151 -0.028711565037108554 0 0.00038297284160572731 -0.028687222810816319 0 -5.7975894946156448e-05 -0.028184643980237834 0 -0.00015734600025599886 -0.028471305315760285 0 0.00038297284160572731 -0.028687222810816319 0 -0.0006639640297265029 -0.028463121217991837 0 -0.00056788603855189418 -0.028403722984665574 0 -0.00055422680753600411 -0.028552511211160259 0 -0.00056788603855189418 -0.028403722984665574 0 -0.00043334069037264983 -0.028377644818783628 0 -0.00055422680753600411 -0.028552511211160259 0 -0.00054641851474664625 -0.028251369124938686 0 -0.00056788603855189418 -0.028403722984665574 0 -0.00043334069037264983 -0.028377644818783628 0 -0.00026644525098367278 -0.028207978920472315 0 -0.00026864750021921333 -0.028338227118196582 0 -0.00043334069037264983 -0.028377644818783628 0 -0.00026864750021921333 -0.028338227118196582 0 -0.00034126530978352695 -0.028534944549112162 0 -0.00043334069037264983 -0.028377644818783628 0 -0.00034126530978352695 -0.028534944549112162 0 -0.00043334069037264983 -0.028377644818783628 0 -0.00055422680753600411 -0.028552511211160259 0 -0.00037672825198178337 -0.028589251754810422 0 -0.00050876329938229832 -0.028418310709003226 0 -0.00034126530978352695 -0.028534944549112162 0 -0.00059939359297562806 -0.028671988199201987 0 -0.00045981258232205861 -0.028794589234915523 0 -0.00061785449019012117 -0.028853652631821412 0 -0.00045981258232205861 -0.028794589234915523 0 -0.00055146667144983011 -0.028929464387088002 0 -0.00059939359297562806 -0.028671988199201987 0 -0.00061785449019012117 -0.028853652631821412 0 -0.00071043719844249168 -0.02881916034856661 0 -0.00059939359297562806 -0.028671988199201987 0 -0.00061785449019012117 -0.028853652631821412 0 -0.00045981258232205861 -0.028794589234915523 0 -0.00045981258232205861 -0.028794589234915523 0 -0.00044927617250954221 -0.028953455095711188 0 -0.00055146667144983011 -0.028929464387088002 0 -0.00045981258232205861 -0.028794589234915523 0 -0.00044927617250954221 -0.028953455095711188 0 -0.00031197404905204364 -0.028868688703965677 0 -0.00044927617250954221 -0.028953455095711188 0 -0.00055146667144983011 -0.028929464387088002 0 -0.00050017792589858109 -0.029058624703225053 0 -0.00055146667144983011 -0.028929464387088002 0 -0.00063853464257498775 -0.02900829507750179 0 -0.00050017792589858109 -0.029058624703225053 0 -0.00061785449019012117 -0.028853652631821412 0 -0.00055146667144983011 -0.028929464387088002 0 -0.00063853464257498775 -0.02900829507750179 0 -0.0001216064746528482 -0.028737085616838697 0 -0.0002475350161138151 -0.028711565037108554 0 -1.6279659263891242e-05 -0.028531245272950007 0 -0.0001216064746528482 -0.028737085616838697 0 -0.0002475350161138151 -0.028711565037108554 0 -0.00031197404905204364 -0.028868688703965677 0 -0.00045981258232205861 -0.028794589234915523 0 -0.0002475350161138151 -0.028711565037108554 0 -0.00031197404905204364 -0.028868688703965677 0 -0.00044927617250954221 -0.028953455095711188 0 -0.00031197404905204364 -0.028868688703965677 0 -0.00033898956299479373 -0.029038449478653722 0 -0.00031197404905204364 -0.028868688703965677 0 -0.00016412604953837653 -0.028926774541118232 0 -0.00033898956299479373 -0.029038449478653722 0 -0.0001216064746528482 -0.028737085616838697 0 -0.00031197404905204364 -0.028868688703965677 0 -0.00016412604953837653 -0.028926774541118232 0 -0.00016412604953837653 -0.028926774541118232 0 -0.00019526898054265666 -0.029083818280433358 0 -0.00033898956299479373 -0.029038449478653722 0 -0.00033898956299479373 -0.029038449478653722 0 -0.00029932886554199367 -0.029217519762574275 0 -0.00041580704909416366 -0.029127599575572427 0 -0.00019526898054265666 -0.029083818280433358 0 -0.00033898956299479373 -0.029038449478653722 0 -0.00029932886554199367 -0.029217519762574275 0 -0.00019526898054265666 -0.029083818280433358 0 -0.00029932886554199367 -0.029217519762574275 0 -3.2358095025948438e-05 -0.029175601496965554 0 -0.0011283104018692171 -0.029878514841892443 0 -0.00051788030063182626 -0.029558455041257644 0 -0.00096596876526544291 -0.030231470472921743 0 -0.00068711721812497945 -0.0295232131363657 0 -0.00025942089993221247 -0.029369326596219679 0 -0.00063853464257498775 -0.02900829507750179 0 -0.00050017792589858109 -0.029058624703225053 0 -0.00058109928855196017 -0.029136165400831963 0 -0.00063853464257498775 -0.02900829507750179 0 -0.00058109928855196017 -0.029136165400831963 0 -0.0006970824243853666 -0.029164180749148443 0 -0.00033898956299479373 -0.029038449478653722 0 -0.00050017792589858109 -0.029058624703225053 0 -0.00041580704909416366 -0.029127599575572427 0 -0.00044927617250954221 -0.028953455095711188 0 -0.00033898956299479373 -0.029038449478653722 0 -0.00050017792589858109 -0.029058624703225053 0 -0.00050017792589858109 -0.029058624703225053 0 -0.00049123088915510127 -0.029176172946074511 0 -0.00058109928855196017 -0.029136165400831963 0 -0.00050017792589858109 -0.029058624703225053 0 -0.00041580704909416366 -0.029127599575572427 0 -0.00049123088915510127 -0.029176172946074511 0 -0.00029932886554199367 -0.029217519762574275 0 -0.00049123088915510127 -0.029176172946074511 0 -0.00054561878510739987 -0.029267558680962678 0 -0.00029932886554199367 -0.029217519762574275 0 -0.00041580704909416366 -0.029127599575572427 0 -0.00049123088915510127 -0.029176172946074511 0 -0.0011283104018692171 -0.029878514841892443 0 -0.0014257131183789209 -0.030175598771277481 0 -0.0013965199495733906 -0.030180899820280778 0 -0.00068711721812497945 -0.0295232131363657 0 -0.0010362946338300339 -0.02987842702278971 0 -0.00093005179641110134 -0.029832492640211355 0 -0.0010362946338300339 -0.02987842702278971 0 -0.00049123088915510127 -0.029176172946074511 0 -0.00058109928855196017 -0.029136165400831963 0 -0.00054561878510739987 -0.029267558680962678 0 -0.0012671957844632201 -0.030441310815891343 0 -0.001384394255566013 -0.030220981162805794 0 -0.0013990725636878372 -0.030219163708685513 0 -0.0012671957844632201 -0.030441310815891343 0 -0.0012947658448414228 -0.030296027986043101 0 -0.001384394255566013 -0.030220981162805794 0 -0.00058109928855196017 -0.029136165400831963 0 -0.0006970824243853666 -0.029164180749148443 0 -0.00054561878510739987 -0.029267558680962678 0 -0.0011624740678652823 -0.030325987619797733 0 -0.0012671957844632201 -0.030441310815891343 0 -0.0012947658448414228 -0.030296027986043101 0 -0.0011624740678652823 -0.030325987619797733 0 -0.0012671957844632201 -0.030441310815891343 0 -0.0010569229311536653 -0.030457496839281957 0 -0.00063853464257498775 -0.02900829507750179 0 -0.0006970824243853666 -0.029164180749148443 0 -0.00074728063706796361 -0.029012422365488066 0 -0.0006970824243853666 -0.029164180749148443 0 -0.00082711902667838017 -0.029080165582634009 0 -0.00074728063706796361 -0.029012422365488066 0 -0.0010400786129517745 -0.030637319762606422 0 -0.0010569229311536653 -0.030457496839281957 0 -0.00082063234432173883 -0.030499427299598134 0 -0.00093005179641110134 -0.029832492640211355 0 -0.0010787119610488557 -0.029573901280698034 0 -0.0011624740678652823 -0.030325987619797733 0 -0.0010569229311536653 -0.030457496839281957 0 -0.00097218869450276977 -0.030356494740650244 0 -0.0012671957844632201 -0.030441310815891343 0 -0.0010400786129517745 -0.030637319762606422 0 -0.0010569229311536653 -0.030457496839281957 0 -0.00097218869450276977 -0.030356494740650244 0 -0.00082063234432173883 -0.030499427299598134 0 -0.00086187520088562043 -0.030220356745175113 0 -0.0010569229311536653 -0.030457496839281957 0 -0.00097218869450276977 -0.030356494740650244 0 -0.00082063234432173883 -0.030499427299598134 0 -0.00062790998883757265 -0.032262355950377665 0 -0.00078500925597688382 -0.032712015990135304 0 -0.0004790884163497442 -0.034149446109947218 0 -9.9704345032240632e-05 -0.034128538927976619 0 -0.0002435218443150939 -0.033283466271828765 0 -5.0316239750476908e-05 -0.0344912153774459 0 -0.00021388054997453228 -0.034501184617525216 0 -2.0968982397641051e-08 -0.034999967078518164 0 3.1350799797603118e-06 -0.034999692463615367 0 1.1239230302371707e-08 -0.035000009721900406 0 -2.0968982397641051e-08 -0.034999967078518164 0 3.1350799797603118e-06 -0.034999692463615367 0 -1.3903590487686661e-05 -0.034973206087473056 0 -9.9704345032240632e-05 -0.034128538927976619 0 -0.00022429907412474157 -0.034599392138669763 0 -1.3903590487686661e-05 -0.034973206087473056 0 -5.0316239750476908e-05 -0.0344912153774459 0 -8.7054172691932247e-06 -0.034973846059743588 0 -2.0968982397641051e-08 -0.034999967078518164 0 -1.3903590487686661e-05 -0.034973206087473056 0 1.0572592239730344e-08 -0.034999948626198221 0 -0.0004790884163497442 -0.034149446109947218 0 -9.9704345032240632e-05 -0.034128538927976619 0 -0.00022429907412474157 -0.034599392138669763 0 -0.0010787119610488557 -0.029573901280698034 0 -0.00073846725039410522 -0.032221736094883727 0 -0.00062790998883757265 -0.032262355950377665 0 -0.00073846725039410522 -0.032221736094883727 0 -0.0010400786129517745 -0.030637319762606422 0 -0.00082063234432173883 -0.030499427299598134 0 -0.00078100138006226944 -0.030821970454711092 0 -0.0004790884163497442 -0.034149446109947218 0 -0.00022429907412474157 -0.034599392138669763 0 -0.00036490171213189371 -0.034961267558846966 0 -0.00093713218171440494 -0.029027398724335025 0 -0.00094026565539684164 -0.028987395147815256 0 -0.00084933864738368588 -0.028948126619251169 0 -0.00082711902667838017 -0.029080165582634009 0 -0.00093713218171440494 -0.029027398724335025 0 -0.00084933864738368588 -0.028948126619251169 0 -0.00054884819030897951 -0.031820643575825786 0 -0.00080648845050397718 -0.028962814396011928 0 -0.00073846725039410522 -0.032221736094883727 0 -0.00054884819030897951 -0.031820643575825786 0 -0.00054884819030897951 -0.031820643575825786 0 -6.6916231157824823e-08 -0.034999801442782474 0 -0.00021970459576296341 -0.035081251715561139 0 -0.0001368742740413543 -0.035029015500707437 0 1.0572592239730344e-08 -0.034999948626198221 0 -0.00022429907412474157 -0.034599392138669763 0 -0.00036490171213189371 -0.034961267558846966 0 -0.00018128630360618434 -0.034904905889263108 0 -0.00022429907412474157 -0.034599392138669763 0 -1.3903590487686661e-05 -0.034973206087473056 0 -0.00018128630360618434 -0.034904905889263108 0 -1.3903590487686661e-05 -0.034973206087473056 0 -0.00018128630360618434 -0.034904905889263108 0 -0.0001368742740413543 -0.035029015500707437 0 -0.00036490171213189371 -0.034961267558846966 0 -0.00018128630360618434 -0.034904905889263108 0 -0.000