<?xml version="1.0"?>
<VTKFile type="UnstructuredGrid" version="0.1" byte_order="LittleEndian">
<UnstructuredGrid>
<Piece NumberOfPoints="30734" NumberOfCells="10798">
<Points>
<DataArray type="Float64" NumberOfComponents="3" format="ascii">
-0.5 -0.5 0 -0.46764702341101932 -0.47695688032752898 0 -0.47843134894067912 -0.45829138183778878 0 -0.5 -0.5 0 -0.44051576090244582 -0.47688430412486038 0 -0.39178285439072341 -0.5 0 -0.5 -0.5 0 -0.46764702341101932 -0.47695688032752898 0 -0.44051576090244582 -0.47688430412486038 0 -0.5 -0.5 0 -0.48921567447033892 -0.43962588334804859 0 -0.49999999999999922 -0.42096038485830878 0 -0.46764702341101932 -0.47695688032752898 0 -0.44051576090244582 -0.47688430412486038 0 -0.45512397520775971 -0.4658855490106405 0 -0.44580730304223293 -0.45352634468026343 0 -0.44236282909572722 -0.43032622863202102 0 -0.42695195248443862 -0.43271665391448449 0 -0.44580730304223293 -0.45352634468026343 0 -0.45428211939972513 -0.43558630695030998 0 -0.44236282909572722 -0.43032622863202102 0 -0.44051576090244582 -0.47688430412486038 0 -0.44580730304223293 -0.45352634468026343 0 -0.45512397520775971 -0.4658855490106405 0 -0.44580730304223293 -0.45352634468026343 0 -0.46652581347534089 -0.4561746669099091 0 -0.45512397520775971 -0.4658855490106405 0 -0.46764702341101932 -0.47695688032752898 0 -0.46652581347534089 -0.4561746669099091 0 -0.45512397520775971 -0.4658855490106405 0 -0.44580730304223293 -0.45352634468026343 0 -0.46864177418296371 -0.4423761761640968 0 -0.44580730304223293 -0.45352634468026343 0 -0.46864177418296371 -0.4423761761640968 0 -0.45428211939972513 -0.43558630695030998 0 -0.44580730304223293 -0.45352634468026343 0 -0.46652581347534089 -0.4561746669099091 0 -0.46864177418296371 -0.4423761761640968 0 -0.46652581347534089 -0.4561746669099091 0 -0.47737046482510598 -0.43083874676126882 0 -0.5 -0.5 0 -0.47843134894067912 -0.45829138183778878 0 -0.48921567447033892 -0.43962588334804859 0 -0.46652581347534089 -0.4561746669099091 0 -0.47843134894067912 -0.45829138183778878 0 -0.47737046482510598 -0.43083874676126882 0 -0.47843134894067912 -0.45829138183778878 0 -0.48921567447033892 -0.43962588334804859 0 -0.46652581347534089 -0.4561746669099091 0 -0.46864177418296371 -0.4423761761640968 0 -0.47737046482510598 -0.43083874676126882 0 -0.47843134894067912 -0.45829138183778878 0 -0.48921567447033892 -0.43962588334804859 0 -0.47737046482510598 -0.43083874676126882 0 -0.46764702341101932 -0.47695688032752898 0 -0.47843134894067912 -0.45829138183778878 0 -0.46764702341101932 -0.47695688032752898 0 -0.46652581347534089 -0.4561746669099091 0 -0.47843134894067912 -0.45829138183778878 0 -0.48921567447033892 -0.43962588334804859 0 -0.49999999999999922 -0.42096038485830878 0 -0.48921567447033892 -0.43962588334804859 0 -0.49999999999999922 -0.42096038485830878 0 -0.47737046482510598 -0.43083874676126882 0 -0.49999999999999922 -0.42096038485830878 0 -0.47737046482510598 -0.43083874676126882 0 -0.48821511617487118 -0.40550282661262838 0 -0.49999999999999922 -0.42096038485830878 0 -0.5 -0.39441761949410631 0 -0.48821511617487118 -0.40550282661262838 0 -0.47529149991659048 -0.41226156630524691 0 -0.47737046482510598 -0.43083874676126882 0 -0.46688291717843511 -0.4204589675837434 0 -0.47529149991659048 -0.41226156630524691 0 -0.47737046482510598 -0.43083874676126882 0 -0.48821511617487118 -0.40550282661262838 0 -0.47737046482510598 -0.43083874676126882 0 -0.48821511617487118 -0.40550282661262838 0 -0.47529149991659048 -0.41226156630524691 0 -0.46700989130694093 -0.40570388883146002 0 -0.46688291717843511 -0.4204589675837434 0 -0.47737046482510598 -0.43083874676126882 0 -0.46354851001419911 -0.43053030011317178 0 -0.46688291717843511 -0.4204589675837434 0 -0.46864177418296371 -0.4423761761640968 0 -0.47737046482510598 -0.43083874676126882 0 -0.46354851001419911 -0.43053030011317178 0 -0.49905976752463638 -0.38016690646398787 0 -0.5 -0.39441761949410631 0 -0.5 -0.36787485412990367 0 -0.48607040616650748 -0.37907851055706798 0 -0.49905976752463638 -0.38016690646398787 0 -0.49259961056268109 -0.37215489628119908 0 -0.48607040616650748 -0.37907851055706798 0 -0.49905976752463638 -0.38016690646398787 0 -0.48525037166298429 -0.38995904175223128 0 -0.49905976752463638 -0.38016690646398787 0 -0.48821511617487118 -0.40550282661262838 0 -0.49905976752463638 -0.38016690646398787 0 -0.48525037166298429 -0.38995904175223128 0 -0.48821511617487118 -0.40550282661262838 0 -0.49905976752463638 -0.38016690646398787 0 -0.5 -0.39441761949410631 0 -0.48821511617487118 -0.40550282661262838 0 -0.47529149991659048 -0.41226156630524691 0 -0.48821511617487118 -0.40550282661262838 0 -0.47697911009759919 -0.39880340173713369 0 -0.47529149991659048 -0.41226156630524691 0 -0.47697911009759919 -0.39880340173713369 0 -0.46700989130694093 -0.40570388883146002 0 -0.47697911009759919 -0.39880340173713369 0 -0.46617602103268763 -0.39504799292857112 0 -0.46700989130694093 -0.40570388883146002 0 -0.47697911009759919 -0.39880340173713369 0 -0.4757723725173495 -0.38639272856718399 0 -0.46617602103268763 -0.39504799292857112 0 -0.48525037166298429 -0.38995904175223128 0 -0.47697911009759919 -0.39880340173713369 0 -0.4757723725173495 -0.38639272856718399 0 -0.48525037166298429 -0.38995904175223128 0 -0.48821511617487118 -0.40550282661262838 0 -0.47697911009759919 -0.39880340173713369 0 -0.4757723725173495 -0.38639272856718399 0 -0.47396184042422812 -0.37551761998307032 0 -0.45725703379444999 -0.38591138425420068 0 -0.48607040616650748 -0.37907851055706798 0 -0.48525037166298429 -0.38995904175223128 0 -0.4757723725173495 -0.38639272856718399 0 -0.48607040616650748 -0.37907851055706798 0 -0.4757723725173495 -0.38639272856718399 0 -0.47396184042422812 -0.37551761998307032 0 -0.47396184042422812 -0.37551761998307032 0 -0.45725703379444999 -0.38591138425420068 0 -0.47396184042422812 -0.37551761998307032 0 -0.45725703379444999 -0.38591138425420068 0 -0.45878837262280642 -0.37123661552893489 0 -0.4757723725173495 -0.38639272856718399 0 -0.45725703379444999 -0.38591138425420068 0 -0.46617602103268763 -0.39504799292857112 0 -0.4757723725173495 -0.38639272856718399 0 -0.45725703379444999 -0.38591138425420068 0 -0.45725703379444999 -0.38591138425420068 0 -0.45878837262280642 -0.37123661552893489 0 -0.4453142579355886 -0.3738780698214923 0 -0.45725703379444999 -0.38591138425420068 0 -0.46617602103268763 -0.39504799292857112 0 -0.45317153048150988 -0.4051439359155134 0 -0.46617602103268763 -0.39504799292857112 0 -0.46700989130694093 -0.40570388883146002 0 -0.45317153048150988 -0.4051439359155134 0 -0.45725703379444999 -0.38591138425420068 0 -0.43491704939932929 -0.39981136746081097 0 -0.45725703379444999 -0.38591138425420068 0 -0.45317153048150988 -0.4051439359155134 0 -0.43491704939932929 -0.39981136746081097 0 -0.45725703379444999 -0.38591138425420068 0 -0.42785626164743679 -0.38514705070988609 0 -0.4453142579355886 -0.3738780698214923 0 -0.45725703379444999 -0.38591138425420068 0 -0.42785626164743679 -0.38514705070988609 0 -0.45725703379444999 -0.38591138425420068 0 -0.42785626164743679 -0.38514705070988609 0 -0.43491704939932929 -0.39981136746081097 0 -0.45428211939972513 -0.43558630695030998 0 -0.46354851001419911 -0.43053030011317178 0 -0.45213158179003421 -0.42081474233596028 0 -0.46354851001419911 -0.43053030011317178 0 -0.46688291717843511 -0.4204589675837434 0 -0.45213158179003421 -0.42081474233596028 0 -0.46864177418296371 -0.4423761761640968 0 -0.45428211939972513 -0.43558630695030998 0 -0.46354851001419911 -0.43053030011317178 0 -0.45317153048150988 -0.4051439359155134 0 -0.45979898018922988 -0.41303038366666922 0 -0.45213158179003421 -0.42081474233596028 0 -0.46700989130694093 -0.40570388883146002 0 -0.46688291717843511 -0.4204589675837434 0 -0.45979898018922988 -0.41303038366666922 0 -0.46700989130694093 -0.40570388883146002 0 -0.45317153048150988 -0.4051439359155134 0 -0.45979898018922988 -0.41303038366666922 0 -0.46688291717843511 -0.4204589675837434 0 -0.45979898018922988 -0.41303038366666922 0 -0.45213158179003421 -0.42081474233596028 0 -0.45317153048150988 -0.4051439359155134 0 -0.43524190673458429 -0.41710138279534259 0 -0.43491704939932929 -0.39981136746081097 0 -0.45317153048150988 -0.4051439359155134 0 -0.45213158179003421 -0.42081474233596028 0 -0.43524190673458429 -0.41710138279534259 0 -0.45213158179003421 -0.42081474233596028 0 -0.44236282909572722 -0.43032622863202102 0 -0.43524190673458429 -0.41710138279534259 0 -0.45428211939972513 -0.43558630695030998 0 -0.45213158179003421 -0.42081474233596028 0 -0.44236282909572722 -0.43032622863202102 0 -0.44236282909572722 -0.43032622863202102 0 -0.42695195248443862 -0.43271665391448449 0 -0.43524190673458429 -0.41710138279534259 0 -0.41257706500420882 -0.41371135066742187 0 -0.43491704939932929 -0.39981136746081097 0 -0.42695195248443862 -0.43271665391448449 0 -0.43524190673458429 -0.41710138279534259 0 -0.41257706500420882 -0.41371135066742187 0 -0.43524190673458429 -0.41710138279534259 0 -0.41257706500420882 -0.41371135066742187 0 -0.43491704939932929 -0.39981136746081097 0 -0.42695195248443862 -0.43271665391448449 0 -0.41257706500420882 -0.41371135066742187 0 -0.40943181864748729 -0.43413460422065908 0 -0.42785626164743679 -0.38514705070988609 0 -0.43491704939932929 -0.39981136746081097 0 -0.41401840120920169 -0.39730875598681459 0 -0.41257706500420882 -0.41371135066742187 0 -0.43491704939932929 -0.39981136746081097 0 -0.41401840120920169 -0.39730875598681459 0 -0.41257706500420882 -0.41371135066742187 0 -0.41401840120920169 -0.39730875598681459 0 -0.39837459525389057 -0.40538469630792112 0 -0.42785626164743679 -0.38514705070988609 0 -0.41401840120920169 -0.39730875598681459 0 -0.39845548950042359 -0.38438271716557099 0 -0.42785626164743679 -0.38514705070988609 0 -0.39845548950042359 -0.38438271716557099 0 -0.42785626164743679 -0.38514705070988609 0 -0.39845548950042359 -0.38438271716557099 0 -0.41442859325098352 -0.37062349664307193 0 -0.39845548950042359 -0.38438271716557099 0 -0.3983
[...]
<PointData Scalars="" Vectors="displacement," Tensors="">
<DataArray type="Float64" Name="displacement" NumberOfComponents="3" format="ascii">
-1.3319409262527169e-06 -0.044994492480141084 0 -0.00023499926440259677 -0.043666950379685397 0 -7.4587811703264305e-05 -0.042363021184828722 0 -1.3319409262527169e-06 -0.044994492480141084 0 -0.00029139131093426 -0.044103294658555461 0 -5.5976914404366498e-07 -0.044998312697290474 0 -1.3319409262527169e-06 -0.044994492480141084 0 -0.00023499926440259677 -0.043666950379685397 0 -0.00029139131093426 -0.044103294658555461 0 -1.3319409262527169e-06 -0.044994492480141084 0 2.4878907361564744e-05 -0.04030672712695213 0 1.4197588095177323e-06 -0.037893727969343309 0 -0.00023499926440259677 -0.043666950379685397 0 -0.00029139131093426 -0.044103294658555461 0 -0.00027752058501176891 -0.0431312223308516 0 -0.00010689199904538015 -0.038837435254103693 0 0.0004964225522925221 -0.038908898773439039 0 0.00052688126501117326 -0.039770854644222704 0 -0.00010689199904538015 -0.038837435254103693 0 0.00024203926253564182 -0.038547663736213246 0 0.0004964225522925221 -0.038908898773439039 0 -0.00029139131093426 -0.044103294658555461 0 0.00040337390944228098 -0.043598001166127151 0 -0.00027752058501176891 -0.0431312223308516 0 0.00040337390944228098 -0.043598001166127151 0 -0.00011064116898232528 -0.041150364637096003 0 -0.00027752058501176891 -0.0431312223308516 0 -0.00023499926440259677 -0.043666950379685397 0 -0.00011064116898232528 -0.041150364637096003 0 -0.00027752058501176891 -0.0431312223308516 0 6.9500509804681294e-05 -0.041194806521716573 0 0.00032316049750908668 -0.039511790905686912 0 -0.00010689199904538015 -0.038837435254103693 0 0.00030106883382913132 -0.039194668327636455 0 0.00024203926253564182 -0.038547663736213246 0 0.00040337390944228098 -0.043598001166127151 0 -0.00011064116898232528 -0.041150364637096003 0 0.00030106883382913132 -0.039194668327636455 0 -0.00013236285854886974 -0.040634397091699394 0 0.00039732238182111333 -0.038143991820547209 0 -1.3319409262527169e-06 -0.044994492480141084 0 -7.4587811703264305e-05 -0.042363021184828722 0 2.4878907361564744e-05 -0.04030672712695213 0 -0.00011064116898232528 -0.041150364637096003 0 -0.00026290025469543759 -0.040549045806017522 0 0.00019604982994147295 -0.039118512903375841 0 -0.00011390442693847126 -0.041513841085354081 0 -7.4453375502333885e-05 -0.039657581077161046 0 -0.00011064116898232528 -0.041150364637096003 0 0.00030106883382913132 -0.039194668327636455 0 0.00041168610636937433 -0.036936671006981496 0 -0.00026290025469543759 -0.040549045806017522 0 -3.5794664134621866e-05 -0.038937965137023307 0 0.00019604982994147295 -0.039118512903375841 0 -0.00028483734718573835 -0.043153588169768768 0 -0.00011390442693847126 -0.041513841085354081 0 -0.00023499926440259677 -0.043666950379685397 0 -0.00011064116898232528 -0.041150364637096003 0 -0.00026290025469543759 -0.040549045806017522 0 -7.4453375502333885e-05 -0.039657581077161046 0 -1.1169652160335705e-08 -0.0378872492257624 0 -3.5794664134621866e-05 -0.038937965137023307 0 -5.3526373087062707e-07 -0.037885154483860248 0 0.00019604982994147295 -0.039118512903375841 0 -5.3526373087062707e-07 -0.037885154483860248 0 0.00019604982994147295 -0.039118512903375841 0 4.6826424780139749e-05 -0.037230063775528122 0 -5.3526373087062707e-07 -0.037885154483860248 0 1.0703147446244616e-06 -0.03549867749714386 0 4.6826424780139749e-05 -0.037230063775528122 0 0.0013555840625711878 -0.035832067949283217 0 0.00041168610636937433 -0.036936671006981496 0 0.00087464278799554861 -0.037150866871415035 0 0.0013555840625711878 -0.035832067949283217 0 0.00041168610636937433 -0.036936671006981496 0 0.0018821262095434913 -0.03434916645417762 0 0.00039732238182111333 -0.038143991820547209 0 0.0008554389010080732 -0.035769715181690795 0 0.0013555840625711878 -0.035832067949283217 0 0.001545333769816857 -0.036134840044641008 0 0.00087464278799554861 -0.037150866871415035 0 0.00041168610636937433 -0.036936671006981496 0 0.00038167407513656085 -0.038102018571160884 0 0.00087464278799554861 -0.037150866871415035 0 0.00030106883382913132 -0.039194668327636455 0 0.00041168610636937433 -0.036936671006981496 0 0.00038167407513656085 -0.038102018571160884 0 0.00011163249794755106 -0.034161074594461015 0 1.0703147446244616e-06 -0.03549867749714386 0 1.9532902544803587e-06 -0.033107619342606143 0 0.0010091664720048813 -0.03318263189769427 0 0.00011163249794755106 -0.034161074594461015 0 0.00036486519759502495 -0.033094114820815111 0 0.0010091664720048813 -0.03318263189769427 0 0.00011163249794755106 -0.034161074594461015 0 0.0015075187793623505 -0.033746795486413898 0 0.00016452019249019238 -0.034484042275444694 0 0.0008554389010080732 -0.035769715181690795 0 0.00011163249794755106 -0.034161074594461015 0 0.0015075187793623505 -0.033746795486413898 0 0.0018821262095434913 -0.03434916645417762 0 0.00011163249794755106 -0.034161074594461015 0 1.0703147446244616e-06 -0.03549867749714386 0 4.6826424780139749e-05 -0.037230063775528122 0 0.0013555840625711878 -0.035832067949283217 0 0.0018821262095434913 -0.03434916645417762 0 0.0018283884431824742 -0.034580538415434306 0 0.0013555840625711878 -0.035832067949283217 0 0.0018283884431824742 -0.034580538415434306 0 0.001545333769816857 -0.036134840044641008 0 0.0018283884431824742 -0.034580538415434306 0 0.0020932981979943648 -0.035604423243947629 0 0.001545333769816857 -0.036134840044641008 0 0.0018283884431824742 -0.034580538415434306 0 0.0021993108507717494 -0.033354022127078532 0 0.0020932981979943648 -0.035604423243947629 0 0.0015075187793623505 -0.033746795486413898 0 0.0018283884431824742 -0.034580538415434306 0 0.0021993108507717494 -0.033354022127078532 0 0.0015075187793623505 -0.033746795486413898 0 0.0018821262095434913 -0.03434916645417762 0 0.0018283884431824742 -0.034580538415434306 0 0.0021993108507717494 -0.033354022127078532 0 0.0013750342633837025 -0.032055387886360157 0 0.0022154413334788655 -0.031312094577054667 0 0.0010091664720048813 -0.03318263189769427 0 0.0015075187793623505 -0.033746795486413898 0 0.0021993108507717494 -0.033354022127078532 0 0.0010091664720048813 -0.03318263189769427 0 0.0021993108507717494 -0.033354022127078532 0 0.0013750342633837025 -0.032055387886360157 0 0.0017726111002087405 -0.031229790303498244 0 0.0030194512923575308 -0.032908026298476063 0 0.0013750342633837025 -0.032055387886360157 0 0.0030826006378128026 -0.029240640608178329 0 0.0013721239330011389 -0.029439354576227938 0 0.0021993108507717494 -0.033354022127078532 0 0.0033435707607863819 -0.036902745760972647 0 0.0020932981979943648 -0.035604423243947629 0 0.0023731352331121747 -0.033935132069057621 0 0.0030194512923575308 -0.032908026298476063 0 0.0030826006378128026 -0.029240640608178329 0 0.0013721239330011389 -0.029439354576227938 0 0.0018028098818353348 -0.028076293959917484 0 0.0033435707607863819 -0.036902745760972647 0 0.0020932981979943648 -0.035604423243947629 0 0.0016266624505184223 -0.037596935627138339 0 0.0020932981979943648 -0.035604423243947629 0 0.001545333769816857 -0.036134840044641008 0 0.0016266624505184223 -0.037596935627138339 0 0.0030194512923575308 -0.032908026298476063 0 0.0025511326633271786 -0.037920623210154422 0 0.0033435707607863819 -0.036902745760972647 0 0.0016266624505184223 -0.037596935627138339 0 0.0021756183782184659 -0.039172845779253132 0 0.0030826006378128026 -0.029240640608178329 0 0.0025455370755252636 -0.026722395905682955 0 0.0018028098818353348 -0.028076293959917484 0 0.0030194512923575308 -0.032908026298476063 0 0.0034771361085971855 -0.031331936739753978 0 0.0041499240752645118 -0.033808009943342543 0 0.0042212446909916206 -0.03640892898068069 0 0.0029417852167948912 -0.03580881886632685 0 0.00024203926253564182 -0.038547663736213246 0 0.00038167407513656085 -0.038102018571160884 0 0.00080465409621964707 -0.038131457792464352 0 0.00038167407513656085 -0.038102018571160884 0 0.00087464278799554861 -0.037150866871415035 0 0.00080465409621964707 -0.038131457792464352 0 0.00030106883382913132 -0.039194668327636455 0 0.00024203926253564182 -0.038547663736213246 0 0.00038167407513656085 -0.038102018571160884 0 0.0016266624505184223 -0.037596935627138339 0 0.0011641003386451772 -0.037250918848021446 0 0.00080465409621964707 -0.038131457792464352 0 0.001545333769816857 -0.036134840044641008 0 0.00087464278799554861 -0.037150866871415035 0 0.0011641003386451772 -0.037250918848021446 0 0.001545333769816857 -0.036134840044641008 0 0.0016266624505184223 -0.037596935627138339 0 0.0011641003386451772 -0.037250918848021446 0 0.00087464278799554861 -0.037150866871415035 0 0.0011641003386451772 -0.037250918848021446 0 0.00080465409621964707 -0.038131457792464352 0 0.0016266624505184223 -0.037596935627138339 0 0.0011167234884810226 -0.039210112012771893 0 0.0021756183782184659 -0.039172845779253132 0 0.0016266624505184223 -0.037596935627138339 0 0.00080465409621964707 -0.038131457792464352 0 0.0011167234884810226 -0.039210112012771893 0 0.00080465409621964707 -0.038131457792464352 0 0.0004964225522925221 -0.038908898773439039 0 0.0011167234884810226 -0.039210112012771893 0 0.00024203926253564182 -0.038547663736213246 0 0.00080465409621964707 -0.038131457792464352 0 0.0004964225522925221 -0.038908898773439039 0 0.0004964225522925221 -0.038908898773439039 0 0.00052688126501117326 -0.039770854644222704 0 0.0011167234884810226 -0.039210112012771893 0 0.001619408756482737 -0.03905383921160277 0 0.0025511326633271786 -0.037920623210154422 0 0.00052688126501117326 -0.039770854644222704 0 0.0011167234884810226 -0.039210112012771893 0 0.001375553959186278 -0.040517207925214162 0 0.0011167234884810226 -0.039210112012771893 0 0.001375553959186278 -0.040517207925214162 0 0.0021756183782184659 -0.039172845779253132 0 0.00052688126501117326 -0.039770854644222704 0 0.001375553959186278 -0.040517207925214162 0 0.00052175131132511726 -0.040726331087899852 0 0.0042212446909916206 -0.03640892898068069 0 0.0029417852167948912 -0.03580881886632685 0 0.0031787813530570349 -0.037628902701977239 0 0.0018149159595848704 -0.03778440748840585 0 0.0029417852167948912 -0.03580881886632685 0 0.0031787813530570349 -0.037628902701977239 0 0.0018149159595848704 -0.03778440748840585 0 0.0031787813530570349 -0.037628902701977239 0 0.0025279526499267066 -0.038974101090430271 0 0.0042212446909916206 -0.03640892898068069 0 0.0031787813530570349 -0.037628902701977239 0 0.0042213388136772894 -0.038926759655497668 0 0.0034771361085971855 -0.031331936739753978 0 0.0031420524034042109 -0.031956431452590021 0 0.0025455370755252636 -0.026722395905682955 0 0.002193669978943004 -0.02530585129956241 0 0.0016181103681343527 -0.026011570179968132 0 0.0042213388136772894 -0.038926759655497668 0 0.0025279526499267066 -0.038974101090430271 0 0.0023579803909918795 -0.040413952727398943 0 0.0031787813530570349 -0.037628902701977239 0 0.0042213388136772894 -0.038926759655497668 0 0.0025279526499267066 -0.038974101090430271 0 0.0042213388136772894 -0.038926759655497668 0 0.0023579803909918795 -0.040413952727398943 0 0.003217761920809387 -0.041141486364584867 0 0.0031420524034042109 -0.031956431452590021 0 0.0034750296650645825 -0.033739818474625344 0 0.002193669978943004 -0.02530585129956241 0 0.0013952880285094719 -0.024696824885957522 0 0.0020162482017117207 -0.024204102022662481 0 0.0042213388136772894 -0.038926759655497668 0 0.0041484296197989226 -0.041269304283126133 0 0.003217761920809387 -0.041141486364584867 0 0.001375553959186278 -0.040517207925214162 0 0.00052175131132511726 -0.040726331087899852 0 0.00065046252271448138 -0.041453713149691943 0 0.00052175131132511726 -0.040726331087899852 0 0.00065046252271448138 -0.041453713149691943 0 7.0827647670446549e-05 -0.04126746313950428 0 0.001619408756482737 -0.03905383921160277 0 0.00072786811250205032 -0.040600372966183532 0 0.0018149159595848704 -0.03778440748840585 0 0.0025279526499267066 -0.038974101090430271 0 0.00078528747419212314 -0.039735280275588633 0 0.0023579803909918795 -0.040413952727398943 0 0.00078528747419212314 -0.039735280275588633 0 0.0011086935046828578 -0.041150792645152472 0 0.0025279526499267066 -0.038974101090430271 0 0.0023579803909918795 -0.040413952727398943 0 0.00078528747419212314 -0.039735280275588633 0 0.00072786811250205032 -0.040600372966183532 0 0.00014657732354305205 -0.041639102107918456 0 0.00078528747419212314 -0.039735280275588633 0 9.7834634249839456e-05 -0.041751048095196044 0 0.0011086935046828578 -0.041150792645152472 0 0.00010276468225483987 -0.041555444617444988 0 -5.3948550995741592e-05 -0.041560903026911414 0 9.7834634249839456e-05 -0.041751048095196044 0 0.00065046252271448138 -0.041453713149691943 0 0.00010276468225483987 -0.041555444617444988 0 9.7834634249839456e-05 -0.041751048095196044 0 0.00010276468225483987 -0.041555444617444988 0 -8.9476482600393426e-05 -0.041625117638253599 0 -5.3948550995741592e-05 -0.041560903026911414 0 0.00065046252271448138 -0.041453713149691943 0 0.00010276468225483987 -0.041555444617444988 0 7.0827647670446549e-05 -0.04126746313950428 0 0.00010276468225483987 -0.041555444617444988 0 7.0827647670446549e-05 -0.04126746313950428 0 -8.9476482600393426e-05 -0.041625117638253599 0 -0.00016873904322736496 -0.041585949108306139 0 -0.00019750173169552838 -0.042029070780625961 0 -0.00028198112027592789 -0.041140933180455745 0 7.0827647670446549e-05 -0.04126746313950428 0 -0.00016873904322736496 -0.041585949108306139 0 -0.00028198112027592789 -0.041140933180455745 0 7.0827647670446549e-05 -0.04126746313950428 0 -0.00016873904322736496 -0.041585949108306139 0 -8.9476482600393426e-05 -0.041625117638253599 0 -0.00016873904322736496 -0.041585949108306139 0 -8.9476482600393426e-05 -0.041625117638253599 0 -0.00019750173169552838 -0.042029070780625961 0 0.00040643881546333207 -0.042819105855580006 0 -0.0001848749984411686 -0.042046148124193529 0 -8.9476482600393426e-05 -0.041625117638253599 0 -5.3948550995741592e-05 -0.041560903026911414 0 -0.00019750173169552838 -0.042029070780625961 0 0.00098544392499921624 -0.044152601088181129 0 0.00015767848197217635 -0.044058926530120696 0 -0.00019750173169552838 -0.042029070780625961 0 -0.00024094655811724038 -0.044460549745174445 0 -0.000224995152718499 -0.043268924739759011 0 0.00015767848197217635 -0.044058926530120696 0 -0.00019764848495647266 -0.044682597108905042 0 -0.00019750173169552838 -0.042029070780625961 0 -0.00019764848495647266 -0.044682597108905042 0 -5.5976914404366498e-07 -0.044998312697290474 0 -2.0324541343187142e-05 -0.044817680643113339 0 -0.00019764848495647266 -0.044682597108905042 0 -0.00019750173169552838 -0.042029070780625961 0 -0.00052120030333753834 -0.041741618335920737 0 -0.00019750173169552838 -0.042029070780625961 0 -0.00052120030333753834 -0.041741618335920737 0 -0.00028198112027592789 -0.041140933180455745 0 -0.00029139131093426 -0.044103294658555461 0 -2.0324541343187142e-05 -0.044817680643113339 0 5.1939531539108517e-05 -0.044427535170579388 0 -0.000224995152718499 -0.043268924739759011 0 -0.0002229283861595332 -0.042313727323336159 0 -0.00029139131093426 -0.044103294658555461 0 -5.5976914404366498e-07 -0.044998312697290474 0 -2.0324541343187142e-05 -0.044817680643113339 0 -0.00029139131093426 -0.044103294658555461 0 0.00040337390944228098 -0.043598001166127151 0 5.1939531539108517e-05 -0.044427535170579388 0 -0.00010689199904538015 -0.038837435254103693 0 -0.00058494906488279009 -0.040227721814099067 0 2.4508878986746331e-05 -0.040364207153109066 0 6.9500509804681294e-05 -0.041194806521716573 0 -0.0002229283861595332 -0.042313727323336159 0 -0.00010689199904538015 -0.038837435254103693 0 0.00052688126501117326 -0.039770854644222704 0 2.4508878986746331e-05 -0.040364207153109066 0 0.00052688126501117326 -0.039770854644222704 0 0.00052175131132511726 -0.040726331087899852 0 2.4508878986746331e-05 -0.040364207153109066 0 0.00052175131132511726 -0.040726331087899852 0 7.0827647670446549e-05 -0.04126746313950428 0 2.4508878986746331e-05 -0.040364207153109066 0 7.0827647670446549e-05 -0.04126746313950428 0 2.4508878986746331e-05 -0.040364207153109066 0 -0.00028198112027592789 -0.041140933180455745 0 -0.00052120030333753834 -0.041741618335920737 0 -0.00058494906488279009 -0.040227721814099067 0 -0.00028198112027592789 -0.041140933180455745 0 -0.00058494906488279009 -0.040227721814099067 0 2.4508878986746331e-05 -0.040364207153109066 0 -0.00028198112027592789 -0.041140933180455745 0 -0.0012235607897729602 -0.024702567622675659 0 -0.0011110346819315057 -0.025304209961350091 0 -0.0013033764425338906 -0.023228218163754883 0 -0.0012235607897729602 -0.024702567622675659 0 -0.0013033764425338906 -0.023228218163754883 0 -0.00079882950876369787 -0.023866519677278999 0 -0.0012235607897729602 -0.024702567622675659 0 -0.0011110346819315057 -0.025304209961350091 0 -0.0012676888789150294 -0.025359422129287365 0 -0.0011110346819315057 -0.025304209961350091 0 -0.00037614754406005592 -0.024335404201566258 0 -0.00060910389511727224 -0.025058697829926077 0 -0.0011110346819315057 -0.025304209961350091 0 -0.00060910389511727224 -0.025058697829926077 0 -0.00084816140011876749 -0.025940326131212714 0 -0.0011023298667872153 -0.025045675487238312 0 -0.00079033603391364781 -0.023761591420457431 0 -0.00037614754406005592 -0.024335404201566258 0 -0.00060910389511727224 -0.025058697829926077 0 -0.00017240076970854757 -0.022814199029116931 0 -5.3722976240300407e-07 -0.023553923012822366 0 -0.00060910389511727224 -0.025058697829926077 0 -0.00017240076970854757 -0.022814199029116931 0 -5.3722976240300407e-07 -0.023553923012822366 0 -0.00060910389511727224 -0.025058697829926077 0 -9.1797381954859618e-07 -0.025942107335834737 0 -0.00060910389511727224 -0.025058697829926077 0 -0.00047356157948894593 -0.026730271656321379 0 -0.00084816140011876749 -0.025940326131212714 0 -0.00060910389511727224 -0.025058697829926077 0 -9.1797381954859618e-07 -0.025942107335834737 0 -0.00047356157948894593 -0.026730271656321379 0 -9.1797381954859618e-07 -0.025942107335834737 0 -0.00047356157948894593 -0.026730271656321379 0 -5.5567637824997245e-07 -0.028330764538339579 0 -0.00047356157948894593 -0.026730271656321379 0 -0.00034570259226856636 -0.028240780681355989 0 -5.5567637824997245e-07 -0.028330764538339579 0 -0.00047356157948894593 -0.026730271656321379 0 -0.0006785948282975186 -0.026906770071166299 0 -0.00034570259226856636 -0.028240780681355989 0 -0.00047356157948894593 -0.026730271656321379 0 -0.0006785948282975186 -0.026906770071166299 0 -0.00084816140011876749 -0.025940326131212714 0 -0.0006785948282975186 -0.026906770071166299 0 -0.00084816140011876749 -0.025940326131212714 0 -0.00099896432083772008 -0.026101014342446851 0 -0.0006785948282975186 -0.026906770071166299 0 -0.00099896432083772008 -0.026101014342446851 0 -0.0005411240950937131 -0.027425525602045853 0 -0.0011110346819315057 -0.025304209961350091 0 -0.00084816140011876749 -0.025940326131212714 0 -0.00099896432083772008 -0.026101014342446851 0 -0.0011110346819315057 -0.025304209961350091 0 -0.00099896432083772008 -0.026101014342446851 0 -0.0012676888789150294 -0.025359422129287365 0 -0.00023924697767366119 -0.027083075062730843 0 -0.0005411240950937131 -0.027425525602045853 0 -0.00064596486037150674 -0.026487400032253926 0 -0.00099896432083772008 -0.026101014342446851 0 -0.0005411240950937131 -0.027425525602045853 0 -0.00064596486037150674 -0.026487400032253926 0 -0.00023924697767366119 -0.027083075062730843 0 2.0169450280519108e-07 -0.028156307257323075 0 0.00035402302744201006 -0.026918871758292235 0 -0.00023924697767366119 -0.027083075062730843 0 2.0169450280519108e-07 -0.028156307257323075 0 -0.0005411240950937131 -0.027425525602045853 0 2.0169450280519108e-07 -0.028156307257323075 0 -0.0005411240950937131 -0.027425525602045853 0 -0.00019688453047785208 -0.029122248618998266 0 -0.0006785948282975186 -0.026906770071166299 0 -0.0005411240950937131 -0.027425525602045853 0 -0.00034570259226856636 -0.028240780681355989 0 -0.0005411240950937131 -0.027425525602045853 0 -0.000345702592268