<?xml version="1.0"?>
<VTKFile type="UnstructuredGrid" version="0.1" byte_order="LittleEndian">
<UnstructuredGrid>
<Piece NumberOfPoints="31898" NumberOfCells="11152">
<Points>
<DataArray type="Float64" NumberOfComponents="3" format="ascii">
-0.5 -0.5 0 -0.47620991077874902 -0.44978878706170539 0 -0.49999999999999473 -0.42132396840504388 0 -0.5 -0.5 0 -0.47160970827802529 -0.4793630013852106 0 -0.47620991077874902 -0.44978878706170539 0 -0.5 -0.5 0 -0.47160970827802529 -0.4793630013852106 0 -0.44860394795025399 -0.5 0 -0.47160970827802529 -0.4793630013852106 0 -0.44860394795025399 -0.5 0 -0.4490820238307246 -0.45820516232899983 0 -0.44860394795025399 -0.5 0 -0.4490820238307246 -0.45820516232899983 0 -0.42881687682924802 -0.47781464288736519 0 -0.4490820238307246 -0.45820516232899983 0 -0.45555437223955858 -0.42914059360647611 0 -0.4490820238307246 -0.45820516232899983 0 -0.45555437223955858 -0.42914059360647611 0 -0.43867285131603428 -0.4271457417558665 0 -0.4490820238307246 -0.45820516232899983 0 -0.43867285131603428 -0.4271457417558665 0 -0.4263356171060747 -0.44269880333887462 0 -0.47160970827802529 -0.4793630013852106 0 -0.4490820238307246 -0.45820516232899983 0 -0.47620991077874902 -0.44978878706170539 0 -0.4490820238307246 -0.45820516232899983 0 -0.47620991077874902 -0.44978878706170539 0 -0.45555437223955858 -0.42914059360647611 0 -0.47620991077874902 -0.44978878706170539 0 -0.48101336032419229 -0.41069999664450008 0 -0.45555437223955858 -0.42914059360647611 0 -0.47620991077874902 -0.44978878706170539 0 -0.49999999999999473 -0.42132396840504388 0 -0.48101336032419229 -0.41069999664450008 0 -0.49999999999999473 -0.42132396840504388 0 -0.48101336032419229 -0.41069999664450008 0 -0.5 -0.393886241813306 0 -0.49999999999999473 -0.42132396840504388 0 -0.48101336032419229 -0.41069999664450008 0 -0.5 -0.393886241813306 0 -0.47854472220918332 -0.38978458738689759 0 -0.48422759779560409 -0.37130120630367158 0 -0.5 -0.393886241813306 0 -0.5 -0.36644851522156802 0 -0.48422759779560409 -0.37130120630367158 0 -0.48101336032419229 -0.41069999664450008 0 -0.5 -0.393886241813306 0 -0.47854472220918332 -0.38978458738689759 0 -0.48101336032419229 -0.41069999664450008 0 -0.47854472220918332 -0.38978458738689759 0 -0.46202672064839212 -0.40007602488395211 0 -0.48101336032419229 -0.41069999664450008 0 -0.46202672064839212 -0.40007602488395211 0 -0.47854472220918332 -0.38978458738689759 0 -0.46725442735267431 -0.37660061361585562 0 -0.46202672064839212 -0.40007602488395211 0 -0.47854472220918332 -0.38978458738689759 0 -0.46725442735267431 -0.37660061361585562 0 -0.48422759779560409 -0.37130120630367158 0 -0.46725442735267431 -0.37660061361585562 0 -0.46202672064839212 -0.40007602488395211 0 -0.46725442735267431 -0.37660061361585562 0 -0.45645674801697989 -0.38644133236760531 0 -0.46202672064839212 -0.40007602488395211 0 -0.46725442735267431 -0.37660061361585562 0 -0.45645674801697989 -0.38644133236760531 0 -0.4540003998136638 -0.37455519391687309 0 -0.45645674801697989 -0.38644133236760531 0 -0.46202672064839212 -0.40007602488395211 0 -0.44257020456291563 -0.38918913383950271 0 -0.46202672064839212 -0.40007602488395211 0 -0.44257020456291563 -0.38918913383950271 0 -0.44727608925983742 -0.41095911152778891 0 -0.46202672064839212 -0.40007602488395211 0 -0.44257020456291563 -0.38918913383950271 0 -0.44257020456291563 -0.38918913383950271 0 -0.44727608925983742 -0.41095911152778891 0 -0.43479358559901082 -0.4041454901736512 0 -0.44257020456291563 -0.38918913383950271 0 -0.4540003998136638 -0.37455519391687309 0 -0.44172858264042247 -0.37082207246888088 0 -0.45645674801697989 -0.38644133236760531 0 -0.44257020456291563 -0.38918913383950271 0 -0.4540003998136638 -0.37455519391687309 0 -0.46202672064839212 -0.40007602488395211 0 -0.45555437223955858 -0.42914059360647611 0 -0.44727608925983742 -0.41095911152778891 0 -0.46202672064839212 -0.40007602488395211 0 -0.45555437223955858 -0.42914059360647611 0 -0.48101336032419229 -0.41069999664450008 0 -0.46202672064839212 -0.40007602488395211 0 -0.45555437223955858 -0.42914059360647611 0 -0.44727608925983742 -0.41095911152778891 0 -0.43867285131603428 -0.4271457417558665 0 -0.43676601469929588 -0.41441201227470881 0 -0.44727608925983742 -0.41095911152778891 0 -0.43676601469929588 -0.41441201227470881 0 -0.43479358559901082 -0.4041454901736512 0 -0.45555437223955858 -0.42914059360647611 0 -0.44727608925983742 -0.41095911152778891 0 -0.43867285131603428 -0.4271457417558665 0 -0.43867285131603428 -0.4271457417558665 0 -0.42681803064840879 -0.42717069814352421 0 -0.4263356171060747 -0.44269880333887462 0 -0.42681803064840879 -0.42717069814352421 0 -0.41531815884496182 -0.42985383783075998 0 -0.4263356171060747 -0.44269880333887462 0 -0.42681803064840879 -0.42717069814352421 0 -0.42624289495594048 -0.42089725947505818 0 -0.42083332353326591 -0.42146747131641099 0 -0.42681803064840879 -0.42717069814352421 0 -0.43096994786351572 -0.41951492446283251 0 -0.42624289495594048 -0.42089725947505818 0 -0.43867285131603428 -0.4271457417558665 0 -0.42681803064840879 -0.42717069814352421 0 -0.43096994786351572 -0.41951492446283251 0 -0.43867285131603428 -0.4271457417558665 0 -0.43676601469929588 -0.41441201227470881 0 -0.43096994786351572 -0.41951492446283251 0 -0.43676601469929588 -0.41441201227470881 0 -0.43096994786351572 -0.41951492446283251 0 -0.42907264086257813 -0.41311715872526122 0 -0.43676601469929588 -0.41441201227470881 0 -0.42907264086257813 -0.41311715872526122 0 -0.43479358559901082 -0.4041454901736512 0 -0.42907264086257813 -0.41311715872526122 0 -0.43479358559901082 -0.4041454901736512 0 -0.42460885511582858 -0.40417321677700252 0 -0.42907264086257813 -0.41311715872526122 0 -0.41997834854398469 -0.41180534796019508 0 -0.42907264086257813 -0.41311715872526122 0 -0.42635027777857132 -0.41543594397746519 0 -0.41997834854398469 -0.41180534796019508 0 -0.42907264086257813 -0.41311715872526122 0 -0.41997834854398469 -0.41180534796019508 0 -0.42460885511582858 -0.40417321677700252 0 -0.42635027777857132 -0.41543594397746519 0 -0.41997834854398469 -0.41180534796019508 0 -0.42635027777857132 -0.41543594397746519 0 -0.42083332353326591 -0.42146747131641099 0 -0.41997834854398469 -0.41180534796019508 0 -0.43096994786351572 -0.41951492446283251 0 -0.42624289495594048 -0.42089725947505818 0 -0.42635027777857132 -0.41543594397746519 0 -0.43096994786351572 -0.41951492446283251 0 -0.42907264086257813 -0.41311715872526122 0 -0.42635027777857132 -0.41543594397746519 0 -0.42624289495594048 -0.42089725947505818 0 -0.42635027777857132 -0.41543594397746519 0 -0.42083332353326591 -0.42146747131641099 0 -0.42083332353326591 -0.42146747131641099 0 -0.41997834854398469 -0.41180534796019508 0 -0.40992282953163789 -0.42011435591993562 0 -0.41997834854398469 -0.41180534796019508 0 -0.39756877647335259 -0.40857286797681719 0 -0.41997834854398469 -0.41180534796019508 0 -0.40992282953163789 -0.42011435591993562 0 -0.39756877647335259 -0.40857286797681719 0 -0.40992282953163789 -0.42011435591993562 0 -0.41531815884496182 -0.42985383783075998 0 -0.39591554026262499 -0.42887225451549271 0 -0.41531815884496182 -0.42985383783075998 0 -0.39591554026262499 -0.42887225451549271 0 -0.41160927495564159 -0.44339431233754628 0 -0.42083332353326591 -0.42146747131641099 0 -0.40992282953163789 -0.42011435591993562 0 -0.41531815884496182 -0.42985383783075998 0 -0.42681803064840879 -0.42717069814352421 0 -0.42083332353326591 -0.42146747131641099 0 -0.41531815884496182 -0.42985383783075998 0 -0.44257020456291563 -0.38918913383950271 0 -0.42311368847744002 -0.37830224279505142 0 -0.42594061475171041 -0.39368797999533162 0 -0.44257020456291563 -0.38918913383950271 0 -0.42311368847744002 -0.37830224279505142 0 -0.44172858264042247 -0.37082207246888088 0 -0.44257020456291563 -0.38918913383950271 0 -0.42311368847744002 -0.37830224279505142 0 -0.42311368847744002 -0.37830224279505142 0 -0.42594061475171041 -0.39368797999533162 0 -0.416587075656149 -0.38785930376960043 0 -0.44257020456291563 -0.38918913383950271 0 -0.42594061475171041 -0.39368797999533162 0 -0.43479358559901082 -0.4041454901736512 0 -0.42594061475171041 -0.39368797999533162 0 -0.43479358559901082 -0.4041454901736512 0 -0.42460885511582858 -0.40417321677700252 0 -0.41997834854398469 -0.41180534796019508 0 -0.41325908582185972 -0.39811010703057192 0 -0.39770572831670092 -0.39911486077581648 0 -0.41997834854398469 -0.41180534796019508 0 -0.39770572831670092 -0.39911486077581648 0 -0.42594061475171041 -0.39368797999533162 0 -0.42460885511582858 -0.40417321677700252 0 -0.41325908582185972 -0.39811010703057192 0 -0.41997834854398469 -0.41180534796019508 0 -0.42460885511582858 -0.40417321677700252 0 -0.41325908582185972 -0.39811010703057192 0 -0.42594061475171041 -0.39368797999533162 0 -0.41325908582185972 -0.39811010703057192 0 -0.416587075656149 -0.38785930376960043 0 -0.41325908582185972 -0.39811010703057192 0 -0.416587075656149 -0.38785930376960043 0 -0.40403491357358612 -0.38133688525744702 0 -0.42311368847744002 -0.37830224279505142 0 -0.40403491357358612 -0.38133688525744702 0 -0.40365717239196519 -0.36741535175059892 0 -0.42311368847744002 -0.37830224279505142 0 -0.416587075656149 -0.38785930376960043 0 -0.40403491357358612 -0.38133688525744702 0 -0.40403491357358612 -0.38133688525744702 0 -0.39190790742475001 -0.38540387676521748 0 -0.39770572831670092 -0.39911486077581648 0 -0.40403491357358612 -0.38133688525744702 0 -0.39190790742475001 -0.38540387676521748 0 -0.3904578797192948 -0.37473938743617019 0 -0.41325908582185972 -0.39811010703057192 0 -0.40403491357358612 -0.38133688525744702 0 -0.39770572831670092 -0.39911486077581648 0 -0.39770572831670092 -0.39911486077581648 0 -0.37543310808941849 -0.38642437359143528 0 -0.39770572831670092 -0.39911486077581648 0 -0.37515920440272033 -0.40534038799344108 0 -0.37543310808941849 -0.38642437359143528 0 -0.39770572831670092 -0.39911486077581648 0 -0.37515920440272033 -0.40534038799344108 0 -0.39756877647335259 -0.40857286797681719
[...]
<PointData Scalars="" Vectors="displacement," Tensors="">
<DataArray type="Float64" Name="displacement" NumberOfComponents="3" format="ascii">
0.084993002853961122 6.4927581122069433e-07 0 0.082848564256858881 0.00042998946156601607 0 0.084994310546057036 1.7977183597787928e-06 0 0.084993002853961122 6.4927581122069433e-07 0 0.081278504283363986 0.00028443836200210562 0 0.082848564256858881 0.00042998946156601607 0 0.084993002853961122 6.4927581122069433e-07 0 0.081278504283363986 0.00028443836200210562 0 0.076267367537634231 6.2423791318943128e-07 0 0.081278504283363986 0.00028443836200210562 0 0.076267367537634231 6.2423791318943128e-07 0 0.079761224736621922 -0.00020625259067011384 0 0.076267367537634231 6.2423791318943128e-07 0 0.079761224736621922 -0.00020625259067011384 0 0.075790953534012051 0.00016287633169402745 0 0.080555315726392893 -0.0005504382477070286 0 0.08096416650248113 -0.0005582459685561827 0 0.079761224736621922 -0.00020625259067011384 0 0.078269795694199257 -0.0008678789506533066 0 0.07813470081064551 -0.00028161366901662449 0 0.079761224736621922 -0.00020625259067011384 0 0.07813470081064551 -0.00028161366901662449 0 0.078277710075575269 -2.7434484286014281e-05 0 0.081278504283363986 0.00028443836200210562 0 0.079761224736621922 -0.00020625259067011384 0 0.082848564256858881 0.00042998946156601607 0 0.079761224736621922 -0.00020625259067011384 0 0.082848564256858881 0.00042998946156601607 0 0.083648765843466269 -0.00066247789703711426 0 0.082848564256858881 0.00042998946156601607 0 0.084721435546850715 6.7676950571962771e-05 0 0.083648765843466269 -0.00066247789703711426 0 0.082848564256858881 0.00042998946156601607 0 0.084994310546057036 1.7977183597787928e-06 0 0.084721435546850715 6.7676950571962771e-05 0 0.084999997031630331 -2.4978941048990297e-10 0 0.084996312973083174 1.0569057588455647e-06 0 0.084999995529220412 1.3538280311492185e-09 0 0.084997305490907643 -1.0747330000849836e-06 0 0.083669608918940833 -0.00034995376007345699 0 0.084999995529220412 1.3538280311492185e-09 0 0.084995628056433528 1.9522612323122209e-06 0 0.084998165441747014 3.2670411385159394e-06 0 0.084999995529220412 1.3538280311492185e-09 0 0.084999992532044308 4.937584642548566e-09 0 0.084998165441747014 3.2670411385159394e-06 0 0.084996312973083174 1.0569057588455647e-06 0 0.084999995529220412 1.3538280311492185e-09 0 0.084995628056433528 1.9522612323122209e-06 0 0.084996312973083174 1.0569057588455647e-06 0 0.084995628056433528 1.9522612323122209e-06 0 0.084990874427854871 1.4524495676113367e-06 0 0.083669608918940833 -0.00034995376007345699 0 0.08162448495560283 -0.00044099203691880349 0 0.084995628056433528 1.9522612323122209e-06 0 0.084994565387288487 2.1051693390705706e-06 0 0.084990874427854871 1.4524495676113367e-06 0 0.084995628056433528 1.9522612323122209e-06 0 0.084994565387288487 2.1051693390705706e-06 0 0.084998165441747014 3.2670411385159394e-06 0 0.08288835082949006 -0.00019404360140649096 0 0.08162448495560283 -0.00044099203691880349 0 0.081062962039572625 -0.00037988024584226698 0 0.080583667444734802 -0.00094483023671682574 0 0.079902257398241014 -0.00066799290883392387 0 0.081062962039572625 -0.00037988024584226698 0 0.080583667444734802 -0.00094483023671682574 0 0.081193213774859066 -0.0010811492364691041 0 0.080583667444734802 -0.00094483023671682574 0 0.079902257398241014 -0.00066799290883392387 0 0.080457480310777055 -0.0016422083747490517 0 0.077481973458776374 -0.0010216386428402496 0 0.077180311031477891 -0.00052500914339742154 0 0.077773967257442803 -0.00061583388985041621 0 0.08162448495560283 -0.00044099203691880349 0 0.079421576297311863 -0.0010104590622619467 0 0.077180311031477891 -0.00052500914339742154 0 0.077773967257442803 -0.00061583388985041621 0 0.077604293018660106 -0.00031142265748518544 0 0.080457480310777055 -0.0016422083747490517 0 0.081193213774859066 -0.0010811492364691041 0 0.081378109896107442 -0.0016868505866180438 0 0.080583667444734802 -0.00094483023671682574 0 0.080457480310777055 -0.0016422083747490517 0 0.081193213774859066 -0.0010811492364691041 0 0.077481973458776374 -0.0010216386428402496 0 0.078269795694199257 -0.0008678789506533066 0 0.077773967257442803 -0.00061583388985041621 0 0.08162448495560283 -0.00044099203691880349 0 0.08096416650248113 -0.0005582459685561827 0 0.084721435546850715 6.7676950571962771e-05 0 0.085019932167817655 -0.000590381728851453 0 0.083648765843466269 -0.00066247789703711426 0 0.077773967257442803 -0.00061583388985041621 0 0.07813470081064551 -0.00028161366901662449 0 0.07789442928330334 -0.00033785880597883328 0 0.077773967257442803 -0.00061583388985041621 0 0.07789442928330334 -0.00033785880597883328 0 0.077604293018660106 -0.00031142265748518544 0 0.078269795694199257 -0.0008678789506533066 0 0.077773967257442803 -0.00061583388985041621 0 0.07813470081064551 -0.00028161366901662449 0 0.07813470081064551 -0.00028161366901662449 0 0.078132926648994988 -0.00016609660836993864 0 0.078277710075575269 -2.7434484286014281e-05 0 0.078132926648994988 -0.00016609660836993864 0 0.078149234326137448 -0.00026699620144544391 0 0.078277710075575269 -2.7434484286014281e-05 0 0.078132926648994988 -0.00016609660836993864 0 0.078065964795535611 -0.00017765608222021376 0 0.07809010413776124 -0.00020372760610053647 0 0.078132926648994988 -0.00016609660836993864 0 0.078031257020835673 -0.00021555301741854577 0 0.078065964795535611 -0.00017765608222021376 0 0.07813470081064551 -0.00028161366901662449 0 0.078132926648994988 -0.00016609660836993864 0 0.078031257020835673 -0.00021555301741854577 0 0.07813470081064551 -0.00028161366901662449 0 0.07789442928330334 -0.00033785880597883328 0 0.078031257020835673 -0.00021555301741854577 0 0.07789442928330334 -0.00033785880597883328 0 0.078031257020835673 -0.00021555301741854577 0 0.077907313449827015 -0.00018364040876795394 0 0.07789442928330334 -0.00033785880597883328 0 0.077907313449827015 -0.00018364040876795394 0 0.077604293018660106 -0.00031142265748518544 0 0.077907313449827015 -0.00018364040876795394 0 0.077604293018660106 -0.00031142265748518544 0 0.077601462220421302 -2.6271495484440962e-05 0 0.069965168215718285 -0.0020769430043839359 0 0.069705853364603346 -0.0022251063541261639 0 0.077907313449827015 -0.00018364040876795394 0 0.078004478676306985 -0.00014780573805574823 0 0.0779230233176436 -7.8952695678377307e-06 0 0.077907313449827015 -0.00018364040876795394 0 0.077839640485183423 0.00011375140640584005 0 0.077601462220421302 -2.6271495484440962e-05 0 0.069952154705261851 -0.0023040539466284886 0 0.069705853364603346 -0.0022251063541261639 0 0.078004478676306985 -0.00014780573805574823 0 0.07809010413776124 -0.00020372760610053647 0 0.07810405179046731 -0.00021479415972591072 0 0.078031257020835673 -0.00021555301741854577 0 0.078065964795535611 -0.00017765608222021376 0 0.078004478676306985 -0.00014780573805574823 0 0.078031257020835673 -0.00021555301741854577 0 0.077907313449827015 -0.00018364040876795394 0 0.078004478676306985 -0.00014780573805574823 0 0.078065964795535611 -0.00017765608222021376 0 0.078004478676306985 -0.00014780573805574823 0 0.07809010413776124 -0.00020372760610053647 0 0.07809010413776124 -0.00020372760610053647 0 0.07810405179046731 -0.00021479415972591072 0 0.078107970475904245 -0.00027723797620995738 0 0.069705853364603346 -0.0022251063541261639 0 0.067849522048239755 -0.0017892014155304311 0 0.07810405179046731 -0.00021479415972591072 0 0.078107970475904245 -0.00027723797620995738 0 0.078132499259457505 -0.00034744225627979643 0 0.078107970475904245 -0.00027723797620995738 0 0.078149234326137448 -0.00026699620144544391 0 0.078081553062373771 -0.00036851784739685707 0 0.078149234326137448 -0.00026699620144544391 0 0.078081553062373771 -0.00036851784739685707 0 0.078105213038243762 -0.0004318034785332912 0 0.07809010413776124 -0.00020372760610053647 0 0.078107970475904245 -0.00027723797620995738 0 0.078149234326137448 -0.00026699620144544391 0 0.078132926648994988 -0.00016609660836993864 0 0.07809010413776124 -0.00020372760610053647 0 0.078149234326137448 -0.00026699620144544391 0 0.077180311031477891 -0.00052500914339742154 0 0.076805659595421877 1.6292641112164577e-05 0 0.077282640279398157 -6.2774203238866579e-05 0 0.080457480310777055 -0.0016422083747490517 0 0.08100695090630472 -0.0025807134047043773 0 0.081378109896107442 -0.0016868505866180438 0 0.079421576297311863 -0.0010104590622619467 0 0.077698272306840302 -0.0019450371242020451 0 0.076805659595421877 1.6292641112164577e-05 0 0.077282640279398157 -6.2774203238866579e-05 0 0.077087141137937881 0.00021103574692988246 0 0.077180311031477891 -0.00052500914339742154 0 0.077282640279398157 -6.2774203238866579e-05 0 0.077604293018660106 -0.00031142265748518544 0 0.077282640279398157 -6.2774203238866579e-05 0 0.077604293018660106 -0.00031142265748518544 0 0.077601462220421302 -2.6271495484440962e-05 0 0.077839640485183423 0.00011375140640584005 0 0.077404347041172258 0.00031411103535908816 0 0.077425850328094237 0.0007949011785181023 0 0.069705853364603346 -0.0022251063541261639 0 0.068055118774983395 -0.0025391669004697554 0 0.077282640279398157 -6.2774203238866579e-05 0 0.077601462220421302 -2.6271495484440962e-05 0 0.077404347041172258 0.00031411103535908816 0 0.077839640485183423 0.00011375140640584005 0 0.077601462220421302 -2.6271495484440962e-05 0 0.077404347041172258 0.00031411103535908816 0 0.077282640279398157 -6.2774203238866579e-05 0 0.077404347041172258 0.00031411103535908816 0 0.077087141137937881 0.00021103574692988246 0 0.077404347041172258 0.00031411103535908816 0 0.077087141137937881 0.00021103574692988246 0 0.076857563666774306 0.00058008799874818893 0 0.076805659595421877 1.6292641112164577e-05 0 0.076857563666774306 0.00058008799874818893 0 0.076454314950998456 0.00058536858762438324 0 0.076805659595421877 1.6292641112164577e-05 0 0.077087141137937881 0.00021103574692988246 0 0.076857563666774306 0.00058008799874818893 0 0.076857563666774306 0.00058008799874818893 0 0.07696735334793206 0.00099335838755973752 0 0.077425850328094237 0.0007949011785181023 0 0.076857563666774306 0.00058008799874818893 0 0.07696735334793206 0.00099335838755973752 0 0.076593350836701796 0.0010442410029808758 0 0.077404347041172258 0.00031411103535908816 0 0.076857563666774306 0.00058008799874818893 0 0.077425850328094237 0.0007949011785181023 0 0.068055118774983395 -0.0025391669004697554 0 0.063702798115846379 -0.0030598876947352392 0 0.066429328288141229 -0.0022985759751513284 0 0.066631921897155985 -0.0015399237860542286 0 0.065994219487041567 -0.0015502864908258653 0 0.066429328288141229 -0.0022985759751513284 0 0.066631921897155985 -0.0015399237860542286 0 0.066748621549591644 -0.0022934961147368198 0 0.063926216956494739 -0.0012304172083972614 0 0.063702798115846379 -0.0030598876947352392 0 0.076986415738378319 0.0015611457515908472 0 0.076593350836701796 0.0010442410029808758 0 0.076379923890826568 0.0015635537956362967 0 0.07696735334793206 0.00099335838755973752 0 0.076986415738378319 0.0015611457515908472 0 0.076593350836701796 0.0010442410029808758 0 0.063702798115846379 -0.0030598876947352392 0 0.06737875485582763 -0.002888267885793478 0 0.07696735334793206 0.00099335838755973752 0 0.077425850328094237 0.0007949011785181023 0 0.076986415738378319 0.0015611457515908472 0 0.066868826308735183 -0.0030456431977703298 0 0.066429328288141229 -0.0022985759751513284 0 0.066748621549591644 -0.0022934961147368198 0 0.078107970475904245 -0.00027723797620995738 0 0.078081553062373771 -0.00036851784739685707 0 0.078132499259457505 -0.00034744225627979643 0 0.078107301283490624 -0.00041410799105784477 0 0.078081553062373771 -0.00036851784739685707 0 0.078132499259457505 -0.00034744225627979643 0 0.063926216956494739 -0.0012304172083972614 0 0.067849522048239755 -0.0017892014155304311 0 0.078107301283490624 -0.00041410799105784477 0 0.078081553062373771 -0.00036851784739685707 0 0.078054328073650564 -0.00041895958963110658 0 0.078081553062373771 -0.00036851784739685707 0 0.078060926517715887 -0.00039682290589515817 0 0.078054328073650564 -0.00041895958963110658 0 0.078060926517715887 -0.00039682290589515817 0 0.077998315603576049 -0.00043296651587791435 0 0.078054328073650564 -0.00041895958963110658 0 0.078081553062373771 -0.00036851784739685707 0 0.078060926517715887 -0.00039682290589515817 0 0.078105213038243762 -0.0004318034785332912 0 0.078060926517715887 -0.00039682290589515817 0 0.078055732935816219 -0.00040327533591139747 0 0.078105213038243762 -0.0004318034785332912 0 0.076941085248140556 -0.0015019339302649198 0 0.072133393525072503 -0.0017817344910314335 0 0.075443991050012066 -0.00051609469863942933 0 0.057720755413028832 -0.0040249729399067825 0 0.058234707069934576 -0.0020711451901602564 0 0.060530355000207071 -0.0025478453633490496 0 0.068733608856344122 0.0013649869737566141 0 0.06654619437603293 0.00010592031159297029 0 0.068733608856344122 0.0013649869737566141 0 0.068756284071759835 0.0013567066113181531 0 0.068733608856344122 0.0013649869737566141 0 0.06687472672445291 -0.00043317172838441744 0 0.078060926517715887 -0.00039682290589515817 0 0.078055732935816219 -0.00040327533591139747 0 0.078024000248051853 -0.00040669827504043209 0 0.078060926517715887 -0.00039682290589515817 0 0.078024000248051853 -0.00040669827504043209 0 0.077998315603576049 -0.00043296651587791435 0 0.06687472672445291 -0.00043317172838441744 0 0.064849478831313784 -0.0017842925104809158 0 0.058234707069934576 -0.0020711451901602564 0 0.05956397539911916 -0.0013525006461537169 0 0.058754696087858452 -6.7167764547144048e-05 0 0.05956397539911916 -0.0013525006461537169 0 0.060530355000207071 -0.0025478453633490496 0 0.060325369350345139 -1.8659633510570702e-05 0 0.060530355000207071 -0.0025478453633490496 0 0.062003930108422069 0.00030780105843946265 0 0.060325369350345139 -1.8659633510570702e-05 0 0.05956397539911916 -0.0013525006461537169 0 0.060325369350345139 -1.8659633510570702e-05 0 0.058754696087858452 -6.7167764547144048e-05 0 0.058234707069934576 -0.0020711451901602564 0 0.05956397539911916 -0.0013525006461537169 0 0.060530355000207071 -0.0025478453633490496 0 0.064764077108637949 -4.6365517751595179e-07 0 0.06654619437603293 0.00010592031159297029 0 0.064753842230640207 -4.3531891621544975e-06 0 0.060530355000207071 -0.0025478453633490496 0 0.062003930108422069 0.00030780105843946265 0 0.06476936022361221 -6.867452968889706e-06 0 0.072133393525072503 -0.0017817344910314335 0 0.069696934701216837 1.2314086182545089e-06 0 0.072133393525072503 -0.0017817344910314335 0 0.075443991050012066 -0.00051609469863942933 0 0.069696934701216837 1.2314086182545089e-06 0 0.075443991050012066 -0.00051609469863942933 0 0.069696934701216837 1.2314086182545089e-06 0 0.075790953534012051 0.00016287633169402745 0 0.076267367537634231 6.2423791318943128e-07 0 0.069696934701216837 1.2314086182545089e-06 0 0.075790953534012051 0.00016287633169402745 0 0.075443991050012066 -0.00051609469863942933 0 0.075790953534012051 0.00016287633169402745 0 0.077551131105043358 -6.1951867088004577e-05 0 0.079761224736621922 -0.00020625259067011384 0 0.075790953534012051 0.00016287633169402745 0 0.077551131105043358 -6.1951867088004577e-05 0 0.079761224736621922 -0.00020625259067011384 0 0.077551131105043358 -6.1951867088004577e-05 0 0.078277710075575269 -2.7434484286014281e-05 0 0.077551131105043358 -6.1951867088004577e-05 0 0.078277710075575269 -2.7434484286014281e-05 0 0.077563990400590893 -0.00034206598414093586 0 0.078277710075575269 -2.7434484286014281e-05 0 0.078105213038243762 -0.0004318034785332912 0 0.077563990400590893 -0.00034206598414093586 0 0.078149234326137448 -0.00026699620144544391 0 0.078277710075575269 -2.7434484286014281e-05 0 0.078105213038243762 -0.0004318034785332912 0 0.077039969584802109 -0.0014288391311298276 0 0.078105213038243762 -0.0004318034785332912 0 0.07708720319947969 -0.0011810551215856266 0 0.078105213038243762 -0.0004318034785332912 0 0.07708720319947969 -0.0011810551215856266 0 0.077563990400590893 -0.00034206598414093586 0 0.068733608856344122 0.0013649869737566141 0 0.071000439523141431 0.001923633712897177 0 0.075443991050012066 -0.00051609469863942933 0 0.07708720319947969 -0.0011810551215856266 0 0.077563990400590893 -0.00034206598414093586 0 0.076941085248140556 -0.0015019339302649198 0 0.075443991050012066 -0.00051609469863942933 0 0.07708720319947969 -0.0011810551215856266 0 0.075443991050012066 -0.00051609469863942933 0 0.077551131105043358 -6.1951867088004577e-05 0 0.077563990400590893 -0.00034206598414093586 0 0.077966703715221117 -0.00083054381038774204 0 0.074053932564506236 -0.0030921446866549341 0 0.084467026956300581 0.0010061089893598524 0 0.084594732305161804 0.0040624613282355306 0 0.082968458077195897 0.0016056968886164519 0 0.08484001580443834 -0.00027064212448209892 0 0.08490496830070289 -0.0002056264159074556 0 0.084917534693293412 -0.00035770003245450552 0 0.08484001580443834 -0.00027064212448209892 0 0.084824926989139821 -0.00039839724826915875 0 0.084917534693293412 -0.00035770003245450552 0 0.08484001580443834 -0.00027064212448209892 0 0.084754903981641996 -0.00038594743525925614 0 0.084824926989139821 -0.00039839724826915875 0 0.08484001580443834 -0.00027064212448209892 0 0.084853851278720721 -0.00014156768383846624 0 0.08486101424011544 -0.00013324382496825805 0 0.08484001580443834 -0.00027064212448209892 0 0.084853851278720721 -0.00014156768383846624 0 0.08490496830070289 -0.0002056264159074556 0 0.077966703715221117 -0.00083054381038774204 0 0.079142131685003267 -0.00061094154755921676 0 0.084853851278720721 -0.00014156768383846624 0 0.08490496830070289 -0.0002056264159074556 0 0.084742688884202347 -0.00012510642584677857 0 0.084467026956300581 0.0010061089893598524 0 0.084742688884202347 -0.00012510642584677857 0 0.083130260801233077 -6.6083566677426728e-05 0 0.084742688884202347 -0.00012510642584677857 0 0.084999797387251705 -2.7704141227635841e-07 0 0.084900574169730805 -8.1724107341955005e-05 0 0.084742688884202347 -0.00012510642584677857 0 0.084999797387251705 -2.7704141227635841e-07 0 0.084285023130900263 -0.00016571711020940609 0 0.084999797387251705 -2.7704141227635841e-07 0 0.084900574169730805 -8.1724107341955005e-05 0 0.084999819595236545 1.6581493660738913e-08 0 0.084853851278720721 -0.00014156768383846624 0 0.084742688884202347 -0.00012510642584677857 0 0.084900574169730805 -8.1724107341955005e-05 0 0.084853851278720721 -0.00014156768383846624 0 0.084900574169730805 -8.1724107341955005e-05 0 0.08486101424011544 -0.00013324382496825805 0 0.08486101424011544 -0.00013324382496825805 0 0.084908496587328783 -2.1998918742172599e-05 0 0.084822162952398097 -0.00010104193305837649 0 0.084900574169730805 -8.1724107341955005e-05 0 0.08486101424011544 -0.00013324382496825805 0 0.084908496587328783 -2.1998918742172599e-05 0 0.084999819595236545 1.6581493660738913e-08 0 0.084908496587328783 -2.1998918742172599e-05 0 0.084999814213635061 -2.3176923568178919e-08 0 0.084900574169730805 -8.1724107341955005e-05 0 0.084999819595236545 1.6581493660738913e-08 0 0.084908496587328783 -2.1998918742172599e-05 0 0.084908496587328783 -2.1998918742172599e-05 0 0.084999814213635061 -2.3176923568178919e-08 0 0.084864088293963441 2.7217917681954617e-05 0 0.084864088293963441 2.7217917681954617e-05 0 0.084822162952398097 -0.00010104193305837649 0 0.084600195965064795 -8.5654772678186154e-05 0 0.084908496587328783 -2.1998918742172599e-05 0 0.084864088293963441 2.7217917681954617e-05 0 0.084822162952398097 -0.00010104193305837649 0 0.084822162952398097 -0.00010104193305837649 0 0.084665630898245775 -0.00023965966792737059 0 0.084600195965064795 -8.5654772678186154e-05 0 0.084665630898245775 -0.00023965966792737059 0 0.084653196059404287 -0.00037079601499039803 0 0.084527552350885243 -0.00036044924793292754 0 0.084665630898245775 -0.00023965966792737059 0 0.084785107366648224 -0.00024846284407407476 0 0.084653196059404287 -0.00037079601499039803 0 0.084822162952398097 -0.00010104193305837649 0 0.084665630898245775