<?xml version="1.0"?>
<VTKFile type="UnstructuredGrid" version="0.1" byte_order="LittleEndian">
<UnstructuredGrid>
<Piece NumberOfPoints="30957" NumberOfCells="10847">
<Points>
<DataArray type="Float64" NumberOfComponents="3" format="ascii">
-0.5 -0.5 0 -0.47120411738687817 -0.46389436250812971 0 -0.5 -0.43325734090004919 0 -0.5 -0.5 0 -0.46177944143722638 -0.5 0 -0.47120411738687817 -0.46389436250812971 0 -0.46177944143722638 -0.5 0 -0.44050651558103499 -0.47948761799458511 0 -0.47120411738687817 -0.46389436250812971 0 -0.45149654745744422 -0.43840233748464441 0 -0.47120411738687817 -0.46389436250812971 0 -0.46954456837491049 -0.42604858596389189 0 -0.45149654745744422 -0.43840233748464441 0 -0.4453150137602524 -0.45857218635572561 0 -0.43493249183805671 -0.44556966440005252 0 -0.44050651558103499 -0.47948761799458511 0 -0.4453150137602524 -0.45857218635572561 0 -0.4278319662168889 -0.46381336530289891 0 -0.44050651558103499 -0.47948761799458511 0 -0.4453150137602524 -0.45857218635572561 0 -0.47120411738687817 -0.46389436250812971 0 -0.45149654745744422 -0.43840233748464441 0 -0.4453150137602524 -0.45857218635572561 0 -0.47120411738687817 -0.46389436250812971 0 -0.47120411738687817 -0.46389436250812971 0 -0.5 -0.43325734090004919 0 -0.46954456837491049 -0.42604858596389189 0 -0.5 -0.43325734090004919 0 -0.47563538822490697 -0.41015817923674608 0 -0.48539331281604148 -0.39697119748621679 0 -0.5 -0.43325734090004919 0 -0.50000000000000444 -0.39051894366396339 0 -0.48539331281604148 -0.39697119748621679 0 -0.47563538822490697 -0.41015817923674608 0 -0.46954456837491049 -0.42604858596389189 0 -0.4619895481942633 -0.41107813452837799 0 -0.5 -0.43325734090004919 0 -0.47563538822490697 -0.41015817923674608 0 -0.46954456837491049 -0.42604858596389189 0 -0.50000000000000444 -0.39051894366396339 0 -0.48402855742399947 -0.3794190986461683 0 -0.48580530174085379 -0.36314921555540491 0 -0.50000000000000444 -0.39051894366396339 0 -0.48402855742399947 -0.3794190986461683 0 -0.50000000000000444 -0.39051894366396339 0 -0.48539331281604148 -0.39697119748621679 0 -0.48402855742399947 -0.3794190986461683 0 -0.47563538822490697 -0.41015817923674608 0 -0.47429419340057288 -0.39385245732894941 0 -0.46435106755713562 -0.39908871881395941 0 -0.47563538822490697 -0.41015817923674608 0 -0.48539331281604148 -0.39697119748621679 0 -0.47429419340057288 -0.39385245732894941 0 -0.48539331281604148 -0.39697119748621679 0 -0.47429419340057288 -0.39385245732894941 0 -0.47699880945166562 -0.38264522555729508 0 -0.47699880945166562 -0.38264522555729508 0 -0.46695218096338992 -0.38602373059370892 0 -0.46860430608728992 -0.36831925362837331 0 -0.48539331281604148 -0.39697119748621679 0 -0.47699880945166562 -0.38264522555729508 0 -0.48402855742399947 -0.3794190986461683 0 -0.48539331281604148 -0.39697119748621679 0 -0.47699880945166562 -0.38264522555729508 0 -0.47429419340057288 -0.39385245732894941 0 -0.47699880945166562 -0.38264522555729508 0 -0.46695218096338992 -0.38602373059370892 0 -0.47699880945166562 -0.38264522555729508 0 -0.46860430608728992 -0.36831925362837331 0 -0.47699880945166562 -0.38264522555729508 0 -0.48402855742399947 -0.3794190986461683 0 -0.46860430608728992 -0.36831925362837331 0 -0.45895008840711038 -0.37899996272486602 0 -0.46695218096338992 -0.38602373059370892 0 -0.46860430608728992 -0.36831925362837331 0 -0.45895008840711038 -0.37899996272486602 0 -0.45509873572632148 -0.3906280966051478 0 -0.44708215082180353 -0.38141274682380227 0 -0.45895008840711038 -0.37899996272486602 0 -0.46695218096338992 -0.38602373059370892 0 -0.45509873572632148 -0.3906280966051478 0 -0.45509873572632148 -0.3906280966051478 0 -0.46435106755713562 -0.39908871881395941 0 -0.44941999832388368 -0.40282973196011979 0 -0.47429419340057288 -0.39385245732894941 0 -0.46695218096338992 -0.38602373059370892 0 -0.46435106755713562 -0.39908871881395941 0 -0.46695218096338992 -0.38602373059370892 0 -0.45509873572632148 -0.3906280966051478 0 -0.46435106755713562 -0.39908871881395941 0 -0.46435106755713562 -0.39908871881395941 0 -0.44941999832388368 -0.40282973196011979 0 -0.4619895481942633 -0.41107813452837799 0 -0.44941999832388368 -0.40282973196011979 0 -0.43576489374223909 -0.40959267010010342 0 -0.43524500729050258 -0.39805954013448858 0 -0.44941999832388368 -0.40282973196011979 0 -0.44455255681338252 -0.39203513629979042 0 -0.43524500729050258 -0.39805954013448858 0 -0.45509873572632148 -0.3906280966051478 0 -0.44941999832388368 -0.40282973196011979 0 -0.44455255681338252 -0.39203513629979042 0 -0.45509873572632148 -0.3906280966051478 0 -0.44455255681338252 -0.39203513629979042 0 -0.44708215082180353 -0.38141274682380227 0 -0.44455255681338252 -0.39203513629979042 0 -0.44708215082180353 -0.38141274682380227 0 -0.43192883359269207 -0.3836277700427263 0 -0.44708215082180353 -0.38141274682380227 0 -0.43192883359269207 -0.3836277700427263 0 -0.44116542271728693 -0.37238627884632453 0 -0.45895008840711038 -0.37899996272486602 0 -0.44708215082180353 -0.38141274682380227 0 -0.45109544622768433 -0.36939150625119282 0 -0.45149654745744422 -0.43840233748464441 0 -0.46954456837491049 -0.42604858596389189 0 -0.45099671849047979 -0.41726545666717257 0 -0.46954456837491049 -0.42604858596389189 0 -0.4619895481942633 -0.41107813452837799 0 -0.45099671849047979 -0.41726545666717257 0 -0.47563538822490697 -0.41015817923674608 0 -0.46435106755713562 -0.39908871881395941 0 -0.4619895481942633 -0.41107813452837799 0 -0.44941999832388368 -0.40282973196011979 0 -0.4619895481942633 -0.41107813452837799 0 -0.45099671849047979 -0.41726545666717257 0 -0.44941999832388368 -0.40282973196011979 0 -0.45099671849047979 -0.41726545666717257 0 -0.43576489374223909 -0.40959267010010342 0 -0.45099671849047979 -0.41726545666717257 0 -0.44137699127042912 -0.42157624685835932 0 -0.43576489374223909 -0.40959267010010342 0 -0.45149654745744422 -0.43840233748464441 0 -0.44137699127042912 -0.42157624685835932 0 -0.42724980539155338 -0.42104452318151703 0 -0.45149654745744422 -0.43840233748464441 0 -0.42724980539155338 -0.42104452318151703 0 -0.45149654745744422 -0.43840233748464441 0 -0.45099671849047979 -0.41726545666717257 0 -0.44137699127042912 -0.42157624685835932 0 -0.45149654745744422 -0.43840233748464441 0 -0.42724980539155338 -0.42104452318151703 0 -0.43493249183805671 -0.44556966440005252 0 -0.42724980539155338 -0.42104452318151703 0 -0.43493249183805671 -0.44556966440005252 0 -0.41987266082354152 -0.43788670605155328 0 -0.44137699127042912 -0.42157624685835932 0 -0.43576489374223909 -0.40959267010010342 0 -0.42724980539155338 -0.42104452318151703 0 -0.43576489374223909 -0.40959267010010342 0 -0.42226149214261299 -0.40824650230207649 0 -0.42724980539155338 -0.42104452318151703 0 -0.42724980539155338 -0.42104452318151703 0 -0.41616810128903081 -0.4198767747784925 0 -0.40300306332566282 -0.40368670887838948 0 -0.42724980539155338 -0.42104452318151703 0 -0.40300306332566282 -0.40368670887838948 0 -0.42226149214261299 -0.40824650230207649 0 -0.42724980539155338 -0.42104452318151703 0 -0.40300306332566282 -0.40368670887838948 0 -0.41616810128903081 -0.4198767747784925 0 -0.40173542240972437 -0.44090696573003518 0 -0.42724980539155338 -0.42104452318151703 0 -0.41616810128903081 -0.4198767747784925 0 -0.41987266082354152 -0.43788670605155328 0 -0.41616810128903081 -0.4198767747784925 0 -0.40173542240972437 -0.44090696573003518 0 -0.41987266082354152 -0.43788670605155328 0 -0.43192883359269207 -0.3836277700427263 0 -0.43116454123529607 -0.36800039632657078 0 -0.41939774089595178 -0.37336154924530862 0 -0.43192883359269207 -0.3836277700427263 0 -0.42302820611099679 -0.39866210704829602 0 -0.41188955365135821 -0.38606679421346468 0 -0.43192883359269207 -0.3836277700427263 0 -0.43524500729050258 -0.39805954013448858 0 -0.42302820611099679 -0.39866210704829602 0 -0.44455255681338252 -0.39203513629979042 0 -0.43192883359269207 -0.3836277700427263 0 -0.43524500729050258 -0.39805954013448858 0 -0.43576489374223909 -0.40959267010010342 0 -0.43524500729050258 -0.39805954013448858 0 -0.42302820611099679 -0.39866210704829602 0 -0.43576489374223909 -0.40959267010010342 0 -0.42226149214261299 -0.40824650230207649 0 -0.42302820611099679 -0.39866210704829602 0 -0.42302820611099679 -0.39866210704829602 0 -0.41188955365135821 -0.38606679421346468 0 -0.40300306332566282 -0.40368670887838948 0 -0.42226149214261299 -0.40824650230207649 0 -0.42302820611099679 -0.39866210704829602 0 -0.40300306332566282 -0.40368670887838948 0 -0.41188955365135821 -0.38606679421346468 0 -0.41939774089595178 -0.37336154924530862 0 -0.40364922704091771 -0.36776129256775397 0 -0.43192883359269207 -0.3836277700427263 0 -0.41188955365135821 -0.38606679421346468 0 -0.41939774089595178 -0.37336154924530862 0 -0.41188955365135821 -0.38606679421346468 0 -0.39587469151253563 -0.38233190464131589 0 -0.40364922704091771 -0.36776129256775397 0 -0.39587469151253563 -0.38233190464131589 0 -0.40300306332566282 -0.40368670887838948 0 -0.37875632125977199 -0.38632889457526193 0 -0.40300306332566282 -0.40368670887838948 0 -0.37875632125977199 -0.38632889457526193 0 -0.41188955365135821 -0.38606679421346468 0 -0.39587469151253563 -0.38233190464131589 0 -0.40300306332566282 -0.40368670887838948 0 -0.40300306332566282 -0.40368670887838948 0 -0.37875632125977199 -0.38632889457526193 0 -0.38091960801568392 -0.40885003952666221 0 -0.39587469151253563 -0.38233190464131589 0 -0.37875632125977199 -0.38632889457526193 0 -0.3820752922849675 -0.3678158329717095 0 -0.39673592147291981 -0.41989049426782382 0 -0.38313730077258279 -0.42720141671048539 0 -0.40173542240972437 -0.44090696573003518 0 -0.41616810128903081 -0.4198767747784925 0 -0.39673592147291981 -0.41989049426782382 0 -0.40173542240972437 -0.44090696573003518 0 -0.40300306332566282 -0.40368670887838948 0 -0.39673592147291981 -0.41989049426782382 0 -0.38091960801568392 -0.40885003952666221 0 -0.41616810128903081 -0.4198767747784925 0 -0.40300306332566282 -0.40368670887838948 0 -0.39673592147291981 -0.41
[...]
<PointData Scalars="" Vectors="displacement," Tensors="">
<DataArray type="Float64" Name="displacement" NumberOfComponents="3" format="ascii">
-0.034997574327286632 -5.187986484888065e-09 0 -0.033645807730394786 -0.00013941054670868702 0 -0.034997558743221413 -1.4521416398320363e-07 0 -0.034997574327286632 -5.187986484888065e-09 0 -0.032325285480048635 -1.1590404601573601e-06 0 -0.033645807730394786 -0.00013941054670868702 0 -0.032325285480048635 -1.1590404601573601e-06 0 -0.031898037222141379 -0.00015914574389357903 0 -0.033645807730394786 -0.00013941054670868702 0 -0.033149251603964841 5.4773508057297478e-05 0 -0.033645807730394786 -0.00013941054670868702 0 -0.033931243579898338 -2.6204671056328748e-06 0 -0.033149251603964841 5.4773508057297478e-05 0 -0.032700531135583591 -6.3848607255384841e-05 0 -0.032462975677539807 -1.395295885193316e-05 0 -0.031898037222141379 -0.00015914574389357903 0 -0.032700531135583591 -6.3848607255384841e-05 0 -0.032083109442410405 -3.5780188510295142e-05 0 -0.031898037222141379 -0.00015914574389357903 0 -0.032700531135583591 -6.3848607255384841e-05 0 -0.033645807730394786 -0.00013941054670868702 0 -0.033149251603964841 5.4773508057297478e-05 0 -0.032700531135583591 -6.3848607255384841e-05 0 -0.033645807730394786 -0.00013941054670868702 0 -0.033645807730394786 -0.00013941054670868702 0 -0.034997558743221413 -1.4521416398320363e-07 0 -0.033931243579898338 -2.6204671056328748e-06 0 -0.034997558743221413 -1.4521416398320363e-07 0 -0.034086975280596933 0.00013352738192592183 0 -0.034368189042423107 0.0002947238372239945 0 -0.034997558743221413 -1.4521416398320363e-07 0 -0.034998388713355283 3.857874990144265e-07 0 -0.034368189042423107 0.0002947238372239945 0 -0.034086975280596933 0.00013352738192592183 0 -0.033931243579898338 -2.6204671056328748e-06 0 -0.033662210995987797 -2.3063539155834483e-05 0 -0.034997558743221413 -1.4521416398320363e-07 0 -0.034086975280596933 0.00013352738192592183 0 -0.033931243579898338 -2.6204671056328748e-06 0 -0.035000111829476301 -2.8303284051605949e-08 0 -0.035007693514291914 -1.6525424275995876e-05 0 -0.034997519551306158 -1.4986838405515778e-05 0 -0.034939678423718076 -3.4067482365983627e-05 0 -0.035135276249851813 0.00027666810509161232 0 -0.034998388713355283 3.857874990144265e-07 0 -0.034368189042423107 0.0002947238372239945 0 -0.035011261449379376 0.00036726564998816158 0 -0.034086975280596933 0.00013352738192592183 0 -0.033652900088475178 0.00021223422362198256 0 -0.033460518927433111 1.4351740046448938e-05 0 -0.034086975280596933 0.00013352738192592183 0 -0.034368189042423107 0.0002947238372239945 0 -0.033652900088475178 0.00021223422362198256 0 -0.034368189042423107 0.0002947238372239945 0 -0.033652900088475178 0.00021223422362198256 0 -0.032890265822653732 0.00051231770748119882 0 -0.032890265822653732 0.00051231770748119882 0 -0.03295590394235158 8.6448627142706727e-05 0 -0.031991023834928384 0.00027154775768072238 0 -0.034368189042423107 0.0002947238372239945 0 -0.034896413913102463 0.00059363284053164198 0 -0.035011261449379376 0.00036726564998816158 0 -0.034188774690688498 0.0003765708121470458 0 -0.033887573352101664 0.00047733527814442037 0 -0.033652900088475178 0.00021223422362198256 0 -0.032890265822653732 0.00051231770748119882 0 -0.03295590394235158 8.6448627142706727e-05 0 -0.033887573352101664 0.00047733527814442037 0 -0.033862855881515677 0.00026867082983889876 0 -0.034896413913102463 0.00059363284053164198 0 -0.035011261449379376 0.00036726564998816158 0 -0.035306850745963743 0.00083694035478252095 0 -0.032441511988858127 -0.00011187483909088192 0 -0.03295590394235158 8.6448627142706727e-05 0 -0.031991023834928384 0.00027154775768072238 0 -0.032441511988858127 -0.00011187483909088192 0 -0.032860706565973286 -0.00019269473460403687 0 -0.032303560161025244 -0.00040850564788848904 0 -0.032441511988858127 -0.00011187483909088192 0 -0.03295590394235158 8.6448627142706727e-05 0 -0.032860706565973286 -0.00019269473460403687 0 -0.032860706565973286 -0.00019269473460403687 0 -0.033460518927433111 1.4351740046448938e-05 0 -0.033125573616624979 -0.00023778685684444582 0 -0.033652900088475178 0.00021223422362198256 0 -0.03295590394235158 8.6448627142706727e-05 0 -0.033460518927433111 1.4351740046448938e-05 0 -0.03295590394235158 8.6448627142706727e-05 0 -0.032860706565973286 -0.00019269473460403687 0 -0.033460518927433111 1.4351740046448938e-05 0 -0.033460518927433111 1.4351740046448938e-05 0 -0.033125573616624979 -0.00023778685684444582 0 -0.033662210995987797 -2.3063539155834483e-05 0 -0.033125573616624979 -0.00023778685684444582 0 -0.032989604234156839 -0.00043664697321138611 0 -0.032603236903259537 -0.00055239034441677596 0 -0.033125573616624979 -0.00023778685684444582 0 -0.032634651434986388 -0.00040267056070969926 0 -0.032603236903259537 -0.00055239034441677596 0 -0.032860706565973286 -0.00019269473460403687 0 -0.033125573616624979 -0.00023778685684444582 0 -0.032634651434986388 -0.00040267056070969926 0 -0.032860706565973286 -0.00019269473460403687 0 -0.032634651434986388 -0.00040267056070969926 0 -0.032303560161025244 -0.00040850564788848904 0 -0.032634651434986388 -0.00040267056070969926 0 -0.032303560161025244 -0.00040850564788848904 0 -0.032026003319382469 -0.00073586204813659681 0 -0.032303560161025244 -0.00040850564788848904 0 -0.032026003319382469 -0.00073586204813659681 0 -0.031862294909935522 -0.00059030212084333275 0 -0.032441511988858127 -0.00011187483909088192 0 -0.032303560161025244 -0.00040850564788848904 0 -0.031900445782091807 -0.00033398024171600273 0 -0.033149251603964841 5.4773508057297478e-05 0 -0.033931243579898338 -2.6204671056328748e-06 0 -0.033467014980097139 -0.00013190118877212534 0 -0.033931243579898338 -2.6204671056328748e-06 0 -0.033662210995987797 -2.3063539155834483e-05 0 -0.033467014980097139 -0.00013190118877212534 0 -0.034086975280596933 0.00013352738192592183 0 -0.033460518927433111 1.4351740046448938e-05 0 -0.033662210995987797 -2.3063539155834483e-05 0 -0.033125573616624979 -0.00023778685684444582 0 -0.033662210995987797 -2.3063539155834483e-05 0 -0.033467014980097139 -0.00013190118877212534 0 -0.033125573616624979 -0.00023778685684444582 0 -0.033467014980097139 -0.00013190118877212534 0 -0.032989604234156839 -0.00043664697321138611 0 -0.033467014980097139 -0.00013190118877212534 0 -0.033313760507600536 -0.00025505818950250376 0 -0.032989604234156839 -0.00043664697321138611 0 -0.033149251603964841 5.4773508057297478e-05 0 -0.033313760507600536 -0.00025505818950250376 0 -0.033333618448455546 -0.00060538197995882155 0 -0.032982149129055477 -5.0640693966577227e-06 0 -0.032054462439538717 -0.00039103072141294734 0 -0.033149251603964841 5.4773508057297478e-05 0 -0.033467014980097139 -0.00013190118877212534 0 -0.033313760507600536 -0.00025505818950250376 0 -0.033149251603964841 5.4773508057297478e-05 0 -0.030829278011479284 -2.091882600946508e-05 0 -0.032462975677539807 -1.395295885193316e-05 0 -0.030829278011479284 -2.091882600946508e-05 0 -0.032462975677539807 -1.395295885193316e-05 0 -0.03189594032550773 -0.0001960971140326771 0 -0.033313760507600536 -0.00025505818950250376 0 -0.032989604234156839 -0.00043664697321138611 0 -0.033333618448455546 -0.00060538197995882155 0 -0.032989604234156839 -0.00043664697321138611 0 -0.032682081110552763 -0.00082138961866724824 0 -0.033333618448455546 -0.00060538197995882155 0 -0.030829278011479284 -2.091882600946508e-05 0 -0.030390571113996515 -0.00071359485174804418 0 -0.029117407143038395 -0.0014577905338110616 0 -0.032054462439538717 -0.00039103072141294734 0 -0.030652581320684772 -0.0013746224823316157 0 -0.032682081110552763 -0.00082138961866724824 0 -0.033333618448455546 -0.00060538197995882155 0 -0.032086039797856444 -0.0014515484959963028 0 -0.030140697864488811 -0.00055633753405836726 0 -0.031023581130952917 -0.00071940751520259394 0 -0.030829278011479284 -2.091882600946508e-05 0 -0.030390571113996515 -0.00071359485174804418 0 -0.03189594032550773 -0.0001960971140326771 0 -0.030390571113996515 -0.00071359485174804418 0 -0.031991992726696707 -0.00017900475494985938 0 -0.03189594032550773 -0.0001960971140326771 0 -0.032026003319382469 -0.00073586204813659681 0 -0.031553852761188064 -0.00084077737892708406 0 -0.031454825905144153 -0.0010495201208469281 0 -0.032026003319382469 -0.00073586204813659681 0 -0.032319160259663395 -0.0008348352195641232 0 -0.031549758377615242 -0.0011528159394743409 0 -0.032026003319382469 -0.00073586204813659681 0 -0.032603236903259537 -0.00055239034441677596 0 -0.032319160259663395 -0.0008348352195641232 0 -0.032634651434986388 -0.00040267056070969926 0 -0.032026003319382469 -0.00073586204813659681 0 -0.032603236903259537 -0.00055239034441677596 0 -0.032989604234156839 -0.00043664697321138611 0 -0.032603236903259537 -0.00055239034441677596 0 -0.032319160259663395 -0.0008348352195641232 0 -0.032989604234156839 -0.00043664697321138611 0 -0.032682081110552763 -0.00082138961866724824 0 -0.032319160259663395 -0.0008348352195641232 0 -0.032319160259663395 -0.0008348352195641232 0 -0.031549758377615242 -0.0011528159394743409 0 -0.032086039797856444 -0.0014515484959963028 0 -0.032682081110552763 -0.00082138961866724824 0 -0.032319160259663395 -0.0008348352195641232 0 -0.032086039797856444 -0.0014515484959963028 0 -0.031549758377615242 -0.0011528159394743409 0 -0.031454825905144153 -0.0010495201208469281 0 -0.031024603970374435 -0.0012897681903456548 0 -0.032026003319382469 -0.00073586204813659681 0 -0.031549758377615242 -0.0011528159394743409 0 -0.031454825905144153 -0.0010495201208469281 0 -0.031549758377615242 -0.0011528159394743409 0 -0.030912363060090025 -0.0014076923333541623 0 -0.031024603970374435 -0.0012897681903456548 0 -0.030912363060090025 -0.0014076923333541623 0 -0.032086039797856444 -0.0014515484959963028 0 -0.030090166208738573 -0.0014163733122048126 0 -0.030652581320684772 -0.0013746224823316157 0 -0.030209524564030608 -0.001360869163037385 0 -0.031549758377615242 -0.0011528159394743409 0 -0.030912363060090025 -0.0014076923333541623 0 -0.032086039797856444 -0.0014515484959963028 0 -0.029117407143038395 -0.0014577905338110616 0 -0.030090166208738573 -0.0014163733122048126 0 -0.028938672524694779 -0.0014542117729164333 0 -0.030912363060090025 -0.0014076923333541623 0 -0.030090166208738573 -0.0014163733122048126 0 -0.03064062895902582 -0.0012746545022992585 0 -0.029383430192532315 -0.0013339340669201514 0 -0.028823120593529577 -0.0012953188147567447 0 -0.029283974803406845 -0.0011958735123549404 0 -0.030390571113996515 -0.00071359485174804418 0 -0.029383430192532315 -0.0013339340669201514 0 -0.029283974803406845 -0.0011958735123549404 0 -0.029117407143038395 -0.0014577905338110616 0 -0.029383430192532315 -0.0013339340669201514 0 -0.028938672524694779 -0.0014542117729164333 0 -0.030390571113996515 -0.00071359485174804418 0 -0.029117407143038395 -0.0014577905338110616 0 -0.029383430192532315 -0.0013339340669201514 0 -0.029383430192532315 -0.0013339340669201514 0 -0.028938672524694779 -0.0014542117729164333 0 -0.028823120593529577 -0.0012953188147567447 0 -0.028938672524694779 -0.0014542117729164333 0 -0.028823120593529577 -0.0012953188147567447 0 -0.027900267059735605 -0.0013386474851066503 0 -0.028823120593529577 -0.0012953188147567447 0 -0.029108778156737358 -0.0013952525314211404 0 -0.027900267059735605 -0.0013386474851066503 0 -0.028823120593529577 -0.0012953188147567447 0 -0.029108778156737358 -0.0013952525314211404 0 -0.029283974803406845 -0.0011958735123549404 0 -0.027298642948840372 -0.0015650671406299535 0 -0.027999620682931638 -0.00052052396465686508 0 -0.029108778156737358 -0.0013952525314211404 0 -0.029283974803406845 -0.0011958735123549404 0 -0.029301421325495909 -0.0013059577313303771 0 -0.031023581130952917 -0.00071940751520259394 0 -0.027999620682931638 -0.00052052396465686508 0 -0.031991992726696707 -0.00017900475494985938 0 -0.03168286997539449 0.0008155508967301738 0 -0.031798232152187939 0.00014088965998351743 0 -0.03168286997539449 0.0008155508967301738 0 -0.030799038954994664 0.00090013873264384976 0 -0.031798232152187939 0.00014088965998351743 0 -0.025735251403305754 -0.001620385321265233 0 -0.025086781916108587 -0.0012121719736818137 0 -0.024831745186360079 -0.00079850269327895842 0 -0.027999620682931638 -0.00052052396465686508 0 -0.024459521181164894 -0.0002881045549615733 0 -0.025400744263796893 -1.8927127064320522e-05 0 -0.026190665573652676 -4.8176187297809919e-05 0 -0.026127660002191622 0.00030567449233505665 0 -0.025400744263796893 -1.8927127064320522e-05 0 -0.026190665573652676 -4.8176187297809919e-05 0 -0.025417926184289012 -0.00042017296534156907 0 -0.026190665573652676 -4.8176187297809919e-05 0 -0.026554716236514987 -1.0598156172364609e-06 0 -0.025417926184289012 -0.00042017296534156907 0 -0.026190665573652676 -4.8176187297809919e-05 0 -0.026127660002191622 0.00030567449233505665 0 -0.028556003308116522 1.9466200909067928e-06 0 -0.026190665573652676 -4.8176187297809919e-05 0 -0.026554716236514987 -1.0598156172364609e-06 0 -0.028556003308116522 1.9466200909067928e-06 0 -0.028560862501508025 0.00058945258277357969 0 -0.028558147057156574 2.348794488996424e-08 0 -0.027999620682931638 -0.00052052396465686508 0 -0.028560862501508025 0.00058945258277357969 0 -0.032325285480048635 -1.1590404601573601e-06 0 -0.031898037222141379 -0.00015914574389357903 0 -0.02856402498739714 1.8787098844023165e-06 0 -0.031898037222141379 -0.00015914574389357903 0 -0.031128749686659081 4.3530288793654123e-05 0 -0.02856402498739714 1.8787098844023165e-06 0 -0.030799038954994664 0.00090013873264384976 0 -0.031128749686659081 4.3530288793654123e-05 0 -0.031798232152187939 0.00014088965998351743 0 -0.030799038954994664 0.00090013873264384976 0 -0.031128749686659081 4.3530288793654123e-05 0 -0.02856402498739714 1.8787098844023165e-06 0 -0.031898037222141379 -0.00015914574389357903 0 -0.031128749686659081 4.3530288793654123e-05 0 -0.032083109442410405 -3.5780188510295142e-05 0 -0.032700531135583591 -6.3848607255384841e-05 0 -0.032083109442410405 -3.5780188510295142e-05 0 -0.032462975677539807 -1.395295885193316e-05 0 -0.032083109442410405 -3.5780188510295142e-05 0 -0.032462975677539807 -1.395295885193316e-05 0 -0.03189594032550773 -0.0001960971140326771 0 -0.031991992726696707 -0.00017900475494985938 0 -0.03189594032550773 -0.0001960971140326771 0 -0.031798232152187939 0.00014088965998351743 0 -0.032083109442410405 -3.5780188510295142e-05 0 -0.03189594032550773 -0.0001960971140326771 0 -0.031798232152187939 0.00014088965998351743 0 -0.031128749686659081 4.3530288793654123e-05 0 -0.032083109442410405 -3.5780188510295142e-05 0 -0.031798232152187939 0.00014088965998351743 0 -0.030300750865430725 -0.00026568558461150931 0 -0.033485297515106732 -0.00031907163046233737 0 -0.032005629582166295 -0.0003626509250385661 0 -0.031754542255445543 -0.00094974257402310471 0 -0.033018453574053148 -0.00018241270259093694 0 -0.032005629582166295 -0.0003626509250385661 0 -0.031754542255445543 -0.00094974257402310471 0 -0.031586923331526851 -0.00073780570727163147 0 -0.032005629582166295 -0.0003626509250385661 0 -0.031479480877984536 -0.00032069228258510725 0 -0.031586923331526851 -0.00073780570727163147 0 -0.030300750865430725 -0.00026568558461150931 0 -0.03090457226368171 -0.00078798412597876782 0 -0.033018453574053148 -0.00018241270259093694 0 -0.033509300995331073 -0.0009902741113332514 0 -0.032805816628924636 -0.0010983182593017639 0 -0.031734196540812443 -0.00087802827874978214 0 -0.033018453574053148 -0.00018241270259093694 0 -0.032805816628924636 -0.0010983182593017639 0 -0.033018453574053148 -0.00018241270259093694 0 -0.032255997199592969 4.9921061505525464e-05 0 -0.032664055566256289 0.0009411673250071447 0 -0.032005629582166295 -0.0003626509250385661 0 -0.033018453574053148 -0.00018241270259093694 0 -0.032255997199592969 4.9921061505525464e-05 0 -0.032005629582166295 -0.0003626509250385661 0 -0.032255997199592969 4.9921061505525464e-05 0 -0.031866089167389852 -6.6804482274932208e-05 0 -0.032005629582166295 -0.0003626509250385661 0 -0.031866089167389852 -6.6804482274932208e-05 0 -0.031479480877984536 -0.00032069228258510725 0 -0.031866089167389852 -6.6804482274932208e-05 0 -0.031674220574837854 0.00030602294730051492 0 -0.031479480877984536 -0.00032069228258510725 0 -0.032255997199592969 4.9921061505525464e-05 0 -0.031866089167389852 -6.6804482274932208e-05 0 -0.031674220574837854 0.00030602294730051492 0 -0.032140183627572004 0.00061741958566944829 0 -0.032266302949257565 0.00094460799107576364 0 -0.032664055566256289 0.0009411673250071447 0 -0.032140183627572004 0.00061741958566944829 0 -0.032266302949257565 0.00094460799107576364 0 -0.03207410711281429 0.00083273135555157556 0 -0.031899402776155536 0.00046032224152020194 0 -0.032607589784811673 0.00091960211995007737 0 -0.032255997199592969 4.9921061505525464e-05 0 -0.031674220574837854 0.00030602294730051492 0 -0.032664055566256289 0.0009411673250071447 0 -0.033569292950933256 0.00065796310896670276 0 -0.033570002170654645 0.00059893119557536344 0 -0.032266302949257565 0.00094460799107576364 0 -0.032570718457314123 0.0015907298224549378 0 -0.032664055566256289 0.0009411673250071447 0 -0.032266302949257565 0.00094460799107576364 0 -0.032570718457314123 0.0015907298224549378 0 -0.031947691925228353 0.0011146138560984705 0 -0.033569292950933256 0.00065796310896670276 0 -0.034315381168448025 0.00050392878752427827 0 -0.032570718457314123 0.0015907298224549378 0 -0.032664055566256289 0.0009411673250071447 0 -0.03357022814261449 0.00099661657948121678 0 -0.033018453574053148 -0.00018241270259093694 0 -0.032664055566256289 0.0009411673250071447 0 -0.03357022814261449 0.00099661657948121678 0 -0.034950913106824182 2.4790716414819436e-08 0 -0.034985735604284036 1.4965297845543374e-05 0 -0.034999934991377858 -3.127564626224926e-09 0 -0.034985735604284036 1.4965297845543374e-05 0 -0.034999934991377858 -3.127564626224926e-09 0 -0.034942041789780894 1.8509138904623584e-05 0 -0.034999934991377858 -3.127564626224926e-09 0 -0.034942041789780894 1.8509138904623584e-05 0 -0.034999927180828332 5.6191071429128619e-08 0 -0.03357022814261449 0.00099661657948121678 0 -0.033840539791868643 8.1206684346904023e-05 0 -0.034804951366115645 2.7899335308486873e-05 0 -0.034985735604284036 1.4965297845543374e-05 0 -0.034942041789780894 1.8509138904623584e-05 0 -0.034804951366115645 2.7899335308486873e-05 0 -0.034315381168448025 0.00050392878752427827 0 -0.034776280709760875 5.408210742385108e-05 0 -0.03398705513244725 -0.00048933469662859022 0 -0.034649959074279028 -0.0004221599166874283 0 -0.034804951366115645 2.7899335308486873e-05 0 -0.033840539791868643 8.1206684346904023e-05 0 -0.03398705513244725 -0.00048933469662859022 0 -0.034804951366115645 2.7899335308486873e-05 0 -0.033018453574053148 -0.00018241270259093694 0 -0.03357022814261449 0.00099661657948121678 0 -0.033840539791868643 8.1206684346904023e-05 0 -0.033018453574053148 -0.00018241270259093694 0 -0.033840539791868643 8.1206684346904023e-05 0 -0.03398705513244725 -0.00048933469662859022 0 -0.033018453574053148 -0.00018241270259093694 0 -0.033509300995331073 -0.0009902741113332514 0 -0.03398705513244725 -0.00048933469662859022 0 -0.033509300995331073 -0.0009902741113332514 0 -0.03398705513244725 -0.00048933469662859022 0 -0.034088475749166229 -0.0014232612540633017 0 -0.03398705513244725 -0.00048933469662859022 0 -0.034743232172824386 -0.0010124405921966503 0 -0.034088475749166229 -0.0014232612540633017 0 -0.03398705513244725 -0.00048933469662859022 0 -0.034649959074279028 -0.0004221599166874283 0 -0.034743232172824386 -0.0010124405921966503 0 -0.03373291640454705 -0.00017797212395670469 0 -0.033289810682968497 -0.00010681550787988799 0 -0.032643210407479896 -9.6168461357417552e-05 0 -0.032561392094832962 -0.00035805492901366966 0 -0.032265393652702076 -0.00031048716340243896 0 -0.034649959074279028 -0.0004221599166874283 0 -0.035060791194533772 -0.00010885920909766828 0 -0.034743232172824386 -0.0010124405921966503 0 -0.0350546952784688 -0.0001831174736306