<?xml version="1.0"?>
<VTKFile type="UnstructuredGrid" version="0.1" byte_order="LittleEndian">
<UnstructuredGrid>
<Piece NumberOfPoints="30957" NumberOfCells="10847">
<Points>
<DataArray type="Float64" NumberOfComponents="3" format="ascii">
-0.5 -0.5 0 -0.47120411738687817 -0.46389436250812971 0 -0.5 -0.43325734090004919 0 -0.5 -0.5 0 -0.46177944143722638 -0.5 0 -0.47120411738687817 -0.46389436250812971 0 -0.46177944143722638 -0.5 0 -0.44050651558103499 -0.47948761799458511 0 -0.47120411738687817 -0.46389436250812971 0 -0.45149654745744422 -0.43840233748464441 0 -0.47120411738687817 -0.46389436250812971 0 -0.46954456837491049 -0.42604858596389189 0 -0.45149654745744422 -0.43840233748464441 0 -0.4453150137602524 -0.45857218635572561 0 -0.43493249183805671 -0.44556966440005252 0 -0.44050651558103499 -0.47948761799458511 0 -0.4453150137602524 -0.45857218635572561 0 -0.4278319662168889 -0.46381336530289891 0 -0.44050651558103499 -0.47948761799458511 0 -0.4453150137602524 -0.45857218635572561 0 -0.47120411738687817 -0.46389436250812971 0 -0.45149654745744422 -0.43840233748464441 0 -0.4453150137602524 -0.45857218635572561 0 -0.47120411738687817 -0.46389436250812971 0 -0.47120411738687817 -0.46389436250812971 0 -0.5 -0.43325734090004919 0 -0.46954456837491049 -0.42604858596389189 0 -0.5 -0.43325734090004919 0 -0.47563538822490697 -0.41015817923674608 0 -0.48539331281604148 -0.39697119748621679 0 -0.5 -0.43325734090004919 0 -0.50000000000000444 -0.39051894366396339 0 -0.48539331281604148 -0.39697119748621679 0 -0.47563538822490697 -0.41015817923674608 0 -0.46954456837491049 -0.42604858596389189 0 -0.4619895481942633 -0.41107813452837799 0 -0.5 -0.43325734090004919 0 -0.47563538822490697 -0.41015817923674608 0 -0.46954456837491049 -0.42604858596389189 0 -0.50000000000000444 -0.39051894366396339 0 -0.48402855742399947 -0.3794190986461683 0 -0.48580530174085379 -0.36314921555540491 0 -0.50000000000000444 -0.39051894366396339 0 -0.48402855742399947 -0.3794190986461683 0 -0.50000000000000444 -0.39051894366396339 0 -0.48539331281604148 -0.39697119748621679 0 -0.48402855742399947 -0.3794190986461683 0 -0.47563538822490697 -0.41015817923674608 0 -0.47429419340057288 -0.39385245732894941 0 -0.46435106755713562 -0.39908871881395941 0 -0.47563538822490697 -0.41015817923674608 0 -0.48539331281604148 -0.39697119748621679 0 -0.47429419340057288 -0.39385245732894941 0 -0.48539331281604148 -0.39697119748621679 0 -0.47429419340057288 -0.39385245732894941 0 -0.47699880945166562 -0.38264522555729508 0 -0.47699880945166562 -0.38264522555729508 0 -0.46695218096338992 -0.38602373059370892 0 -0.46860430608728992 -0.36831925362837331 0 -0.48539331281604148 -0.39697119748621679 0 -0.47699880945166562 -0.38264522555729508 0 -0.48402855742399947 -0.3794190986461683 0 -0.48539331281604148 -0.39697119748621679 0 -0.47699880945166562 -0.38264522555729508 0 -0.47429419340057288 -0.39385245732894941 0 -0.47699880945166562 -0.38264522555729508 0 -0.46695218096338992 -0.38602373059370892 0 -0.47699880945166562 -0.38264522555729508 0 -0.46860430608728992 -0.36831925362837331 0 -0.47699880945166562 -0.38264522555729508 0 -0.48402855742399947 -0.3794190986461683 0 -0.46860430608728992 -0.36831925362837331 0 -0.45895008840711038 -0.37899996272486602 0 -0.46695218096338992 -0.38602373059370892 0 -0.46860430608728992 -0.36831925362837331 0 -0.45895008840711038 -0.37899996272486602 0 -0.45509873572632148 -0.3906280966051478 0 -0.44708215082180353 -0.38141274682380227 0 -0.45895008840711038 -0.37899996272486602 0 -0.46695218096338992 -0.38602373059370892 0 -0.45509873572632148 -0.3906280966051478 0 -0.45509873572632148 -0.3906280966051478 0 -0.46435106755713562 -0.39908871881395941 0 -0.44941999832388368 -0.40282973196011979 0 -0.47429419340057288 -0.39385245732894941 0 -0.46695218096338992 -0.38602373059370892 0 -0.46435106755713562 -0.39908871881395941 0 -0.46695218096338992 -0.38602373059370892 0 -0.45509873572632148 -0.3906280966051478 0 -0.46435106755713562 -0.39908871881395941 0 -0.46435106755713562 -0.39908871881395941 0 -0.44941999832388368 -0.40282973196011979 0 -0.4619895481942633 -0.41107813452837799 0 -0.44941999832388368 -0.40282973196011979 0 -0.43576489374223909 -0.40959267010010342 0 -0.43524500729050258 -0.39805954013448858 0 -0.44941999832388368 -0.40282973196011979 0 -0.44455255681338252 -0.39203513629979042 0 -0.43524500729050258 -0.39805954013448858 0 -0.45509873572632148 -0.3906280966051478 0 -0.44941999832388368 -0.40282973196011979 0 -0.44455255681338252 -0.39203513629979042 0 -0.45509873572632148 -0.3906280966051478 0 -0.44455255681338252 -0.39203513629979042 0 -0.44708215082180353 -0.38141274682380227 0 -0.44455255681338252 -0.39203513629979042 0 -0.44708215082180353 -0.38141274682380227 0 -0.43192883359269207 -0.3836277700427263 0 -0.44708215082180353 -0.38141274682380227 0 -0.43192883359269207 -0.3836277700427263 0 -0.44116542271728693 -0.37238627884632453 0 -0.45895008840711038 -0.37899996272486602 0 -0.44708215082180353 -0.38141274682380227 0 -0.45109544622768433 -0.36939150625119282 0 -0.45149654745744422 -0.43840233748464441 0 -0.46954456837491049 -0.42604858596389189 0 -0.45099671849047979 -0.41726545666717257 0 -0.46954456837491049 -0.42604858596389189 0 -0.4619895481942633 -0.41107813452837799 0 -0.45099671849047979 -0.41726545666717257 0 -0.47563538822490697 -0.41015817923674608 0 -0.46435106755713562 -0.39908871881395941 0 -0.4619895481942633 -0.41107813452837799 0 -0.44941999832388368 -0.40282973196011979 0 -0.4619895481942633 -0.41107813452837799 0 -0.45099671849047979 -0.41726545666717257 0 -0.44941999832388368 -0.40282973196011979 0 -0.45099671849047979 -0.41726545666717257 0 -0.43576489374223909 -0.40959267010010342 0 -0.45099671849047979 -0.41726545666717257 0 -0.44137699127042912 -0.42157624685835932 0 -0.43576489374223909 -0.40959267010010342 0 -0.45149654745744422 -0.43840233748464441 0 -0.44137699127042912 -0.42157624685835932 0 -0.42724980539155338 -0.42104452318151703 0 -0.45149654745744422 -0.43840233748464441 0 -0.42724980539155338 -0.42104452318151703 0 -0.45149654745744422 -0.43840233748464441 0 -0.45099671849047979 -0.41726545666717257 0 -0.44137699127042912 -0.42157624685835932 0 -0.45149654745744422 -0.43840233748464441 0 -0.42724980539155338 -0.42104452318151703 0 -0.43493249183805671 -0.44556966440005252 0 -0.42724980539155338 -0.42104452318151703 0 -0.43493249183805671 -0.44556966440005252 0 -0.41987266082354152 -0.43788670605155328 0 -0.44137699127042912 -0.42157624685835932 0 -0.43576489374223909 -0.40959267010010342 0 -0.42724980539155338 -0.42104452318151703 0 -0.43576489374223909 -0.40959267010010342 0 -0.42226149214261299 -0.40824650230207649 0 -0.42724980539155338 -0.42104452318151703 0 -0.42724980539155338 -0.42104452318151703 0 -0.41616810128903081 -0.4198767747784925 0 -0.40300306332566282 -0.40368670887838948 0 -0.42724980539155338 -0.42104452318151703 0 -0.40300306332566282 -0.40368670887838948 0 -0.42226149214261299 -0.40824650230207649 0 -0.42724980539155338 -0.42104452318151703 0 -0.40300306332566282 -0.40368670887838948 0 -0.41616810128903081 -0.4198767747784925 0 -0.40173542240972437 -0.44090696573003518 0 -0.42724980539155338 -0.42104452318151703 0 -0.41616810128903081 -0.4198767747784925 0 -0.41987266082354152 -0.43788670605155328 0 -0.41616810128903081 -0.4198767747784925 0 -0.40173542240972437 -0.44090696573003518 0 -0.41987266082354152 -0.43788670605155328 0 -0.43192883359269207 -0.3836277700427263 0 -0.43116454123529607 -0.36800039632657078 0 -0.41939774089595178 -0.37336154924530862 0 -0.43192883359269207 -0.3836277700427263 0 -0.42302820611099679 -0.39866210704829602 0 -0.41188955365135821 -0.38606679421346468 0 -0.43192883359269207 -0.3836277700427263 0 -0.43524500729050258 -0.39805954013448858 0 -0.42302820611099679 -0.39866210704829602 0 -0.44455255681338252 -0.39203513629979042 0 -0.43192883359269207 -0.3836277700427263 0 -0.43524500729050258 -0.39805954013448858 0 -0.43576489374223909 -0.40959267010010342 0 -0.43524500729050258 -0.39805954013448858 0 -0.42302820611099679 -0.39866210704829602 0 -0.43576489374223909 -0.40959267010010342 0 -0.42226149214261299 -0.40824650230207649 0 -0.42302820611099679 -0.39866210704829602 0 -0.42302820611099679 -0.39866210704829602 0 -0.41188955365135821 -0.38606679421346468 0 -0.40300306332566282 -0.40368670887838948 0 -0.42226149214261299 -0.40824650230207649 0 -0.42302820611099679 -0.39866210704829602 0 -0.40300306332566282 -0.40368670887838948 0 -0.41188955365135821 -0.38606679421346468 0 -0.41939774089595178 -0.37336154924530862 0 -0.40364922704091771 -0.36776129256775397 0 -0.43192883359269207 -0.3836277700427263 0 -0.41188955365135821 -0.38606679421346468 0 -0.41939774089595178 -0.37336154924530862 0 -0.41188955365135821 -0.38606679421346468 0 -0.39587469151253563 -0.38233190464131589 0 -0.40364922704091771 -0.36776129256775397 0 -0.39587469151253563 -0.38233190464131589 0 -0.40300306332566282 -0.40368670887838948 0 -0.37875632125977199 -0.38632889457526193 0 -0.40300306332566282 -0.40368670887838948 0 -0.37875632125977199 -0.38632889457526193 0 -0.41188955365135821 -0.38606679421346468 0 -0.39587469151253563 -0.38233190464131589 0 -0.40300306332566282 -0.40368670887838948 0 -0.40300306332566282 -0.40368670887838948 0 -0.37875632125977199 -0.38632889457526193 0 -0.38091960801568392 -0.40885003952666221 0 -0.39587469151253563 -0.38233190464131589 0 -0.37875632125977199 -0.38632889457526193 0 -0.3820752922849675 -0.3678158329717095 0 -0.39673592147291981 -0.41989049426782382 0 -0.38313730077258279 -0.42720141671048539 0 -0.40173542240972437 -0.44090696573003518 0 -0.41616810128903081 -0.4198767747784925 0 -0.39673592147291981 -0.41989049426782382 0 -0.40173542240972437 -0.44090696573003518 0 -0.40300306332566282 -0.40368670887838948 0 -0.39673592147291981 -0.41989049426782382 0 -0.38091960801568392 -0.40885003952666221 0 -0.41616810128903081 -0.4198767747784925 0 -0.40300306332566282 -0.40368670887838948 0 -0.39673592147291981 -0.41
[...]
<PointData Scalars="" Vectors="displacement," Tensors="">
<DataArray type="Float64" Name="displacement" NumberOfComponents="3" format="ascii">
-0.034999045586606534 -0.0349976310483237 0 -0.033226963664206549 -0.033739231590543144 0 -0.030330512772193421 -0.034997376295718009 0 -0.034999045586606534 -0.0349976310483237 0 -0.034997127817008242 -0.032325586309297855 0 -0.033226963664206549 -0.033739231590543144 0 -0.034997127817008242 -0.032325586309297855 0 -0.034281378593048618 -0.031531015714560962 0 -0.033226963664206549 -0.033739231590543144 0 -0.032606195923465434 -0.033204762972950802 0 -0.033226963664206549 -0.033739231590543144 0 -0.031253074840996438 -0.034141963457832492 0 -0.032606195923465434 -0.033204762972950802 0 -0.033448369816648726 -0.032325813894601617 0 -0.033395727108661483 -0.031837122900107345 0 -0.034281378593048618 -0.031531015714560962 0 -0.033448369816648726 -0.032325813894601617 0 -0.033809680987546206 -0.031163108097472813 0 -0.034281378593048618 -0.031531015714560962 0 -0.033448369816648726 -0.032325813894601617 0 -0.033226963664206549 -0.033739231590543144 0 -0.032606195923465434 -0.033204762972950802 0 -0.033448369816648726 -0.032325813894601617 0 -0.033226963664206549 -0.033739231590543144 0 -0.033226963664206549 -0.033739231590543144 0 -0.030330512772193421 -0.034997376295718009 0 -0.031253074840996438 -0.034141963457832492 0 -0.030330512772193421 -0.034997376295718009 0 -0.030450086228534342 -0.034804606146117099 0 -0.029298463629791049 -0.035532607533300245 0 -0.030330512772193421 -0.034997376295718009 0 -0.027343396467999843 -0.034999518805137492 0 -0.029298463629791049 -0.035532607533300245 0 -0.030450086228534342 -0.034804606146117099 0 -0.031253074840996438 -0.034141963457832492 0 -0.031155292123846035 -0.033946179124358093 0 -0.030330512772193421 -0.034997376295718009 0 -0.030450086228534342 -0.034804606146117099 0 -0.031253074840996438 -0.034141963457832492 0 -0.027335732062477924 -0.034999859513713059 0 -0.026505217225810701 -0.036007556360563922 0 -0.025416619390636108 -0.035891658845789126 0 -0.027503880270624278 -0.034900951464144937 0 -0.026630046384334895 -0.036261273496867738 0 -0.027343396467999843 -0.034999518805137492 0 -0.029298463629791049 -0.035532607533300245 0 -0.027542380508973577 -0.03576931643069732 0 -0.030450086228534342 -0.034804606146117099 0 -0.030990242269940068 -0.034868872817108702 0 -0.031432706563420162 -0.034145841629659175 0 -0.030450086228534342 -0.034804606146117099 0 -0.029298463629791049 -0.035532607533300245 0 -0.030990242269940068 -0.034868872817108702 0 -0.029298463629791049 -0.035532607533300245 0 -0.030990242269940068 -0.034868872817108702 0 -0.032817232271023393 -0.035501105210645763 0 -0.032817232271023393 -0.035501105210645763 0 -0.032559310482975577 -0.034340860171243444 0 -0.0348823647610563 -0.034758773555172581 0 -0.029298463629791049 -0.035532607533300245 0 -0.027857512438647831 -0.036401111533732246 0 -0.027542380508973577 -0.03576931643069732 0 -0.0296105109624164 -0.035707462649796386 0 -0.030469382838260145 -0.035724386000959653 0 -0.030990242269940068 -0.034868872817108702 0 -0.032817232271023393 -0.035501105210645763 0 -0.032559310482975577 -0.034340860171243444 0 -0.030469382838260145 -0.035724386000959653 0 -0.029415419783298771 -0.035699648964246718 0 -0.027857512438647831 -0.036401111533732246 0 -0.027542380508973577 -0.03576931643069732 0 -0.026664921198586364 -0.037099180923460401 0 -0.033692478037023327 -0.033694137413431934 0 -0.032559310482975577 -0.034340860171243444 0 -0.0348823647610563 -0.034758773555172581 0 -0.033692478037023327 -0.033694137413431934 0 -0.032606350085680455 -0.033407677505561985 0 -0.033802199378659845 -0.032700891463794998 0 -0.033692478037023327 -0.033694137413431934 0 -0.032559310482975577 -0.034340860171243444 0 -0.032606350085680455 -0.033407677505561985 0 -0.032606350085680455 -0.033407677505561985 0 -0.031432706563420162 -0.034145841629659175 0 -0.031909911025831371 -0.033105742985459263 0 -0.030990242269940068 -0.034868872817108702 0 -0.032559310482975577 -0.034340860171243444 0 -0.031432706563420162 -0.034145841629659175 0 -0.032559310482975577 -0.034340860171243444 0 -0.032606350085680455 -0.033407677505561985 0 -0.031432706563420162 -0.034145841629659175 0 -0.031432706563420162 -0.034145841629659175 0 -0.031909911025831371 -0.033105742985459263 0 -0.031155292123846035 -0.033946179124358093 0 -0.031909911025831371 -0.033105742985459263 0 -0.031854752722390134 -0.032294698290686839 0 -0.032676226326165424 -0.031994932935926715 0 -0.031909911025831371 -0.033105742985459263 0 -0.032885604804192205 -0.03262112049058026 0 -0.032676226326165424 -0.031994932935926715 0 -0.032606350085680455 -0.033407677505561985 0 -0.031909911025831371 -0.033105742985459263 0 -0.032885604804192205 -0.03262112049058026 0 -0.032606350085680455 -0.033407677505561985 0 -0.032885604804192205 -0.03262112049058026 0 -0.033802199378659845 -0.032700891463794998 0 -0.032885604804192205 -0.03262112049058026 0 -0.033802199378659845 -0.032700891463794998 0 -0.03404900465394578 -0.031444559451755685 0 -0.033802199378659845 -0.032700891463794998 0 -0.03404900465394578 -0.031444559451755685 0 -0.034887620207716123 -0.032104610234723135 0 -0.033692478037023327 -0.033694137413431934 0 -0.033802199378659845 -0.032700891463794998 0 -0.034988270328423658 -0.032997058449801595 0 -0.032606195923465434 -0.033204762972950802 0 -0.031253074840996438 -0.034141963457832492 0 -0.031423811356897653 -0.033262590572397686 0 -0.031253074840996438 -0.034141963457832492 0 -0.031155292123846035 -0.033946179124358093 0 -0.031423811356897653 -0.033262590572397686 0 -0.030450086228534342 -0.034804606146117099 0 -0.031432706563420162 -0.034145841629659175 0 -0.031155292123846035 -0.033946179124358093 0 -0.031909911025831371 -0.033105742985459263 0 -0.031155292123846035 -0.033946179124358093 0 -0.031423811356897653 -0.033262590572397686 0 -0.031909911025831371 -0.033105742985459263 0 -0.031423811356897653 -0.033262590572397686 0 -0.031854752722390134 -0.032294698290686839 0 -0.031423811356897653 -0.033262590572397686 0 -0.031532210181387396 -0.032735026041594305 0 -0.031854752722390134 -0.032294698290686839 0 -0.032606195923465434 -0.033204762972950802 0 -0.031532210181387396 -0.032735026041594305 0 -0.031052814877663957 -0.031948189886141454 0 -0.032638605180347988 -0.032999147097303949 0 -0.033049206231511384 -0.03149231724592446 0 -0.032606195923465434 -0.033204762972950802 0 -0.031423811356897653 -0.033262590572397686 0 -0.031532210181387396 -0.032735026041594305 0 -0.032606195923465434 -0.033204762972950802 0 -0.034932889396097323 -0.031182246108972661 0 -0.033395727108661483 -0.031837122900107345 0 -0.034932889396097323 -0.031182246108972661 0 -0.033395727108661483 -0.031837122900107345 0 -0.033931147649658613 -0.030743945998809571 0 -0.031532210181387396 -0.032735026041594305 0 -0.031854752722390134 -0.032294698290686839 0 -0.031052814877663957 -0.031948189886141454 0 -0.031854752722390134 -0.032294698290686839 0 -0.032107751145455429 -0.031038979432231689 0 -0.031052814877663957 -0.031948189886141454 0 -0.034932889396097323 -0.031182246108972661 0 -0.034959217949360182 -0.029917072347039896 0 -0.036309334442383184 -0.02799490670781982 0 -0.033049206231511384 -0.03149231724592446 0 -0.034439676350947197 -0.028420767454604139 0 -0.032107751145455429 -0.031038979432231689 0 -0.031052814877663957 -0.031948189886141454 0 -0.032582657996925515 -0.028687064846382927 0 -0.035025246713553039 -0.029947049087227503 0 -0.033321098589399377 -0.029330570451459408 0 -0.034932889396097323 -0.031182246108972661 0 -0.034959217949360182 -0.029917072347039896 0 -0.033931147649658613 -0.030743945998809571 0 -0.034959217949360182 -0.029917072347039896 0 -0.033947071985150339 -0.030293314786471615 0 -0.033931147649658613 -0.030743945998809571 0 -0.03404900465394578 -0.031444559451755685 0 -0.03556082798890358 -0.031144126401660095 0 -0.035352476511606862 -0.030101216593340668 0 -0.03404900465394578 -0.031444559451755685 0 -0.032915477150129505 -0.030934115379386 0 -0.034436472928796785 -0.029558602025536593 0 -0.03404900465394578 -0.031444559451755685 0 -0.032676226326165424 -0.031994932935926715 0 -0.032915477150129505 -0.030934115379386 0 -0.032885604804192205 -0.03262112049058026 0 -0.03404900465394578 -0.031444559451755685 0 -0.032676226326165424 -0.031994932935926715 0 -0.031854752722390134 -0.032294698290686839 0 -0.032676226326165424 -0.031994932935926715 0 -0.032915477150129505 -0.030934115379386 0 -0.031854752722390134 -0.032294698290686839 0 -0.032107751145455429 -0.031038979432231689 0 -0.032915477150129505 -0.030934115379386 0 -0.032915477150129505 -0.030934115379386 0 -0.034436472928796785 -0.029558602025536593 0 -0.032582657996925515 -0.028687064846382927 0 -0.032107751145455429 -0.031038979432231689 0 -0.032915477150129505 -0.030934115379386 0 -0.032582657996925515 -0.028687064846382927 0 -0.034436472928796785 -0.029558602025536593 0 -0.035352476511606862 -0.030101216593340668 0 -0.036232361442155414 -0.028536060076792609 0 -0.03404900465394578 -0.031444559451755685 0 -0.034436472928796785 -0.029558602025536593 0 -0.035352476511606862 -0.030101216593340668 0 -0.034436472928796785 -0.029558602025536593 0 -0.035342154162964129 -0.027831987475469437 0 -0.036232361442155414 -0.028536060076792609 0 -0.035342154162964129 -0.027831987475469437 0 -0.032582657996925515 -0.028687064846382927 0 -0.035864005635475239 -0.02617374518670687 0 -0.034439676350947197 -0.028420767454604139 0 -0.035731527926745485 -0.026365599210613405 0 -0.034436472928796785 -0.029558602025536593 0 -0.035342154162964129 -0.027831987475469437 0 -0.032582657996925515 -0.028687064846382927 0 -0.036309334442383184 -0.02799490670781982 0 -0.035864005635475239 -0.02617374518670687 0 -0.035768052189776085 -0.026228635302849506 0 -0.035342154162964129 -0.027831987475469437 0 -0.035864005635475239 -0.02617374518670687 0 -0.036618645983833568 -0.026656330723571337 0 -0.03504784096303843 -0.02760577949533163 0 -0.034634622692821165 -0.026457069226734992 0 -0.03320326266909459 -0.028145141667429985 0 -0.034959217949360182 -0.029917072347039896 0 -0.03504784096303843 -0.02760577949533163 0 -0.03320326266909459 -0.028145141667429985 0 -0.036309334442383184 -0.02799490670781982 0 -0.03504784096303843 -0.02760577949533163 0 -0.035768052189776085 -0.026228635302849506 0 -0.034959217949360182 -0.029917072347039896 0 -0.036309334442383184 -0.02799490670781982 0 -0.03504784096303843 -0.02760577949533163 0 -0.03504784096303843 -0.02760577949533163 0 -0.035768052189776085 -0.026228635302849506 0 -0.034634622692821165 -0.026457069226734992 0 -0.035768052189776085 -0.026228635302849506 0 -0.034634622692821165 -0.026457069226734992 0 -0.035439920777327688 -0.02498898808437534 0 -0.034634622692821165 -0.026457069226734992 0 -0.033171292915592107 -0.025870799088423223 0 -0.035439920777327688 -0.02498898808437534 0 -0.034634622692821165 -0.026457069226734992 0 -0.033171292915592107 -0.025870799088423223 0 -0.03320326266909459 -0.028145141667429985 0 -0.034472529111374071 -0.02528273327860734 0 -0.034819375701943441 -0.027217597151298369 0 -0.033171292915592107 -0.025870799088423223 0 -0.03320326266909459 -0.028145141667429985 0 -0.031435738498630461 -0.026831892951016061 0 -0.033321098589399377 -0.029330570451459408 0 -0.034819375701943441 -0.027217597151298369 0 -0.033947071985150339 -0.030293314786471615 0 -0.034014313297636559 -0.030390732082595569 0 -0.033964146579424266 -0.030396854326705025 0 -0.034014313297636559 -0.030390732082595569 0 -0.034308317459744664 -0.030182938591778018 0 -0.033964146579424266 -0.030396854326705025 0 -0.036015568436784003 -0.024757386709111189 0 -0.036020241139377067 -0.025092179756415992 0 -0.036068277820629893 -0.024829229025210935 0 -0.034819375701943441 -0.027217597151298369 0 -0.036586124129816752 -0.025399756557874385 0 -0.037808116665100089 -0.026973395247342838 0 -0.035760692355598374 -0.026928855419856158 0 -0.03624832454188974 -0.027788769374712016 0 -0.037808116665100089 -0.026973395247342838 0 -0.035760692355598374 -0.026928855419856158 0 -0.035889729837076174 -0.02558826356431386 0 -0.035760692355598374 -0.026928855419856158 0 -0.034999675315196419 -0.026554237832030116 0 -0.035889729837076174 -0.02558826356431386 0 -0.035760692355598374 -0.026928855419856158 0 -0.03624832454188974 -0.027788769374712016 0 -0.034999980917687828 -0.028558868568086999 0 -0.035760692355598374 -0.026928855419856158 0 -0.034999675315196419 -0.026554237832030116 0 -0.034999980917687828 -0.028558868568086999 0 -0.035333792814289555 -0.02903148512179287 0 -0.034999819527784637 -0.028559042779752179 0 -0.034819375701943441 -0.027217597151298369 0 -0.035333792814289555 -0.02903148512179287 0 -0.034997127817008242 -0.032325586309297855 0 -0.034281378593048618 -0.031531015714560962 0 -0.034997817770075476 -0.028564958271491379 0 -0.034281378593048618 -0.031531015714560962 0 -0.034296840860652232 -0.030196453930914656 0 -0.034997817770075476 -0.028564958271491379 0 -0.034308317459744664 -0.030182938591778018 0 -0.034296840860652232 -0.030196453930914656 0 -0.033964146579424266 -0.030396854326705025 0 -0.034308317459744664 -0.030182938591778018 0 -0.034296840860652232 -0.030196453930914656 0 -0.034997817770075476 -0.028564958271491379 0 -0.034281378593048618 -0.031531015714560962 0 -0.034296840860652232 -0.030196453930914656 0 -0.033809680987546206 -0.031163108097472813 0 -0.033448369816648726 -0.032325813894601617 0 -0.033809680987546206 -0.031163108097472813 0 -0.033395727108661483 -0.031837122900107345 0 -0.033809680987546206 -0.031163108097472813 0 -0.033395727108661483 -0.031837122900107345 0 -0.033931147649658613 -0.030743945998809571 0 -0.033947071985150339 -0.030293314786471615 0 -0.033931147649658613 -0.030743945998809571 0 -0.033964146579424266 -0.030396854326705025 0 -0.033809680987546206 -0.031163108097472813 0 -0.033931147649658613 -0.030743945998809571 0 -0.033964146579424266 -0.030396854326705025 0 -0.034296840860652232 -0.030196453930914656 0 -0.033809680987546206 -0.031163108097472813 0 -0.033964146579424266 -0.030396854326705025 0 -0.019389864343283884 -0.036870127181573495 0 -0.020549163876657676 -0.037629750224418994 0 -0.019680258431094357 -0.037394386347743815 0 -0.01947043675230754 -0.037843381036375669 0 -0.020582727612525536 -0.037312020099221549 0 -0.019680258431094357 -0.037394386347743815 0 -0.01947043675230754 -0.037843381036375669 0 -0.019352483808471738 -0.037661412757376792 0 -0.019680258431094357 -0.037394386347743815 0 -0.019285417449923646 -0.03735499539829612 0 -0.019352483808471738 -0.037661412757376792 0 -0.019389864343283884 -0.036870127181573495 0 -0.019552066549655151 -0.037284375799129077 0 -0.020582727612525536 -0.037312020099221549 0 -0.021054118270693846 -0.037980553776544385 0 -0.020481153192049135 -0.038043725991082022 0 -0.019681925685263522 -0.037867721533583122 0 -0.020582727612525536 -0.037312020099221549 0 -0.020481153192049135 -0.038043725991082022 0 -0.020582727612525536 -0.037312020099221549 0 -0.019873018847831637 -0.037070615443530346 0 -0.020128226226665009 -0.036253585394914557 0 -0.019680258431094357 -0.037394386347743815 0 -0.020582727612525536 -0.037312020099221549 0 -0.019873018847831637 -0.037070615443530346 0 -0.019680258431094357 -0.037394386347743815 0 -0.019873018847831637 -0.037070615443530346 0 -0.019567373615092878 -0.037164772193098494 0 -0.019680258431094357 -0.037394386347743815 0 -0.019567373615092878 -0.037164772193098494 0 -0.019285417449923646 -0.03735499539829612 0 -0.019567373615092878 -0.037164772193098494 0 -0.019405497355713272 -0.036880031299464121 0 -0.019285417449923646 -0.03735499539829612 0 -0.019873018847831637 -0.037070615443530346 0 -0.019567373615092878 -0.037164772193098494 0 -0.019405497355713272 -0.036880031299464121 0 -0.019050507550672526 -0.037093123698307653 0 -0.01929928630868244 -0.036299442496734925 0 -0.020128226226665009 -0.036253585394914557 0 -0.019050507550672526 -0.037093123698307653 0 -0.01929928630868244 -0.036299442496734925 0 -0.018846991117017355 -0.036567737406136822 0 -0.01925890117222908 -0.036942481599761427 0 -0.020060860768987901 -0.036317268068441842 0 -0.019873018847831637 -0.037070615443530346 0 -0.019405497355713272 -0.036880031299464121 0 -0.020128226226665009 -0.036253585394914557 0 -0.01937460233735766 -0.035138804060123485 0 -0.017757479958550336 -0.035937075091381172 0 -0.01929928630868244 -0.036299442496734925 0 -0.019958949935249052 -0.0352092253584156 0 -0.020128226226665009 -0.036253585394914557 0 -0.01929928630868244 -0.036299442496734925 0 -0.019958949935249052 -0.0352092253584156 0 -0.018557627370783217 -0.035898110771695232 0 -0.01937460233735766 -0.035138804060123485 0 -0.020733603805857009 -0.036191229731886237 0 -0.019958949935249052 -0.0352092253584156 0 -0.020128226226665009 -0.036253585394914557 0 -0.021124033940964699 -0.036215359774727569 0 -0.020582727612525536 -0.037312020099221549 0 -0.020128226226665009 -0.036253585394914557 0 -0.021124033940964699 -0.036215359774727569 0 -0.018629321722948275 -0.034951033730435462 0 -0.020374180631672671 -0.036215840537511 0 -0.020665051114237647 -0.034999825006593856 0 -0.020374180631672671 -0.036215840537511 0 -0.020665051114237647 -0.034999825006593856 0 -0.021762002961603931 -0.036018897317596138 0 -0.020665051114237647 -0.034999825006593856 0 -0.021762002961603931 -0.036018897317596138 0 -0.022613121834280141 -0.034999970495651109 0 -0.021124033940964699 -0.036215359774727569 0 -0.021320915745601014 -0.037057005507216634 0 -0.022078224876331123 -0.037111386576613996 0 -0.020374180631672671 -0.036215840537511 0 -0.021762002961603931 -0.036018897317596138 0 -0.022078224876331123 -0.037111386576613996 0 -0.020733603805857009 -0.036191229731886237 0 -0.022005785355822555 -0.037074856582570023 0 -0.021454050507790496 -0.037581028859456474 0 -0.022040307136209244 -0.037572116202702295 0 -0.022078224876331123 -0.037111386576613996 0 -0.021320915745601014 -0.037057005507216634 0 -0.021454050507790496 -0.037581028859456474 0 -0.022078224876331123 -0.037111386576613996 0 -0.020582727612525536 -0.037312020099221549 0 -0.021124033940964699 -0.036215359774727569 0 -0.021320915745601014 -0.037057005507216634 0 -0.020582727612525536 -0.037312020099221549 0 -0.021320915745601014 -0.037057005507216634 0 -0.021454050507790496 -0.037581028859456474 0 -0.020582727612525536 -0.037312020099221549 0 -0.021054118270693846 -0.037980553776544385 0 -0.021454050507790496 -0.037581028859456474 0 -0.021054118270693846 -0.037980553776544385 0 -0.021454050507790496 -0.037581028859456474 0 -0.021572674052525071 -0.038358141529281339 0 -0.021454050507790496 -0.037581028859456474 0 -0.022128743189972187 -0.038083133999541274 0 -0.021572674052525071 -0.038358141529281339 0 -0.021454050507790496 -0.037581028859456474 0 -0.022040307136209244 -0.037572116202702295 0 -0.022128743189972187 -0.038083133999541274 0 -0.027763817978970845 -0.035847196768898866 0 -0.025873062294605179 -0.036138590380377943 0 -0.030856269379701748 -0.034474365894690294 0 -0.030938344412530381 -0.034201876829572604 0 -0.031185204004782578 -0.034232085507834839 0 -0.022040307136209244 -0.037572116202702295 0 -0.022702144287990302 -0.037373427840281748 0 -0.022128743189972187 -0.038083133999541274 0 -0.022827561298554566 -0.037733689846428213 0 -0.025873062294605179 -0.036138590380377943 0 -0.024046285312612464 -0.037484034498147148 0 -0.023855464929273963 -0.037197974522286473 0 -0.023640611064468926 -0.037706971501212654 0 -0.030856269379701748 -0.034474365894690294 0 -0.030557135100191889 -0.034269285084917576 0 -0.030938344412530381 -0.034201876829572604 0 -0.027763817978970845 -0.035847196768898866 0 -0.027297932909966315 -0.036127726634963726 0 -0.023855464929273963 -0.037197974522286473 0 -0.024136777555723018 -0.036279359030970883 0 -0.024459582469919583 -0.036821555674446595 0 -0.024046285312612464 -0.037484034498147148 0 -0.02426740928921434 -0.037189258678891765