<?xml version="1.0"?>
<VTKFile type="UnstructuredGrid" version="0.1" byte_order="LittleEndian">
<UnstructuredGrid>
<Piece NumberOfPoints="30957" NumberOfCells="10847">
<Points>
<DataArray type="Float64" NumberOfComponents="3" format="ascii">
-0.5 -0.5 0 -0.47120411738687817 -0.46389436250812971 0 -0.5 -0.43325734090004919 0 -0.5 -0.5 0 -0.46177944143722638 -0.5 0 -0.47120411738687817 -0.46389436250812971 0 -0.46177944143722638 -0.5 0 -0.44050651558103499 -0.47948761799458511 0 -0.47120411738687817 -0.46389436250812971 0 -0.45149654745744422 -0.43840233748464441 0 -0.47120411738687817 -0.46389436250812971 0 -0.46954456837491049 -0.42604858596389189 0 -0.45149654745744422 -0.43840233748464441 0 -0.4453150137602524 -0.45857218635572561 0 -0.43493249183805671 -0.44556966440005252 0 -0.44050651558103499 -0.47948761799458511 0 -0.4453150137602524 -0.45857218635572561 0 -0.4278319662168889 -0.46381336530289891 0 -0.44050651558103499 -0.47948761799458511 0 -0.4453150137602524 -0.45857218635572561 0 -0.47120411738687817 -0.46389436250812971 0 -0.45149654745744422 -0.43840233748464441 0 -0.4453150137602524 -0.45857218635572561 0 -0.47120411738687817 -0.46389436250812971 0 -0.47120411738687817 -0.46389436250812971 0 -0.5 -0.43325734090004919 0 -0.46954456837491049 -0.42604858596389189 0 -0.5 -0.43325734090004919 0 -0.47563538822490697 -0.41015817923674608 0 -0.48539331281604148 -0.39697119748621679 0 -0.5 -0.43325734090004919 0 -0.50000000000000444 -0.39051894366396339 0 -0.48539331281604148 -0.39697119748621679 0 -0.47563538822490697 -0.41015817923674608 0 -0.46954456837491049 -0.42604858596389189 0 -0.4619895481942633 -0.41107813452837799 0 -0.5 -0.43325734090004919 0 -0.47563538822490697 -0.41015817923674608 0 -0.46954456837491049 -0.42604858596389189 0 -0.50000000000000444 -0.39051894366396339 0 -0.48402855742399947 -0.3794190986461683 0 -0.48580530174085379 -0.36314921555540491 0 -0.50000000000000444 -0.39051894366396339 0 -0.48402855742399947 -0.3794190986461683 0 -0.50000000000000444 -0.39051894366396339 0 -0.48539331281604148 -0.39697119748621679 0 -0.48402855742399947 -0.3794190986461683 0 -0.47563538822490697 -0.41015817923674608 0 -0.47429419340057288 -0.39385245732894941 0 -0.46435106755713562 -0.39908871881395941 0 -0.47563538822490697 -0.41015817923674608 0 -0.48539331281604148 -0.39697119748621679 0 -0.47429419340057288 -0.39385245732894941 0 -0.48539331281604148 -0.39697119748621679 0 -0.47429419340057288 -0.39385245732894941 0 -0.47699880945166562 -0.38264522555729508 0 -0.47699880945166562 -0.38264522555729508 0 -0.46695218096338992 -0.38602373059370892 0 -0.46860430608728992 -0.36831925362837331 0 -0.48539331281604148 -0.39697119748621679 0 -0.47699880945166562 -0.38264522555729508 0 -0.48402855742399947 -0.3794190986461683 0 -0.48539331281604148 -0.39697119748621679 0 -0.47699880945166562 -0.38264522555729508 0 -0.47429419340057288 -0.39385245732894941 0 -0.47699880945166562 -0.38264522555729508 0 -0.46695218096338992 -0.38602373059370892 0 -0.47699880945166562 -0.38264522555729508 0 -0.46860430608728992 -0.36831925362837331 0 -0.47699880945166562 -0.38264522555729508 0 -0.48402855742399947 -0.3794190986461683 0 -0.46860430608728992 -0.36831925362837331 0 -0.45895008840711038 -0.37899996272486602 0 -0.46695218096338992 -0.38602373059370892 0 -0.46860430608728992 -0.36831925362837331 0 -0.45895008840711038 -0.37899996272486602 0 -0.45509873572632148 -0.3906280966051478 0 -0.44708215082180353 -0.38141274682380227 0 -0.45895008840711038 -0.37899996272486602 0 -0.46695218096338992 -0.38602373059370892 0 -0.45509873572632148 -0.3906280966051478 0 -0.45509873572632148 -0.3906280966051478 0 -0.46435106755713562 -0.39908871881395941 0 -0.44941999832388368 -0.40282973196011979 0 -0.47429419340057288 -0.39385245732894941 0 -0.46695218096338992 -0.38602373059370892 0 -0.46435106755713562 -0.39908871881395941 0 -0.46695218096338992 -0.38602373059370892 0 -0.45509873572632148 -0.3906280966051478 0 -0.46435106755713562 -0.39908871881395941 0 -0.46435106755713562 -0.39908871881395941 0 -0.44941999832388368 -0.40282973196011979 0 -0.4619895481942633 -0.41107813452837799 0 -0.44941999832388368 -0.40282973196011979 0 -0.43576489374223909 -0.40959267010010342 0 -0.43524500729050258 -0.39805954013448858 0 -0.44941999832388368 -0.40282973196011979 0 -0.44455255681338252 -0.39203513629979042 0 -0.43524500729050258 -0.39805954013448858 0 -0.45509873572632148 -0.3906280966051478 0 -0.44941999832388368 -0.40282973196011979 0 -0.44455255681338252 -0.39203513629979042 0 -0.45509873572632148 -0.3906280966051478 0 -0.44455255681338252 -0.39203513629979042 0 -0.44708215082180353 -0.38141274682380227 0 -0.44455255681338252 -0.39203513629979042 0 -0.44708215082180353 -0.38141274682380227 0 -0.43192883359269207 -0.3836277700427263 0 -0.44708215082180353 -0.38141274682380227 0 -0.43192883359269207 -0.3836277700427263 0 -0.44116542271728693 -0.37238627884632453 0 -0.45895008840711038 -0.37899996272486602 0 -0.44708215082180353 -0.38141274682380227 0 -0.45109544622768433 -0.36939150625119282 0 -0.45149654745744422 -0.43840233748464441 0 -0.46954456837491049 -0.42604858596389189 0 -0.45099671849047979 -0.41726545666717257 0 -0.46954456837491049 -0.42604858596389189 0 -0.4619895481942633 -0.41107813452837799 0 -0.45099671849047979 -0.41726545666717257 0 -0.47563538822490697 -0.41015817923674608 0 -0.46435106755713562 -0.39908871881395941 0 -0.4619895481942633 -0.41107813452837799 0 -0.44941999832388368 -0.40282973196011979 0 -0.4619895481942633 -0.41107813452837799 0 -0.45099671849047979 -0.41726545666717257 0 -0.44941999832388368 -0.40282973196011979 0 -0.45099671849047979 -0.41726545666717257 0 -0.43576489374223909 -0.40959267010010342 0 -0.45099671849047979 -0.41726545666717257 0 -0.44137699127042912 -0.42157624685835932 0 -0.43576489374223909 -0.40959267010010342 0 -0.45149654745744422 -0.43840233748464441 0 -0.44137699127042912 -0.42157624685835932 0 -0.42724980539155338 -0.42104452318151703 0 -0.45149654745744422 -0.43840233748464441 0 -0.42724980539155338 -0.42104452318151703 0 -0.45149654745744422 -0.43840233748464441 0 -0.45099671849047979 -0.41726545666717257 0 -0.44137699127042912 -0.42157624685835932 0 -0.45149654745744422 -0.43840233748464441 0 -0.42724980539155338 -0.42104452318151703 0 -0.43493249183805671 -0.44556966440005252 0 -0.42724980539155338 -0.42104452318151703 0 -0.43493249183805671 -0.44556966440005252 0 -0.41987266082354152 -0.43788670605155328 0 -0.44137699127042912 -0.42157624685835932 0 -0.43576489374223909 -0.40959267010010342 0 -0.42724980539155338 -0.42104452318151703 0 -0.43576489374223909 -0.40959267010010342 0 -0.42226149214261299 -0.40824650230207649 0 -0.42724980539155338 -0.42104452318151703 0 -0.42724980539155338 -0.42104452318151703 0 -0.41616810128903081 -0.4198767747784925 0 -0.40300306332566282 -0.40368670887838948 0 -0.42724980539155338 -0.42104452318151703 0 -0.40300306332566282 -0.40368670887838948 0 -0.42226149214261299 -0.40824650230207649 0 -0.42724980539155338 -0.42104452318151703 0 -0.40300306332566282 -0.40368670887838948 0 -0.41616810128903081 -0.4198767747784925 0 -0.40173542240972437 -0.44090696573003518 0 -0.42724980539155338 -0.42104452318151703 0 -0.41616810128903081 -0.4198767747784925 0 -0.41987266082354152 -0.43788670605155328 0 -0.41616810128903081 -0.4198767747784925 0 -0.40173542240972437 -0.44090696573003518 0 -0.41987266082354152 -0.43788670605155328 0 -0.43192883359269207 -0.3836277700427263 0 -0.43116454123529607 -0.36800039632657078 0 -0.41939774089595178 -0.37336154924530862 0 -0.43192883359269207 -0.3836277700427263 0 -0.42302820611099679 -0.39866210704829602 0 -0.41188955365135821 -0.38606679421346468 0 -0.43192883359269207 -0.3836277700427263 0 -0.43524500729050258 -0.39805954013448858 0 -0.42302820611099679 -0.39866210704829602 0 -0.44455255681338252 -0.39203513629979042 0 -0.43192883359269207 -0.3836277700427263 0 -0.43524500729050258 -0.39805954013448858 0 -0.43576489374223909 -0.40959267010010342 0 -0.43524500729050258 -0.39805954013448858 0 -0.42302820611099679 -0.39866210704829602 0 -0.43576489374223909 -0.40959267010010342 0 -0.42226149214261299 -0.40824650230207649 0 -0.42302820611099679 -0.39866210704829602 0 -0.42302820611099679 -0.39866210704829602 0 -0.41188955365135821 -0.38606679421346468 0 -0.40300306332566282 -0.40368670887838948 0 -0.42226149214261299 -0.40824650230207649 0 -0.42302820611099679 -0.39866210704829602 0 -0.40300306332566282 -0.40368670887838948 0 -0.41188955365135821 -0.38606679421346468 0 -0.41939774089595178 -0.37336154924530862 0 -0.40364922704091771 -0.36776129256775397 0 -0.43192883359269207 -0.3836277700427263 0 -0.41188955365135821 -0.38606679421346468 0 -0.41939774089595178 -0.37336154924530862 0 -0.41188955365135821 -0.38606679421346468 0 -0.39587469151253563 -0.38233190464131589 0 -0.40364922704091771 -0.36776129256775397 0 -0.39587469151253563 -0.38233190464131589 0 -0.40300306332566282 -0.40368670887838948 0 -0.37875632125977199 -0.38632889457526193 0 -0.40300306332566282 -0.40368670887838948 0 -0.37875632125977199 -0.38632889457526193 0 -0.41188955365135821 -0.38606679421346468 0 -0.39587469151253563 -0.38233190464131589 0 -0.40300306332566282 -0.40368670887838948 0 -0.40300306332566282 -0.40368670887838948 0 -0.37875632125977199 -0.38632889457526193 0 -0.38091960801568392 -0.40885003952666221 0 -0.39587469151253563 -0.38233190464131589 0 -0.37875632125977199 -0.38632889457526193 0 -0.3820752922849675 -0.3678158329717095 0 -0.39673592147291981 -0.41989049426782382 0 -0.38313730077258279 -0.42720141671048539 0 -0.40173542240972437 -0.44090696573003518 0 -0.41616810128903081 -0.4198767747784925 0 -0.39673592147291981 -0.41989049426782382 0 -0.40173542240972437 -0.44090696573003518 0 -0.40300306332566282 -0.40368670887838948 0 -0.39673592147291981 -0.41989049426782382 0 -0.38091960801568392 -0.40885003952666221 0 -0.41616810128903081 -0.4198767747784925 0 -0.40300306332566282 -0.40368670887838948 0 -0.39673592147291981 -0.41
[...]
<PointData Scalars="" Vectors="displacement," Tensors="">
<DataArray type="Float64" Name="displacement" NumberOfComponents="3" format="ascii">
5.281369076205469e-08 -0.034998723747516246 0 -0.00024387514342110892 -0.033266206286544364 0 -1.8414607537990836e-06 -0.030329337730279359 0 5.281369076205469e-08 -0.034998723747516246 0 -4.3300697802565322e-07 -0.034998013016743677 0 -0.00024387514342110892 -0.033266206286544364 0 -4.3300697802565322e-07 -0.034998013016743677 0 -0.0002037136810169136 -0.034459059426418213 0 -0.00024387514342110892 -0.033266206286544364 0 8.94428431646241e-05 -0.032873418561598575 0 -0.00024387514342110892 -0.033266206286544364 0 8.5080427851582402e-05 -0.031722619833885725 0 8.94428431646241e-05 -0.032873418561598575 0 -0.00014970058695536141 -0.033743681154969937 0 4.0717842340927007e-05 -0.033813360765299734 0 -0.0002037136810169136 -0.034459059426418213 0 -0.00014970058695536141 -0.033743681154969937 0 -0.00016289776350335885 -0.03427094080391134 0 -0.0002037136810169136 -0.034459059426418213 0 -0.00014970058695536141 -0.033743681154969937 0 -0.00024387514342110892 -0.033266206286544364 0 8.94428431646241e-05 -0.032873418561598575 0 -0.00014970058695536141 -0.033743681154969937 0 -0.00024387514342110892 -0.033266206286544364 0 -0.00024387514342110892 -0.033266206286544364 0 -1.8414607537990836e-06 -0.030329337730279359 0 8.5080427851582402e-05 -0.031722619833885725 0 -1.8414607537990836e-06 -0.030329337730279359 0 0.00014398416870302423 -0.030793640695311857 0 0.0002029552371606184 -0.029460429196341932 0 -1.8414607537990836e-06 -0.030329337730279359 0 4.321435425930729e-06 -0.027341033636466686 0 0.0002029552371606184 -0.029460429196341932 0 0.00014398416870302423 -0.030793640695311857 0 8.5080427851582402e-05 -0.031722619833885725 0 0.00026184438888369565 -0.031682287247315484 0 -1.8414607537990836e-06 -0.030329337730279359 0 0.00014398416870302423 -0.030793640695311857 0 8.5080427851582402e-05 -0.031722619833885725 0 2.6731431903773654e-08 -0.027331862738084075 0 2.4408606133820166e-05 -0.02588762274931113 0 -0.00017054910110263357 -0.025492011254903468 0 0.00018235624136432853 -0.027313995622080495 0 0.00073455039476017176 -0.027571430669402729 0 4.321435425930729e-06 -0.027341033636466686 0 0.0002029552371606184 -0.029460429196341932 0 0.0017791683364263495 -0.029461549456224392 0 0.00014398416870302423 -0.030793640695311857 0 0.00065399585758731539 -0.030711146108615493 0 0.00057533298180448582 -0.031405008519482726 0 0.00014398416870302423 -0.030793640695311857 0 0.0002029552371606184 -0.029460429196341932 0 0.00065399585758731539 -0.030711146108615493 0 0.0002029552371606184 -0.029460429196341932 0 0.00065399585758731539 -0.030711146108615493 0 0.0013738622958378377 -0.030640963832331086 0 0.0013738622958378377 -0.030640963832331086 0 0.0011294192752856534 -0.031227331448162629 0 0.0017691643834348745 -0.031227442184654831 0 0.0002029552371606184 -0.029460429196341932 0 0.001496836307597419 -0.030058410605058757 0 0.0017791683364263495 -0.029461549456224392 0 0.000231337921042782 -0.029535454727857114 0 0.0016113795402737969 -0.030435598872100757 0 0.00065399585758731539 -0.030711146108615493 0 0.0013738622958378377 -0.030640963832331086 0 0.0011294192752856534 -0.031227331448162629 0 0.0016113795402737969 -0.030435598872100757 0 0.0012765080836652039 -0.029083568486693523 0 0.001496836307597419 -0.030058410605058757 0 0.0017791683364263495 -0.029461549456224392 0 0.0026358324683280784 -0.030718246432574647 0 0.0013464601872673707 -0.031605264847500814 0 0.0011294192752856534 -0.031227331448162629 0 0.0017691643834348745 -0.031227442184654831 0 0.0013464601872673707 -0.031605264847500814 0 0.00092241541019082987 -0.031799571577917442 0 0.0012082235888474504 -0.032068283043889513 0 0.0013464601872673707 -0.031605264847500814 0 0.0011294192752856534 -0.031227331448162629 0 0.00092241541019082987 -0.031799571577917442 0 0.00092241541019082987 -0.031799571577917442 0 0.00057533298180448582 -0.031405008519482726 0 0.00052372617934837173 -0.032107939153079641 0 0.00065399585758731539 -0.030711146108615493 0 0.0011294192752856534 -0.031227331448162629 0 0.00057533298180448582 -0.031405008519482726 0 0.0011294192752856534 -0.031227331448162629 0 0.00092241541019082987 -0.031799571577917442 0 0.00057533298180448582 -0.031405008519482726 0 0.00057533298180448582 -0.031405008519482726 0 0.00052372617934837173 -0.032107939153079641 0 0.00026184438888369565 -0.031682287247315484 0 0.00052372617934837173 -0.032107939153079641 0 0.00037329726667137246 -0.032502619830326047 0 0.00068206909113609974 -0.032470332304612791 0 0.00052372617934837173 -0.032107939153079641 0 0.00086231184923883371 -0.032185945948311173 0 0.00068206909113609974 -0.032470332304612791 0 0.00092241541019082987 -0.031799571577917442 0 0.00052372617934837173 -0.032107939153079641 0 0.00086231184923883371 -0.032185945948311173 0 0.00092241541019082987 -0.031799571577917442 0 0.00086231184923883371 -0.032185945948311173 0 0.0012082235888474504 -0.032068283043889513 0 0.00086231184923883371 -0.032185945948311173 0 0.0012082235888474504 -0.032068283043889513 0 0.0010964432489649917 -0.032530410486645567 0 0.0012082235888474504 -0.032068283043889513 0 0.0010964432489649917 -0.032530410486645567 0 0.0014542631377752742 -0.032242197718260965 0 0.0013464601872673707 -0.031605264847500814 0 0.0012082235888474504 -0.032068283043889513 0 0.0015983475367099067 -0.031908949868571103 0 8.94428431646241e-05 -0.032873418561598575 0 8.5080427851582402e-05 -0.031722619833885725 0 0.0002168070909532926 -0.032255972685445937 0 8.5080427851582402e-05 -0.031722619833885725 0 0.00026184438888369565 -0.031682287247315484 0 0.0002168070909532926 -0.032255972685445937 0 0.00014398416870302423 -0.030793640695311857 0 0.00057533298180448582 -0.031405008519482726 0 0.00026184438888369565 -0.031682287247315484 0 0.00052372617934837173 -0.032107939153079641 0 0.00026184438888369565 -0.031682287247315484 0 0.0002168070909532926 -0.032255972685445937 0 0.00052372617934837173 -0.032107939153079641 0 0.0002168070909532926 -0.032255972685445937 0 0.00037329726667137246 -0.032502619830326047 0 0.0002168070909532926 -0.032255972685445937 0 0.00017253820332989098 -0.032547605830837927 0 0.00037329726667137246 -0.032502619830326047 0 8.94428431646241e-05 -0.032873418561598575 0 0.00017253820332989098 -0.032547605830837927 0 0.0001769719833425495 -0.032587092830656667 0 0.00010130457477249984 -0.032873533243917799 0 0.00043596830603525368 -0.033308198338543205 0 8.94428431646241e-05 -0.032873418561598575 0 0.0002168070909532926 -0.032255972685445937 0 0.00017253820332989098 -0.032547605830837927 0 8.94428431646241e-05 -0.032873418561598575 0 0.00073561755635512228 -0.034042417428738946 0 4.0717842340927007e-05 -0.033813360765299734 0 0.00073561755635512228 -0.034042417428738946 0 4.0717842340927007e-05 -0.033813360765299734 0 0.00028101207752370168 -0.034208035305297396 0 0.00017253820332989098 -0.032547605830837927 0 0.00037329726667137246 -0.032502619830326047 0 0.0001769719833425495 -0.032587092830656667 0 0.00037329726667137246 -0.032502619830326047 0 0.00043580060674137342 -0.032763339361743124 0 0.0001769719833425495 -0.032587092830656667 0 0.00073561755635512228 -0.034042417428738946 0 0.00070496594126076952 -0.03414380717265518 0 0.00077090055212299298 -0.034145362413752399 0 0.00043596830603525368 -0.033308198338543205 0 0.00066823202681340224 -0.033721706109672726 0 0.00043580060674137342 -0.032763339361743124 0 0.0001769719833425495 -0.032587092830656667 0 0.00051583535283239587 -0.033288128209402287 0 0.00066810828842188094 -0.034174940552165398 0 0.00041293718378220581 -0.034347347794287809 0 0.00073561755635512228 -0.034042417428738946 0 0.00070496594126076952 -0.03414380717265518 0 0.00028101207752370168 -0.034208035305297396 0 0.00070496594126076952 -0.03414380717265518 0 0.00022264450732513961 -0.034602067632036104 0 0.00028101207752370168 -0.034208035305297396 0 0.0010964432489649917 -0.032530410486645567 0 0.0015371053298791613 -0.032534205627035899 0 0.0013578794867465508 -0.032856008452189549 0 0.0010964432489649917 -0.032530410486645567 0 0.00066764962335795236 -0.0327596360429891 0 0.0010098434611776504 -0.033058485322883281 0 0.0010964432489649917 -0.032530410486645567 0 0.00068206909113609974 -0.032470332304612791 0 0.00066764962335795236 -0.0327596360429891 0 0.00086231184923883371 -0.032185945948311173 0 0.0010964432489649917 -0.032530410486645567 0 0.00068206909113609974 -0.032470332304612791 0 0.00037329726667137246 -0.032502619830326047 0 0.00068206909113609974 -0.032470332304612791 0 0.00066764962335795236 -0.0327596360429891 0 0.00037329726667137246 -0.032502619830326047 0 0.00043580060674137342 -0.032763339361743124 0 0.00066764962335795236 -0.0327596360429891 0 0.00066764962335795236 -0.0327596360429891 0 0.0010098434611776504 -0.033058485322883281 0 0.00051583535283239587 -0.033288128209402287 0 0.00043580060674137342 -0.032763339361743124 0 0.00066764962335795236 -0.0327596360429891 0 0.00051583535283239587 -0.033288128209402287 0 0.0010098434611776504 -0.033058485322883281 0 0.0013578794867465508 -0.032856008452189549 0 0.0014746879280145254 -0.033269700963238245 0 0.0010964432489649917 -0.032530410486645567 0 0.0010098434611776504 -0.033058485322883281 0 0.0013578794867465508 -0.032856008452189549 0 0.0010098434611776504 -0.033058485322883281 0 0.0011056161120268947 -0.033504070484283263 0 0.0014746879280145254 -0.033269700963238245 0 0.0011056161120268947 -0.033504070484283263 0 0.00051583535283239587 -0.033288128209402287 0 0.00099712717829911137 -0.034045436289313273 0 0.00066823202681340224 -0.033721706109672726 0 0.00097619022564696871 -0.034048513593112506 0 0.0010098434611776504 -0.033058485322883281 0 0.0011056161120268947 -0.033504070484283263 0 0.00051583535283239587 -0.033288128209402287 0 0.00077090055212299298 -0.034145362413752399 0 0.00099712717829911137 -0.034045436289313273 0 0.00076897025511491553 -0.034190279081535706 0 0.0011056161120268947 -0.033504070484283263 0 0.00099712717829911137 -0.034045436289313273 0 0.0014373676511925024 -0.033835193276200541 0 0.00069071107791804712 -0.034168110037033191 0 0.00061736721010781435 -0.034244777970465747 0 0.00055996440199371233 -0.034148176311526113 0 0.00070496594126076952 -0.03414380717265518 0 0.00069071107791804712 -0.034168110037033191 0 0.00055996440199371233 -0.034148176311526113 0 0.00077090055212299298 -0.034145362413752399 0 0.00069071107791804712 -0.034168110037033191 0 0.00076897025511491553 -0.034190279081535706 0 0.00070496594126076952 -0.03414380717265518 0 0.00077090055212299298 -0.034145362413752399 0 0.00069071107791804712 -0.034168110037033191 0 0.00069071107791804712 -0.034168110037033191 0 0.00076897025511491553 -0.034190279081535706 0 0.00061736721010781435 -0.034244777970465747 0 0.00076897025511491553 -0.034190279081535706 0 0.00061736721010781435 -0.034244777970465747 0 0.00059666051147728896 -0.034426035299261339 0 0.00061736721010781435 -0.034244777970465747 0 0.00052182529708581088 -0.034294439522095731 0 0.00059666051147728896 -0.034426035299261339 0 0.00061736721010781435 -0.034244777970465747 0 0.00052182529708581088 -0.034294439522095731 0 0.00055996440199371233 -0.034148176311526113 0 0.00047245013796007112 -0.03440699022868237 0 0.0001118266281663634 -0.034623718988555326 0 0.00052182529708581088 -0.034294439522095731 0 0.00055996440199371233 -0.034148176311526113 0 0.00041154112841850003 -0.03423578458644435 0 0.00041293718378220581 -0.034347347794287809 0 0.0001118266281663634 -0.034623718988555326 0 0.00022264450732513961 -0.034602067632036104 0 -6.0158940851990096e-05 -0.034765442630723356 0 -8.3980655634436233e-05 -0.034561111955260009 0 -6.0158940851990096e-05 -0.034765442630723356 0 -0.00015395946986898647 -0.03468797560606008 0 -8.3980655634436233e-05 -0.034561111955260009 0 0.00035382003936169503 -0.034536802119888438 0 0.00018218102780687495 -0.034560348311941866 0 0.00016827980163039021 -0.034760732832198639 0 0.0001118266281663634 -0.034623718988555326 0 -2.0805534033436391e-05 -0.034897978029493175 0 -0.00010335340510781649 -0.034962936858412556 0 6.7358127752334628e-06 -0.034971572865643154 0 -1.5652812098127594e-05 -0.034997534680094512 0 -0.00010335340510781649 -0.034962936858412556 0 6.7358127752334628e-06 -0.034971572865643154 0 1.2068192818073481e-05 -0.034870291966312125 0 6.7358127752334628e-06 -0.034971572865643154 0 4.5016946513289421e-08 -0.034999808725120873 0 1.2068192818073481e-05 -0.034870291966312125 0 6.7358127752334628e-06 -0.034971572865643154 0 -1.5652812098127594e-05 -0.034997534680094512 0 -6.0009454071239692e-09 -0.035000079594860338 0 6.7358127752334628e-06 -0.034971572865643154 0 4.5016946513289421e-08 -0.034999808725120873 0 -6.0009454071239692e-09 -0.035000079594860338 0 -0.0001123708034707217 -0.03486717925313023 0 -3.7091189814454295e-08 -0.034999917849990334 0 0.0001118266281663634 -0.034623718988555326 0 -0.0001123708034707217 -0.03486717925313023 0 -4.3300697802565322e-07 -0.034998013016743677 0 -0.0002037136810169136 -0.034459059426418213 0 -3.1770406779545963e-07 -0.034999003664131903 0 -0.0002037136810169136 -0.034459059426418213 0 -0.00015565177994729276 -0.034613999890846077 0 -3.1770406779545963e-07 -0.034999003664131903 0 -0.00015395946986898647 -0.03468797560606008 0 -0.00015565177994729276 -0.034613999890846077 0 -8.3980655634436233e-05 -0.034561111955260009 0 -0.00015395946986898647 -0.03468797560606008 0 -0.00015565177994729276 -0.034613999890846077 0 -3.1770406779545963e-07 -0.034999003664131903 0 -0.0002037136810169136 -0.034459059426418213 0 -0.00015565177994729276 -0.034613999890846077 0 -0.00016289776350335885 -0.03427094080391134 0 -0.00014970058695536141 -0.033743681154969937 0 -0.00016289776350335885 -0.03427094080391134 0 4.0717842340927007e-05 -0.033813360765299734 0 -0.00016289776350335885 -0.03427094080391134 0 4.0717842340927007e-05 -0.033813360765299734 0 0.00028101207752370168 -0.034208035305297396 0 0.00022264450732513961 -0.034602067632036104 0 0.00028101207752370168 -0.034208035305297396 0 -8.3980655634436233e-05 -0.034561111955260009 0 -0.00016289776350335885 -0.03427094080391134 0 0.00028101207752370168 -0.034208035305297396 0 -8.3980655634436233e-05 -0.034561111955260009 0 -0.00015565177994729276 -0.034613999890846077 0 -0.00016289776350335885 -0.03427094080391134 0 -8.3980655634436233e-05 -0.034561111955260009 0 0.00058252397884649186 -0.021626475412811572 0 0.00026309345619630192 -0.021770925133782842 0 0.00038205875716720785 -0.021648789656071098 0 0.00040681750745952239 -0.021636635390865685 0 0.00027197950048929648 -0.021732236366184318 0 0.00038205875716720785 -0.021648789656071098 0 0.00040681750745952239 -0.021636635390865685 0 0.00040333374789012718 -0.021618966673954829 0 0.00038205875716720785 -0.021648789656071098 0 0.00038803169211860955 -0.021630267666819063 0 0.00040333374789012718 -0.021618966673954829 0 0.00058252397884649186 -0.021626475412811572 0 0.00051909573832779584 -0.021655348374039384 0 0.00027197950048929648 -0.021732236366184318 0 0.00015574416074703128 -0.021981557682038244 0 0.00033098021802168104 -0.022004162883819726 0 0.0006226025081939459 -0.021943365216012423 0 0.00027197950048929648 -0.021732236366184318 0 0.00033098021802168104 -0.022004162883819726 0 0.00027197950048929648 -0.021732236366184318 0 0.00036235712268052562 -0.02164007774982946 0 0.00029832402240515503 -0.021422949216411875 0 0.00038205875716720785 -0.021648789656071098 0 0.00027197950048929648 -0.021732236366184318 0 0.00036235712268052562 -0.02164007774982946 0 0.00038205875716720785 -0.021648789656071098 0 0.00036235712268052562 -0.02164007774982946 0 0.00039192280739534324 -0.021638057642200951 0 0.00038205875716720785 -0.021648789656071098 0 0.00039192280739534324 -0.021638057642200951 0 0.00038803169211860955 -0.021630267666819063 0 0.00039192280739534324 -0.021638057642200951 0 0.00042047095948771204 -0.021623044780507954 0 0.00038803169211860955 -0.021630267666819063 0 0.00036235712268052562 -0.02164007774982946 0 0.00039192280739534324 -0.021638057642200951 0 0.00042047095948771204 -0.021623044780507954 0 0.00010635809386106271 -0.020931125994874712 0 0.00013674080681524747 -0.021289743646020518 0 0.00029832402240515503 -0.021422949216411875 0 0.00010635809386106271 -0.020931125994874712 0 0.00013674080681524747 -0.021289743646020518 0 4.5492659057696108e-06 -0.021142573251979973 0 0.00020857797053779861 -0.021235079486999403 0 0.00030566955154935811 -0.021402765613445965 0 0.00036235712268052562 -0.02164007774982946 0 0.00042047095948771204 -0.021623044780507954 0 0.00029832402240515503 -0.021422949216411875 0 3.255707224662497e-05 -0.01977174545994875 0 9.3828275057815127e-06 -0.01891837445313448 0 0.00013674080681524747 -0.021289743646020518 0 0.00029045539945543689 -0.021471082832360749 0 0.00029832402240515503 -0.021422949216411875 0 0.00013674080681524747 -0.021289743646020518 0 0.00029045539945543689 -0.021471082832360749 0 -8.1264171468208555e-05 -0.021382360181441781 0 3.255707224662497e-05 -0.01977174545994875 0 3.4655835760378295e-05 -0.021396044470011057 0 0.00029045539945543689 -0.021471082832360749 0 0.00029832402240515503 -0.021422949216411875 0 0.00016629637168326302 -0.021457664730653945 0 0.00027197950048929648 -0.021732236366184318 0 0.00029832402240515503 -0.021422949216411875 0 0.00016629637168326302 -0.021457664730653945 0 8.8777669905001376e-07 -0.018631521020343034 0 6.347779985601431e-05 -0.021233082545558328 0 -3.2545149726664398e-07 -0.020664837847960867 0 6.347779985601431e-05 -0.021233082545558328 0 -3.2545149726664398e-07 -0.020664837847960867 0 -0.00014876404036075596 -0.021740122585401513 0 -3.2545149726664398e-07 -0.020664837847960867 0 -0.00014876404036075596 -0.021740122585401513 0 -8.8749136321457799e-07 -0.022613622464215617 0 0.00016629637168326302 -0.021457664730653945 0 9.1293755415607178e-05 -0.021732445022691099 0 -0.00011417570068591006 -0.021852623748895357 0 6.347779985601431e-05 -0.021233082545558328 0 -0.00014876404036075596 -0.021740122585401513 0 -0.00011417570068591006 -0.021852623748895357 0 3.4655835760378295e-05 -0.021396044470011057 0 -9.8744586933206981e-05 -0.021795252785892671 0 5.0581298470270257e-05 -0.021871401635947481 0 -6.5333805834978708e-05 -0.021888611964304625 0 -0.00011417570068591006 -0.021852623748895357 0 9.1293755415607178e-05 -0.021732445022691099 0 5.0581298470270257e-05 -0.021871401635947481 0 -0.00011417570068591006 -0.021852623748895357 0 0.00027197950048929648 -0.021732236366184318 0 0.00016629637168326302 -0.021457664730653945 0 9.1293755415607178e-05 -0.021732445022691099 0 0.00027197950048929648 -0.021732236366184318 0 9.1293755415607178e-05 -0.021732445022691099 0 5.0581298470270257e-05 -0.021871401635947481 0 0.00027197950048929648 -0.021732236366184318 0 0.00015574416074703128 -0.021981557682038244 0 5.0581298470270257e-05 -0.021871401635947481 0 0.00015574416074703128 -0.021981557682038244 0 5.0581298470270257e-05 -0.021871401635947481 0 3.4183638558051753e-05 -0.022088509855201895 0 5.0581298470270257e-05 -0.021871401635947481 0 -8.6665207182093284e-05 -0.021996973035100394 0 3.4183638558051753e-05 -0.022088509855201895 0 5.0581298470270257e-05 -0.021871401635947481 0 -6.5333805834978708e-05 -0.021888611964304625 0 -8.6665207182093284e-05 -0.021996973035100394 0 0.0011379623084853692 -0.027761021700420038 0 0.00070688660925633483 -0.025688533795684778 0 0.0012737414537622315 -0.028891481552644475 0 0.0012755983067551894 -0.028895822323901553 0 0.0012714269074744437 -0.028884757643168679 0 -6.5333805834978708e-05 -0.021888611964304625 0 -6.2602619051153554e-05 -0.021844640611780416 0 -8.6665207182093284e-05 -0.021996973035100394 0 0.00019168748569576178 -0.023627066220972114 0 0.00070688660925633483 -0.025688533795684778 0 0.00055770828253563786 -0.026170652915689901 0 0.00066717535266701451 -0.025967118184011123 0 0.00087784303158361669 -0.026350789737173409 0 0