<?xml version="1.0"?>
<VTKFile type="UnstructuredGrid" version="0.1" byte_order="LittleEndian">
<UnstructuredGrid>
<Piece NumberOfPoints="29622" NumberOfCells="10370">
<Points>
<DataArray type="Float64" NumberOfComponents="3" format="ascii">
-0.49485421638997129 -0.48903540387187389 0 -0.47966379557855132 -0.48208057761239048 0 -0.45751766390445858 -0.5 0 -0.49485421638997129 -0.48903540387187389 0 -0.48132784707583531 -0.46780503325861211 0 -0.5 -0.39304332915441309 0 -0.49485421638997129 -0.48903540387187389 0 -0.5 -0.5 0 -0.5 -0.39304332915441309 0 -0.49485421638997129 -0.48903540387187389 0 -0.5 -0.5 0 -0.45751766390445858 -0.5 0 -0.49485421638997129 -0.48903540387187389 0 -0.47966379557855132 -0.48208057761239048 0 -0.48132784707583531 -0.46780503325861211 0 -0.49485421638997129 -0.48903540387187389 0 -0.48132784707583531 -0.46780503325861211 0 -0.47966379557855132 -0.48208057761239048 0 -0.47195399330063897 -0.473203497292849 0 -0.48132784707583531 -0.46780503325861211 0 -0.47966379557855132 -0.48208057761239048 0 -0.47195399330063897 -0.473203497292849 0 -0.45751766390445858 -0.5 0 -0.45751766390445858 -0.5 0 -0.42620230597632591 -0.50000000000000089 0 -0.43480942387586652 -0.48036079921444441 0 -0.47195399330063897 -0.473203497292849 0 -0.45305143556040289 -0.47753612750543212 0 -0.45071632046259408 -0.45996853728771042 0 -0.47195399330063897 -0.473203497292849 0 -0.45751766390445858 -0.5 0 -0.45305143556040289 -0.47753612750543212 0 -0.45305143556040289 -0.47753612750543212 0 -0.43480942387586652 -0.48036079921444441 0 -0.43627077375768197 -0.46331343798553171 0 -0.45751766390445858 -0.5 0 -0.45305143556040289 -0.47753612750543212 0 -0.43480942387586652 -0.48036079921444441 0 -0.45047061609287048 -0.44376226569403138 0 -0.44104809386808058 -0.43352676383870747 0 -0.42947864762454918 -0.4467335772825719 0 -0.45047061609287048 -0.44376226569403138 0 -0.45071632046259408 -0.45996853728771042 0 -0.42947864762454918 -0.4467335772825719 0 -0.45305143556040289 -0.47753612750543212 0 -0.45071632046259408 -0.45996853728771042 0 -0.43627077375768197 -0.46331343798553171 0 -0.45071632046259408 -0.45996853728771042 0 -0.42947864762454918 -0.4467335772825719 0 -0.45071632046259408 -0.45996853728771042 0 -0.43627077375768197 -0.46331343798553171 0 -0.42947864762454918 -0.4467335772825719 0 -0.47195399330063897 -0.473203497292849 0 -0.45071632046259408 -0.45996853728771042 0 -0.4676094613981967 -0.46165311892656757 0 -0.47195399330063897 -0.473203497292849 0 -0.45071632046259408 -0.45996853728771042 0 -0.45071632046259408 -0.45996853728771042 0 -0.45984069590491328 -0.45401373694973829 0 -0.4676094613981967 -0.46165311892656757 0 -0.4676094613981967 -0.46165311892656757 0 -0.46780147776169873 -0.44657466264535067 0 -0.45984069590491328 -0.45401373694973829 0 -0.4676094613981967 -0.46165311892656757 0 -0.46780147776169873 -0.44657466264535067 0 -0.45047061609287048 -0.44376226569403138 0 -0.45984069590491328 -0.45401373694973829 0 -0.46780147776169873 -0.44657466264535067 0 -0.45047061609287048 -0.44376226569403138 0 -0.45071632046259408 -0.45996853728771042 0 -0.45984069590491328 -0.45401373694973829 0 -0.45047061609287048 -0.44376226569403138 0 -0.46780147776169873 -0.44657466264535067 0 -0.45349168221317732 -0.42411466204654691 0 -0.46780147776169873 -0.44657466264535067 0 -0.48132784707583531 -0.46780503325861211 0 -0.4676094613981967 -0.46165311892656757 0 -0.46780147776169873 -0.44657466264535067 0 -0.48132784707583531 -0.46780503325861211 0 -0.47195399330063897 -0.473203497292849 0 -0.4676094613981967 -0.46165311892656757 0 -0.48132784707583531 -0.46780503325861211 0 -0.46780147776169873 -0.44657466264535067 0 -0.5 -0.39304332915441309 0 -0.46811911363238717 -0.42163169162870001 0 -0.46780147776169873 -0.44657466264535067 0 -0.48132784707583531 -0.46780503325861211 0 -0.5 -0.39304332915441309 0 -0.5 -0.39304332915441309 0 -0.46843674950307651 -0.39668872061204918 0 -0.46811911363238717 -0.42163169162870001 0 -0.5 -0.39304332915441309 0 -0.46843674950307651 -0.39668872061204918 0 -0.46875438537376568 -0.37174574959539841 0 -0.46843674950307651 -0.39668872061204918 0 -0.46875438537376568 -0.37174574959539841 0 -0.45710457142705352 -0.38504504192178968 0 -0.46843674950307651 -0.39668872061204918 0 -0.46875438537376568 -0.37174574959539841 0 -0.45710457142705352 -0.38504504192178968 0 -0.46843674950307651 -0.39668872061204918 0 -0.45814675552769368 -0.40820001903729841 0 -0.45710457142705352 -0.38504504192178968 0 -0.43918188666465519 -0.40165466144774348 0 -0.45814675552769368 -0.40820001903729841 0 -0.45710457142705352 -0.38504504192178968 0 -0.43918188666465519 -0.40165466144774348 0 -0.44104219080419582 -0.37347083416253418 0 -0.45710457142705352 -0.38504504192178968 0 -0.4572122904922577 -0.36774700747612332 0 -0.44104219080419582 -0.37347083416253418 0 -0.46780147776169873 -0.44657466264535067 0 -0.45349168221317732 -0.42411466204654691 0 -0.46811911363238717 -0.42163169162870001 0 -0.46780147776169873 -0.44657466264535067 0 -0.45349168221317732 -0.42411466204654691 0 -0.46780147776169873 -0.44657466264535067 0 -0.46811911363238717 -0.42163169162870001 0 -0.46843674950307651 -0.39668872061204918 0 -0.46811911363238717 -0.42163169162870001 0 -0.45814675552769368 -0.40820001903729841 0 -0.45349168221317732 -0.42411466204654691 0 -0.46811911363238717 -0.42163169162870001 0 -0.45814675552769368 -0.40820001903729841 0 -0.46843674950307651 -0.39668872061204918 0 -0.46811911363238717 -0.42163169162870001 0 -0.43918188666465519 -0.40165466144774348 0 -0.45349168221317732 -0.42411466204654691 0 -0.43918188666465519 -0.40165466144774348 0 -0.45349168221317732 -0.42411466204654691 0 -0.45814675552769368 -0.40820001903729841 0 -0.43918188666465519 -0.40165466144774348 0 -0.45349168221317732 -0.42411466204654691 0 -0.43003658358618901 -0.42326990374997903 0 -0.45349168221317732 -0.42411466204654691 0 -0.44104809386808058 -0.43352676383870747 0 -0.43003658358618901 -0.42326990374997903 0 -0.45047061609287048 -0.44376226569403138 0 -0.45349168221317732 -0.42411466204654691 0 -0.44104809386808058 -0.43352676383870747 0 -0.44104809386808058 -0.43352676383870747 0 -0.43003658358618901 -0.42326990374997903 0 -0.42947864762454918 -0.4467335772825719 0 -0.43003658358618901 -0.42326990374997903 0 -0.40824097478650417 -0.43349861727743327 0 -0.42947864762454918 -0.4467335772825719 0 -0.43918188666465519 -0.40165466144774348 0 -0.43003658358618901 -0.42326990374997903 0 -0.41939074694921452 -0.39847550860422248 0 -0.40933736888919142 -0.41582472602523213 0 -0.41939074694921452 -0.39847550860422248 0 -0.39691773321276591 -0.40451995308690569 0 -0.43003658358618901 -0.42326990374997903 0 -0.40933736888919142 -0.41582472602523213 0 -0.41939074694921452 -0.39847550860422248 0 -0.43003658358618901 -0.42326990374997903 0 -0.40933736888919142 -0.41582472602523213 0 -0.40824097478650417 -0.43349861727743327 0 -0.43918188666465519 -0.40165466144774348 0 -0.42487209111613222 -0.37919466084894071 0 -0.42487209111613222 -0.37919466084894071 0 -0.44104219080419582 -0.37347083416253418 0 -0.43918188666465519 -0.40165466144774348 0 -0.42487209111613222 -0.37919466084894071 0 -0.44104219080419582 -0.37347083416253418 0 -0.43918188666465519 -0.40165466144774348 0 -0.42487209111613222 -0.37919466084894071 0 -0.41939074694921452 -0.39847550860422248 0 -0.41939074694921452 -0.39847550860422248 0 -0.40300003565967968 -0.38693684284679258 0 -0.39691773321276591 -0.40451995308690569 0 -0.42487209111613222 -0.37919466084894071 0 -0.40300003565967968 -0.38693684284679258 0 -0.42487209111613222 -0.37919466084894071 0 -0.41939074694921452 -0.39847550860422248 0 -0.40300003565967968 -0.38693684284679258 0 -0.42487209111613222 -0.37919466084894071 0 -0.40300003565967968 -0.38693684284679258 0 -0.40034883944948352 -0.37081685356611482 0 -0.40300003565967968 -0.38693684284679258 0 -0.38720811424459922 -0.38269289919929472 0 -0.40034883944948352 -0.37081685356611482 0 -0.40300003565967968 -0.38693684284679258 0 -0.39691773321276591 -0.40451995308690569 0 -0.38112798020322552 -0.39467902484464013 0 -0.40300003565967968 -0.38693684284679258 0 -0.38112798020322552 -0.39467902484464013 0 -0.39691773321276591 -0.40451995308690569 0 -0.38092085950929938 -0.40584578046397218 0 -0.38112798020322552 -0.39467902484464013 0 -0.38092085950929938 -0.40584578046397218 0 -0.38112798020322552 -0.39467902484464013 0 -0.37260182642857559 -0.39831487258102538 0 -0.38112798020322552 -0.39467902484464013 0 -0.3755243739538135 -0.38933559825649589 0 -0.37260182642857559 -0.39831487258102538 0 -0.40300003565967968 -0.38693684284679258 0 -0.38112798020322552 -0.39467902484464013 0 -0.38720811424459922 -0.38269289919929472 0 -0.38112798020322552 -0.39467902484464013 0 -0.38066855662570548 -0.38741133800680971 0 -0.38720811424459922 -0.38269289919929472 0 -0.3755243739538135 -0.38933559825649589 0 -0.37881375810118412 -0.38293782972680801 0 -0.37166373307095851 -0.38075684139963512 0 -0.38066855662570548 -0.38741133800680971 0 -0.37881375810118412 -0.38293782972680801 0 -0.38720811424459922 -0.38269289919929472 0 -0.38112798020322552 -0.39467902484464013 0 -0.38066855662570548 -0.38741133800680971 0 -0.3755243739538135 -0.38933559825649589 0 -0.38066855662570548 -0.38741133800680971 0 -0.3755243739538135 -0.38933559825649589 0 -0.37881375810118412 -0.38293782972680801 0 -0.37881375810118412 -0.38293782972680801 0 -0.37785856937865758 -0.37355414846445112 0 -0.37166373307095851 -0.38075684139963512 0 -0.37881375810118412 -0.38293782972680801 0 -0.38720811424459922 -0.38269289919929472 0 -0.37785856937865758 -0.37355414846445112 0 -0.40824097478650417 -0.43349861727743327 0 -0.38700330194845922 -0.4202636572722947 0 -0.40824097478650417 -0.43349861727743327 0 -0.38700330194845922 -0.4202636572722947 0 -0.38330031069482279 -0.4443361399444733 0 -0.40933736888919142 -0.41582472602523213 0 -0.40824097478650417 -0.43349861727743327 0 -0.38700330194845922 -0.4202636572722947 0 -0.40933736888919
[...]
<PointData Scalars="" Vectors="displacement," Tensors="">
<DataArray type="Float64" Name="displacement" NumberOfComponents="3" format="ascii">
-0.024896616419558232 9.2580236927001287e-06 0 -0.023941159712714519 -8.2914898468393379e-05 0 -0.022876011274668245 -8.6837573924227186e-07 0 -0.024896616419558232 9.2580236927001287e-06 0 -0.024916110346259755 1.8733631629214167e-05 0 -0.025000089250731661 8.523944691674445e-09 0 -0.024896616419558232 9.2580236927001287e-06 0 -0.024998304996210682 2.4258205418020862e-07 0 -0.025000089250731661 8.523944691674445e-09 0 -0.024896616419558232 9.2580236927001287e-06 0 -0.024998304996210682 2.4258205418020862e-07 0 -0.022876011274668245 -8.6837573924227186e-07 0 -0.024896616419558232 9.2580236927001287e-06 0 -0.023941159712714519 -8.2914898468393379e-05 0 -0.023456246787466231 -3.4113751112460276e-06 0 -0.024772656483727527 2.9902623138763231e-05 0 -0.024226789008049043 -2.8901360917433719e-05 0 -0.023941159712714519 -8.2914898468393379e-05 0 -0.023522504959523509 -0.0001502815351057675 0 -0.023456246787466231 -3.4113751112460276e-06 0 -0.023941159712714519 -8.2914898468393379e-05 0 -0.023522504959523509 -0.0001502815351057675 0 -0.022876011274668245 -8.6837573924227186e-07 0 -0.022876011274668245 -8.6837573924227186e-07 0 -0.021312774872821082 1.213397139443301e-06 0 -0.022510017279075173 -4.0315780315853629e-05 0 -0.023522504959523509 -0.0001502815351057675 0 -0.022972495895031773 -6.5237190488783844e-05 0 -0.022928167842633473 -5.3813680295843788e-05 0 -0.023522504959523509 -0.0001502815351057675 0 -0.022876011274668245 -8.6837573924227186e-07 0 -0.022972495895031773 -6.5237190488783844e-05 0 -0.022972495895031773 -6.5237190488783844e-05 0 -0.022510017279075173 -4.0315780315853629e-05 0 -0.022813693275220689 3.3281326863410025e-05 0 -0.022876011274668245 -8.6837573924227186e-07 0 -0.022972495895031773 -6.5237190488783844e-05 0 -0.022510017279075173 -4.0315780315853629e-05 0 -0.023625691636000607 -0.00012751598443741757 0 -0.023710906877054305 -7.4781482549759727e-05 0 -0.023623360250036161 3.701218883232588e-07 0 -0.023625691636000607 -0.00012751598443741757 0 -0.023507732287453367 -0.0001360499452155543 0 -0.023623360250036161 3.701218883232588e-07 0 -0.022972495895031773 -6.5237190488783844e-05 0 -0.022928167842633473 -5.3813680295843788e-05 0 -0.022813693275220689 3.3281326863410025e-05 0 -0.023237955788260437 -0.00011858517334976627 0 -0.023271630134189411 9.5264483344703876e-05 0 -0.022928167842633473 -5.3813680295843788e-05 0 -0.022813693275220689 3.3281326863410025e-05 0 -0.02291528961572244 0.0001732012956601802 0 -0.023522504959523509 -0.0001502815351057675 0 -0.023507732287453367 -0.0001360499452155543 0 -0.023485012520980054 -0.00015679926928882177 0 -0.023448711603932068 -0.00015184090249711684 0 -0.023237955788260437 -0.00011858517334976627 0 -0.023507732287453367 -0.0001360499452155543 0 -0.023539265954391455 -0.00016175449964748513 0 -0.023485012520980054 -0.00015679926928882177 0 -0.023305686574912218 -0.0001565754448256307 0 -0.024148219555809133 -6.6135323713720546e-05 0 -0.023539265954391455 -0.00016175449964748513 0 -0.023485012520980054 -0.00015679926928882177 0 -0.023594041566302296 -0.00021954301007710448 0 -0.023625691636000607 -0.00012751598443741757 0 -0.023539265954391455 -0.00016175449964748513 0 -0.023594041566302296 -0.00021954301007710448 0 -0.023625691636000607 -0.00012751598443741757 0 -0.023507732287453367 -0.0001360499452155543 0 -0.023539265954391455 -0.00016175449964748513 0 -0.023625691636000607 -0.00012751598443741757 0 -0.023594041566302296 -0.00021954301007710448 0 -0.023776721552089864 -0.00015947946887402668 0 -0.024148219555809133 -6.6135323713720546e-05 0 -0.024226789008049043 -2.8901360917433719e-05 0 -0.023485012520980054 -0.00015679926928882177 0 -0.023404026097037848 -0.00017137418302725209 0 -0.023456246787466231 -3.4113751112460276e-06 0 -0.023522504959523509 -0.0001502815351057675 0 -0.023485012520980054 -0.00015679926928882177 0 -0.023456246787466231 -3.4113751112460276e-06 0 -0.02493446249765735 2.7122391918062303e-05 0 -0.025000089250731661 8.523944691674445e-09 0 -0.024958631423531354 2.3131601025766939e-05 0 -0.02493446249765735 2.7122391918062303e-05 0 -0.024916110346259755 1.8733631629214167e-05 0 -0.025000089250731661 8.523944691674445e-09 0 -0.025000089250731661 8.523944691674445e-09 0 -0.024954749107097489 1.1081120911428657e-05 0 -0.024958631423531354 2.3131601025766939e-05 0 -0.025000089250731661 8.523944691674445e-09 0 -0.024954749107097489 1.1081120911428657e-05 0 -0.024825432814279656 5.2889903009427719e-05 0 -0.024781691683176042 2.5126313173007763e-05 0 -0.024836541548354848 4.6098250400132146e-05 0 -0.02472340464514965 0.00010101272632254088 0 -0.024661086556992826 3.2798253003195637e-05 0 -0.024825432814279656 5.2889903009427719e-05 0 -0.02472340464514965 0.00010101272632254088 0 -0.024661086556992826 3.2798253003195637e-05 0 -0.024601980496816545 8.3850297228876513e-05 0 -0.02472340464514965 0.00010101272632254088 0 -0.024639805679489878 0.00017391303884355379 0 -0.024601980496816545 8.3850297228876513e-05 0 -0.02472340464514965 0.00010101272632254088 0 -0.024639805679489878 0.00017391303884355379 0 -0.024752535160459697 0.00015583010028554382 0 -0.02472340464514965 0.00010101272632254088 0 -0.024752968446168571 0.00010454894101376465 0 -0.024752535160459697 0.00015583010028554382 0 -0.024374865114584202 2.4828886475361128e-05 0 -0.024513740802733074 0.00010929857372208987 0 -0.024529136989737233 2.568588357876338e-05 0 -0.024148219555809133 -6.6135323713720546e-05 0 -0.024112173016259321 -3.7051017709582127e-05 0 -0.024148219555809133 -6.6135323713720546e-05 0 -0.024852530853542096 3.2890855770483907e-05 0 -0.024661086556992826 3.2798253003195637e-05 0 -0.024529136989737233 2.568588357876338e-05 0 -0.024601980496816545 8.3850297228876513e-05 0 -0.024513740802733074 0.00010929857372208987 0 -0.024529136989737233 2.568588357876338e-05 0 -0.024601980496816545 8.3850297228876513e-05 0 -0.024781691683176042 2.5126313173007763e-05 0 -0.024852530853542096 3.2890855770483907e-05 0 -0.024303248418088137 5.9421913993582559e-05 0 -0.024112173016259321 -3.7051017709582127e-05 0 -0.024639805679489878 0.00017391303884355379 0 -0.024513740802733074 0.00010929857372208987 0 -0.024601980496816545 8.3850297228876513e-05 0 -0.023947222347689475 -7.5486647812447215e-05 0 -0.023776721552089864 -0.00015947946887402668 0 -0.02379366035988004 -1.0749276531209156e-05 0 -0.023776721552089864 -0.00015947946887402668 0 -0.023710906877054305 -7.4781482549759727e-05 0 -0.02379366035988004 -1.0749276531209156e-05 0 -0.023625691636000607 -0.00012751598443741757 0 -0.023776721552089864 -0.00015947946887402668 0 -0.023710906877054305 -7.4781482549759727e-05 0 -0.023710906877054305 -7.4781482549759727e-05 0 -0.02379366035988004 -1.0749276531209156e-05 0 -0.023623360250036161 3.701218883232588e-07 0 -0.02379366035988004 -1.0749276531209156e-05 0 -0.023735453090422437 0.00012053291639693795 0 -0.023623360250036161 3.701218883232588e-07 0 -0.023947222347689475 -7.5486647812447215e-05 0 -0.02379366035988004 -1.0749276531209156e-05 0 -0.02397270428092543 4.6493636429507853e-05 0 -0.023858096346131379 0.00010671882669533131 0 -0.02397270428092543 4.6493636429507853e-05 0 -0.023947815530662709 0.00017235662011854414 0 -0.02379366035988004 -1.0749276531209156e-05 0 -0.023858096346131379 0.00010671882669533131 0 -0.02397270428092543 4.6493636429507853e-05 0 -0.02379366035988004 -1.0749276531209156e-05 0 -0.023858096346131379 0.00010671882669533131 0 -0.023735453090422437 0.00012053291639693795 0 -0.024303248418088137 5.9421913993582559e-05 0 -0.024398741442047133 7.5037114849098866e-05 0 -0.024398741442047133 7.5037114849098866e-05 0 -0.024686644252292132 0.0001567678551028545 0 -0.024639805679489878 0.00017391303884355379 0 -0.024727272821989988 0.00022087421408219332 0 -0.024752535160459697 0.00015583010028554382 0 -0.023947222347689475 -7.5486647812447215e-05 0 -0.024095104201912586 1.2203451446424687e-05 0 -0.02397270428092543 4.6493636429507853e-05 0 -0.02397270428092543 4.6493636429507853e-05 0 -0.024051363406105995 0.00013938340997503065 0 -0.023947815530662709 0.00017235662011854414 0 -0.024398741442047133 7.5037114849098866e-05 0 -0.024063962058496847 0.00013183024552784547 0 -0.024095104201912586 1.2203451446424687e-05 0 -0.02397270428092543 4.6493636429507853e-05 0 -0.024051363406105995 0.00013938340997503065 0 -0.024176606041217095 -2.7810946303910625e-05 0 -0.024122659903433385 0.00013090738077280333 0 -0.024232633831494949 0.00015759103816653913 0 -0.024122659903433385 0.00013090738077280333 0 -0.024148368960024588 0.00022191989791022675 0 -0.024232633831494949 0.00015759103816653913 0 -0.024051363406105995 0.00013938340997503065 0 -0.023947815530662709 0.00017235662011854414 0 -0.024056225882396101 0.00025803614069811311 0 -0.024063962058496847 0.00013183024552784547 0 -0.024059220876433061 0.00025359452408636312 0 -0.023947815530662709 0.00017235662011854414 0 -0.023944847809264199 0.000274317162284024 0 -0.024056225882396101 0.00025803614069811311 0 -0.023944847809264199 0.000274317162284024 0 -0.024056225882396101 0.00025803614069811311 0 -0.024016915317136064 0.00033883273187062976 0 -0.024056225882396101 0.00025803614069811311 0 -0.024145721712610858 0.00029508920520822574 0 -0.024016915317136064 0.00033883273187062976 0 -0.024122659903433385 0.00013090738077280333 0 -0.024056225882396101 0.00025803614069811311 0 -0.024148368960024588 0.00022191989791022675 0 -0.024056225882396101 0.00025803614069811311 0 -0.024126399796019049 0.00026088593456253856 0 -0.024148368960024588 0.00022191989791022675 0 -0.024145721712610858 0.00029508920520822574 0 -0.0241434889063647 0.00025985083862037329 0 -0.024147774377978076 0.00027125026632601279 0 -0.024126399796019049 0.00026088593456253856 0 -0.0241434889063647 0.00025985083862037329 0 -0.024148368960024588 0.00022191989791022675 0 -0.024056225882396101 0.00025803614069811311 0 -0.024126399796019049 0.00026088593456253856 0 -0.024145721712610858 0.00029508920520822574 0 -0.024126399796019049 0.00026088593456253856 0 -0.024145721712610858 0.00029508920520822574 0 -0.0241434889063647 0.00025985083862037329 0 -0.0241434889063647 0.00025985083862037329 0 -0.024148396566823532 0.00023961138427487378 0 -0.024147774377978076 0.00027125026632601279 0 -0.0241434889063647 0.00025985083862037329 0 -0.024148368960024588 0.00022191989791022675 0 -0.024148396566823532 0.00023961138427487378 0 -0.023234887917615341 0.00020566109806712459 0 -0.023685363099997293 0.00052859180379081041 0 -0.022869904071178809 0.00042593510983092556 0 -0.022752800638016275 0.00044548099884423882 0 -0.022815014512069354 0.00046047005666605996 0 -0.023858096346131379 0.00010671882669533131 0 -0.023735453090422437 0.00012053291639693795 0 -0.023832937031913509 0.00023675074718959799 0 -0.023858096346131379 0.00010671882669533131 0 -0.023947815530662709 0.00017235662011854414 0 -0.023832937031913509 0.00023675074718959799 0 -0.023685363099997293 0.00052859180379081041 0 -0.020494198726602231 7.5404711107085297e-05 0 -0.023947815530662709 0.00017235662011854414 0 -0.023944847809264199 0.000274317162284024 0 -0.023832937031913509 0.00023675074718959799 0 -0.023944847809264199 0.000274317162284024 0 -0.023832937031913509 0.00023675074718959799 0 -0.023919076503503868 0.00040088958180580549 0 -0.022752800638016275 0.00044548099884423882 0 -0.022815014512069354 0.00046047005666605996 0 -0.022738876706407153 0.00035708804463139437 0 -0.020764758526441714 0.00045756506340518117 0 -0.018195068799278055 0.00040483892784216424 0 -0.017980337744384359 0.00020099948870047962 0 -0.017945801862470682 0.00030063481255868357 0 -0.018175480695549983 0.0003392741387926366 0 -0.022815014512069354 0.00046047005666605996 0 -0.022729490748748273 0.00051462740962080638 0 -0.02282369630247412 0.00041716989095089922 0 -0.022869904071178809 0.00042593510983092556 0 -0.022815014512069354 0.00046047005666605996 0 -0.02282369630247412 0.00041716989095089922 0 -0.017980337744384359 0.00020099948870047962 0 -0.01770039928854324 0.0001840880249519077 0 -0.017945801862470682 0.00030063481255868357 0 -0.020764758526441714 0.00045756506340518117 0 -0.020324900701096108 0.00031588066793738774 0 -0.017980337744384359 0.00020099948870047962 0 -0.018030506152879319 0.00023012424117567425 0 -0.01770039928854324 0.0001840880249519077 0 -0.018679176445257004 7.2225716163606412e-05 0 -0.01770039928854324 0.0001840880249519077 0 -0.018457680422166493 -2.9985848515619672e-08 0 -0.018030506152879319 0.00023012424117567425 0 -0.018679176445257004 7.2225716163606412e-05 0 -0.01770039928854324 0.0001840880249519077 0 -0.018679176445257004 7.2225716163606412e-05 0 -0.019883617152760782 -7.6027724243605844e-08 0 -0.018457680422166493 -2.9985848515619672e-08 0 -0.018679176445257004 7.2225716163606412e-05 0 -0.019883617152760782 -7.6027724243605844e-08 0 -0.0192542176951233 0.00039299321999855909 0 -0.018030506152879319 0.00023012424117567425 0 -0.018679176445257004 7.2225716163606412e-05 0 -0.0192542176951233 0.00039299321999855909 0 -0.020324900701096108 0.00031588066793738774 0 -0.020780376669659036 0.00036503465584289765 0 -0.022729490748748273 0.00051462740962080638 0 -0.02239420813049374 0.0005260447830783548 0 -0.022743429324669742 0.00029241767792995512 0 -0.019883617152760782 -7.6027724243605844e-08 0 -0.0192542176951233 0.00039299321999855909 0 -0.02130821755036624 1.494327338666334e-06 0 -0.020780376669659036 0.00036503465584289765 0 -0.021309657791214281 2.5795500412438177e-08 0 -0.02239420813049374 0.0005260447830783548 0 -0.021312774872821082 1.213397139443301e-06 0 -0.022510017279075173 -4.0315780315853629e-05 0 -0.02239420813049374 0.0005260447830783548 0 -0.022510017279075173 -4.0315780315853629e-05 0 -0.022743429324669742 0.00029241767792995512 0 -0.022510017279075173 -4.0315780315853629e-05 0 -0.022813693275220689 3.3281326863410025e-05 0 -0.022743429324669742 0.00029241767792995512 0 -0.022813693275220689 3.3281326863410025e-05 0 -0.02291528961572244 0.0001732012956601802 0 -0.022743429324669742 0.00029241767792995512 0 -0.023234887917615341 0.00020566109806712459 0 -0.023271630134189411 9.5264483344703876e-05 0 -0.022869904071178809 0.00042593510983092556 0 -0.02291528961572244 0.0001732012956601802 0 -0.02282369630247412 0.00041716989095089922 0 -0.02291528961572244 0.0001732012956601802 0 -0.02282369630247412 0.00041716989095089922 0 -0.022743429324669742 0.00029241767792995512 0 -0.022729490748748273 0.00051462740962080638 0 -0.02282369630247412 0.00041716989095089922 0 -0.022743429324669742 0.00029241767792995512 0 -0.024176617053826167 0.00091157638676690137 0 -0.024396921213785696 0.0013027619935001983 0 -0.024845728183517934 0.00038622558446646635 0 -0.024176617053826167 0.00091157638676690137 0 -0.024446897508238041 0.00016043786549732611 0 -0.024845728183517934 0.00038622558446646635 0 -0.024331586009889904 0.0002346866139312146 0 -0.023840466789507353 0.0008319918438752168 0 -0.024446897508238041 0.00016043786549732611 0 -0.024565768877731362 0.00016740267315565677 0 -0.024524853849331753 0.00020301983181477573 0 -0.024176617053826167 0.00091157638676690137 0 -0.024446897508238041 0.00016043786549732611 0 -0.023084773141994263 0.0013830925709545502 0 -0.024446897508238041 0.00016043786549732611 0 -0.02474542422395757 0.00010668834584935163 0 -0.024565768877731362 0.00016740267315565677 0 -0.024446897508238041 0.00016043786549732611 0 -0.024735097157528106 6.9947950464387208e-05 0 -0.02474542422395757 0.00010668834584935163 0 -0.024446897508238041 0.00016043786549732611 0 -0.024735097157528106 6.9947950464387208e-05 0 -0.024845728183517934 0.00038622558446646635 0 -0.024735097157528106 6.9947950464387208e-05 0 -0.024999893870380346 1.0821682601220555e-07 0 -0.02474542422395757 0.00010668834584935163 0 -0.024999893870380346 1.0821682601220555e-07 0 -0.02474542422395757 0.00010668834584935163 0 -0.024999189214433518 1.8381575941416601e-07 0 -0.02474542422395757 0.00010668834584935163 0 -0.024681722021392238 0.00013964671586850827 0 -0.024999189214433518 1.8381575941416601e-07 0 -0.02474542422395757 0.00010668834584935163 0 -0.024681722021392238 0.00013964671586850827 0 -0.024565768877731362 0.00016740267315565677 0 -0.024681722021392238 0.00013964671586850827 0 -0.024565768877731362 0.00016740267315565677 0 -0.024448792564510442 0.00026139918278087967 0 -0.024681722021392238 0.00013964671586850827 0 -0.024568599339502232 0.00021546099984741528 0 -0.024448792564510442 0.00026139918278087967 0 -0.025000089250731661 8.523944691674445e-09 0 -0.024999189214433518 1.8381575941416601e-07 0 -0.024824866908864544 6.9868571359833431e-05 0 -0.024681722021392238 0.00013964671586850827 0 -0.024722355911991057 0.00013047057298607467 0 -0.024568599339502232 0.00021546099984741528 0 -0.024722355911991057 0.00013047057298607467 0 -0.02458587270591173 0.00021489520731539035 0 -0.024568599339502232 0.00021546099984741528 0 -0.024722355911991057 0.00013047057298607467 0 -0.024683773189531018 0.00013247961831914959 0 -0.02458587270591173 0.00021489520731539035 0 -0.024681722021392238 0.00013964671586850827 0 -0.024722355911991057 0.00013047057298607467 0 -0.024999189214433518 1.8381575941416601e-07 0 -0.024722355911991057 0.00013047057298607467 0 -0.024999189214433518 1.8381575941416601e-07 0 -0.024824866908864544 6.9868571359833431e-05 0 -0.025000089250731661 8.523944691674445e-09 0 -0.024824866908864544 6.9868571359833431e-05 0 -0.024825432814279656 5.2889903009427719e-05 0 -0.024824866908864544 6.9868571359833431e-05 0 -0.024825432814279656 5.2889903009427719e-05 0 -0.024752968446168571 0.00010454894101376465 0 -0.024824866908864544 6.9868571359833431e-05 0 -0.024752968446168571 0.00010454894101376465 0 -0.024683773189531018 0.00013247961831914959 0 -0.02472340464514965 0.00010101272632254088 0 -0.024825432814279656 5.2889903009427719e-05 0 -0.024752968446168571 0.00010454894101376465 0 -0.024722355911991057 0.00013047057298607467 0 -0.024824866908864544 6.9868571359833431e-05 0 -0.024683773189531018 0.00013247961831914959 0 -0.024651790959505097 0.00014338449342378608 0 -0.02452374707667997 0.00018027410663984308 0 -0.024683773189531018 0.00013247961831914959 0 -0.024603171468959677 0.00014466050421544198 0 -0.024446581782912577 0.00014696782934080799 0 -0.024752968446168571 0.00010454894101376465 0 -0.024603171468959677 0.00014466050421544198 0 -0.024609762217223163 0.00015241164158214692 0 -0.024752968446168571 0.00010454894101376465 0 -0.024683773189531018 0.00013247961831914959 0 -0.024603171468959677 0.00014466050421544198 0 -0.024729735536682975 0.00011853018723161922 0 -0.024686644252292132 0.0001567678551028545 0 -0.02460490304944489 0.00011569047743579028 0 -0.024609762217223163 0.00015241164158214692 0 -0.024520217583019976 0.00013778388172462844 0 -0.024603171468959677 0.00014466050421544198 0 -0.024609762217223163 0.00015241164158214692 0 -0.024520217583019976 0.00013778388172462844 0 -0.024520217583019976 0.00013778388172462844 0 -0.024387515904467725 0.00011291682144583108 0 -0.024446581782912577 0.00014696782934080799 0 -0.024603171468959677 0.00014466050421544198 0 -0.024520217583019976 0.00013778388172462844 0 -0.024446581782912577 0.00014696782934080799 0 -0.024387515904467725 0.00011291682144583108 0 -0.024357588226091589 0.00017866342987975993 0 -0.024446581782912577 0.00014696782934080799 0 -0.02460490304944489 0.00011569047743579028 0 -0.024520217583019976 0.00013778388172462844 0 -0.024387515904467725 0.00011291682144583108 0 -0.024398741442047133 7.5037114849098866e-05 0 -0.024391918702052408 9.7432534883928854e-05 0 -0.024176606041217095 -2.7810946303910625e-05 0 -0.024387515904467725 0.00011291682144583108 0 -0.024232633831494949 0.00015759103816653913 0 -0.024232633831494949 0.00015759103816653913 0 -0.024206751870073321 0.00019932782636941656 0 -0.024298762899678143 0.00018298776050714694 0 -0.024387515904467725 0.00011291682144583108 0 -0