<?xml version="1.0"?>
<VTKFile type="UnstructuredGrid" version="0.1" byte_order="LittleEndian">
<UnstructuredGrid>
<Piece NumberOfPoints="29622" NumberOfCells="10370">
<Points>
<DataArray type="Float64" NumberOfComponents="3" format="ascii">
-0.49485421638997129 -0.48903540387187389 0 -0.47966379557855132 -0.48208057761239048 0 -0.45751766390445858 -0.5 0 -0.49485421638997129 -0.48903540387187389 0 -0.48132784707583531 -0.46780503325861211 0 -0.5 -0.39304332915441309 0 -0.49485421638997129 -0.48903540387187389 0 -0.5 -0.5 0 -0.5 -0.39304332915441309 0 -0.49485421638997129 -0.48903540387187389 0 -0.5 -0.5 0 -0.45751766390445858 -0.5 0 -0.49485421638997129 -0.48903540387187389 0 -0.47966379557855132 -0.48208057761239048 0 -0.48132784707583531 -0.46780503325861211 0 -0.49485421638997129 -0.48903540387187389 0 -0.48132784707583531 -0.46780503325861211 0 -0.47966379557855132 -0.48208057761239048 0 -0.47195399330063897 -0.473203497292849 0 -0.48132784707583531 -0.46780503325861211 0 -0.47966379557855132 -0.48208057761239048 0 -0.47195399330063897 -0.473203497292849 0 -0.45751766390445858 -0.5 0 -0.45751766390445858 -0.5 0 -0.42620230597632591 -0.50000000000000089 0 -0.43480942387586652 -0.48036079921444441 0 -0.47195399330063897 -0.473203497292849 0 -0.45305143556040289 -0.47753612750543212 0 -0.45071632046259408 -0.45996853728771042 0 -0.47195399330063897 -0.473203497292849 0 -0.45751766390445858 -0.5 0 -0.45305143556040289 -0.47753612750543212 0 -0.45305143556040289 -0.47753612750543212 0 -0.43480942387586652 -0.48036079921444441 0 -0.43627077375768197 -0.46331343798553171 0 -0.45751766390445858 -0.5 0 -0.45305143556040289 -0.47753612750543212 0 -0.43480942387586652 -0.48036079921444441 0 -0.45047061609287048 -0.44376226569403138 0 -0.44104809386808058 -0.43352676383870747 0 -0.42947864762454918 -0.4467335772825719 0 -0.45047061609287048 -0.44376226569403138 0 -0.45071632046259408 -0.45996853728771042 0 -0.42947864762454918 -0.4467335772825719 0 -0.45305143556040289 -0.47753612750543212 0 -0.45071632046259408 -0.45996853728771042 0 -0.43627077375768197 -0.46331343798553171 0 -0.45071632046259408 -0.45996853728771042 0 -0.42947864762454918 -0.4467335772825719 0 -0.45071632046259408 -0.45996853728771042 0 -0.43627077375768197 -0.46331343798553171 0 -0.42947864762454918 -0.4467335772825719 0 -0.47195399330063897 -0.473203497292849 0 -0.45071632046259408 -0.45996853728771042 0 -0.4676094613981967 -0.46165311892656757 0 -0.47195399330063897 -0.473203497292849 0 -0.45071632046259408 -0.45996853728771042 0 -0.45071632046259408 -0.45996853728771042 0 -0.45984069590491328 -0.45401373694973829 0 -0.4676094613981967 -0.46165311892656757 0 -0.4676094613981967 -0.46165311892656757 0 -0.46780147776169873 -0.44657466264535067 0 -0.45984069590491328 -0.45401373694973829 0 -0.4676094613981967 -0.46165311892656757 0 -0.46780147776169873 -0.44657466264535067 0 -0.45047061609287048 -0.44376226569403138 0 -0.45984069590491328 -0.45401373694973829 0 -0.46780147776169873 -0.44657466264535067 0 -0.45047061609287048 -0.44376226569403138 0 -0.45071632046259408 -0.45996853728771042 0 -0.45984069590491328 -0.45401373694973829 0 -0.45047061609287048 -0.44376226569403138 0 -0.46780147776169873 -0.44657466264535067 0 -0.45349168221317732 -0.42411466204654691 0 -0.46780147776169873 -0.44657466264535067 0 -0.48132784707583531 -0.46780503325861211 0 -0.4676094613981967 -0.46165311892656757 0 -0.46780147776169873 -0.44657466264535067 0 -0.48132784707583531 -0.46780503325861211 0 -0.47195399330063897 -0.473203497292849 0 -0.4676094613981967 -0.46165311892656757 0 -0.48132784707583531 -0.46780503325861211 0 -0.46780147776169873 -0.44657466264535067 0 -0.5 -0.39304332915441309 0 -0.46811911363238717 -0.42163169162870001 0 -0.46780147776169873 -0.44657466264535067 0 -0.48132784707583531 -0.46780503325861211 0 -0.5 -0.39304332915441309 0 -0.5 -0.39304332915441309 0 -0.46843674950307651 -0.39668872061204918 0 -0.46811911363238717 -0.42163169162870001 0 -0.5 -0.39304332915441309 0 -0.46843674950307651 -0.39668872061204918 0 -0.46875438537376568 -0.37174574959539841 0 -0.46843674950307651 -0.39668872061204918 0 -0.46875438537376568 -0.37174574959539841 0 -0.45710457142705352 -0.38504504192178968 0 -0.46843674950307651 -0.39668872061204918 0 -0.46875438537376568 -0.37174574959539841 0 -0.45710457142705352 -0.38504504192178968 0 -0.46843674950307651 -0.39668872061204918 0 -0.45814675552769368 -0.40820001903729841 0 -0.45710457142705352 -0.38504504192178968 0 -0.43918188666465519 -0.40165466144774348 0 -0.45814675552769368 -0.40820001903729841 0 -0.45710457142705352 -0.38504504192178968 0 -0.43918188666465519 -0.40165466144774348 0 -0.44104219080419582 -0.37347083416253418 0 -0.45710457142705352 -0.38504504192178968 0 -0.4572122904922577 -0.36774700747612332 0 -0.44104219080419582 -0.37347083416253418 0 -0.46780147776169873 -0.44657466264535067 0 -0.45349168221317732 -0.42411466204654691 0 -0.46811911363238717 -0.42163169162870001 0 -0.46780147776169873 -0.44657466264535067 0 -0.45349168221317732 -0.42411466204654691 0 -0.46780147776169873 -0.44657466264535067 0 -0.46811911363238717 -0.42163169162870001 0 -0.46843674950307651 -0.39668872061204918 0 -0.46811911363238717 -0.42163169162870001 0 -0.45814675552769368 -0.40820001903729841 0 -0.45349168221317732 -0.42411466204654691 0 -0.46811911363238717 -0.42163169162870001 0 -0.45814675552769368 -0.40820001903729841 0 -0.46843674950307651 -0.39668872061204918 0 -0.46811911363238717 -0.42163169162870001 0 -0.43918188666465519 -0.40165466144774348 0 -0.45349168221317732 -0.42411466204654691 0 -0.43918188666465519 -0.40165466144774348 0 -0.45349168221317732 -0.42411466204654691 0 -0.45814675552769368 -0.40820001903729841 0 -0.43918188666465519 -0.40165466144774348 0 -0.45349168221317732 -0.42411466204654691 0 -0.43003658358618901 -0.42326990374997903 0 -0.45349168221317732 -0.42411466204654691 0 -0.44104809386808058 -0.43352676383870747 0 -0.43003658358618901 -0.42326990374997903 0 -0.45047061609287048 -0.44376226569403138 0 -0.45349168221317732 -0.42411466204654691 0 -0.44104809386808058 -0.43352676383870747 0 -0.44104809386808058 -0.43352676383870747 0 -0.43003658358618901 -0.42326990374997903 0 -0.42947864762454918 -0.4467335772825719 0 -0.43003658358618901 -0.42326990374997903 0 -0.40824097478650417 -0.43349861727743327 0 -0.42947864762454918 -0.4467335772825719 0 -0.43918188666465519 -0.40165466144774348 0 -0.43003658358618901 -0.42326990374997903 0 -0.41939074694921452 -0.39847550860422248 0 -0.40933736888919142 -0.41582472602523213 0 -0.41939074694921452 -0.39847550860422248 0 -0.39691773321276591 -0.40451995308690569 0 -0.43003658358618901 -0.42326990374997903 0 -0.40933736888919142 -0.41582472602523213 0 -0.41939074694921452 -0.39847550860422248 0 -0.43003658358618901 -0.42326990374997903 0 -0.40933736888919142 -0.41582472602523213 0 -0.40824097478650417 -0.43349861727743327 0 -0.43918188666465519 -0.40165466144774348 0 -0.42487209111613222 -0.37919466084894071 0 -0.42487209111613222 -0.37919466084894071 0 -0.44104219080419582 -0.37347083416253418 0 -0.43918188666465519 -0.40165466144774348 0 -0.42487209111613222 -0.37919466084894071 0 -0.44104219080419582 -0.37347083416253418 0 -0.43918188666465519 -0.40165466144774348 0 -0.42487209111613222 -0.37919466084894071 0 -0.41939074694921452 -0.39847550860422248 0 -0.41939074694921452 -0.39847550860422248 0 -0.40300003565967968 -0.38693684284679258 0 -0.39691773321276591 -0.40451995308690569 0 -0.42487209111613222 -0.37919466084894071 0 -0.40300003565967968 -0.38693684284679258 0 -0.42487209111613222 -0.37919466084894071 0 -0.41939074694921452 -0.39847550860422248 0 -0.40300003565967968 -0.38693684284679258 0 -0.42487209111613222 -0.37919466084894071 0 -0.40300003565967968 -0.38693684284679258 0 -0.40034883944948352 -0.37081685356611482 0 -0.40300003565967968 -0.38693684284679258 0 -0.38720811424459922 -0.38269289919929472 0 -0.40034883944948352 -0.37081685356611482 0 -0.40300003565967968 -0.38693684284679258 0 -0.39691773321276591 -0.40451995308690569 0 -0.38112798020322552 -0.39467902484464013 0 -0.40300003565967968 -0.38693684284679258 0 -0.38112798020322552 -0.39467902484464013 0 -0.39691773321276591 -0.40451995308690569 0 -0.38092085950929938 -0.40584578046397218 0 -0.38112798020322552 -0.39467902484464013 0 -0.38092085950929938 -0.40584578046397218 0 -0.38112798020322552 -0.39467902484464013 0 -0.37260182642857559 -0.39831487258102538 0 -0.38112798020322552 -0.39467902484464013 0 -0.3755243739538135 -0.38933559825649589 0 -0.37260182642857559 -0.39831487258102538 0 -0.40300003565967968 -0.38693684284679258 0 -0.38112798020322552 -0.39467902484464013 0 -0.38720811424459922 -0.38269289919929472 0 -0.38112798020322552 -0.39467902484464013 0 -0.38066855662570548 -0.38741133800680971 0 -0.38720811424459922 -0.38269289919929472 0 -0.3755243739538135 -0.38933559825649589 0 -0.37881375810118412 -0.38293782972680801 0 -0.37166373307095851 -0.38075684139963512 0 -0.38066855662570548 -0.38741133800680971 0 -0.37881375810118412 -0.38293782972680801 0 -0.38720811424459922 -0.38269289919929472 0 -0.38112798020322552 -0.39467902484464013 0 -0.38066855662570548 -0.38741133800680971 0 -0.3755243739538135 -0.38933559825649589 0 -0.38066855662570548 -0.38741133800680971 0 -0.3755243739538135 -0.38933559825649589 0 -0.37881375810118412 -0.38293782972680801 0 -0.37881375810118412 -0.38293782972680801 0 -0.37785856937865758 -0.37355414846445112 0 -0.37166373307095851 -0.38075684139963512 0 -0.37881375810118412 -0.38293782972680801 0 -0.38720811424459922 -0.38269289919929472 0 -0.37785856937865758 -0.37355414846445112 0 -0.40824097478650417 -0.43349861727743327 0 -0.38700330194845922 -0.4202636572722947 0 -0.40824097478650417 -0.43349861727743327 0 -0.38700330194845922 -0.4202636572722947 0 -0.38330031069482279 -0.4443361399444733 0 -0.40933736888919142 -0.41582472602523213 0 -0.40824097478650417 -0.43349861727743327 0 -0.38700330194845922 -0.4202636572722947 0 -0.40933736888919
[...]
<PointData Scalars="" Vectors="displacement," Tensors="">
<DataArray type="Float64" Name="displacement" NumberOfComponents="3" format="ascii">
4.1155992720367161e-05 -0.024402280442228835 0 0.00034057126451534828 -0.024511423908758549 0 -1.3232129848052579e-07 -0.024999768931866711 0 4.1155992720367161e-05 -0.024402280442228835 0 7.0827035280548968e-05 -0.02283312507272164 0 5.5383053835341838e-07 -0.019651149802007023 0 4.1155992720367161e-05 -0.024402280442228835 0 5.3223085671984045e-07 -0.024998246893678213 0 5.5383053835341838e-07 -0.019651149802007023 0 4.1155992720367161e-05 -0.024402280442228835 0 5.3223085671984045e-07 -0.024998246893678213 0 -1.3232129848052579e-07 -0.024999768931866711 0 4.1155992720367161e-05 -0.024402280442228835 0 0.00034057126451534828 -0.024511423908758549 0 0.00074668004042729747 -0.024336354584618053 0 0.0001023448259262695 -0.024188673830799957 0 0.00028405602597332107 -0.023746184682459082 0 0.00034057126451534828 -0.024511423908758549 0 0.00062041316289494471 -0.024479297659657628 0 0.00074668004042729747 -0.024336354584618053 0 0.00034057126451534828 -0.024511423908758549 0 0.00062041316289494471 -0.024479297659657628 0 -1.3232129848052579e-07 -0.024999768931866711 0 -1.3232129848052579e-07 -0.024999768931866711 0 5.2697260966331515e-07 -0.025000142727795164 0 0.00024134416393438221 -0.024965057607230043 0 0.00062041316289494471 -0.024479297659657628 0 0.00034643514875116891 -0.024885611522747202 0 0.00041144328111988469 -0.024914212266147609 0 0.00062041316289494471 -0.024479297659657628 0 -1.3232129848052579e-07 -0.024999768931866711 0 0.00034643514875116891 -0.024885611522747202 0 0.00034643514875116891 -0.024885611522747202 0 0.00024134416393438221 -0.024965057607230043 0 0.00031201736269491972 -0.024948214406699993 0 -1.3232129848052579e-07 -0.024999768931866711 0 0.00034643514875116891 -0.024885611522747202 0 0.00024134416393438221 -0.024965057607230043 0 0.00061806219035358506 -0.022576014505181305 0 8.7077170689810071e-05 -0.021676229396219986 0 0.001209175248277853 -0.020752942126836902 0 0.00061806219035358506 -0.022576014505181305 0 0.0014203729885145814 -0.022829395357257254 0 0.001209175248277853 -0.020752942126836902 0 0.00034643514875116891 -0.024885611522747202 0 0.00041144328111988469 -0.024914212266147609 0 0.00031201736269491972 -0.024948214406699993 0 0.00084073382464763921 -0.023815225502288821 0 0.00065056134314191931 -0.022799684240543589 0 0.00041144328111988469 -0.024914212266147609 0 0.00031201736269491972 -0.024948214406699993 0 0.00017045517057063565 -0.024958637487730934 0 0.00062041316289494471 -0.024479297659657628 0 0.0014203729885145814 -0.022829395357257254 0 0.0008640988700564275 -0.023949173294623385 0 0.00065557853880388365 -0.024313237462449785 0 0.00084073382464763921 -0.023815225502288821 0 0.0014203729885145814 -0.022829395357257254 0 0.00093110160020128758 -0.023360030678776789 0 0.0008640988700564275 -0.023949173294623385 0 0.0007425530763907034 -0.023651488224271319 0 0.0010362186405854807 -0.021380572196942987 0 0.00093110160020128758 -0.023360030678776789 0 0.0008640988700564275 -0.023949173294623385 0 0.0006794964459342094 -0.02366478871674282 0 0.00061806219035358506 -0.022576014505181305 0 0.00093110160020128758 -0.023360030678776789 0 0.0006794964459342094 -0.02366478871674282 0 0.00061806219035358506 -0.022576014505181305 0 0.0014203729885145814 -0.022829395357257254 0 0.00093110160020128758 -0.023360030678776789 0 0.00061806219035358506 -0.022576014505181305 0 0.0006794964459342094 -0.02366478871674282 0 -0.00058943584027719518 -0.022648405958285125 0 0.0010362186405854807 -0.021380572196942987 0 0.00028405602597332107 -0.023746184682459082 0 0.0008640988700564275 -0.023949173294623385 0 0.00065788220759767119 -0.023890866777067334 0 0.00074668004042729747 -0.024336354584618053 0 0.00062041316289494471 -0.024479297659657628 0 0.0008640988700564275 -0.023949173294623385 0 0.00074668004042729747 -0.024336354584618053 0 7.4455605600632269e-05 -0.021603428186297211 0 5.5383053835341838e-07 -0.019651149802007023 0 7.7194169893833885e-05 -0.020547181979115335 0 7.4455605600632269e-05 -0.021603428186297211 0 7.0827035280548968e-05 -0.02283312507272164 0 5.5383053835341838e-07 -0.019651149802007023 0 5.5383053835341838e-07 -0.019651149802007023 0 7.802376585496203e-05 -0.019293358767643012 0 7.7194169893833885e-05 -0.020547181979115335 0 5.5383053835341838e-07 -0.019651149802007023 0 7.802376585496203e-05 -0.019293358767643012 0 0.00024413608046115125 -0.017604634958859906 0 0.00055760506396255582 -0.018325712801154314 0 0.00017535347536759487 -0.017747941944906972 0 0.00083057788243923441 -0.016926057941311159 0 0.0012402660038919632 -0.017363402424304404 0 0.00024413608046115125 -0.017604634958859906 0 0.00083057788243923441 -0.016926057941311159 0 0.0012402660038919632 -0.017363402424304404 0 0.0015703562673809511 -0.017034975323781752 0 0.00083057788243923441 -0.016926057941311159 0 0.0013490355501262034 -0.016401032015400715 0 0.0015703562673809511 -0.017034975323781752 0 0.00083057788243923441 -0.016926057941311159 0 0.0013490355501262034 -0.016401032015400715 0 0.00046309265377877462 -0.016404180018466191 0 0.00083057788243923441 -0.016926057941311159 0 0.00028542371426913015 -0.016736278113156519 0 0.00046309265377877462 -0.016404180018466191 0 0.0026213379926752385 -0.017399305705537479 0 0.0020334884199088589 -0.016930935216843589 0 0.0019564554015840591 -0.017349522303737076 0 0.0010362186405854807 -0.021380572196942987 0 0.00080959382795943696 -0.019660125504327615 0 0.0010362186405854807 -0.021380572196942987 0 0.00102418084685744 -0.018746507083350884 0 0.0012402660038919632 -0.017363402424304404 0 0.0019564554015840591 -0.017349522303737076 0 0.0015703562673809511 -0.017034975323781752 0 0.0020334884199088589 -0.016930935216843589 0 0.0019564554015840591 -0.017349522303737076 0 0.0015703562673809511 -0.017034975323781752 0 0.00055760506396255582 -0.018325712801154314 0 0.00102418084685744 -0.018746507083350884 0 -0.00068834408188423986 -0.019107120318336428 0 0.00080959382795943696 -0.019660125504327615 0 0.0013490355501262034 -0.016401032015400715 0 0.0020334884199088589 -0.016930935216843589 0 0.0015703562673809511 -0.017034975323781752 0 -0.0024502262549833524 -0.021312837066218508 0 -0.00058943584027719518 -0.022648405958285125 0 -0.00058009960154244405 -0.020588091538525394 0 -0.00058943584027719518 -0.022648405958285125 0 8.7077170689810071e-05 -0.021676229396219986 0 -0.00058009960154244405 -0.020588091538525394 0 0.00061806219035358506 -0.022576014505181305 0 -0.00058943584027719518 -0.022648405958285125 0 8.7077170689810071e-05 -0.021676229396219986 0 8.7077170689810071e-05 -0.021676229396219986 0 -0.00058009960154244405 -0.020588091538525394 0 0.001209175248277853 -0.020752942126836902 0 -0.00058009960154244405 -0.020588091538525394 0 0.00052961122687914441 -0.018420521298601611 0 0.001209175248277853 -0.020752942126836902 0 -0.0024502262549833524 -0.021312837066218508 0 -0.00058009960154244405 -0.020588091538525394 0 -0.0027147108614638074 -0.01937622919479513 0 -0.0010506225574484626 -0.018376083261781594 0 -0.0027147108614638074 -0.01937622919479513 0 -0.0019267938716300748 -0.016922454430361195 0 -0.00058009960154244405 -0.020588091538525394 0 -0.0010506225574484626 -0.018376083261781594 0 -0.0027147108614638074 -0.01937622919479513 0 -0.00058009960154244405 -0.020588091538525394 0 -0.0010506225574484626 -0.018376083261781594 0 0.00052961122687914441 -0.018420521298601611 0 -0.00068834408188423986 -0.019107120318336428 0 -0.00090114036719323614 -0.016001940288622288 0 -0.00090114036719323614 -0.016001940288622288 0 0.00069040089525510722 -0.01570972868051429 0 0.0013490355501262034 -0.016401032015400715 0 0.00063299274821979816 -0.015914599938943123 0 0.00046309265377877462 -0.016404180018466191 0 -0.0024502262549833524 -0.021312837066218508 0 -0.0046180920339229511 -0.019883304105196519 0 -0.0027147108614638074 -0.01937622919479513 0 -0.0027147108614638074 -0.01937622919479513 0 -0.0038363439688337796 -0.017596314217289057 0 -0.0019267938716300748 -0.016922454430361195 0 -0.00090114036719323614 -0.016001940288622288 0 -0.0031052719433552972 -0.015849517266441127 0 -0.0046180920339229511 -0.019883304105196519 0 -0.0027147108614638074 -0.01937622919479513 0 -0.0038363439688337796 -0.017596314217289057 0 -0.0015779735626436952 -0.012958448859519906 0 -0.0019408279168522725 -0.01372847855938274 0 -0.0012502475190657085 -0.013874309302077704 0 -0.0019408279168522725 -0.01372847855938274 0 -0.0018098931188144556 -0.014389512366188094 0 -0.0012502475190657085 -0.013874309302077704 0 -0.0038363439688337796 -0.017596314217289057 0 -0.0019267938716300748 -0.016922454430361195 0 -0.0024580613200310113 -0.014947842379495419 0 -0.0031052719433552972 -0.015849517266441127 0 -0.0024661886204048905 -0.014935053636617679 0 -0.0019267938716300748 -0.016922454430361195 0 -0.0016781234280296919 -0.015271884389535893 0 -0.0024580613200310113 -0.014947842379495419 0 -0.0016781234280296919 -0.015271884389535893 0 -0.0024580613200310113 -0.014947842379495419 0 -0.002117135674305375 -0.014659443086292603 0 -0.0024580613200310113 -0.014947842379495419 0 -0.0021977959089786786 -0.014730378769690598 0 -0.002117135674305375 -0.014659443086292603 0 -0.0019408279168522725 -0.01372847855938274 0 -0.0024580613200310113 -0.014947842379495419 0 -0.0018098931188144556 -0.014389512366188094 0 -0.0024580613200310113 -0.014947842379495419 0 -0.0020956392880028024 -0.014686816009008808 0 -0.0018098931188144556 -0.014389512366188094 0 -0.0021977959089786786 -0.014730378769690598 0 -0.0018886863056843868 -0.014597768916090565 0 -0.0017894557742309922 -0.014660465437737377 0 -0.0020956392880028024 -0.014686816009008808 0 -0.0018886863056843868 -0.014597768916090565 0 -0.0018098931188144556 -0.014389512366188094 0 -0.0024580613200310113 -0.014947842379495419 0 -0.0020956392880028024 -0.014686816009008808 0 -0.0021977959089786786 -0.014730378769690598 0 -0.0020956392880028024 -0.014686816009008808 0 -0.0021977959089786786 -0.014730378769690598 0 -0.0018886863056843868 -0.014597768916090565 0 -0.0018886863056843868 -0.014597768916090565 0 -0.0015294182739470882 -0.014441338184633092 0 -0.0017894557742309922 -0.014660465437737377 0 -0.0018886863056843868 -0.014597768916090565 0 -0.0018098931188144556 -0.014389512366188094 0 -0.0015294182739470882 -0.014441338184633092 0 0.00020579553693806445 -0.021621029437283203 0 -0.00060266945168259238 -0.019780593022214504 0 -0.00013335829429201451 -0.024744943464547395 0 -0.00046219628183855402 -0.024313310375390751 0 5.0093467309413377e-05 -0.024294810845109576 0 -0.0010506225574484626 -0.018376083261781594 0 0.00052961122687914441 -0.018420521298601611 0 -0.00049336621490023863 -0.015945272225967751 0 -0.0010506225574484626 -0.018376083261781594 0 -0.0019267938716300748 -0.016922454430361195 0 -0.00049336621490023863 -0.015945272225967751 0 -0.00060266945168259238 -0.019780593022214504 0 -0.0011520868379846047 -0.020933716260292431 0 -0.0019267938716300748 -0.016922454430361195 0 -0.0016781234280296919 -0.015271884389535893 0 -0.00049336621490023863 -0.015945272225967751 0 -0.0016781234280296919 -0.015271884389535893 0 -0.00049336621490023863 -0.015945272225967751 0 -0.0016426284904050882 -0.014245682765960284 0 -0.00046219628183855402 -0.024313310375390751 0 5.0093467309413377e-05 -0.024294810845109576 0 -0.00034450137288584377 -0.023897295359565411 0 -3.2466007824294412e-05 -0.024619958567693681 0 -0.00025158618734929069 -0.024832879541408063 0 -6.94582715505717e-05 -0.02504281045581766 0 -7.2717085823703262e-05 -0.025049111576804034 0 -7.1025098222422537e-05 -0.025044487890134699 0 5.0093467309413377e-05 -0.024294810845109576 0 0.00028444308923974439 -0.024659791558250672 0 0.00013946246146961063 -0.024757815369650483 0 -0.00013335829429201451 -0.024744943464547395 0 5.0093467309413377e-05 -0.024294810845109576 0 0.00013946246146961063 -0.024757815369650483 0 -6.94582715505717e-05 -0.02504281045581766 0 -9.3414691837705679e-05 -0.02505421757111782 0 -7.2717085823703262e-05 -0.025049111576804034 0 -3.2466007824294412e-05 -0.024619958567693681 0 0.0001002916967143911 -0.024847327629577455 0 -6.94582715505717e-05 -0.02504281045581766 0 -7.0877908230029886e-05 -0.025031904450116375 0 -9.3414691837705679e-05 -0.02505421757111782 0 -4.4490150772833484e-05 -0.025024789666729157 0 -9.3414691837705679e-05 -0.02505421757111782 0 -5.6832518306543681e-08 -0.025000043537716767 0 -7.0877908230029886e-05 -0.025031904450116375 0 -4.4490150772833484e-05 -0.025024789666729157 0 -9.3414691837705679e-05 -0.02505421757111782 0 -4.4490150772833484e-05 -0.025024789666729157 0 -3.5951787632647881e-08 -0.02500004544916487 0 -5.6832518306543681e-08 -0.025000043537716767 0 -4.4490150772833484e-05 -0.025024789666729157 0 -3.5951787632647881e-08 -0.02500004544916487 0 -3.0785341401784221e-05 -0.025021179317587745 0 -7.0877908230029886e-05 -0.025031904450116375 0 -4.4490150772833484e-05 -0.025024789666729157 0 -3.0785341401784221e-05 -0.025021179317587745 0 0.0001002916967143911 -0.024847327629577455 0 0.00010528133068223714 -0.024964321547798807 0 0.00028444308923974439 -0.024659791558250672 0 0.0002782920063510104 -0.024938223388954989 0 0.00027484358399028136 -0.024913200453278606 0 -3.5951787632647881e-08 -0.02500004544916487 0 -3.0785341401784221e-05 -0.025021179317587745 0 6.4652846920345438e-10 -0.025000024710718487 0 0.00010528133068223714 -0.024964321547798807 0 1.4109275535099056e-08 -0.024999961809260861 0 0.0002782920063510104 -0.024938223388954989 0 5.2697260966331515e-07 -0.025000142727795164 0 0.00024134416393438221 -0.024965057607230043 0 0.0002782920063510104 -0.024938223388954989 0 0.00024134416393438221 -0.024965057607230043 0 0.00027484358399028136 -0.024913200453278606 0 0.00024134416393438221 -0.024965057607230043 0 0.00031201736269491972 -0.024948214406699993 0 0.00027484358399028136 -0.024913200453278606 0 0.00031201736269491972 -0.024948214406699993 0 0.00017045517057063565 -0.024958637487730934 0 0.00027484358399028136 -0.024913200453278606 0 0.00020579553693806445 -0.021621029437283203 0 0.00065056134314191931 -0.022799684240543589 0 -0.00013335829429201451 -0.024744943464547395 0 0.00017045517057063565 -0.024958637487730934 0 0.00013946246146961063 -0.024757815369650483 0 0.00017045517057063565 -0.024958637487730934 0 0.00013946246146961063 -0.024757815369650483 0 0.00027484358399028136 -0.024913200453278606 0 0.00028444308923974439 -0.024659791558250672 0 0.00013946246146961063 -0.024757815369650483 0 0.00027484358399028136 -0.024913200453278606 0 -0.00019761424210108466 -0.013220854005008848 0 -0.00025023513211794334 -0.01310184315154907 0 -0.00026077197358185991 -0.013114968121928887 0 -0.00019761424210108466 -0.013220854005008848 0 -0.00016869294674760389 -0.013774471536459294 0 -0.00026077197358185991 -0.013114968121928887 0 -0.00015876569352406801 -0.013782016759965399 0 -0.00017858003302719864 -0.013796034108036724 0 -0.00016869294674760389 -0.013774471536459294 0 -0.00044364734929332856 -0.01456736073727535 0 -0.00041058500838066935 -0.014575945800089632 0 -0.00019761424210108466 -0.013220854005008848 0 -0.00016869294674760389 -0.013774471536459294 0 9.9872348157119977e-05 -0.013073097146078055 0 -0.00016869294674760389 -0.013774471536459294 0 -0.00024465030010018169 -0.014247574160856586 0 -0.00044364734929332856 -0.01456736073727535 0 -0.00016869294674760389 -0.013774471536459294 0 -0.00014401576765833246 -0.013273232204882102 0 -0.00024465030010018169 -0.014247574160856586 0 -0.00016869294674760389 -0.013774471536459294 0 -0.00014401576765833246 -0.013273232204882102 0 -0.00026077197358185991 -0.013114968121928887 0 -0.00014401576765833246 -0.013273232204882102 0 -9.7724375400921788e-07 -0.01267321474723951 0 -0.00024465030010018169 -0.014247574160856586 0 -9.7724375400921788e-07 -0.01267321474723951 0 -0.00024465030010018169 -0.014247574160856586 0 -8.0643629901203357e-07 -0.015627233742557759 0 -0.00024465030010018169 -0.014247574160856586 0 -0.00031575593122320768 -0.015036581816850905 0 -8.0643629901203357e-07 -0.015627233742557759 0 -0.00024465030010018169 -0.014247574160856586 0 -0.00031575593122320768 -0.015036581816850905 0 -0.00044364734929332856 -0.01456736073727535 0 -0.00031575593122320768 -0.015036581816850905 0 -0.00044364734929332856 -0.01456736073727535 0 -0.0003610593640982322 -0.01462802380578815 0 -0.00031575593122320768 -0.015036581816850905 0 -0.00021408236148089016 -0.01500272334779053 0 -0.0003610593640982322 -0.01462802380578815 0 5.5383053835341838e-07 -0.019651149802007023 0 -8.0643629901203357e-07 -0.015627233742557759 0 -1.8196281064842705e-05 -0.017069126531082151 0 -0.00031575593122320768 -0.015036581816850905 0 -0.0001927876732779645 -0.015803648757444468 0 -0.00021408236148089016 -0.01500272334779053 0 -0.0001927876732779645 -0.015803648757444468 0 9.0424887600979031e-05 -0.015040371418372887 0 -0.00021408236148089016 -0.01500272334779053 0 -0.0001927876732779645 -0.015803648757444468 0 -3.734942004510712e-05 -0.016085884058967267 0 9.0424887600979031e-05 -0.015040371418372887 0 -0.00031575593122320768 -0.015036581816850905 0 -0.0001927876732779645 -0.015803648757444468 0 -8.0643629901203357e-07 -0.015627233742557759 0 -0.0001927876732779645 -0.015803648757444468 0 -8.0643629901203357e-07 -0.015627233742557759 0 -1.8196281064842705e-05 -0.017069126531082151 0 5.5383053835341838e-07 -0.019651149802007023 0 -1.8196281064842705e-05 -0.017069126531082151 0 0.00024413608046115125 -0.017604634958859906 0 -1.8196281064842705e-05 -0.017069126531082151 0 0.00024413608046115125 -0.017604634958859906 0 0.00028542371426913015 -0.016736278113156519 0 -1.8196281064842705e-05 -0.017069126531082151 0 0.00028542371426913015 -0.016736278113156519 0 -3.734942004510712e-05 -0.016085884058967267 0 0.00083057788243923441 -0.016926057941311159 0 0.00024413608046115125 -0.017604634958859906 0 0.00028542371426913015 -0.016736278113156519 0 -0.0001927876732779645 -0.015803648757444468 0 -1.8196281064842705e-05 -0.017069126531082151 0 -3.734942004510712e-05 -0.016085884058967267 0 -3.1342622640033457e-05 -0.015936750716618282 0 -0.00040692651472420721 -0.014793462218668134 0 -3.734942004510712e-05 -0.016085884058967267 0 7.7064215079397102e-05 -0.015327573509844903 0 -0.00091563385898138115 -0.014480967709096133 0 0.00028542371426913015 -0.016736278113156519 0 7.7064215079397102e-05 -0.015327573509844903 0 0.00081891074062361881 -0.015436446307795643 0 0.00028542371426913015 -0.016736278113156519 0 -3.734942004510712e-05 -0.016085884058967267 0 7.7064215079397102e-05 -0.015327573509844903 0 0.00031549525116273975 -0.016714532940048588 0 0.00069040089525510722 -0.01570972868051429 0 0.001083423246744342 -0.01439044679720374 0 0.00081891074062361881 -0.015436446307795643 0 -4.9785101350831338e-05 -0.014553032650427072 0 7.7064215079397102e-05 -0.015327573509844903 0 0.00081891074062361881 -0.015436446307795643 0 -4.9785101350831338e-05 -0.014553032650427072 0 -4.9785101350831338e-05 -0.014553032650427072 0 -0.00059087155876370596 -0.013690355294088255 0 -0.00091563385898138115 -0.014480967709096133 0 7.7064215079397102e-05 -0.015327573509844903 0 -4.9785101350831338e-05 -0.014553032650427072 0 -0.00091563385898138115 -0.014480967709096133 0 -0.00059087155876370596 -0.013690355294088255 0 -0.00068725738449629866 -0.013709378076396668 0 -0.00091563385898138115 -0.014480967709096133 0 0.001083423246744342 -0.01439044679720374 0 -4.9785101350831338e-05 -0.014553032650427072 0 -0.00059087155876370596 -0.013690355294088255 0 -0.00090114036719323614 -0.016001940288622288 0 -0.00048921367122268156 -0.013023561883476214 0 -0.0015779735626436952 -0.012958448859519906 0 -0.00059087155876370596 -0.013690355294088255 0 -0.0012502475190657085 -0.013874309302077704 0 -0.0012502475190657085 -0.013874309302077704 0 -0.001271813225312658 -0.014153168399485399 0 -0.00083898663407948142 -0.013937767582680678 0 -