<?xml version="1.0"?>
<VTKFile type="UnstructuredGrid" version="0.1" byte_order="LittleEndian">
<UnstructuredGrid>
<Piece NumberOfPoints="31355" NumberOfCells="11071">
<Points>
<DataArray type="Float64" NumberOfComponents="3" format="ascii">
-0.5 -0.5 0 -0.45958308316422031 -0.46313497537055559 0 -0.5 -0.43609587328940957 0 -0.5 -0.5 0 -0.43948332050027639 -0.5 0 -0.45958308316422031 -0.46313497537055559 0 -0.43948332050027639 -0.5 0 -0.45958308316422031 -0.46313497537055559 0 -0.43483942381830942 -0.47095861062616828 0 -0.45958308316422031 -0.46313497537055559 0 -0.45988857403832928 -0.42958946337785658 0 -0.43361905554292629 -0.44349290162707689 0 -0.45958308316422031 -0.46313497537055559 0 -0.43483942381830942 -0.47095861062616828 0 -0.43361905554292629 -0.44349290162707689 0 -0.45958308316422031 -0.46313497537055559 0 -0.5 -0.43609587328940957 0 -0.45988857403832928 -0.42958946337785658 0 -0.5 -0.43609587328940957 0 -0.47665499501968439 -0.40501195629073661 0 -0.49999999999999578 -0.35634566018095459 0 -0.5 -0.43609587328940957 0 -0.47665499501968439 -0.40501195629073661 0 -0.45988857403832928 -0.42958946337785658 0 -0.47665499501968439 -0.40501195629073661 0 -0.47221694618287913 -0.37814995947898972 0 -0.49999999999999578 -0.35634566018095459 0 -0.47221694618287913 -0.37814995947898972 0 -0.45705965164909329 -0.39495203827286068 0 -0.45233943568405932 -0.3746812337852139 0 -0.47665499501968439 -0.40501195629073661 0 -0.47221694618287913 -0.37814995947898972 0 -0.45705965164909329 -0.39495203827286068 0 -0.47665499501968439 -0.40501195629073661 0 -0.45705965164909329 -0.39495203827286068 0 -0.45296274945778919 -0.41102105771276731 0 -0.45705965164909329 -0.39495203827286068 0 -0.43783659947816211 -0.40293077367182251 0 -0.45296274945778919 -0.41102105771276731 0 -0.45705965164909329 -0.39495203827286068 0 -0.43783659947816211 -0.40293077367182251 0 -0.44422097740446759 -0.39054190110878573 0 -0.42964822280655579 -0.38960355870524571 0 -0.43877887423894152 -0.36513860005734078 0 -0.45233943568405932 -0.3746812337852139 0 -0.42964822280655579 -0.38960355870524571 0 -0.45233943568405932 -0.3746812337852139 0 -0.45705965164909329 -0.39495203827286068 0 -0.44422097740446759 -0.39054190110878573 0 -0.45233943568405932 -0.3746812337852139 0 -0.44422097740446759 -0.39054190110878573 0 -0.42964822280655579 -0.38960355870524571 0 -0.45233943568405932 -0.3746812337852139 0 -0.47665499501968439 -0.40501195629073661 0 -0.45988857403832928 -0.42958946337785658 0 -0.45296274945778919 -0.41102105771276731 0 -0.43783659947816211 -0.40293077367182251 0 -0.44076263358592388 -0.42078003597220093 0 -0.45296274945778919 -0.41102105771276731 0 -0.45988857403832928 -0.42958946337785658 0 -0.44076263358592388 -0.42078003597220093 0 -0.45296274945778919 -0.41102105771276731 0 -0.45988857403832928 -0.42958946337785658 0 -0.44076263358592388 -0.42078003597220093 0 -0.43361905554292629 -0.44349290162707689 0 -0.42350418307205051 -0.42150146822855838 0 -0.43361905554292629 -0.44349290162707689 0 -0.40917176666593891 -0.44007216278529437 0 -0.44076263358592388 -0.42078003597220093 0 -0.42350418307205051 -0.42150146822855838 0 -0.43361905554292629 -0.44349290162707689 0 -0.43783659947816211 -0.40293077367182251 0 -0.42350418307205051 -0.42150146822855838 0 -0.43783659947816211 -0.40293077367182251 0 -0.44076263358592388 -0.42078003597220093 0 -0.42350418307205051 -0.42150146822855838 0 -0.43783659947816211 -0.40293077367182251 0 -0.42350418307205051 -0.42150146822855838 0 -0.42250991718058051 -0.40591806287612608 0 -0.42350418307205051 -0.42150146822855838 0 -0.40735795351873039 -0.42088958510141339 0 -0.42250991718058051 -0.40591806287612608 0 -0.40735795351873039 -0.42088958510141339 0 -0.42250991718058051 -0.40591806287612608 0 -0.40695700992905232 -0.40452588362527742 0 -0.42350418307205051 -0.42150146822855838 0 -0.40917176666593891 -0.44007216278529437 0 -0.42350418307205051 -0.42150146822855838 0 -0.40735795351873039 -0.42088958510141339 0 -0.40917176666593891 -0.44007216278529437 0 -0.42964822280655579 -0.38960355870524571 0 -0.4135267553246692 -0.37765324302611292 0 -0.43877887423894152 -0.36513860005734078 0 -0.43783659947816211 -0.40293077367182251 0 -0.42964822280655579 -0.38960355870524571 0 -0.42250991718058051 -0.40591806287612608 0 -0.43783659947816211 -0.40293077367182251 0 -0.44422097740446759 -0.39054190110878573 0 -0.42964822280655579 -0.38960355870524571 0 -0.42964822280655579 -0.38960355870524571 0 -0.42250991718058051 -0.40591806287612608 0 -0.40695700992905232 -0.40452588362527742 0 -0.42964822280655579 -0.38960355870524571 0 -0.40695700992905232 -0.40452588362527742 0 -0.42964822280655579 -0.38960355870524571 0 -0.40695700992905232 -0.40452588362527742 0 -0.4135267553246692 -0.37765324302611292 0 -0.40695700992905232 -0.40452588362527742 0 -0.4135267553246692 -0.37765324302611292 0 -0.3977462633808177 -0.38767850019735278 0 -0.4135267553246692 -0.37765324302611292 0 -0.3977462633808177 -0.38767850019735278 0 -0.3910921140873343 -0.37085154459948622 0 -0.40695700992905232 -0.40452588362527742 0 -0.3977462633808177 -0.38767850019735278 0 -0.39156082734317399 -0.40059903742071362 0 -0.3977462633808177 -0.38767850019735278 0 -0.39156082734317399 -0.40059903742071362 0 -0.37664428964660751 -0.39119637113985251 0 -0.39156082734317399 -0.40059903742071362 0 -0.37664428964660751 -0.39119637113985251 0 -0.38426579705154718 -0.41944820854530679 0 -0.37664428964660751 -0.39119637113985251 0 -0.38426579705154718 -0.41944820854530679 0 -0.3977462633808177 -0.38767850019735278 0 -0.37664428964660751 -0.39119637113985251 0 -0.3910921140873343 -0.37085154459948622 0 -0.39773904721321329 -0.43387172454791773 0 -0.38426579705154718 -0.41944820854530679 0 -0.39142840627115272 -0.4459989760404649 0 -0.40735795351873039 -0.42088958510141339 0 -0.39773904721321329 -0.43387172454791773 0 -0.38426579705154718 -0.41944820854530679 0 -0.40735795351873039 -0.42088958510141339 0 -0.39773904721321329 -0.43387172454791773 0 -0.40917176666593891 -0.44007216278529437 0 -0.40735795351873039 -0.42088958510141339 0 -0.40695700992905232 -0.40452588362527742 0 -0.38426579705154718 -0.41944820854530679 0 -0.40695700992905232 -0.40452588362527742 0 -0.38426579705154718 -0.41944820854530679 0 -0.40695700992905232 -0.40452588362527742 0 -0.39156082734317399 -0.40059903742071362 0 -0.38426579705154718 -0.41944820854530679 0 -0.37664428964660751 -0.39119637113985251 0 -0.38426579705154718 -0.41944820854530679 0 -0.37289078110535862 -0.41436197883334552 0 -0.38426579705154718 -0.41944820854530679 0 -0.37674159639830712 -0.4194098326634994 0 -0.37289078110535862 -0.41436197883334552 0 -0.38426579705154718 -0.41944820854530679 0 -0.37674159639830712 -0.4194098326634994 0 -0.37927839917958772 -0.42469629489405247 0 -0.37674159639830712 -0.4194098326634994 0 -0.37927839917958772 -0.42469629489405247 0 -0.37289093194205702 -0.42600722256956858 0 -0.38426579705154718 -0.41944820854530679 0 -0.38267770885978591 -0.43020472099993617 0 -0.39142840627115272 -0.4459989760404649 0 -0.37927839917958772 -0.42469629489405247 0 -0.38267770885978591 -0.43020472099993617 0 -0.37289093194205702 -0.42600722256956858 0 -0.38426579705154718 -0.41944820854530679 0 -0.37927839917958772 -0.42469629489405247 0 -0.38267770885978591 -0.43020472099993617 0 -0.38426579705154718 -0.41944820854530679 0 -0.39142840627115272 -0.4459989760404649 0 -0.38267770885978591 -0.43020472099993617 0 -0.37498697932785813 -0.43665479546504382 0 -0.37289093194205702 -0.42600722256956858 0 -0.38267770885978591 -0.43020472099993617 0 -0.38274481376531078 -0.44033996738161357 0 -0.37498697932785813 -0.43665479546504382 0 -0.39142840627115272 -0.4459989760404649 0 -0.36940631651393169 -0.45437748399902161 0 -0.38274481376531078 -0.44033996738161357 0 -0.36940631651393169 -0.45437748399902161 0 -0.37498697932785813 -0.43665479546504382 0 -0.39142840627115272 -0.4459989760404649 0 -0.39483935025982653 -0.45864285734202981 0 -0.36940631651393169 -0.45437748399902161 0 -0.38274481376531078 -0.44033996738161357 0 -0.39142840627115272 -0.4459989760404649 0 -0.36940631651393169 -0.45437748399902161 0 -0.38267770885978591 -0.43020472099993617 0 -0.38274481376531078 -0.44033996738161357 0 -0.39142840627115272 -0.4459989760404649 0 -0.39490861364955421 -0.44467489891886441 0 -0.39483935025982653 -0.45864285734202981 0 -0.40917176666593891 -0.44007216278529437 0 -0.39483935025982653 -0.45864285734202981 0 -0.40917176666593891 -0.44007216278529437 0 -0.39773904721321329 -0.43387172454791773 0 -0.39490861364955421 -0.44467489891886441 0 -0.39142840627115272 -0.4459989760404649 0 -0.39490861364955421 -0.44467489891886441 0 -0.39142840627115272 -0.4459989760404649 0 -0.39483935025982653 -0.45864285734202981 0 -0.39142840627115272 -0.4459989760404649 0 -0.39483935025982653 -0.45864285734202981 0 -0.39490861364955421 -0.44467489891886441 0 -0.39142840627115272 -0.4459989760404649 0 -0.39773904721321329 -0.43387172454791773 0 -0.39490861364955421 -0.44467489891886441 0 -0.40917176666593891 -0.44007216278529437 0 -0.39483935025982653 -0.45864285734202981 0 -0.39885015285817521 -0.47351032867723297 0 -0.41482637202655781 -0.46066129084723439 0 -0.39483935025982653 -0.45864285734202981 0 -0.39885015285817521 -0.47351032867723297 0 -0.39483935025982653 -0.45864285734202981 0 -0.37888012514495523 -0.47932142867101452 0 -0.36940631651393169 -0.45437748399902161 0 -0.39483935025982653 -0.45864285734202981 0 -0.37888012514495523 -0.47932142867101452 0 -0.38775261308638909 -0.48824191147213641 0 -0.3952509319422064 -0.5 0 -0.36292090003008348 -0.49999999999999889 0 -0.37888012514495523 -0.47932142867101452 0 -0.38775261308638909 -0.48824191147213641 0 -0.39885015285817521 -0.47351032867723297 0 -0.37888012514495523 -0.47932142867101452 0 -0.38775261308638909 -0.48824191147213641 0 -0.36292090003008348 -0.49999999999999889 0 -0.38775261308638909 -0.48824191147213641 0 -0.3952509319422064 -0.5 0 -0.40286095545652539 -0.48837780001243
[...]
<PointData Scalars="" Vectors="displacement," Tensors="">
<DataArray type="Float64" Name="displacement" NumberOfComponents="3" format="ascii">
0.0049996304132683984 4.9735497776160626e-08 0 0.0047661047061021327 4.5528479961446064e-05 0 0.0049997781151357472 9.6896456921354817e-08 0 0.0049996304132683984 4.9735497776160626e-08 0 0.0043951674186703468 7.9599055068485616e-08 0 0.0047661047061021327 4.5528479961446064e-05 0 0.0043951674186703468 7.9599055068485616e-08 0 0.0047661047061021327 4.5528479961446064e-05 0 0.0045704313655286922 -1.0528931560626352e-06 0 0.0047661047061021327 4.5528479961446064e-05 0 0.0048927728266253525 2.5200869807711557e-05 0 0.0047769775874368162 -1.6489698754011684e-05 0 0.0047661047061021327 4.5528479961446064e-05 0 0.0045704313655286922 -1.0528931560626352e-06 0 0.0047769775874368162 -1.6489698754011684e-05 0 0.0047661047061021327 4.5528479961446064e-05 0 0.0049997781151357472 9.6896456921354817e-08 0 0.0048927728266253525 2.5200869807711557e-05 0 0.0049997781151357472 9.6896456921354817e-08 0 0.0049652703386888104 2.0903496723552789e-05 0 0.0049998688121644531 -1.4940872321645141e-08 0 0.0049997781151357472 9.6896456921354817e-08 0 0.0049652703386888104 2.0903496723552789e-05 0 0.0048927728266253525 2.5200869807711557e-05 0 0.0049652703386888104 2.0903496723552789e-05 0 0.0049660573138028442 2.3071125800442271e-05 0 0.0049998688121644531 -1.4940872321645141e-08 0 0.0049660573138028442 2.3071125800442271e-05 0 0.0049538015339312567 1.7473161546273964e-05 0 0.0049700581670141112 2.0771217423813693e-05 0 0.0049652703386888104 2.0903496723552789e-05 0 0.0049660573138028442 2.3071125800442271e-05 0 0.0049538015339312567 1.7473161546273964e-05 0 0.0049652703386888104 2.0903496723552789e-05 0 0.0049538015339312567 1.7473161546273964e-05 0 0.0049247289124276332 1.1172892382197785e-05 0 0.0049538015339312567 1.7473161546273964e-05 0 0.0049231932449765895 -8.5165435505807075e-06 0 0.0049247289124276332 1.1172892382197785e-05 0 0.0049538015339312567 1.7473161546273964e-05 0 0.0049231932449765895 -8.5165435505807075e-06 0 0.0049561208604672674 8.8906355144041638e-07 0 0.0046977490832546065 5.7177880288549816e-05 0 0.0047527557409964673 3.6726315133984616e-05 0 0.0047685343801979778 4.9767666905922264e-05 0 0.0048161328885260382 4.4745949984956974e-06 0 0.0048721386864799352 2.9097903271362976e-05 0 0.0049538015339312567 1.7473161546273964e-05 0 0.0049561208604672674 8.8906355144041638e-07 0 0.0049700581670141112 2.0771217423813693e-05 0 0.0049561208604672674 8.8906355144041638e-07 0 0.0049687776273132471 -3.6515338678071331e-05 0 0.0049700581670141112 2.0771217423813693e-05 0 0.0049652703386888104 2.0903496723552789e-05 0 0.0048927728266253525 2.5200869807711557e-05 0 0.0049247289124276332 1.1172892382197785e-05 0 0.0049231932449765895 -8.5165435505807075e-06 0 0.0048913261696279771 -8.5448291683683618e-06 0 0.0049247289124276332 1.1172892382197785e-05 0 0.0048927728266253525 2.5200869807711557e-05 0 0.0048913261696279771 -8.5448291683683618e-06 0 0.0049247289124276332 1.1172892382197785e-05 0 0.0048927728266253525 2.5200869807711557e-05 0 0.0048913261696279771 -8.5448291683683618e-06 0 0.0047769775874368162 -1.6489698754011684e-05 0 0.0048849323469194678 -6.8222131320199044e-05 0 0.0047769775874368162 -1.6489698754011684e-05 0 0.0047763013874298921 -0.00014932264586206036 0 0.0048913261696279771 -8.5448291683683618e-06 0 0.0048849323469194678 -6.8222131320199044e-05 0 0.0047769775874368162 -1.6489698754011684e-05 0 0.0049158994317263158 -1.0835121745736743e-05 0 0.0048106234355667597 -7.447303797160869e-05 0 0.0049231932449765895 -8.5165435505807075e-06 0 0.0048913261696279771 -8.5448291683683618e-06 0 0.0048849323469194678 -6.8222131320199044e-05 0 0.0049231932449765895 -8.5165435505807075e-06 0 0.0047620848343096142 -6.6795128488876141e-05 0 0.0048826213605450931 -8.3351538702520372e-05 0 0.0047620848343096142 -6.6795128488876141e-05 0 0.0047578784473794747 -0.00018813314407216245 0 0.0048826213605450931 -8.3351538702520372e-05 0 0.0047578784473794747 -0.00018813314407216245 0 0.0048826213605450931 -8.3351538702520372e-05 0 0.0048899907605135769 -0.00018857706846660597 0 0.0048106234355667597 -7.447303797160869e-05 0 0.0047412572855749452 -0.00015001939127442059 0 0.0047620848343096142 -6.6795128488876141e-05 0 0.0047578784473794747 -0.00018813314407216245 0 0.004588403104285447 -0.00016797536473589739 0 0.0046977490832546065 5.7177880288549816e-05 0 0.0046322387442972743 0.00011203607130522748 0 0.0047527557409964673 3.6726315133984616e-05 0 0.0049231932449765895 -8.5165435505807075e-06 0 0.0049687776273132471 -3.6515338678071331e-05 0 0.0048826213605450931 -8.3351538702520372e-05 0 0.0049231932449765895 -8.5165435505807075e-06 0 0.0049561208604672674 8.8906355144041638e-07 0 0.0049687776273132471 -3.6515338678071331e-05 0 0.0049687776273132471 -3.6515338678071331e-05 0 0.0048826213605450931 -8.3351538702520372e-05 0 0.0048899907605135769 -0.00018857706846660597 0 0.0048161328885260382 4.4745949984956974e-06 0 0.0049306632454009583 -2.5604263901010302e-05 0 0.0046977490832546065 5.7177880288549816e-05 0 0.0047497043883747078 0.00015629370836537011 0 0.0046322387442972743 0.00011203607130522748 0 0.0047497043883747078 0.00015629370836537011 0 0.0046322387442972743 0.00011203607130522748 0 0.0046643641505225543 0.00020533490165654586 0 0.0046322387442972743 0.00011203607130522748 0 0.0046643641505225543 0.00020533490165654586 0 0.0045524687159840781 0.00025117856659659377 0 0.0047497043883747078 0.00015629370836537011 0 0.0046643641505225543 0.00020533490165654586 0 0.0047267261437305922 0.0002413383253746399 0 0.0046643641505225543 0.00020533490165654586 0 0.0047267261437305922 0.0002413383253746399 0 0.0046725626388642262 0.00033228136041336303 0 0.0047267261437305922 0.0002413383253746399 0 0.0046725626388642262 0.00033228136041336303 0 0.0048209056788498803 0.00027892392697379204 0 0.0036943365281183597 0.00034037839088104418 0 0.004000698677024018 0.00018195614938079405 0 0.0046643641505225543 0.00020533490165654586 0 0.0046725626388642262 0.00033228136041336303 0 0.0045524687159840781 0.00025117856659659377 0 0.004639085286332648 -0.00026831038471051882 0 0.0047618092282613149 -0.00037917187277443273 0 0.004527370840360749 -0.00032467626718970735 0 0.0047578784473794747 -0.00018813314407216245 0 0.004639085286332648 -0.00026831038471051882 0 0.0047618092282613149 -0.00037917187277443273 0 0.0047578784473794747 -0.00018813314407216245 0 0.004639085286332648 -0.00026831038471051882 0 0.004588403104285447 -0.00016797536473589739 0 0.0047578784473794747 -0.00018813314407216245 0 0.0048899907605135769 -0.00018857706846660597 0 0.0047618092282613149 -0.00037917187277443273 0 0.0049306632454009583 -2.5604263901010302e-05 0 0.004000698677024018 0.00018195614938079405 0 0.0047497043883747078 0.00015629370836537011 0 0.0047267261437305922 0.0002413383253746399 0 0.0048209056788498803 0.00027892392697379204 0 0.0027973957682585608 0.00030837101537786716 0 0.0027624027906510825 0.00030618954782246508 0 0.002764311455563365 0.00029566169339720588 0 0.0027624027906510825 0.00030618954782246508 0 0.002759385712477567 0.00029849726346922484 0 0.002764311455563365 0.00029566169339720588 0 0.0027624027906510825 0.00030618954782246508 0 0.002759385712477567 0.00029849726346922484 0 0.0027536152960756163 0.00030012364666099489 0 0.002759385712477567 0.00029849726346922484 0 0.0027536152960756163 0.00030012364666099489 0 0.0027491062695129214 0.00029268763946539353 0 0.0027624027906510825 0.00030618954782246508 0 0.0027479316763115553 0.00030293381745506379 0 0.0027314377950663762 0.00031018122163362809 0 0.0027536152960756163 0.00030012364666099489 0 0.0027479316763115553 0.00030293381745506379 0 0.0027491062695129214 0.00029268763946539353 0 0.0027624027906510825 0.00030618954782246508 0 0.0027536152960756163 0.00030012364666099489 0 0.0027479316763115553 0.00030293381745506379 0 0.004000698677024018 0.00018195614938079405 0 0.003601747915542916 -0.00011766195626131168 0 0.0027479316763115553 0.00030293381745506379 0 0.0027362066791723925 0.00029329006039770586 0 0.0027491062695129214 0.00029268763946539353 0 0.0027479316763115553 0.00030293381745506379 0 0.0027348510517628192 0.00030147672242633144 0 0.0027362066791723925 0.00029329006039770586 0 0.003601747915542916 -0.00011766195626131168 0 0.003005834966986753 0.00014361628841462202 0 0.0027348510517628192 0.00030147672242633144 0 0.0027107636914804642 0.00028505427654582988 0 0.0027362066791723925 0.00029329006039770586 0 0.0033776795809116471 -0.00010994249426265375 0 0.0034193511506686865 -0.00012179539927515503 0 0.0034000954144611101 -3.6575383566196086e-05 0 0.0027348510517628192 0.00030147672242633144 0 0.0027314377950663762 0.00031018122163362809 0 0.0027107636914804642 0.00028505427654582988 0 0.0027479316763115553 0.00030293381745506379 0 0.0027348510517628192 0.00030147672242633144 0 0.0027314377950663762 0.00031018122163362809 0 0.0045397670636700823 -0.00029434009275998261 0 0.0044054682431725811 -0.00029361670687788746 0 0.004588403104285447 -0.00016797536473589739 0 0.0041044944726517964 -0.00018537257955225571 0 0.0047412572855749452 -0.00015001939127442059 0 0.004639085286332648 -0.00026831038471051882 0 0.0045397670636700823 -0.00029434009275998261 0 0.004527370840360749 -0.00032467626718970735 0 0.0045397670636700823 -0.00029434009275998261 0 0.0045258859858852496 -0.0003273786194658989 0 0.0044054682431725811 -0.00029361670687788746 0 0.003601747915542916 -0.00011766195626131168 0 0.0041044944726517964 -0.00018537257955225571 0 0.0037357831418632684 -0.00010058379578483646 0 0.003601747915542916 -0.00011766195626131168 0 0.004639085286332648 -0.00026831038471051882 0 0.0045397670636700823 -0.00029434009275998261 0 0.004588403104285447 -0.00016797536473589739 0 0.0045993044047089393 -0.00027294246994221717 0 0.0044195388303134358 -0.00021599285023482038 0 0.0045992571820722382 -9.4083751209713507e-05 0 0.0041044944726517964 -0.00018537257955225571 0 0.0042314441213725162 -0.00012345792299204192 0 0.0034193511506686865 -0.00012179539927515503 0 0.003479750347340198 -7.8825608378263693e-05 0 0.0034000954144611101 -3.6575383566196086e-05 0 0.0041044944726517964 -0.00018537257955225571 0 0.0036621976443994802 -4.0541280370375052e-05 0 0.0039630966812046042 1.0383055540435033e-06 0 0.0039525709631214462 -1.6533715841038438e-07 0 0.0036295711383657922 -6.3157634195682291e-08 0 0.0039724473801537831 -2.1555607990790478e-05 0 0.0039630966812046042 1.0383055540435033e-06 0 0.0039880449627371761 -2.0318161515803777e-05 0 0.0039724473801537831 -2.1555607990790478e-05 0 0.0039630966812046042 1.0383055540435033e-06 0 0.0036295711383657922 -6.3157634195682291e-08 0 0.0039630966812046042 1.0383055540435033e-06 0 0.0039525709631214462 -1.6533715841038438e-07 0 0.0041167015451020602 -5.7152806066847456e-05 0 0.0039929695512814769 -2.2460722301624238e-05 0 0.0039724473801537831 -2.1555607990790478e-05 0 0.0039880449627371761 -2.0318161515803777e-05 0 0.0039630966812046042 1.0383055540435033e-06 0 0.0041167015451020602 -5.7152806066847456e-05 0 0.0039880449627371761 -2.0318161515803777e-05 0 0.0041260374478931669 -7.4029461911059849e-05 0 0.0042314441213725162 -0.00012345792299204192 0 0.0043951674186703468 7.9599055068485616e-08 0 0.0039525709631214462 -1.6533715841038438e-07 0 0.0041167015451020602 -5.7152806066847456e-05 0 0.0041167015451020602 -5.7152806066847456e-05 0 0.0044195388303134358 -0.00021599285023482038 0 0.0043877839916112611 -3.2439999333821117e-05 0 0.0044195388303134358 -0.00021599285023482038 0 0.0043877839916112611 -3.2439999333821117e-05 0 0.0045992571820722382 -9.4083751209713507e-05 0 0.0043951674186703468 7.9599055068485616e-08 0 0.0041167015451020602 -5.7152806066847456e-05 0 0.0043877839916112611 -3.2439999333821117e-05 0 0.0043951674186703468 7.9599055068485616e-08 0 0.0043877839916112611 -3.2439999333821117e-05 0 0.0045704313655286922 -1.0528931560626352e-06 0 0.0043877839916112611 -3.2439999333821117e-05 0 0.0045704313655286922 -1.0528931560626352e-06 0 0.0045992571820722382 -9.4083751209713507e-05 0 0.0045704313655286922 -1.0528931560626352e-06 0 0.0047769775874368162 -1.6489698754011684e-05 0 0.0045992571820722382 -9.4083751209713507e-05 0 0.0047769775874368162 -1.6489698754011684e-05 0 0.0047763013874298921 -0.00014932264586206036 0 0.0045992571820722382 -9.4083751209713507e-05 0 0.0045993044047089393 -0.00027294246994221717 0 0.0047763013874298921 -0.00014932264586206036 0 0.0045992571820722382 -9.4083751209713507e-05 0 0.0045722722871108061 0.00011198021669927922 0 0.0045897607903559344 5.6833200151966178e-05 0 0.0041870223641654282 0.00018313846658007442 0 0.0041803081366288833 0.00010294397005826335 0 0.0041762207335276254 0.00015581334674951556 0 0.0049500120741655974 4.2790122575088699e-05 0 0.0049873901051797637 1.4488376459288975e-05 0 0.0049611727748772837 1.9656913775276753e-06 0 0.0049873901051797637 1.4488376459288975e-05 0 0.0049611727748772837 1.9656913775276753e-06 0 0.0049902898771074606 -2.4849404337178669e-06 0 0.0049611727748772837 1.9656913775276753e-06 0 0.0049902898771074606 -2.4849404337178669e-06 0 0.0049760548012771867 -7.4215017706678637e-06 0 0.004999966310841852 -1.368187915413478e-08 0 0.0049902898771074606 -2.4849404337178669e-06 0 0.0049760548012771867 -7.4215017706678637e-06 0 0.004999966310841852 -1.368187915413478e-08 0 0.0049999940922085713 2.8066149901813108e-10 0 0.0049902898771074606 -2.4849404337178669e-06 0 0.0049999940922085713 2.8066149901813108e-10 0 0.0049902898771074606 -2.4849404337178669e-06 0 0.0049987763420995396 -8.5655927904614921e-09 0 0.0049873901051797637 1.4488376459288975e-05 0 0.0049902898771074606 -2.4849404337178669e-06 0 0.0049979102137814729 3.0178908534327056e-06 0 0.0049902898771074606 -2.4849404337178669e-06 0 0.0049979102137814729 3.0178908534327056e-06 0 0.0049987763420995396 -8.5655927904614921e-09 0 0.0049999940922085713 2.8066149901813108e-10 0 0.0049987763420995396 -8.5655927904614921e-09 0 0.0049999958576127622 -3.1945715323319613e-10 0 0.0045914963571435912 2.5979300955289674e-05 0 0.0047402154158376472 5.0534924543963546e-06 0 0.0049987763420995396 -8.5655927904614921e-09 0 0.0049999958576127622 -3.1945715323319613e-10 0 0.0049990901818510328 8.6347994661508371e-08 0 0.0049979102137814729 3.0178908534327056e-06 0 0.0049987763420995396 -8.5655927904614921e-09 0 0.0049990901818510328 8.6347994661508371e-08 0 0.0049999825305413878 1.0418294735971108e-07 0 0.0047402154158376472 5.0534924543963546e-06 0 0.0042210365970185718 3.9151720971446517e-05 0 0.0042665412699174387 4.853887240019311e-05 0 0.0042689564035528517 -4.1026216384136827e-06 0 0.0042210365970185718 3.9151720971446517e-05 0 0.0042195450855200978 0.00010392851416151631 0 0.0042665412699174387 4.853887240019311e-05 0 0.0042195450855200978 0.00010392851416151631 0 0.0042682779437960517 8.2136762663197462e-05 0 0.0042665412699174387 4.853887240019311e-05 0 0.0045897607903559344 5.6833200151966178e-05 0 0.0045914963571435912 2.5979300955289674e-05 0 0.0041803081366288833 0.00010294397005826335 0 0.0042210365970185718 3.9151720971446517e-05 0 0.0042195450855200978 0.00010392851416151631 0 0.0041803081366288833 0.00010294397005826335 0 0.0042195450855200978 0.00010392851416151631 0 0.0041762207335276254 0.00015581334674951556 0 0.0042195450855200978 0.00010392851416151631 0 0.0042682779437960517 8.2136762663197462e-05 0 0.0042478096726982608 0.00011021291594447364 0 0.0042682779437960517 8.2136762663197462e-05 0 0.0043030260945822072 9.0808280278980704e-05 0 0.0042478096726982608 0.00011021291594447364 0 0.0042682779437960517 8.2136762663197462e-05 0 0.0043109787492219909 6.4958309411338101e-05 0 0.0043030260945822072 9.0808280278980704e-05 0 0.0043109787492219909 6.4958309411338101e-05 0 0.0043384158908807363 7.9908053145602578e-05 0 0.0043030260945822072 9.0808280278980704e-05 0 0.0043109787492219909 6.4958309411338101e-05 0 0.0043070659359926147 2.5051807468075132e-05 0 0.0043428460714973463 4.9290980516551447e-05 0 0.0042682779437960517 8.2136762663197462e-05 0 0.0043109787492219909 6.4958309411338101e-05 0 0.0042665412699174387 4.853887240019311e-05 0 0.0043109787492219909 6.4958309411338101e-05 0 0.0042665412699174387 4.853887240019311e-05 0 0.0043070659359926147 2.5051807468075132e-05 0 0.0042665412699174387 4.853887240019311e-05 0 0.0042689564035528517 -4.1026216384136827e-06 0 0.0043070659359926147 2.5051807468075132e-05 0 0.0049999989749559808 2.2759233789082121e-10 0 0.0049999988136074855 -1.8846185968309729e-10 0 0.0049994357347576098 1.7762281529248441e-08 0 0.0047402154158376472 5.0534924543963546e-06 0 0.004619349347005623 -8.3465191747597682e-07 0 0.0050038234364966983 -2.4533489707464654e-06 0 0.0049978309614230913 -4.7913889986871433e-06 0 0.0049942615586815045 -1.4808287346589715e-05 0 0.0050000188970818291 -2.4894026764838534e-09 0 0.0050038234364966983 -2.4533489707464654e-06 0 0.0049978309614230913 -4.7913889986871433e-06 0 0.004999947547297854 -1.0677536834046403e-07 0 0.0047402154158376472 5.0534924543963546e-06 0 0.0049999702697128548 3.8194287862129794e-10 0 0.0049978309614230913 -4.7913889986871433e-06 0 0.0049820418215798332 -1.0792796549222016e-05 0 0.0049999839523517265 -2.2365580648360789e-08 0 0.0050113560440011255 7.4117627055917047e-06 0 0.0050000019032911533 -1.605991324714614e-10 0 0.0049996060788307945 -1.3749115840588926e-06 0 0.0049993641813586408 -4.3219782564229467e-07 0 0.0050000188970818291 -2.4894026764838534e-09 0 0.0049999702697128548 3.8194287862129794e-10 0 0.0049978309614230913 -4.7913889986871433e-06 0 0.0049820418215798332 -1.0792796549222016e-05 0 0.0049942615586815045 -1.4808287346589715e-05 0 0.0049654890565547487 -3.6804559020767484e-05 0 0.004619349347005623 -8.3465191747597682e-07 0 0.0047446630960028451 -3.0832133904556943e-05 0 0.0049978309614230913 -4.7913889986871433e-06 0 0.0049820418215798332 -1.0792796549222016e-05 0 0.0049942615586815045 -1.4808287346589715e-05 0 0.0049996060788307945 -1.3749115840588926e-06 0 0.0049972772904434016 -1.4005511330502641e-06 0 0.0049948611492089704 -6.4840930972318288e-06 0 0.0049752148556847179 2.2886318535399088e-05 0 0.0047446630960028451 -3.0832133904556943e-05 0 0.0049446416205777798 2.4634394493582496e-05 0 0.0049329102406003179 3.5078259904650067e-05 0 0.0048852253329619297 4.4177487874277802e-05 0 0.0050113560440011255 7.4117627055917047e-06 0 0.0047446630960028451 -3.0832133904556943e-05 0 0.0049996060788307945 -1.3749115840588926e-06 0 0.0049972772904434016 -1.4005511330502641e-06 0 0.0049993641813586408 -4.3219782564229467e-07 0 0.0049972772904434016 -1.4005511330502641e-06 0 0.0049999956023281545 1.1380701422729765e-10 0 0.0049993641813586408 -4.3219782564229467e-07 0 0.0050000019032911533 -1.605991324714614e-10 0 0.0049999956023281545 1.1380701422729765e-10 0 0.0049993641813586408 -4.3219782564229467e-07 0 0.0049752148556847179 2.2886318535399088e-05 0 0.0049999834486278072 5.2132904308657565e-09 0 0.0049446416205777798 2.4634394493582496e-05 0 0.0049998688121644531 -1.4940872321645141e-08 0 0.0049329102406003179 3.5078259904650067e-05 0 0.0049660573138028442 2.3071125800442271e-05 0 0.0049998688121644531 -1.4940872321645141e-08 0 0.0049329102406003179 3.5078259904650067e-05 0 0.0049329102406003179 3.5078259904650067e-05 0 0.0048752104262047595 4.4043636264138454e-05 0 0.0047685343801979778 4.9767666905922264e-05 0 0.0049174685975382371 3.0564335332581826e-05 0 0.0048721386864799352 2.9097903271362976e-05 0 0.0049660573138028442 2.3071125800442271e-05 0 0.0049329102406003179 3.5078259904650067e-05 0 0.0049700581670141112 2.0771217423813693e-05 0 0.0049329102406003179 3.5078259904650067e-05 0 0.0048852253329619297 4.4177487874277802e-05 0 0.0048752104262047595 4.4043636264138454e-05 0 0.0043109787492219909 6.4958309411338101e-05 0 0.0043428460714973463 4.9290980516551447e-05 0 0.0043384158908807363 7.9908053145602578e-05 0 0.0047446630960028451 -3.0832133904556943e-05 0 0.0043447771614214