<?xml version="1.0"?>
<VTKFile type="UnstructuredGrid" version="0.1" byte_order="LittleEndian">
<UnstructuredGrid>
<Piece NumberOfPoints="31898" NumberOfCells="11152">
<Points>
<DataArray type="Float64" NumberOfComponents="3" format="ascii">
-0.5 -0.5 0 -0.47620991077874902 -0.44978878706170539 0 -0.49999999999999473 -0.42132396840504388 0 -0.5 -0.5 0 -0.47160970827802529 -0.4793630013852106 0 -0.47620991077874902 -0.44978878706170539 0 -0.5 -0.5 0 -0.47160970827802529 -0.4793630013852106 0 -0.44860394795025399 -0.5 0 -0.47160970827802529 -0.4793630013852106 0 -0.44860394795025399 -0.5 0 -0.4490820238307246 -0.45820516232899983 0 -0.44860394795025399 -0.5 0 -0.4490820238307246 -0.45820516232899983 0 -0.42881687682924802 -0.47781464288736519 0 -0.4490820238307246 -0.45820516232899983 0 -0.45555437223955858 -0.42914059360647611 0 -0.4490820238307246 -0.45820516232899983 0 -0.45555437223955858 -0.42914059360647611 0 -0.43867285131603428 -0.4271457417558665 0 -0.4490820238307246 -0.45820516232899983 0 -0.43867285131603428 -0.4271457417558665 0 -0.4263356171060747 -0.44269880333887462 0 -0.47160970827802529 -0.4793630013852106 0 -0.4490820238307246 -0.45820516232899983 0 -0.47620991077874902 -0.44978878706170539 0 -0.4490820238307246 -0.45820516232899983 0 -0.47620991077874902 -0.44978878706170539 0 -0.45555437223955858 -0.42914059360647611 0 -0.47620991077874902 -0.44978878706170539 0 -0.48101336032419229 -0.41069999664450008 0 -0.45555437223955858 -0.42914059360647611 0 -0.47620991077874902 -0.44978878706170539 0 -0.49999999999999473 -0.42132396840504388 0 -0.48101336032419229 -0.41069999664450008 0 -0.49999999999999473 -0.42132396840504388 0 -0.48101336032419229 -0.41069999664450008 0 -0.5 -0.393886241813306 0 -0.49999999999999473 -0.42132396840504388 0 -0.48101336032419229 -0.41069999664450008 0 -0.5 -0.393886241813306 0 -0.47854472220918332 -0.38978458738689759 0 -0.48422759779560409 -0.37130120630367158 0 -0.5 -0.393886241813306 0 -0.5 -0.36644851522156802 0 -0.48422759779560409 -0.37130120630367158 0 -0.48101336032419229 -0.41069999664450008 0 -0.5 -0.393886241813306 0 -0.47854472220918332 -0.38978458738689759 0 -0.48101336032419229 -0.41069999664450008 0 -0.47854472220918332 -0.38978458738689759 0 -0.46202672064839212 -0.40007602488395211 0 -0.48101336032419229 -0.41069999664450008 0 -0.46202672064839212 -0.40007602488395211 0 -0.47854472220918332 -0.38978458738689759 0 -0.46725442735267431 -0.37660061361585562 0 -0.46202672064839212 -0.40007602488395211 0 -0.47854472220918332 -0.38978458738689759 0 -0.46725442735267431 -0.37660061361585562 0 -0.48422759779560409 -0.37130120630367158 0 -0.46725442735267431 -0.37660061361585562 0 -0.46202672064839212 -0.40007602488395211 0 -0.46725442735267431 -0.37660061361585562 0 -0.45645674801697989 -0.38644133236760531 0 -0.46202672064839212 -0.40007602488395211 0 -0.46725442735267431 -0.37660061361585562 0 -0.45645674801697989 -0.38644133236760531 0 -0.4540003998136638 -0.37455519391687309 0 -0.45645674801697989 -0.38644133236760531 0 -0.46202672064839212 -0.40007602488395211 0 -0.44257020456291563 -0.38918913383950271 0 -0.46202672064839212 -0.40007602488395211 0 -0.44257020456291563 -0.38918913383950271 0 -0.44727608925983742 -0.41095911152778891 0 -0.46202672064839212 -0.40007602488395211 0 -0.44257020456291563 -0.38918913383950271 0 -0.44257020456291563 -0.38918913383950271 0 -0.44727608925983742 -0.41095911152778891 0 -0.43479358559901082 -0.4041454901736512 0 -0.44257020456291563 -0.38918913383950271 0 -0.4540003998136638 -0.37455519391687309 0 -0.44172858264042247 -0.37082207246888088 0 -0.45645674801697989 -0.38644133236760531 0 -0.44257020456291563 -0.38918913383950271 0 -0.4540003998136638 -0.37455519391687309 0 -0.46202672064839212 -0.40007602488395211 0 -0.45555437223955858 -0.42914059360647611 0 -0.44727608925983742 -0.41095911152778891 0 -0.46202672064839212 -0.40007602488395211 0 -0.45555437223955858 -0.42914059360647611 0 -0.48101336032419229 -0.41069999664450008 0 -0.46202672064839212 -0.40007602488395211 0 -0.45555437223955858 -0.42914059360647611 0 -0.44727608925983742 -0.41095911152778891 0 -0.43867285131603428 -0.4271457417558665 0 -0.43676601469929588 -0.41441201227470881 0 -0.44727608925983742 -0.41095911152778891 0 -0.43676601469929588 -0.41441201227470881 0 -0.43479358559901082 -0.4041454901736512 0 -0.45555437223955858 -0.42914059360647611 0 -0.44727608925983742 -0.41095911152778891 0 -0.43867285131603428 -0.4271457417558665 0 -0.43867285131603428 -0.4271457417558665 0 -0.42681803064840879 -0.42717069814352421 0 -0.4263356171060747 -0.44269880333887462 0 -0.42681803064840879 -0.42717069814352421 0 -0.41531815884496182 -0.42985383783075998 0 -0.4263356171060747 -0.44269880333887462 0 -0.42681803064840879 -0.42717069814352421 0 -0.42624289495594048 -0.42089725947505818 0 -0.42083332353326591 -0.42146747131641099 0 -0.42681803064840879 -0.42717069814352421 0 -0.43096994786351572 -0.41951492446283251 0 -0.42624289495594048 -0.42089725947505818 0 -0.43867285131603428 -0.4271457417558665 0 -0.42681803064840879 -0.42717069814352421 0 -0.43096994786351572 -0.41951492446283251 0 -0.43867285131603428 -0.4271457417558665 0 -0.43676601469929588 -0.41441201227470881 0 -0.43096994786351572 -0.41951492446283251 0 -0.43676601469929588 -0.41441201227470881 0 -0.43096994786351572 -0.41951492446283251 0 -0.42907264086257813 -0.41311715872526122 0 -0.43676601469929588 -0.41441201227470881 0 -0.42907264086257813 -0.41311715872526122 0 -0.43479358559901082 -0.4041454901736512 0 -0.42907264086257813 -0.41311715872526122 0 -0.43479358559901082 -0.4041454901736512 0 -0.42460885511582858 -0.40417321677700252 0 -0.42907264086257813 -0.41311715872526122 0 -0.41997834854398469 -0.41180534796019508 0 -0.42907264086257813 -0.41311715872526122 0 -0.42635027777857132 -0.41543594397746519 0 -0.41997834854398469 -0.41180534796019508 0 -0.42907264086257813 -0.41311715872526122 0 -0.41997834854398469 -0.41180534796019508 0 -0.42460885511582858 -0.40417321677700252 0 -0.42635027777857132 -0.41543594397746519 0 -0.41997834854398469 -0.41180534796019508 0 -0.42635027777857132 -0.41543594397746519 0 -0.42083332353326591 -0.42146747131641099 0 -0.41997834854398469 -0.41180534796019508 0 -0.43096994786351572 -0.41951492446283251 0 -0.42624289495594048 -0.42089725947505818 0 -0.42635027777857132 -0.41543594397746519 0 -0.43096994786351572 -0.41951492446283251 0 -0.42907264086257813 -0.41311715872526122 0 -0.42635027777857132 -0.41543594397746519 0 -0.42624289495594048 -0.42089725947505818 0 -0.42635027777857132 -0.41543594397746519 0 -0.42083332353326591 -0.42146747131641099 0 -0.42083332353326591 -0.42146747131641099 0 -0.41997834854398469 -0.41180534796019508 0 -0.40992282953163789 -0.42011435591993562 0 -0.41997834854398469 -0.41180534796019508 0 -0.39756877647335259 -0.40857286797681719 0 -0.41997834854398469 -0.41180534796019508 0 -0.40992282953163789 -0.42011435591993562 0 -0.39756877647335259 -0.40857286797681719 0 -0.40992282953163789 -0.42011435591993562 0 -0.41531815884496182 -0.42985383783075998 0 -0.39591554026262499 -0.42887225451549271 0 -0.41531815884496182 -0.42985383783075998 0 -0.39591554026262499 -0.42887225451549271 0 -0.41160927495564159 -0.44339431233754628 0 -0.42083332353326591 -0.42146747131641099 0 -0.40992282953163789 -0.42011435591993562 0 -0.41531815884496182 -0.42985383783075998 0 -0.42681803064840879 -0.42717069814352421 0 -0.42083332353326591 -0.42146747131641099 0 -0.41531815884496182 -0.42985383783075998 0 -0.44257020456291563 -0.38918913383950271 0 -0.42311368847744002 -0.37830224279505142 0 -0.42594061475171041 -0.39368797999533162 0 -0.44257020456291563 -0.38918913383950271 0 -0.42311368847744002 -0.37830224279505142 0 -0.44172858264042247 -0.37082207246888088 0 -0.44257020456291563 -0.38918913383950271 0 -0.42311368847744002 -0.37830224279505142 0 -0.42311368847744002 -0.37830224279505142 0 -0.42594061475171041 -0.39368797999533162 0 -0.416587075656149 -0.38785930376960043 0 -0.44257020456291563 -0.38918913383950271 0 -0.42594061475171041 -0.39368797999533162 0 -0.43479358559901082 -0.4041454901736512 0 -0.42594061475171041 -0.39368797999533162 0 -0.43479358559901082 -0.4041454901736512 0 -0.42460885511582858 -0.40417321677700252 0 -0.41997834854398469 -0.41180534796019508 0 -0.41325908582185972 -0.39811010703057192 0 -0.39770572831670092 -0.39911486077581648 0 -0.41997834854398469 -0.41180534796019508 0 -0.39770572831670092 -0.39911486077581648 0 -0.42594061475171041 -0.39368797999533162 0 -0.42460885511582858 -0.40417321677700252 0 -0.41325908582185972 -0.39811010703057192 0 -0.41997834854398469 -0.41180534796019508 0 -0.42460885511582858 -0.40417321677700252 0 -0.41325908582185972 -0.39811010703057192 0 -0.42594061475171041 -0.39368797999533162 0 -0.41325908582185972 -0.39811010703057192 0 -0.416587075656149 -0.38785930376960043 0 -0.41325908582185972 -0.39811010703057192 0 -0.416587075656149 -0.38785930376960043 0 -0.40403491357358612 -0.38133688525744702 0 -0.42311368847744002 -0.37830224279505142 0 -0.40403491357358612 -0.38133688525744702 0 -0.40365717239196519 -0.36741535175059892 0 -0.42311368847744002 -0.37830224279505142 0 -0.416587075656149 -0.38785930376960043 0 -0.40403491357358612 -0.38133688525744702 0 -0.40403491357358612 -0.38133688525744702 0 -0.39190790742475001 -0.38540387676521748 0 -0.39770572831670092 -0.39911486077581648 0 -0.40403491357358612 -0.38133688525744702 0 -0.39190790742475001 -0.38540387676521748 0 -0.3904578797192948 -0.37473938743617019 0 -0.41325908582185972 -0.39811010703057192 0 -0.40403491357358612 -0.38133688525744702 0 -0.39770572831670092 -0.39911486077581648 0 -0.39770572831670092 -0.39911486077581648 0 -0.37543310808941849 -0.38642437359143528 0 -0.39770572831670092 -0.39911486077581648 0 -0.37515920440272033 -0.40534038799344108 0 -0.37543310808941849 -0.38642437359143528 0 -0.39770572831670092 -0.39911486077581648 0 -0.37515920440272033 -0.40534038799344108 0 -0.39756877647335259 -0.40857286797681719
[...]
<PointData Scalars="" Vectors="displacement," Tensors="">
<DataArray type="Float64" Name="displacement" NumberOfComponents="3" format="ascii">
-0.014998765857588955 -1.1473798457671097e-07 0 -0.014620511117560497 -7.6165543533038917e-05 0 -0.014998995641317526 -3.1772760467721969e-07 0 -0.014998765857588955 -1.1473798457671097e-07 0 -0.014343523552390361 -5.0480406470081725e-05 0 -0.014620511117560497 -7.6165543533038917e-05 0 -0.014998765857588955 -1.1473798457671097e-07 0 -0.014343523552390361 -5.0480406470081725e-05 0 -0.01345894738487269 -1.1125280581081047e-07 0 -0.014343523552390361 -5.0480406470081725e-05 0 -0.01345894738487269 -1.1125280581081047e-07 0 -0.014076171599882416 3.5265366597689097e-05 0 -0.01345894738487269 -1.1125280581081047e-07 0 -0.014076171599882416 3.5265366597689097e-05 0 -0.013375199234023909 -2.8889288364818048e-05 0 -0.014217613375016218 9.3891052050816497e-05 0 -0.014291686778744948 9.420784773820746e-05 0 -0.014076171599882416 3.5265366597689097e-05 0 -0.013816642739163167 0.00014947998122815474 0 -0.01379297991905945 4.807215636899485e-05 0 -0.014076171599882416 3.5265366597689097e-05 0 -0.01379297991905945 4.807215636899485e-05 0 -0.013816296340027144 4.635201641835861e-06 0 -0.014343523552390361 -5.0480406470081725e-05 0 -0.014076171599882416 3.5265366597689097e-05 0 -0.014620511117560497 -7.6165543533038917e-05 0 -0.014076171599882416 3.5265366597689097e-05 0 -0.014620511117560497 -7.6165543533038917e-05 0 -0.014761452311234715 0.00011618018992009204 0 -0.014620511117560497 -7.6165543533038917e-05 0 -0.01495059814131239 -1.2248297184796071e-05 0 -0.014761452311234715 0.00011618018992009204 0 -0.014620511117560497 -7.6165543533038917e-05 0 -0.014998995641317526 -3.1772760467721969e-07 0 -0.01495059814131239 -1.2248297184796071e-05 0 -0.014999999489542301 4.2804710284864371e-11 0 -0.014999366107073437 -1.8048054142336982e-07 0 -0.014999999224786951 -2.3152221002534392e-10 0 -0.01499953828727587 1.8169382791360134e-07 0 -0.014771614448063356 5.7987797039632142e-05 0 -0.014999999224786951 -2.3152221002534392e-10 0 -0.014999251609623666 -3.2907188661267564e-07 0 -0.014999682684479109 -5.3709616635498164e-07 0 -0.014999999224786951 -2.3152221002534392e-10 0 -0.014999998721973646 -8.1264837753490407e-10 0 -0.014999682684479109 -5.3709616635498164e-07 0 -0.014999366107073437 -1.8048054142336982e-07 0 -0.014999999224786951 -2.3152221002534392e-10 0 -0.014999251609623666 -3.2907188661267564e-07 0 -0.014999366107073437 -1.8048054142336982e-07 0 -0.014999251609623666 -3.2907188661267564e-07 0 -0.01499843520577141 -2.5849766383881571e-07 0 -0.014771614448063356 5.7987797039632142e-05 0 -0.014419732779660955 6.8869826947985749e-05 0 -0.014999251609623666 -3.2907188661267564e-07 0 -0.01499907322456942 -3.5498497872026639e-07 0 -0.01499843520577141 -2.5849766383881571e-07 0 -0.014999251609623666 -3.2907188661267564e-07 0 -0.01499907322456942 -3.5498497872026639e-07 0 -0.014999682684479109 -5.3709616635498164e-07 0 -0.014646042037045299 2.8708927126944915e-05 0 -0.014419732779660955 6.8869826947985749e-05 0 -0.014351023367681841 6.2664412639824431e-05 0 -0.014272503167970577 0.00015530926022336351 0 -0.014160778572332375 0.00010993713238691649 0 -0.014351023367681841 6.2664412639824431e-05 0 -0.014272503167970577 0.00015530926022336351 0 -0.014372494797018064 0.00017770349682274332 0 -0.014272503167970577 0.00015530926022336351 0 -0.014160778572332375 0.00010993713238691649 0 -0.014251871791214076 0.00026959234177653733 0 -0.013681666395010929 0.00017525407003257396 0 -0.013629962225977699 9.0082863528019946e-05 0 -0.01373169885397219 0.00010569495649247768 0 -0.014419732779660955 6.8869826947985749e-05 0 -0.014049109916271684 0.00016234753699758406 0 -0.013629962225977699 9.0082863528019946e-05 0 -0.01373169885397219 0.00010569495649247768 0 -0.013702816235196499 5.3387616626912802e-05 0 -0.014251871791214076 0.00026959234177653733 0 -0.014372494797018064 0.00017770349682274332 0 -0.014402802312393648 0.0002768973708251209 0 -0.014272503167970577 0.00015530926022336351 0 -0.014251871791214076 0.00026959234177653733 0 -0.014372494797018064 0.00017770349682274332 0 -0.013681666395010929 0.00017525407003257396 0 -0.013816642739163167 0.00014947998122815474 0 -0.01373169885397219 0.00010569495649247768 0 -0.014419732779660955 6.8869826947985749e-05 0 -0.014291686778744948 9.420784773820746e-05 0 -0.01495059814131239 -1.2248297184796071e-05 0 -0.015003129767022691 0.00010358549222539871 0 -0.014761452311234715 0.00011618018992009204 0 -0.01373169885397219 0.00010569495649247768 0 -0.01379297991905945 4.807215636899485e-05 0 -0.01375246434750097 5.7959365201553276e-05 0 -0.01373169885397219 0.00010569495649247768 0 -0.01375246434750097 5.7959365201553276e-05 0 -0.013702816235196499 5.3387616626912802e-05 0 -0.013816642739163167 0.00014947998122815474 0 -0.01373169885397219 0.00010569495649247768 0 -0.01379297991905945 4.807215636899485e-05 0 -0.01379297991905945 4.807215636899485e-05 0 -0.013792675934187627 2.8947406477391337e-05 0 -0.013816296340027144 4.635201641835861e-06 0 -0.013792675934187627 2.8947406477391337e-05 0 -0.013795212203308021 4.7876973603087948e-05 0 -0.013816296340027144 4.635201641835861e-06 0 -0.013792675934187627 2.8947406477391337e-05 0 -0.013781697659016455 3.1026982856691309e-05 0 -0.01378583435558552 3.6194709002667184e-05 0 -0.013792675934187627 2.8947406477391337e-05 0 -0.01377579464817893 3.7143213857114675e-05 0 -0.013781697659016455 3.1026982856691309e-05 0 -0.01379297991905945 4.807215636899485e-05 0 -0.013792675934187627 2.8947406477391337e-05 0 -0.01377579464817893 3.7143213857114675e-05 0 -0.01379297991905945 4.807215636899485e-05 0 -0.01375246434750097 5.7959365201553276e-05 0 -0.01377579464817893 3.7143213857114675e-05 0 -0.01375246434750097 5.7959365201553276e-05 0 -0.01377579464817893 3.7143213857114675e-05 0 -0.013755010619866951 3.160555715122253e-05 0 -0.01375246434750097 5.7959365201553276e-05 0 -0.013755010619866951 3.160555715122253e-05 0 -0.013702816235196499 5.3387616626912802e-05 0 -0.013755010619866951 3.160555715122253e-05 0 -0.013702816235196499 5.3387616626912802e-05 0 -0.013702456015963 4.1878036465742162e-06 0 -0.012383852612591322 0.00034998878306215518 0 -0.012338952949904402 0.00037438991096552327 0 -0.013755010619866951 3.160555715122253e-05 0 -0.013771611772234248 2.5778822561536523e-05 0 -0.013757979180213558 2.3236569601822239e-06 0 -0.013755010619866951 3.160555715122253e-05 0 -0.013743625787221068 -2.002770080175959e-05 0 -0.013702456015963 4.1878036465742162e-06 0 -0.012381746354404489 0.0003887091351784883 0 -0.012338952949904402 0.00037438991096552327 0 -0.013771611772234248 2.5778822561536523e-05 0 -0.01378583435558552 3.6194709002667184e-05 0 -0.013789349860054128 3.8207768616072205e-05 0 -0.01377579464817893 3.7143213857114675e-05 0 -0.013781697659016455 3.1026982856691309e-05 0 -0.013771611772234248 2.5778822561536523e-05 0 -0.01377579464817893 3.7143213857114675e-05 0 -0.013755010619866951 3.160555715122253e-05 0 -0.013771611772234248 2.5778822561536523e-05 0 -0.013781697659016455 3.1026982856691309e-05 0 -0.013771611772234248 2.5778822561536523e-05 0 -0.01378583435558552 3.6194709002667184e-05 0 -0.01378583435558552 3.6194709002667184e-05 0 -0.013789349860054128 3.8207768616072205e-05 0 -0.013789063426781243 5.0229896948433139e-05 0 -0.012338952949904402 0.00037438991096552327 0 -0.012008286539158277 0.00029422600894374437 0 -0.013789349860054128 3.8207768616072205e-05 0 -0.013789063426781243 5.0229896948433139e-05 0 -0.013794568967993668 6.380645890269539e-05 0 -0.013789063426781243 5.0229896948433139e-05 0 -0.013795212203308021 4.7876973603087948e-05 0 -0.013783422854983881 6.7718321042908096e-05 0 -0.013795212203308021 4.7876973603087948e-05 0 -0.013783422854983881 6.7718321042908096e-05 0 -0.013785886181287442 7.7212281403166711e-05 0 -0.01378583435558552 3.6194709002667184e-05 0 -0.013789063426781243 5.0229896948433139e-05 0 -0.013795212203308021 4.7876973603087948e-05 0 -0.013792675934187627 2.8947406477391337e-05 0 -0.01378583435558552 3.6194709002667184e-05 0 -0.013795212203308021 4.7876973603087948e-05 0 -0.013629962225977699 9.0082863528019946e-05 0 -0.013565357425924469 -3.3697095386389163e-06 0 -0.013647572207822258 1.0383779892994877e-05 0 -0.014251871791214076 0.00026959234177653733 0 -0.014341978325860491 0.0004232127350357887 0 -0.014402802312393648 0.0002768973708251209 0 -0.014049109916271684 0.00016234753699758406 0 -0.013761194320450669 0.00031346491398054501 0 -0.013565357425924469 -3.3697095386389163e-06 0 -0.013647572207822258 1.0383779892994877e-05 0 -0.013613941521592371 -3.7042679189732371e-05 0 -0.013629962225977699 9.0082863528019946e-05 0 -0.013647572207822258 1.0383779892994877e-05 0 -0.013702816235196499 5.3387616626912802e-05 0 -0.013647572207822258 1.0383779892994877e-05 0 -0.013702816235196499 5.3387616626912802e-05 0 -0.013702456015963 4.1878036465742162e-06 0 -0.013743625787221068 -2.002770080175959e-05 0 -0.013668634039418169 -5.4806204481182417e-05 0 -0.013672490361975615 -0.00013803454904770808 0 -0.012338952949904402 0.00037438991096552327 0 -0.012059257946613163 0.00041602682384452066 0 -0.013647572207822258 1.0383779892994877e-05 0 -0.013702456015963 4.1878036465742162e-06 0 -0.013668634039418169 -5.4806204481182417e-05 0 -0.013743625787221068 -2.002770080175959e-05 0 -0.013702456015963 4.1878036465742162e-06 0 -0.013668634039418169 -5.4806204481182417e-05 0 -0.013647572207822258 1.0383779892994877e-05 0 -0.013668634039418169 -5.4806204481182417e-05 0 -0.013613941521592371 -3.7042679189732371e-05 0 -0.013668634039418169 -5.4806204481182417e-05 0 -0.013613941521592371 -3.7042679189732371e-05 0 -0.013574464178012249 -0.00010100764679505002 0 -0.013565357425924469 -3.3697095386389163e-06 0 -0.013574464178012249 -0.00010100764679505002 0 -0.013504751277020404 -0.00010196690851269677 0 -0.013565357425924469 -3.3697095386389163e-06 0 -0.013613941521592371 -3.7042679189732371e-05 0 -0.013574464178012249 -0.00010100764679505002 0 -0.013574464178012249 -0.00010100764679505002 0 -0.013593478899383494 -0.00017235845585782258 0 -0.013672490361975615 -0.00013803454904770808 0 -0.013574464178012249 -0.00010100764679505002 0 -0.013593478899383494 -0.00017235845585782258 0 -0.013529080318043283 -0.00018119413355827054 0 -0.013668634039418169 -5.4806204481182417e-05 0 -0.013574464178012249 -0.00010100764679505002 0 -0.013672490361975615 -0.00013803454904770808 0 -0.012059257946613163 0.00041602682384452066 0 -0.011312218489933098 0.00047970290000141051 0 -0.011769068288459406 0.00036982335759323597 0 -0.011808276977077592 0.00022343468610366184 0 -0.011685325350742034 0.00022538575899680842 0 -0.011769068288459406 0.00036982335759323597 0 -0.011808276977077592 0.00022343468610366184 0 -0.01183063783917505 0.00036886238789595919 0 -0.011314420935777668 0.00018320321013846433 0 -0.011312218489933098 0.00047970290000141051 0 -0.013596821736896208 -0.00027035828197764615 0 -0.013529080318043283 -0.00018119413355827054 0 -0.013492411017779557 -0.00027077558989468243 0 -0.013593478899383494 -0.00017235845585782258 0 -0.013596821736896208 -0.00027035828197764615 0 -0.013529080318043283 -0.00018119413355827054 0 -0.011312218489933098 0.00047970290000141051 0 -0.011981881011595653 0.0004420267467009168 0 -0.013593478899383494 -0.00017235845585782258 0 -0.013672490361975615 -0.00013803454904770808 0 -0.013596821736896208 -0.00027035828197764615 0 -0.011853585840122515 0.00051404254912735289 0 -0.011769068288459406 0.00036982335759323597 0 -0.01183063783917505 0.00036886238789595919 0 -0.013789063426781243 5.0229896948433139e-05 0 -0.013783422854983881 6.7718321042908096e-05 0 -0.013794568967993668 6.380645890269539e-05 0 -0.013790486337741509 7.7822925542185252e-05 0 -0.013783422854983881 6.7718321042908096e-05 0 -0.013794568967993668 6.380645890269539e-05 0 -0.011314420935777668 0.00018320321013846433 0 -0.012008286539158277 0.00029422600894374437 0 -0.013790486337741509 7.7822925542185252e-05 0 -0.013783422854983881 6.7718321042908096e-05 0 -0.013777916098445321 7.8789102439272662e-05 0 -0.013783422854983881 6.7718321042908096e-05 0 -0.013777858061556663 7.2981778266582092e-05 0 -0.013777916098445321 7.8789102439272662e-05 0 -0.013777858061556663 7.2981778266582092e-05 0 -0.01376483217335641 8.1286415757344195e-05 0 -0.013777916098445321 7.8789102439272662e-05 0 -0.013783422854983881 6.7718321042908096e-05 0 -0.013777858061556663 7.2981778266582092e-05 0 -0.013785886181287442 7.7212281403166711e-05 0 -0.013777858061556663 7.2981778266582092e-05 0 -0.013775780403305501 7.2977012945012971e-05 0 -0.013785886181287442 7.7212281403166711e-05 0 -0.013578992799892796 0.00026587536579973019 0 -0.012729742654977776 0.00031481986738028515 0 -0.013314274380379293 9.1426124153292927e-05 0 -0.010186133009512205 0.0007101909158109545 0 -0.010276813969759557 0.00036544724059379768 0 -0.010681870559023409 0.00044956663443876691 0 -0.012130565910377533 -0.00024089934312849099 0 -0.011743895903396378 -1.8643767649578521e-05 0 -0.012130565910377533 -0.00024089934312849099 0 -0.012134566109410777 -0.00023942991933864713 0 -0.012130565910377533 -0.00024089934312849099 0 -0.011803070533018387 7.5482159745770126e-05 0 -0.013777858061556663 7.2981778266582092e-05 0 -0.013775780403305501 7.2977012945012971e-05 0 -0.0137697800545711 7.511910128741896e-05 0 -0.013777858061556663 7.2981778266582092e-05 0 -0.0137697800545711 7.511910128741896e-05 0 -0.01376483217335641 8.1286415757344195e-05 0 -0.011803070533018387 7.5482159745770126e-05 0 -0.011446942014173258 0.00031064104423636995 0 -0.010276813969759557 0.00036544724059379768 0 -0.010511354996374978 0.00023864274826517851 0 -0.010368562903184917 1.1845271008717726e-05 0 -0.010511354996374978 0.00023864274826517851 0 -0.010681870559023409 0.00044956663443876691 0 -0.010645695035825997 3.282640192340588e-06 0 -0.010681870559023409 0.00044956663443876691 0 -0.010941891854811292 -5.4324837784090363e-05 0 -0.010645695035825997 3.282640192340588e-06 0 -0.010511354996374978 0.00023864274826517851 0 -0.010645695035825997 3.282640192340588e-06 0 -0.010368562903184917 1.1845271008717726e-05 0 -0.010276813969759557 0.00036544724059379768 0 -0.010511354996374978 0.00023864274826517851 0 -0.010681870559023409 0.00044956663443876691 0 -0.011428955405672235 8.2083578336797651e-08 0 -0.011743895903396378 -1.8643767649578521e-05 0 -0.01142714863177529 7.6813980461154188e-07 0 -0.010681870559023409 0.00044956663443876691 0 -0.010941891854811292 -5.4324837784090363e-05 0 -0.011429887259446495 1.2123789777544229e-06 0 -0.012729742654977776 0.00031481986738028515 0 -0.012299459138402104 -2.1680050181358907e-07 0 -0.012729742654977776 0.00031481986738028515 0 -0.013314274380379293 9.1426124153292927e-05 0 -0.012299459138402104 -2.1680050181358907e-07 0 -0.013314274380379293 9.1426124153292927e-05 0 -0.012299459138402104 -2.1680050181358907e-07 0 -0.013375199234023909 -2.8889288364818048e-05 0 -0.01345894738487269 -1.1125280581081047e-07 0 -0.012299459138402104 -2.1680050181358907e-07 0 -0.013375199234023909 -2.8889288364818048e-05 0 -0.013314274380379293 9.1426124153292927e-05 0 -0.013375199234023909 -2.8889288364818048e-05 0 -0.013686514429543694 1.0814397630271857e-05 0 -0.014076171599882416 3.5265366597689097e-05 0 -0.013375199234023909 -2.8889288364818048e-05 0 -0.013686514429543694 1.0814397630271857e-05 0 -0.014076171599882416 3.5265366597689097e-05 0 -0.013686514429543694 1.0814397630271857e-05 0 -0.013816296340027144 4.635201641835861e-06 0 -0.013686514429543694 1.0814397630271857e-05 0 -0.013816296340027144 4.635201641835861e-06 0 -0.013689270653811002 6.0780689967889962e-05 0 -0.013816296340027144 4.635201641835861e-06 0 -0.013785886181287442 7.7212281403166711e-05 0 -0.013689270653811002 6.0780689967889962e-05 0 -0.013795212203308021 4.7876973603087948e-05 0 -0.013816296340027144 4.635201641835861e-06 0 -0.013785886181287442 7.7212281403166711e-05 0 -0.013596430758765717 0.00025312140716780504 0 -0.013785886181287442 7.7212281403166711e-05 0 -0.013604850686581994 0.00020924542470846541 0 -0.013785886181287442 7.7212281403166711e-05 0 -0.013604850686581994 0.00020924542470846541 0 -0.013689270653811002 6.0780689967889962e-05 0 -0.012130565910377533 -0.00024089934312849099 0 -0.012530852640499657 -0.00033945792188073975 0 -0.013314274380379293 9.1426124153292927e-05 0 -0.013604850686581994 0.00020924542470846541 0 -0.013689270653811002 6.0780689967889962e-05 0 -0.013578992799892796 0.00026587536579973019 0 -0.013314274380379293 9.1426124153292927e-05 0 -0.013604850686581994 0.00020924542470846541 0 -0.013314274380379293 9.1426124153292927e-05 0 -0.013686514429543694 1.0814397630271857e-05 0 -0.013689270653811002 6.0780689967889962e-05 0 -0.013836847883124882 0.00015962956118514241 0 -0.013194555151744666 0.00056308864505841196 0 -0.014903673602944324 -0.00014504705610493744 0 -0.014924293831958884 -0.00062985726889933633 0 -0.014665360267681326 -0.00023797341093236644 0 -0.014972073278285496 4.4510357248078734e-05 0 -0.014981118010053054 3.4166344408551291e-05 0 -0.014983275412450925 5.7874523206434139e-05 0 -0.014972073278285496 4.4510357248078734e-05 0 -0.014969488030420535 6.4422778987459228e-05 0 -0.014983275412450925 5.7874523206434139e-05 0 -0.014972073278285496 4.4510357248078734e-05 0 -0.014959110333668679 6.3143302510139078e-05 0 -0.014969488030420535 6.4422778987459228e-05 0 -0.014972073278285496 4.4510357248078734e-05 0 -0.014973863820162948 2.4583641396752521e-05 0 -0.014976169259626205 2.2877488696741075e-05 0 -0.014972073278285496 4.4510357248078734e-05 0 -0.014973863820162948 2.4583641396752521e-05 0 -0.014981118010053054 3.4166344408551291e-05 0 -0.013836847883124882 0.00015962956118514241 0 -0.014030098003454342 0.00011571003596800836 0 -0.014973863820162948 2.4583641396752521e-05 0 -0.014981118010053054 3.4166344408551291e-05 0 -0.014953770093692514 2.4136314974483037e-05 0 -0.014903673602944324 -0.00014504705610493744 0 -0.014953770093692514 2.4136314974483037e-05 0 -0.014694729326416753 2.0876187874846341e-05 0 -0.014953770093692514 2.4136314974483037e-05 0 -0.01499995676834567 4.8732491540384465e-08 0 -0.014982285999225216 1.5269396141078164e-05 0 -0.014953770093692514 2.4136314974483037e-05 0 -0.01499995676834567 4.8732491540384465e-08 0 -0.014882140516362047 2.9317077588402819e-05 0 -0.01499995676834567 4.8732491540384465e-08 0 -0.014982285999225216 1.5269396141078164e-05 0 -0.014999970498168043 -1.6487883991515215e-09 0 -0.014973863820162948 2.4583641396752521e-05 0 -0.014953770093692514 2.4136314974483037e-05 0 -0.014982285999225216 1.5269396141078164e-05 0 -0.014973863820162948 2.4583641396752521e-05 0 -0.014982285999225216 1.5269396141078164e-05 0 -0.014976169259626205 2.2877488696741075e-05 0 -0.014976169259626205 2.2877488696741075e-05 0 -0.014984567634474311 4.4251287129211748e-06 0 -0.014970390400877588 1.7240952087661237e-05 0 -0.014982285999225216 1.5269396141078164e-05 0 -0.014976169259626205 2.2877488696741075e-05 0 -0.014984567634474311 4.4251287129211748e-06 0 -0.014999970498168043 -1.6487883991515215e-09 0 -0.014984567634474311 4.4251287129211748e-06 0 -0.014999968759185189 4.1296575381265093e-09 0 -0.014982285999225216 1.5269396141078164e-05 0 -0.014999970498168043 -1.6487883991515215e-09 0 -0.014984567634474311 4.4251287129211748e-06 0 -0.014984567634474311 4.4251287129211748e-06 0 -0.014999968759185189 4.1296575381265093e-09 0 -0.014977474039147122 -4.0049661779304083e-06 0 -0.014977474039147122 -4.0049661779304083e-06 0 -0.014970390400877588 1.7240952087661237e-05 0 -0.014934131565841573 1.4456622286092886e-05 0 -0.014984567634474311 4.4251287129211748e-06 0 -0.014977474039147122 -4.0049661779304083e-06 0 -0.014970390400877588 1.7240952087661237e-05 0 -0.014970390400877588 1.7240952087661237e-05 0 -0.01494479225182997 3.9744291942487496e-05 0 -0.014934131565841573 1.4456622286092886e-05 0 -0.01494479225182997 3.9744291942487496e-05 0 -0.014942681322253237 6