<?xml version="1.0"?>
<VTKFile type="UnstructuredGrid" version="0.1" byte_order="LittleEndian">
<UnstructuredGrid>
<Piece NumberOfPoints="31624" NumberOfCells="11135">
<Points>
<DataArray type="Float64" NumberOfComponents="3" format="ascii">
-0.5 -0.5 0 -0.46834794209927227 -0.49999999999999589 0 -0.46124839104438359 -0.47184821050858811 0 -0.5 -0.5 0 -0.46124839104438359 -0.47184821050858811 0 -0.47839538733203513 -0.45255283270950541 0 -0.5 -0.5 0 -0.47839538733203513 -0.45255283270950541 0 -0.5 -0.41634212646358221 0 -0.46834794209927227 -0.49999999999999589 0 -0.46124839104438359 -0.47184821050858811 0 -0.44466742395999448 -0.48198680820889928 0 -0.46834794209927227 -0.49999999999999589 0 -0.46124839104438359 -0.47184821050858811 0 -0.46124839104438359 -0.47184821050858811 0 -0.44628875665670842 -0.47038924120915709 0 -0.44466742395999448 -0.48198680820889928 0 -0.44628875665670842 -0.47038924120915709 0 -0.43892127773234768 -0.47158291606607761 0 -0.44466742395999448 -0.48198680820889928 0 -0.43892127773234768 -0.47158291606607761 0 -0.44466742395999448 -0.48198680820889928 0 -0.43342607321533239 -0.47830139088408252 0 -0.46834794209927227 -0.49999999999999589 0 -0.44466742395999448 -0.48198680820889928 0 -0.44557145593351588 -0.5 0 -0.44466742395999448 -0.48198680820889928 0 -0.44557145593351588 -0.5 0 -0.43312653844205001 -0.48877620252737142 0 -0.45414883998949879 -0.44369642101717899 0 -0.44207952812631218 -0.432473967552786 0 -0.43250920223850797 -0.44459246166653249 0 -0.44261594655068542 -0.45676344110113321 0 -0.45414883998949879 -0.44369642101717899 0 -0.43250920223850797 -0.44459246166653249 0 -0.44261594655068542 -0.45676344110113321 0 -0.45414883998949879 -0.44369642101717899 0 -0.46124839104438359 -0.47184821050858811 0 -0.44628875665670842 -0.47038924120915709 0 -0.44261594655068542 -0.45676344110113321 0 -0.46124839104438359 -0.47184821050858811 0 -0.44261594655068542 -0.45676344110113321 0 -0.45414883998949879 -0.44369642101717899 0 -0.43892127773234768 -0.47158291606607761 0 -0.44261594655068542 -0.45676344110113321 0 -0.43108305311186512 -0.46983046118508132 0 -0.44628875665670842 -0.47038924120915709 0 -0.43892127773234768 -0.47158291606607761 0 -0.44261594655068542 -0.45676344110113321 0 -0.46124839104438359 -0.47184821050858811 0 -0.45414883998949879 -0.44369642101717899 0 -0.46124839104438359 -0.47184821050858811 0 -0.45414883998949879 -0.44369642101717899 0 -0.47839538733203513 -0.45255283270950541 0 -0.45414883998949879 -0.44369642101717899 0 -0.47839538733203513 -0.45255283270950541 0 -0.46659513334101282 -0.42959449888831008 0 -0.47839538733203513 -0.45255283270950541 0 -0.47904142669251998 -0.41549257675943518 0 -0.46659513334101282 -0.42959449888831008 0 -0.47839538733203513 -0.45255283270950541 0 -0.5 -0.41634212646358221 0 -0.47904142669251998 -0.41549257675943518 0 -0.47904142669251998 -0.41549257675943518 0 -0.46659513334101282 -0.42959449888831008 0 -0.4639294593242288 -0.41565431460942798 0 -0.47904142669251998 -0.41549257675943518 0 -0.46659513334101282 -0.42959449888831008 0 -0.5 -0.41634212646358221 0 -0.47584609506668107 -0.38593418207312258 0 -0.5 -0.35529098361714978 0 -0.5 -0.41634212646358221 0 -0.47904142669251998 -0.41549257675943518 0 -0.47584609506668107 -0.38593418207312258 0 -0.47904142669251998 -0.41549257675943518 0 -0.47584609506668107 -0.38593418207312258 0 -0.46149109699047758 -0.40017815141067298 0 -0.47584609506668107 -0.38593418207312258 0 -0.46149109699047758 -0.40017815141067298 0 -0.45074151240797522 -0.3756336192004277 0 -0.46149109699047758 -0.40017815141067298 0 -0.44123240233692018 -0.39247898051103708 0 -0.44769062116320701 -0.41808770076410873 0 -0.44123240233692018 -0.39247898051103708 0 -0.44769062116320701 -0.41808770076410873 0 -0.44123240233692018 -0.39247898051103708 0 -0.44769062116320701 -0.41808770076410873 0 -0.43964347597476211 -0.40650582484303971 0 -0.44123240233692018 -0.39247898051103708 0 -0.43964347597476211 -0.40650582484303971 0 -0.43536150049179362 -0.39411646262943512 0 -0.46149109699047758 -0.40017815141067298 0 -0.44123240233692018 -0.39247898051103708 0 -0.45074151240797522 -0.3756336192004277 0 -0.44123240233692018 -0.39247898051103708 0 -0.43477418351063268 -0.3668702602579656 0 -0.44123240233692018 -0.39247898051103708 0 -0.45074151240797522 -0.3756336192004277 0 -0.43477418351063268 -0.3668702602579656 0 -0.45414883998949879 -0.44369642101717899 0 -0.46659513334101282 -0.42959449888831008 0 -0.44769062116320701 -0.41808770076410873 0 -0.45414883998949879 -0.44369642101717899 0 -0.46659513334101282 -0.42959449888831008 0 -0.47904142669251998 -0.41549257675943518 0 -0.46149109699047758 -0.40017815141067298 0 -0.4639294593242288 -0.41565431460942798 0 -0.46149109699047758 -0.40017815141067298 0 -0.4639294593242288 -0.41565431460942798 0 -0.44769062116320701 -0.41808770076410873 0 -0.46659513334101282 -0.42959449888831008 0 -0.4639294593242288 -0.41565431460942798 0 -0.44769062116320701 -0.41808770076410873 0 -0.44769062116320701 -0.41808770076410873 0 -0.43964347597476211 -0.40650582484303971 0 -0.43393535136515082 -0.41935446214798378 0 -0.45414883998949879 -0.44369642101717899 0 -0.44769062116320701 -0.41808770076410873 0 -0.45414883998949879 -0.44369642101717899 0 -0.44769062116320701 -0.41808770076410873 0 -0.44207952812631218 -0.432473967552786 0 -0.44769062116320701 -0.41808770076410873 0 -0.44207952812631218 -0.432473967552786 0 -0.43393535136515082 -0.41935446214798378 0 -0.44207952812631218 -0.432473967552786 0 -0.43393535136515082 -0.41935446214798378 0 -0.43250920223850797 -0.44459246166653249 0 -0.42412664681236972 -0.43106778611608709 0 -0.43393535136515082 -0.41935446214798378 0 -0.43250920223850797 -0.44459246166653249 0 -0.43393535136515082 -0.41935446214798378 0 -0.43250920223850797 -0.44459246166653249 0 -0.42412664681236972 -0.43106778611608709 0 -0.43393535136515082 -0.41935446214798378 0 -0.42008671343925569 -0.41855599904193003 0 -0.43393535136515082 -0.41935446214798378 0 -0.43536150049179362 -0.39411646262943512 0 -0.43964347597476211 -0.40650582484303971 0 -0.43393535136515082 -0.41935446214798378 0 -0.43536150049179362 -0.39411646262943512 0 -0.43393535136515082 -0.41935446214798378 0 -0.43536150049179362 -0.39411646262943512 0 -0.42626955791746191 -0.40565109843997899 0 -0.43393535136515082 -0.41935446214798378 0 -0.42508002019755892 -0.41325296613256979 0 -0.42626955791746191 -0.40565109843997899 0 -0.42508002019755892 -0.41325296613256979 0 -0.42002845806836719 -0.40945030490038659 0 -0.42626955791746191 -0.40565109843997899 0 -0.43393535136515082 -0.41935446214798378 0 -0.42508002019755892 -0.41325296613256979 0 -0.42008671343925569 -0.41855599904193003 0 -0.41147163652562352 -0.40866186470119309 0 -0.40779623314709063 -0.42137645569011012 0 -0.40908829863366558 -0.4052806678827936 0 -0.42508002019755892 -0.41325296613256979 0 -0.42008671343925569 -0.41855599904193003 0 -0.42002845806836719 -0.40945030490038659 0 -0.42002845806836719 -0.40945030490038659 0 -0.41147163652562352 -0.40866186470119309 0 -0.41902932537311932 -0.40193604567557389 0 -0.42008671343925569 -0.41855599904193003 0 -0.42002845806836719 -0.40945030490038659 0 -0.41147163652562352 -0.40866186470119309 0 -0.41147163652562352 -0.40866186470119309 0 -0.40908829863366558 -0.4052806678827936 0 -0.42008671343925569 -0.41855599904193003 0 -0.41147163652562352 -0.40866186470119309 0 -0.40779623314709063 -0.42137645569011012 0 -0.40779623314709063 -0.42137645569011012 0 -0.41297188089832498 -0.43545492467774649 0 -0.41624536857426031 -0.42661379138146838 0 -0.42412664681236972 -0.43106778611608709 0 -0.41297188089832498 -0.43545492467774649 0 -0.41624536857426031 -0.42661379138146838 0 -0.42412664681236972 -0.43106778611608709 0 -0.41297188089832498 -0.43545492467774649 0 -0.42220851422656008 -0.4423996471945334 0 -0.42008671343925569 -0.41855599904193003 0 -0.40779623314709063 -0.42137645569011012 0 -0.41624536857426031 -0.42661379138146838 0 -0.42412664681236972 -0.43106778611608709 0 -0.42008671343925569 -0.41855599904193003 0 -0.41624536857426031 -0.42661379138146838 0 -0.42193124107214958 -0.38607546407037979 0 -0.43477418351063268 -0.3668702602579656 0 -0.42193124107214958 -0.38607546407037979 0 -0.43536150049179362 -0.39411646262943512 0 -0.43477418351063268 -0.3668702602579656 0 -0.44123240233692018 -0.39247898051103708 0 -0.43536150049179362 -0.39411646262943512 0 -0.43477418351063268 -0.3668702602579656 0 -0.42193124107214958 -0.38607546407037979 0 -0.42620712211460382 -0.3967458478015739 0 -0.41902932537311932 -0.40193604567557389 0 -0.42193124107214958 -0.38607546407037979 0 -0.42620712211460382 -0.3967458478015739 0 -0.43536150049179362 -0.39411646262943512 0 -0.42620712211460382 -0.3967458478015739 0 -0.43536150049179362 -0.39411646262943512 0 -0.42626955791746191 -0.40565109843997899 0 -0.42620712211460382 -0.3967458478015739 0 -0.42626955791746191 -0.40565109843997899 0 -0.41902932537311932 -0.40193604567557389 0 -0.42193124107214958 -0.38607546407037979 0 -0.40908829863366558 -0.4052806678827936 0 -0.42193124107214958 -0.38607546407037979 0 -0.41902932537311932 -0.40193604567557389 0 -0.40908829863366558 -0.4052806678827936 0 -0.42193124107214958 -0.38607546407037979 0 -0.40908829863366558 -0.4052806678827936 0 -0.39718637242806842 -0.38839562814295331 0 -0.42002845806836719 -0.40945030490038659 0 -0.42626955791746191 -0.40565109843997899 0 -0.41902932537311932 -0.40193604567557389 0 -0.41147163652562352 -0.40866186470119309 0 -0.41902932537311932 -0.40193604567557389 0 -0.40908829863366558 -0.4052806678827936 0 -0.42193124107214958 -0.38607546407037979 0 -0.39718637242806842 -0.38839562814295331 0 -0.40906888710737838 -0.3705341383817366 0 -0.39718637242806842 -0.38839562814295331 0 -0.38528444622247171 -0.37151058840311257 0 -0.39718637242806842 -0.38839562814295331 0 -0.39691291535847278 -0.37525147130316039 0 -0.38528444622247171 -0.37151058840311257 0 -0.39718637242806842 -0.38839562814295331 0 -0.3969129
[...]
<PointData Scalars="" Vectors="displacement," Tensors="">
<DataArray type="Float64" Name="displacement" NumberOfComponents="3" format="ascii">
6.5947909562151167e-07 0.054999164580914188 0 -2.0993111122496105e-07 0.054993589289575338 0 0.00011953980972552652 0.051723671054399241 0 6.5947909562151167e-07 0.054999164580914188 0 0.00011953980972552652 0.051723671054399241 0 0.00010406350966025676 0.049971451514860973 0 6.5947909562151167e-07 0.054999164580914188 0 0.00010406350966025676 0.049971451514860973 0 -1.7930735863658902e-06 0.04579790197652793 0 6.8721450107261504e-09 0.0549999986467734 0 3.2526345166912664e-05 0.054963427223033302 0 1.9656913855638931e-05 0.054974311476549589 0 4.037633413815479e-07 0.054999062556717764 0 0.0003115976072864769 0.053713020329301767 0 3.2526345166912664e-05 0.054963427223033302 0 3.3101246193939808e-05 0.054959572159939608 0 1.9656913855638931e-05 0.054974311476549589 0 3.3101246193939808e-05 0.054959572159939608 0 3.6755628337656173e-05 0.054957986637432635 0 1.9656913855638931e-05 0.054974311476549589 0 3.6755628337656173e-05 0.054957986637432635 0 1.9656913855638931e-05 0.054974311476549589 0 2.8469882589064361e-05 0.05495855745408789 0 6.8721450107261504e-09 0.0549999986467734 0 1.9656913855638931e-05 0.054974311476549589 0 1.3516793717931484e-08 0.054999978989228662 0 1.9656913855638931e-05 0.054974311476549589 0 1.3516793717931484e-08 0.054999978989228662 0 4.6435569833860592e-06 0.054972789914518969 0 0.00015752692471908305 0.05280577465877874 0 -0.00022575172105989362 0.053233310626091518 0 0.00019033309447366283 0.053565125619367639 0 0.00060541530659855112 0.05321870683031879 0 0.00015752692471908305 0.05280577465877874 0 0.00019033309447366283 0.053565125619367639 0 0.00074867990937013825 0.054463995211603881 0 -0.00066129341786688636 0.049843921875996434 0 3.2526345166912664e-05 0.054963427223033302 0 3.3101246193939808e-05 0.054959572159939608 0 3.1969572863599519e-05 0.054943298980850229 0 3.2526345166912664e-05 0.054963427223033302 0 3.1969572863599519e-05 0.054943298980850229 0 2.1002134397924294e-05 0.054905079521894322 0 3.6755628337656173e-05 0.054957986637432635 0 3.1969572863599519e-05 0.054943298980850229 0 4.5825628592937768e-05 0.054952604318610869 0 3.3101246193939808e-05 0.054959572159939608 0 3.6755628337656173e-05 0.054957986637432635 0 3.1969572863599519e-05 0.054943298980850229 0 0.0003115976072864769 0.053713020329301767 0 -0.00066129341786688636 0.049843921875996434 0 0.00011953980972552652 0.051723671054399241 0 -6.5068843495129871e-05 0.049965289360044254 0 0.00010406350966025676 0.049971451514860973 0 -6.5068843495129871e-05 0.049965289360044254 0 0.00010406350966025676 0.049971451514860973 0 -0.00028840455379802445 0.048595630981221202 0 0.00010406350966025676 0.049971451514860973 0 -0.00043388444846730035 0.045465193496798173 0 -0.00028840455379802445 0.048595630981221202 0 0.00010406350966025676 0.049971451514860973 0 -1.7930735863658902e-06 0.04579790197652793 0 -0.00043388444846730035 0.045465193496798173 0 -0.00043388444846730035 0.045465193496798173 0 -0.0025063453493432129 0.043472236582143303 0 -0.00094247485492904065 0.04308473439263457 0 -0.00036974146129703148 0.04595516835287803 0 -0.0016999374807739394 0.045564192534947132 0 -1.7930735863658902e-06 0.04579790197652793 0 0.00038275427143641627 0.042227080613314746 0 3.7612634072538234e-06 0.039081318077558165 0 -1.7930735863658902e-06 0.04579790197652793 0 -0.00043388444846730035 0.045465193496798173 0 0.00038275427143641627 0.042227080613314746 0 -0.00043388444846730035 0.045465193496798173 0 0.00038275427143641627 0.042227080613314746 0 8.9149830934762034e-05 0.042325386589194387 0 0.00038275427143641627 0.042227080613314746 0 8.9149830934762034e-05 0.042325386589194387 0 0.0005894254030777439 0.040910805850052065 0 8.9149830934762034e-05 0.042325386589194387 0 0.00028625248196954383 0.040983392265935933 0 -0.0011920825483578887 0.041546513267125641 0 -0.00069072162418465323 0.047211730787904672 0 -0.0011644818780200746 0.047023482400568424 0 -0.001691548883177726 0.053344181115318579 0 -0.00072430012492099313 0.053028442014124162 0 -0.0011597465990419199 0.053373681469305816 0 -0.001691548883177726 0.053344181115318579 0 -0.0011597465990419199 0.053373681469305816 0 -0.0016298033428585807 0.053603861312590061 0 8.9149830934762034e-05 0.042325386589194387 0 0.00028625248196954383 0.040983392265935933 0 0.0005894254030777439 0.040910805850052065 0 -0.00069072162418465323 0.047211730787904672 0 -0.00093887831335611122 0.046714071946306508 0 0.00028625248196954383 0.040983392265935933 0 0.0005894254030777439 0.040910805850052065 0 0.00064059258891047274 0.040472414671857658 0 -0.003894453470036344 0.04226469327918253 0 -0.0025063453493432129 0.043472236582143303 0 -0.0011920825483578887 0.041546513267125641 0 -0.00066129341786688636 0.049843921875996434 0 -0.0016999374807739394 0.045564192534947132 0 -0.00043388444846730035 0.045465193496798173 0 8.9149830934762034e-05 0.042325386589194387 0 -0.00094247485492904065 0.04308473439263457 0 8.9149830934762034e-05 0.042325386589194387 0 -0.00094247485492904065 0.04308473439263457 0 -0.0011920825483578887 0.041546513267125641 0 -0.0025063453493432129 0.043472236582143303 0 -0.00094247485492904065 0.04308473439263457 0 -0.0011920825483578887 0.041546513267125641 0 -0.00072430012492099313 0.053028442014124162 0 -0.0011597465990419199 0.053373681469305816 0 -0.00067941617405175799 0.053539217784452031 0 -0.00066129341786688636 0.049843921875996434 0 -0.0011644818780200746 0.047023482400568424 0 0.00015752692471908305 0.05280577465877874 0 -0.00072430012492099313 0.053028442014124162 0 -0.00022575172105989362 0.053233310626091518 0 -0.00072430012492099313 0.053028442014124162 0 -0.00022575172105989362 0.053233310626091518 0 -0.00067941617405175799 0.053539217784452031 0 -0.00022575172105989362 0.053233310626091518 0 -0.00067941617405175799 0.053539217784452031 0 0.00019033309447366283 0.053565125619367639 0 -0.00063755338463791008 0.054323292302844953 0 -0.00086280728876014399 0.05398789608783789 0 -0.00039942058342366154 0.054293611163851445 0 -0.00081587920860933937 0.053762723282702776 0 -7.6565395298340674e-05 0.053909408021322595 0 -0.00063755338463791008 0.054323292302844953 0 -0.00086280728876014399 0.05398789608783789 0 -0.0009022947627026275 0.054331182345920943 0 -0.00081587920860933937 0.053762723282702776 0 -0.0015964640342530953 0.053626516634464667 0 -0.0011597465990419199 0.053373681469305816 0 -0.00067941617405175799 0.053539217784452031 0 -0.0016298033428585807 0.053603861312590061 0 -0.00086280728876014399 0.05398789608783789 0 -0.0016298033428585807 0.053603861312590061 0 -0.0012624090317547127 0.054059469680914532 0 -0.00086280728876014399 0.05398789608783789 0 -0.0010392215185298964 0.054164529608071048 0 -0.0012624090317547127 0.054059469680914532 0 -0.0010392215185298964 0.054164529608071048 0 -0.001142765969322501 0.054281852445829275 0 -0.0012624090317547127 0.054059469680914532 0 -0.00086280728876014399 0.05398789608783789 0 -0.0010392215185298964 0.054164529608071048 0 -0.0009022947627026275 0.054331182345920943 0 -0.0011496636201128862 0.054527275919226577 0 -0.00083736388475328901 0.054632484501387552 0 -0.0012281417534813176 0.054581728778288846 0 -0.0010392215185298964 0.054164529608071048 0 -0.0009022947627026275 0.054331182345920943 0 -0.001142765969322501 0.054281852445829275 0 -0.001142765969322501 0.054281852445829275 0 -0.0011496636201128862 0.054527275919226577 0 -0.001379126426050474 0.054269320096104863 0 -0.0009022947627026275 0.054331182345920943 0 -0.001142765969322501 0.054281852445829275 0 -0.0011496636201128862 0.054527275919226577 0 -0.001736990849925793 0.051204060079161243 0 -0.00098783476282129738 0.049997748597258078 0 -0.0009022947627026275 0.054331182345920943 0 -0.0011496636201128862 0.054527275919226577 0 -0.00083736388475328901 0.054632484501387552 0 -0.00083736388475328901 0.054632484501387552 0 -0.00055411395992603174 0.054575642497486705 0 -0.00073025390777307485 0.054464805910490965 0 -0.00063755338463791008 0.054323292302844953 0 -0.00055411395992603174 0.054575642497486705 0 -0.00073025390777307485 0.054464805910490965 0 -0.00063755338463791008 0.054323292302844953 0 -0.00055411395992603174 0.054575642497486705 0 -0.00044034288074062001 0.054448128632811614 0 -0.0009022947627026275 0.054331182345920943 0 -0.00083736388475328901 0.054632484501387552 0 -0.00073025390777307485 0.054464805910490965 0 -0.00063755338463791008 0.054323292302844953 0 -0.0009022947627026275 0.054331182345920943 0 -0.00073025390777307485 0.054464805910490965 0 -0.0018216350228720559 0.048752619649102415 0 -0.00093887831335611122 0.046714071946306508 0 -0.0019514683855639404 0.054123952809458996 0 -0.0016298033428585807 0.053603861312590061 0 -0.0027100895986781541 0.053526281419098355 0 -0.001691548883177726 0.053344181115318579 0 -0.0016298033428585807 0.053603861312590061 0 -0.0027100895986781541 0.053526281419098355 0 -0.0019514683855639404 0.054123952809458996 0 -0.0015540582418622809 0.05399316774173301 0 -0.001379126426050474 0.054269320096104863 0 -0.0019514683855639404 0.054123952809458996 0 -0.0015540582418622809 0.05399316774173301 0 -0.0016298033428585807 0.053603861312590061 0 -0.0015540582418622809 0.05399316774173301 0 -0.0016298033428585807 0.053603861312590061 0 -0.0012624090317547127 0.054059469680914532 0 -0.0015540582418622809 0.05399316774173301 0 -0.0012624090317547127 0.054059469680914532 0 -0.001379126426050474 0.054269320096104863 0 -0.0018216350228720559 0.048752619649102415 0 -0.00098783476282129738 0.049997748597258078 0 -0.0019514683855639404 0.054123952809458996 0 -0.001379126426050474 0.054269320096104863 0 -0.0012619391878797763 0.054607852113703746 0 -0.0013189611164420218 0.043353474216438044 0 -0.0015438305007229865 0.043244916348047245 0 -0.0013303797296099647 0.043043364286366077 0 -0.001142765969322501 0.054281852445829275 0 -0.0012624090317547127 0.054059469680914532 0 -0.001379126426050474 0.054269320096104863 0 -0.0011496636201128862 0.054527275919226577 0 -0.001379126426050474 0.054269320096104863 0 -0.0012619391878797763 0.054607852113703746 0 -0.0013189611164420218 0.043353474216438044 0 -0.0013303797296099647 0.043043364286366077 0 -0.0011476430559095676 0.04314670352910363 0 -0.0011689116754625649 0.047417903830892845 0 -0.0017202333335462885 0.048072329062778953 0 -0.0013303797296099647 0.043043364286366077 0 -0.0011824536277530305 0.04300975015784856 0 -0.0010975491708736637 0.042992778959912194 0 -0.0013303797296099647 0.043043364286366077 0 -0.0011824536277530305 0.04300975015784856 0 -0.0011476430559095676 0.04314670352910363 0 -0.00098783476282129738 0.049997748597258078 0 -0.0011689116754625649 0.047417903830892845 0 -0.00065611404627457842 0.051815916220984706 0 -0.0013565049677715859 0.05230681107685841 0 -0.00061665859496399058 0.052801785809072896 0 -0.0013565049677715859 0.05230681107685841 0 -0.0011342724601262515 0.053210598611286707 0 -0.00061665859496399058 0.052801785809072896 0 -0.0011342724601262515 0.053210598611286707 0 -0.00061665859496399058 0.052801785809072896 0 -0.00072277690710712277 0.053527933710841087 0 -0.0013565049677715859 0.05230681107685841 0 -0.0020501515891075727 0.052784707296890471 0 -0.0017725448648036584 0.053383847984639965 0 -0.0013565049677715859 0.05230681107685841 0 -0.0011342724601262515 0.053210598611286707 0 -0.0017725448648036584 0.053383847984639965 0 -0.00055411395992603174 0.054575642497486705 0 -0.00072197928051581249 0.05489600503542947 0 -0.00040725489406334041 0.054828612222967935 0 -0.00083736388475328901 0.054632484501387552 0 -0.00055411395992603174 0.054575642497486705 0 -0.00072197928051581249 0.05489600503542947 0 -0.00083736388475328901 0.054632484501387552 0 -0.0012281417534813176 0.054581728778288846 0 -0.00072197928051581249 0.05489600503542947 0 -0.00065611404627457842 0.051815916220984706 0 0.00020764222138500062 0.052429598616641128 0 -0.00061665859496399058 0.052801785809072896 0 -0.00098783476282129738 0.049997748597258078 0 -9.9326998810040675e-05 0.054098318620675281 0 0.00020764222138500062 0.052429598616641128 0 -0.00061665859496399058 0.052801785809072896 0 -0.00011430257831278124 0.053342328587701472 0 -0.00061665859496399058 0.052801785809072896 0 -0.00011430257831278124 0.053342328587701472 0 -0.00072277690710712277 0.053527933710841087 0 0.00020764222138500062 0.052429598616641128 0 0.0010644615139268291 0.053039612616739756 0 -0.00011430257831278124 0.053342328587701472 0 -9.9326998810040675e-05 0.054098318620675281 0 0.00036513592200778972 0.053982790551198569 0 -0.00035925875843249454 0.055063942930812279 0 -0.00040725489406334041 0.054828612222967935 0 -0.0001959062862944943 0.054965350102739466 0 -0.00072197928051581249 0.05489600503542947 0 -0.00035925875843249454 0.055063942930812279 0 -0.00040725489406334041 0.054828612222967935 0 -0.00040725489406334041 0.054828612222967935 0 -0.00025935960090515454 0.05479108354850537 0 -0.0001959062862944943 0.054965350102739466 0 -0.00013420945333272925 0.054842435220659055 0 -0.00025935960090515454 0.05479108354850537 0 -0.0001959062862944943 0.054965350102739466 0 -0.00013420945333272925 0.054842435220659055 0 -0.0001959062862944943 0.054965350102739466 0 -8.4541499443779603e-05 0.054946853941892027 0 -0.0001959062862944943 0.054965350102739466 0 -8.3364496394465107e-05 0.055021190015651443 0 -0.00013580221408360921 0.055140150089286473 0 -0.00035925875843249454 0.055063942930812279 0 -0.0001959062862944943 0.054965350102739466 0 -0.00013580221408360921 0.055140150089286473 0 -8.3364496394465107e-05 0.055021190015651443 0 -1.8448453998703544e-05 0.054990327223388202 0 -3.0089812127199731e-05 0.055062382929708081 0 -8.3364496394465107e-05 0.055021190015651443 0 -1.8448453998703544e-05 0.054990327223388202 0 -8.4541499443779603e-05 0.054946853941892027 0 -0.0001959062862944943 0.054965350102739466 0 -8.3364496394465107e-05 0.055021190015651443 0 -8.4541499443779603e-05 0.054946853941892027 0 4.018367102311861e-09 0.05500011641464489 0 -1.8448453998703544e-05 0.054990327223388202 0 3.2989375967432198e-08 0.054999879924094899 0 4.018367102311861e-09 0.05500011641464489 0 -1.8448453998703544e-05 0.054990327223388202 0 -3.0089812127199731e-05 0.055062382929708081 0 -1.8448453998703544e-05 0.054990327223388202 0 3.2989375967432198e-08 0.054999879924094899 0 -2.8353506184092801e-05 0.054909520363310815 0 -1.8448453998703544e-05 0.054990327223388202 0 -8.4541499443779603e-05 0.054946853941892027 0 -2.8353506184092801e-05 0.054909520363310815 0 -0.00013420945333272925 0.054842435220659055 0 -8.4541499443779603e-05 0.054946853941892027 0 -2.8353506184092801e-05 0.054909520363310815 0 -0.00013420945333272925 0.054842435220659055 0 -2.8353506184092801e-05 0.054909520363310815 0 -9.5588267678552047e-05 0.054742079444908769 0 -2.8353506184092801e-05 0.054909520363310815 0 1.3775791716673325e-05 0.054876323709700456 0 -9.5588267678552047e-05 0.054742079444908769 0 3.2989375967432198e-08 0.054999879924094899 0 -2.8353506184092801e-05 0.054909520363310815 0 1.3775791716673325e-05 0.054876323709700456 0 3.2989375967432198e-08 0.054999879924094899 0 1.3775791716673325e-05 0.054876323709700456 0 -2.590295630416025e-08 0.054999840868687998 0 1.3775791716673325e-05 0.054876323709700456 0 -2.590295630416025e-08 0.054999840868687998 0 4.6435569833860592e-06 0.054972789914518969 0 1.3516793717931484e-08 0.054999978989228662 0 -2.590295630416025e-08 0.054999840868687998 0 4.6435569833860592e-06 0.054972789914518969 0 1.3775791716673325e-05 0.054876323709700456 0 -9.5588267678552047e-05 0.054742079444908769 0 -8.1706552300963095e-05 0.05451242911672316 0 1.3775791716673325e-05 0.054876323709700456 0 4.6435569833860592e-06 0.054972789914518969 0 2.8469882589064361e-05 0.05495855745408789 0 4.9315958200869878e-06 0.05489166126354901 0 0.00029324041119208944 0.054230919574739654 0 1.3775791716673325e-05 0.054876323709700456 0 2.8469882589064361e-05 0.05495855745408789 0 4.5825628592937768e-05 0.054952604318610869 0 1.9656913855638931e-05 0.054974311476549589 0 4.6435569833860592e-06 0.054972789914518969 0 2.8469882589064361e-05 0.05495855745408789 0 2.8469882589064361e-05 0.05495855745408789 0 4.5825628592937768e-05 0.054952604318610869 0 3.9103822056509834e-05 0.054955471162902989 0 3.6755628337656173e-05 0.054957986637432635 0 2.8469882589064361e-05 0.05495855745408789 0 3.9103822056509834e-05 0.054955471162902989 0 3.6755628337656173e-05 0.054957986637432635 0 4.5825628592937768e-05 0.054952604318610869 0 3.9103822056509834e-05 0.054955471162902989 0 0.00074867990937013825 0.054463995211603881 0 0.00029324041119208944 0.054230919574739654 0 0.00060541530659855112 0.05321870683031879 0 0.0010445804640197176 0.053617975277812993 0 0.00019033309447366283 0.053565125619367639 0 -8.1706552300963095e-05 0.05451242911672316 0 -0.0002459482340752182 0.054541319494728832 0 -0.00039942058342366154 0.054293611163851445 0 0.00029324041119208944 0.054230919574739654 0 -7.6565395298340674e-05 0.053909408021322595 0 -9.5588267678552047e-05 0.054742079444908769 0 -8.1706552300963095e-05 0.05451242911672316 0 -0.0002459482340752182 0.054541319494728832 0 -0.00063755338463791008 0.054323292302844953 0 -0.00039942058342366154 0.054293611163851445 0 -0.00044034288074062001 0.054448128632811614 0 -0.0002459482340752182 0.054541319494728832 0 -0.00039942058342366154 0.054293611163851445 0 -0.00044034288074062001 0.054448128632811614 0 -0.0002459482340752182 0.054541319494728832 0 -0.00044034288074062001 0.054448128632811614 0 -0.00035196516182066563 0.054612845389884972 0 -0.00055411395992603174 0.054575642497486705 0 -0.00044034288074062001 0.054448128632811614 0 -0.00035196516182066563 0.054612845389884972 0 -0.00055411395992603174 0.054575642497486705 0 -0.00040725489406334041 0.054828612222967935 0 -0.00035196516182066563 0.054612845389884972 0 -0.00040725489406334041 0.054828612222967935 0 -0.00025935960090515454 0.05479108354850537 0 -0.00035196516182066563 0.054612845389884972 0 -0.00025935960090515454 0.05479108354850537 0 -0.00035196516182066563 0.054612845389884972 0 -0.00021069026645147309 0.054710942237830081 0 -0.00013420945333272925 0.054842435220659055 0 -0.00025935960090515454 0.05479108354850537 0 -0.00021069026645147309 0.054710942237830081 0 -0.00013420945333272925 0.054842435220659055 0 -9.5588267678552047e-05 0.054742079444908769 0 -0.00021069026645147309 0.054710942237830081 0 -9.5588267678552047e-05 0.054742079444908769 0 -0.0002459482340752182 0.054541319494728832 0 -0.00021069026645147309 0.054710942237830081 0 -0.0002459482340752182 0.054541319494728832 0 -0.00035196516182066563 0.054612845389884972 0 -0.00021069026645147309 0.054710942237830081 0 -5.157136748019071e-06 0.030613310794670962 0 -0.0003169945254034701 0.034450267999835756 0 3.7612634072538234e-06 0.039081318077558165 0 0.00030692260918077359 0.028111407908855138 0 -0.00015419594568957169 0.028483033389641435 0 -0.00068160153341780558 0.027997029014848698 0 -0.00050475529724074879 0.027427383509009872 0 -0.00068160153341780558 0.027997029014848698 0 -0.00058556969505200833 0.0275043116916996 0 -7.476423987224154e-05 0.027847876571866013 0 -0.00071292019430376971 0.027947928428891079 0 -0.00010947134049420011 0.028879906049419871 0 -0.00015419594568957169 0.028483033389641435 0 -0.00071031741643673755 0.028672192311167969 0 -0.00015419594568957169 0.028483033389641435 0 -0.00071031741643673755 0.028672192311167969 0 -0.00068160153341780558 0.027997029014848698 0 -0.00010947134049420011 0.028879906049419871 0 -0.00015419594568957169 0.028483033389641435 0 0.00024243299455573415 0.028711429215471661 0 0.00030692260918077359 0.028111407908855138 0 -0.00015419594568957169 0.028483033389641435 0 0.00024243299455573415 0.028711429215471661 0 -0.00010947134049420011 0.028879906049419871 0 0.00010515377479966133 0.029397986328645525 0 0.00030493842298335818 0.029223614923769708 0 -0.00010947134049420011