<?xml version="1.0"?>
<VTKFile type="UnstructuredGrid" version="0.1" byte_order="LittleEndian">
<UnstructuredGrid>
<Piece NumberOfPoints="31624" NumberOfCells="11135">
<Points>
<DataArray type="Float64" NumberOfComponents="3" format="ascii">
-0.5 -0.5 0 -0.46834794209927227 -0.49999999999999589 0 -0.46124839104438359 -0.47184821050858811 0 -0.5 -0.5 0 -0.46124839104438359 -0.47184821050858811 0 -0.47839538733203513 -0.45255283270950541 0 -0.5 -0.5 0 -0.47839538733203513 -0.45255283270950541 0 -0.5 -0.41634212646358221 0 -0.46834794209927227 -0.49999999999999589 0 -0.46124839104438359 -0.47184821050858811 0 -0.44466742395999448 -0.48198680820889928 0 -0.46834794209927227 -0.49999999999999589 0 -0.46124839104438359 -0.47184821050858811 0 -0.46124839104438359 -0.47184821050858811 0 -0.44628875665670842 -0.47038924120915709 0 -0.44466742395999448 -0.48198680820889928 0 -0.44628875665670842 -0.47038924120915709 0 -0.43892127773234768 -0.47158291606607761 0 -0.44466742395999448 -0.48198680820889928 0 -0.43892127773234768 -0.47158291606607761 0 -0.44466742395999448 -0.48198680820889928 0 -0.43342607321533239 -0.47830139088408252 0 -0.46834794209927227 -0.49999999999999589 0 -0.44466742395999448 -0.48198680820889928 0 -0.44557145593351588 -0.5 0 -0.44466742395999448 -0.48198680820889928 0 -0.44557145593351588 -0.5 0 -0.43312653844205001 -0.48877620252737142 0 -0.45414883998949879 -0.44369642101717899 0 -0.44207952812631218 -0.432473967552786 0 -0.43250920223850797 -0.44459246166653249 0 -0.44261594655068542 -0.45676344110113321 0 -0.45414883998949879 -0.44369642101717899 0 -0.43250920223850797 -0.44459246166653249 0 -0.44261594655068542 -0.45676344110113321 0 -0.45414883998949879 -0.44369642101717899 0 -0.46124839104438359 -0.47184821050858811 0 -0.44628875665670842 -0.47038924120915709 0 -0.44261594655068542 -0.45676344110113321 0 -0.46124839104438359 -0.47184821050858811 0 -0.44261594655068542 -0.45676344110113321 0 -0.45414883998949879 -0.44369642101717899 0 -0.43892127773234768 -0.47158291606607761 0 -0.44261594655068542 -0.45676344110113321 0 -0.43108305311186512 -0.46983046118508132 0 -0.44628875665670842 -0.47038924120915709 0 -0.43892127773234768 -0.47158291606607761 0 -0.44261594655068542 -0.45676344110113321 0 -0.46124839104438359 -0.47184821050858811 0 -0.45414883998949879 -0.44369642101717899 0 -0.46124839104438359 -0.47184821050858811 0 -0.45414883998949879 -0.44369642101717899 0 -0.47839538733203513 -0.45255283270950541 0 -0.45414883998949879 -0.44369642101717899 0 -0.47839538733203513 -0.45255283270950541 0 -0.46659513334101282 -0.42959449888831008 0 -0.47839538733203513 -0.45255283270950541 0 -0.47904142669251998 -0.41549257675943518 0 -0.46659513334101282 -0.42959449888831008 0 -0.47839538733203513 -0.45255283270950541 0 -0.5 -0.41634212646358221 0 -0.47904142669251998 -0.41549257675943518 0 -0.47904142669251998 -0.41549257675943518 0 -0.46659513334101282 -0.42959449888831008 0 -0.4639294593242288 -0.41565431460942798 0 -0.47904142669251998 -0.41549257675943518 0 -0.46659513334101282 -0.42959449888831008 0 -0.5 -0.41634212646358221 0 -0.47584609506668107 -0.38593418207312258 0 -0.5 -0.35529098361714978 0 -0.5 -0.41634212646358221 0 -0.47904142669251998 -0.41549257675943518 0 -0.47584609506668107 -0.38593418207312258 0 -0.47904142669251998 -0.41549257675943518 0 -0.47584609506668107 -0.38593418207312258 0 -0.46149109699047758 -0.40017815141067298 0 -0.47584609506668107 -0.38593418207312258 0 -0.46149109699047758 -0.40017815141067298 0 -0.45074151240797522 -0.3756336192004277 0 -0.46149109699047758 -0.40017815141067298 0 -0.44123240233692018 -0.39247898051103708 0 -0.44769062116320701 -0.41808770076410873 0 -0.44123240233692018 -0.39247898051103708 0 -0.44769062116320701 -0.41808770076410873 0 -0.44123240233692018 -0.39247898051103708 0 -0.44769062116320701 -0.41808770076410873 0 -0.43964347597476211 -0.40650582484303971 0 -0.44123240233692018 -0.39247898051103708 0 -0.43964347597476211 -0.40650582484303971 0 -0.43536150049179362 -0.39411646262943512 0 -0.46149109699047758 -0.40017815141067298 0 -0.44123240233692018 -0.39247898051103708 0 -0.45074151240797522 -0.3756336192004277 0 -0.44123240233692018 -0.39247898051103708 0 -0.43477418351063268 -0.3668702602579656 0 -0.44123240233692018 -0.39247898051103708 0 -0.45074151240797522 -0.3756336192004277 0 -0.43477418351063268 -0.3668702602579656 0 -0.45414883998949879 -0.44369642101717899 0 -0.46659513334101282 -0.42959449888831008 0 -0.44769062116320701 -0.41808770076410873 0 -0.45414883998949879 -0.44369642101717899 0 -0.46659513334101282 -0.42959449888831008 0 -0.47904142669251998 -0.41549257675943518 0 -0.46149109699047758 -0.40017815141067298 0 -0.4639294593242288 -0.41565431460942798 0 -0.46149109699047758 -0.40017815141067298 0 -0.4639294593242288 -0.41565431460942798 0 -0.44769062116320701 -0.41808770076410873 0 -0.46659513334101282 -0.42959449888831008 0 -0.4639294593242288 -0.41565431460942798 0 -0.44769062116320701 -0.41808770076410873 0 -0.44769062116320701 -0.41808770076410873 0 -0.43964347597476211 -0.40650582484303971 0 -0.43393535136515082 -0.41935446214798378 0 -0.45414883998949879 -0.44369642101717899 0 -0.44769062116320701 -0.41808770076410873 0 -0.45414883998949879 -0.44369642101717899 0 -0.44769062116320701 -0.41808770076410873 0 -0.44207952812631218 -0.432473967552786 0 -0.44769062116320701 -0.41808770076410873 0 -0.44207952812631218 -0.432473967552786 0 -0.43393535136515082 -0.41935446214798378 0 -0.44207952812631218 -0.432473967552786 0 -0.43393535136515082 -0.41935446214798378 0 -0.43250920223850797 -0.44459246166653249 0 -0.42412664681236972 -0.43106778611608709 0 -0.43393535136515082 -0.41935446214798378 0 -0.43250920223850797 -0.44459246166653249 0 -0.43393535136515082 -0.41935446214798378 0 -0.43250920223850797 -0.44459246166653249 0 -0.42412664681236972 -0.43106778611608709 0 -0.43393535136515082 -0.41935446214798378 0 -0.42008671343925569 -0.41855599904193003 0 -0.43393535136515082 -0.41935446214798378 0 -0.43536150049179362 -0.39411646262943512 0 -0.43964347597476211 -0.40650582484303971 0 -0.43393535136515082 -0.41935446214798378 0 -0.43536150049179362 -0.39411646262943512 0 -0.43393535136515082 -0.41935446214798378 0 -0.43536150049179362 -0.39411646262943512 0 -0.42626955791746191 -0.40565109843997899 0 -0.43393535136515082 -0.41935446214798378 0 -0.42508002019755892 -0.41325296613256979 0 -0.42626955791746191 -0.40565109843997899 0 -0.42508002019755892 -0.41325296613256979 0 -0.42002845806836719 -0.40945030490038659 0 -0.42626955791746191 -0.40565109843997899 0 -0.43393535136515082 -0.41935446214798378 0 -0.42508002019755892 -0.41325296613256979 0 -0.42008671343925569 -0.41855599904193003 0 -0.41147163652562352 -0.40866186470119309 0 -0.40779623314709063 -0.42137645569011012 0 -0.40908829863366558 -0.4052806678827936 0 -0.42508002019755892 -0.41325296613256979 0 -0.42008671343925569 -0.41855599904193003 0 -0.42002845806836719 -0.40945030490038659 0 -0.42002845806836719 -0.40945030490038659 0 -0.41147163652562352 -0.40866186470119309 0 -0.41902932537311932 -0.40193604567557389 0 -0.42008671343925569 -0.41855599904193003 0 -0.42002845806836719 -0.40945030490038659 0 -0.41147163652562352 -0.40866186470119309 0 -0.41147163652562352 -0.40866186470119309 0 -0.40908829863366558 -0.4052806678827936 0 -0.42008671343925569 -0.41855599904193003 0 -0.41147163652562352 -0.40866186470119309 0 -0.40779623314709063 -0.42137645569011012 0 -0.40779623314709063 -0.42137645569011012 0 -0.41297188089832498 -0.43545492467774649 0 -0.41624536857426031 -0.42661379138146838 0 -0.42412664681236972 -0.43106778611608709 0 -0.41297188089832498 -0.43545492467774649 0 -0.41624536857426031 -0.42661379138146838 0 -0.42412664681236972 -0.43106778611608709 0 -0.41297188089832498 -0.43545492467774649 0 -0.42220851422656008 -0.4423996471945334 0 -0.42008671343925569 -0.41855599904193003 0 -0.40779623314709063 -0.42137645569011012 0 -0.41624536857426031 -0.42661379138146838 0 -0.42412664681236972 -0.43106778611608709 0 -0.42008671343925569 -0.41855599904193003 0 -0.41624536857426031 -0.42661379138146838 0 -0.42193124107214958 -0.38607546407037979 0 -0.43477418351063268 -0.3668702602579656 0 -0.42193124107214958 -0.38607546407037979 0 -0.43536150049179362 -0.39411646262943512 0 -0.43477418351063268 -0.3668702602579656 0 -0.44123240233692018 -0.39247898051103708 0 -0.43536150049179362 -0.39411646262943512 0 -0.43477418351063268 -0.3668702602579656 0 -0.42193124107214958 -0.38607546407037979 0 -0.42620712211460382 -0.3967458478015739 0 -0.41902932537311932 -0.40193604567557389 0 -0.42193124107214958 -0.38607546407037979 0 -0.42620712211460382 -0.3967458478015739 0 -0.43536150049179362 -0.39411646262943512 0 -0.42620712211460382 -0.3967458478015739 0 -0.43536150049179362 -0.39411646262943512 0 -0.42626955791746191 -0.40565109843997899 0 -0.42620712211460382 -0.3967458478015739 0 -0.42626955791746191 -0.40565109843997899 0 -0.41902932537311932 -0.40193604567557389 0 -0.42193124107214958 -0.38607546407037979 0 -0.40908829863366558 -0.4052806678827936 0 -0.42193124107214958 -0.38607546407037979 0 -0.41902932537311932 -0.40193604567557389 0 -0.40908829863366558 -0.4052806678827936 0 -0.42193124107214958 -0.38607546407037979 0 -0.40908829863366558 -0.4052806678827936 0 -0.39718637242806842 -0.38839562814295331 0 -0.42002845806836719 -0.40945030490038659 0 -0.42626955791746191 -0.40565109843997899 0 -0.41902932537311932 -0.40193604567557389 0 -0.41147163652562352 -0.40866186470119309 0 -0.41902932537311932 -0.40193604567557389 0 -0.40908829863366558 -0.4052806678827936 0 -0.42193124107214958 -0.38607546407037979 0 -0.39718637242806842 -0.38839562814295331 0 -0.40906888710737838 -0.3705341383817366 0 -0.39718637242806842 -0.38839562814295331 0 -0.38528444622247171 -0.37151058840311257 0 -0.39718637242806842 -0.38839562814295331 0 -0.39691291535847278 -0.37525147130316039 0 -0.38528444622247171 -0.37151058840311257 0 -0.39718637242806842 -0.38839562814295331 0 -0.3969129
[...]
<PointData Scalars="" Vectors="displacement," Tensors="">
<DataArray type="Float64" Name="displacement" NumberOfComponents="3" format="ascii">
0.055001359760733379 0.05499121096556428 0 0.054993958751965506 0.051536009288745112 0 0.052845488241808236 0.055330325835726987 0 0.055001359760733379 0.05499121096556428 0 0.052845488241808236 0.055330325835726987 0 0.050438691067794153 0.055798385155180187 0 0.055001359760733379 0.05499121096556428 0 0.050438691067794153 0.055798385155180187 0 0.045799498958407153 0.054999964735726312 0 0.054999977033544076 0.051518079919410417 0 0.057999149754000091 0.050640539848420575 0 0.056906323853725536 0.048859774726417435 0 0.054998897897038122 0.0515189805367363 0 0.055696194530522644 0.053121023427820602 0 0.057999149754000091 0.050640539848420575 0 0.058170859946241965 0.049021646802816121 0 0.056906323853725536 0.048859774726417435 0 0.058170859946241965 0.049021646802816121 0 0.058075840455084099 0.048191964472157151 0 0.056906323853725536 0.048859774726417435 0 0.058075840455084099 0.048191964472157151 0 0.056906323853725536 0.048859774726417435 0 0.057308658125005768 0.0475372973978248 0 0.054999977033544076 0.051518079919410417 0 0.056906323853725536 0.048859774726417435 0 0.054999930534152919 0.049012941386109239 0 0.056906323853725536 0.048859774726417435 0 0.054999930534152919 0.049012941386109239 0 0.056101064124180144 0.047524968581931427 0 0.054236651772203881 0.04179147066161059 0 0.05373728686837892 0.042274575354984689 0 0.054289054141822932 0.04275759660226635 0 0.054892177377228006 0.042311333802583236 0 0.054236651772203881 0.04179147066161059 0 0.054289054141822932 0.04275759660226635 0 0.057151437955851619 0.045370538264084895 0 0.052988766504572987 0.052540707177711705 0 0.057999149754000091 0.050640539848420575 0 0.058170859946241965 0.049021646802816121 0 0.059572235271293635 0.048636794307464877 0 0.057999149754000091 0.050640539848420575 0 0.059572235271293635 0.048636794307464877 0 0.060848494348377656 0.049847578422569816 0 0.058075840455084099 0.048191964472157151 0 0.059572235271293635 0.048636794307464877 0 0.058334916046166203 0.04727131794031264 0 0.058170859946241965 0.049021646802816121 0 0.058075840455084099 0.048191964472157151 0 0.059572235271293635 0.048636794307464877 0 0.055696194530522644 0.053121023427820602 0 0.052988766504572987 0.052540707177711705 0 0.052845488241808236 0.055330325835726987 0 0.049575805472525887 0.057899123075082465 0 0.050438691067794153 0.055798385155180187 0 0.049575805472525887 0.057899123075082465 0 0.050438691067794153 0.055798385155180187 0 0.047822473709060828 0.05732057399774277 0 0.050438691067794153 0.055798385155180187 0 0.045905996068679476 0.056759654167207928 0 0.047822473709060828 0.05732057399774277 0 0.050438691067794153 0.055798385155180187 0 0.045799498958407153 0.054999964735726312 0 0.045905996068679476 0.056759654167207928 0 0.045905996068679476 0.056759654167207928 0 0.047519948993295022 0.058115427185410684 0 0.045931428128704654 0.058448836976286334 0 0.046045335040087523 0.056690003954691683 0 0.04766121022964738 0.057973181982282691 0 0.045799498958407153 0.054999964735726312 0 0.042548371159191571 0.05732197217991767 0 0.039081819479680022 0.054999493848190084 0 0.045799498958407153 0.054999964735726312 0 0.045905996068679476 0.056759654167207928 0 0.042548371159191571 0.05732197217991767 0 0.045905996068679476 0.056759654167207928 0 0.042548371159191571 0.05732197217991767 0 0.044160404413325888 0.05877163433712896 0 0.042548371159191571 0.05732197217991767 0 0.044160404413325888 0.05877163433712896 0 0.041436689600273545 0.059952406248666906 0 0.044160404413325888 0.05877163433712896 0 0.043322110683755272 0.060951709399093619 0 0.046218773433782612 0.060235697169403218 0 0.0473172034301328 0.052328679048717831 0 0.049535243772520873 0.050780993590555705 0 0.05216523270407223 0.041844528611951641 0 0.053113208783885882 0.042014656930202204 0 0.052703805784824712 0.042132456979587216 0 0.05216523270407223 0.041844528611951641 0 0.052703805784824712 0.042132456979587216 0 0.052278727108582737 0.042126346027996822 0 0.044160404413325888 0.05877163433712896 0 0.043322110683755272 0.060951709399093619 0 0.041436689600273545 0.059952406248666906 0 0.0473172034301328 0.052328679048717831 0 0.046680699064071435 0.045012591783546926 0 0.043322110683755272 0.060951709399093619 0 0.041436689600273545 0.059952406248666906 0 0.040500733449786316 0.061594336120294892 0 0.049154109365617094 0.059458037837017863 0 0.047519948993295022 0.058115427185410684 0 0.046218773433782612 0.060235697169403218 0 0.052988766504572987 0.052540707177711705 0 0.04766121022964738 0.057973181982282691 0 0.045905996068679476 0.056759654167207928 0 0.044160404413325888 0.05877163433712896 0 0.045931428128704654 0.058448836976286334 0 0.044160404413325888 0.05877163433712896 0 0.045931428128704654 0.058448836976286334 0 0.046218773433782612 0.060235697169403218 0 0.047519948993295022 0.058115427185410684 0 0.045931428128704654 0.058448836976286334 0 0.046218773433782612 0.060235697169403218 0 0.053113208783885882 0.042014656930202204 0 0.052703805784824712 0.042132456979587216 0 0.053167026230776668 0.042509162369289588 0 0.052988766504572987 0.052540707177711705 0 0.049535243772520873 0.050780993590555705 0 0.054236651772203881 0.04179147066161059 0 0.053113208783885882 0.042014656930202204 0 0.05373728686837892 0.042274575354984689 0 0.053113208783885882 0.042014656930202204 0 0.05373728686837892 0.042274575354984689 0 0.053167026230776668 0.042509162369289588 0 0.05373728686837892 0.042274575354984689 0 0.053167026230776668 0.042509162369289588 0 0.054289054141822932 0.04275759660226635 0 0.055555998989590745 0.043255588765013855 0 0.054777759913840499 0.042337458678881168 0 0.056253897067016979 0.043228869278675336 0 0.053966981667418534 0.042462865772628797 0 0.05506972627828316 0.04284232643703758 0 0.055555998989590745 0.043255588765013855 0 0.054777759913840499 0.042337458678881168 0 0.054708499801596762 0.043344219436162464 0 0.053966981667418534 0.042462865772628797 0 0.05239123613736129 0.042162403112946931 0 0.052703805784824712 0.042132456979587216 0 0.053167026230776668 0.042509162369289588 0 0.052278727108582737 0.042126346027996822 0 0.054777759913840499 0.042337458678881168 0 0.052278727108582737 0.042126346027996822 0 0.053459119523090362 0.042836715916508443 0 0.054777759913840499 0.042337458678881168 0 0.054207210969053711 0.042961181999157209 0 0.053459119523090362 0.042836715916508443 0 0.054207210969053711 0.042961181999157209 0 0.05388038405877045 0.043302810309153769 0 0.053459119523090362 0.042836715916508443 0 0.054777759913840499 0.042337458678881168 0 0.054207210969053711 0.042961181999157209 0 0.054708499801596762 0.043344219436162464 0 0.053900782476443337 0.043899875744796639 0 0.05503801450188997 0.043994684243040462 0 0.053666744037152277 0.04409499502800248 0 0.054207210969053711 0.042961181999157209 0 0.054708499801596762 0.043344219436162464 0 0.05388038405877045 0.043302810309153769 0 0.05388038405877045 0.043302810309153769 0 0.053900782476443337 0.043899875744796639 0 0.053113245874078507 0.043340745155311368 0 0.054708499801596762 0.043344219436162464 0 0.05388038405877045 0.043302810309153769 0 0.053900782476443337 0.043899875744796639 0 0.053768678725977313 0.0384647545178841 0 0.055561016504854413 0.036200824963818927 0 0.054708499801596762 0.043344219436162464 0 0.053900782476443337 0.043899875744796639 0 0.05503801450188997 0.043994684243040462 0 0.05503801450188997 0.043994684243040462 0 0.05588052379859456 0.043798792636895206 0 0.055303761707086799 0.04360186707354833 0 0.055555998989590745 0.043255588765013855 0 0.05588052379859456 0.043798792636895206 0 0.055303761707086799 0.04360186707354833 0 0.055555998989590745 0.043255588765013855 0 0.05588052379859456 0.043798792636895206 0 0.056141656570022389 0.043569649538971272 0 0.054708499801596762 0.043344219436162464 0 0.05503801450188997 0.043994684243040462 0 0.055303761707086799 0.04360186707354833 0 0.055555998989590745 0.043255588765013855 0 0.054708499801596762 0.043344219436162464 0 0.055303761707086799 0.04360186707354833 0 0.051309451152886598 0.0339620710198731 0 0.046680699064071435 0.045012591783546926 0 0.05161846587057993 0.043059606896037807 0 0.052278727108582737 0.042126346027996822 0 0.050263104203537141 0.042197187242282129 0 0.05216523270407223 0.041844528611951641 0 0.052278727108582737 0.042126346027996822 0 0.050263104203537141 0.042197187242282129 0 0.05161846587057993 0.043059606896037807 0 0.052590273329296666 0.042802943066604981 0 0.053113245874078507 0.043340745155311368 0 0.05161846587057993 0.043059606896037807 0 0.052590273329296666 0.042802943066604981 0 0.052278727108582737 0.042126346027996822 0 0.052590273329296666 0.042802943066604981 0 0.052278727108582737 0.042126346027996822 0 0.053459119523090362 0.042836715916508443 0 0.052590273329296666 0.042802943066604981 0 0.053459119523090362 0.042836715916508443 0 0.053113245874078507 0.043340745155311368 0 0.051309451152886598 0.0339620710198731 0 0.055561016504854413 0.036200824963818927 0 0.05161846587057993 0.043059606896037807 0 0.053113245874078507 0.043340745155311368 0 0.053424274057496869 0.04411573787823192 0 0.051649175396556134 0.027268695830222494 0 0.051364416080347391 0.026962180124134802 0 0.051500205603713614 0.026293302123884029 0 0.05388038405877045 0.043302810309153769 0 0.053459119523090362 0.042836715916508443 0 0.053113245874078507 0.043340745155311368 0 0.053900782476443337 0.043899875744796639 0 0.053113245874078507 0.043340745155311368 0 0.053424274057496869 0.04411573787823192 0 0.051649175396556134 0.027268695830222494 0 0.051500205603713614 0.026293302123884029 0 0.052008792453822082 0.026640291107439741 0 0.056138600513901446 0.030617349668331132 0 0.055818585272979566 0.031149779562706679 0 0.051500205603713614 0.026293302123884029 0 0.051875454380392941 0.026031653786834526 0 0.051997192173199432 0.025411609384011574 0 0.051500205603713614 0.026293302123884029 0 0.051875454380392941 0.026031653786834526 0 0.052008792453822082 0.026640291107439741 0 0.055561016504854413 0.036200824963818927 0 0.056138600513901446 0.030617349668331132 0 0.060213398850641482 0.035919097312602857 0 0.059983029785473978 0.036044325489654548 0 0.060265260064926461 0.036260680865590936 0 0.059983029785473978 0.036044325489654548 0 0.060097393981804435 0.036373068101026786 0 0.060265260064926461 0.036260680865590936 0 0.060097393981804435 0.036373068101026786 0 0.060265260064926461 0.036260680865590936 0 0.060260079607206501 0.036512672230283261 0 0.059983029785473978 0.036044325489654548 0 0.059713684361317611 0.036152921752757486 0 0.059849469488279641 0.036393964327109403 0 0.059983029785473978 0.036044325489654548 0 0.060097393981804435 0.036373068101026786 0 0.059849469488279641 0.036393964327109403 0 0.05588052379859456 0.043798792636895206 0 0.055569173246412133 0.044457503915667655 0 0.056338607404296887 0.044060386607326571 0 0.05503801450188997 0.043994684243040462 0 0.05588052379859456 0.043798792636895206 0 0.055569173246412133 0.044457503915667655 0 0.05503801450188997 0.043994684243040462 0 0.053666744037152277 0.04409499502800248 0 0.055569173246412133 0.044457503915667655 0 0.060213398850641482 0.035919097312602857 0 0.060533146110356491 0.036182393667599955 0 0.060265260064926461 0.036260680865590936 0 0.055561016504854413 0.036200824963818927 0 0.05842858758738087 0.040851193052778657 0 0.060533146110356491 0.036182393667599955 0 0.060265260064926461 0.036260680865590936 0 0.060458081310661764 0.036472250722838738 0 0.060265260064926461 0.036260680865590936 0 0.060458081310661764 0.036472250722838738 0 0.060260079607206501 0.036512672230283261 0 0.060533146110356491 0.036182393667599955 0 0.060774100939774513 0.036429416569823708 0 0.060458081310661764 0.036472250722838738 0 0.05842858758738087 0.040851193052778657 0 0.058586915883642926 0.040099205161970061 0 0.056588007292651163 0.043878448731738157 0 0.056338607404296887 0.044060386607326571 0 0.056615315041507353 0.04373705732205628 0 0.055569173246412133 0.044457503915667655 0 0.056588007292651163 0.043878448731738157 0 0.056338607404296887 0.044060386607326571 0 0.056338607404296887 0.044060386607326571 0 0.056541228232529224 0.044026541947374702 0 0.056615315041507353 0.04373705732205628 0 0.056619308417759126 0.044051051621241913 0 0.056541228232529224 0.044026541947374702 0 0.056615315041507353 0.04373705732205628 0 0.056619308417759126 0.044051051621241913 0 0.056615315041507353 0.04373705732205628 0 0.056518645618409795 0.043669226248889921 0 0.056615315041507353 0.04373705732205628 0 0.056431703131425183 0.04314704925286772 0 0.05658749781724115 0.042859398348699028 0 0.056588007292651163 0.043878448731738157 0 0.056615315041507353 0.04373705732205628 0 0.05658749781724115 0.042859398348699028 0 0.056431703131425183 0.04314704925286772 0 0.056055858658722021 0.043075677560771908 0 0.056088933822728379 0.042388427976767541 0 0.056431703131425183 0.04314704925286772 0 0.056055858658722021 0.043075677560771908 0 0.056518645618409795 0.043669226248889921 0 0.056615315041507353 0.04373705732205628 0 0.056431703131425183 0.04314704925286772 0 0.056518645618409795 0.043669226248889921 0 0.054999867360491013 0.041499366072724538 0 0.056055858658722021 0.043075677560771908 0 0.054999983742545409 0.04400147766222693 0 0.054999867360491013 0.041499366072724538 0 0.056055858658722021 0.043075677560771908 0 0.056088933822728379 0.042388427976767541 0 0.056055858658722021 0.043075677560771908 0 0.054999983742545409 0.04400147766222693 0 0.05643057561924443 0.04416686007262343 0 0.056055858658722021 0.043075677560771908 0 0.056518645618409795 0.043669226248889921 0 0.05643057561924443 0.04416686007262343 0 0.056619308417759126 0.044051051621241913 0 0.056518645618409795 0.043669226248889921 0 0.05643057561924443 0.04416686007262343 0 0.056619308417759126 0.044051051621241913 0 0.05643057561924443 0.04416686007262343 0 0.056657508388018481 0.044467102674784098 0 0.05643057561924443 0.04416686007262343 0 0.056469102786547473 0.045314491704251683 0 0.056657508388018481 0.044467102674784098 0 0.054999983742545409 0.04400147766222693 0 0.05643057561924443 0.04416686007262343 0 0.056469102786547473 0.045314491704251683 0 0.054999983742545409 0.04400147766222693 0 0.056469102786547473 0.045314491704251683 0 0.054999629023651603 0.046506485118792504 0 0.056469102786547473 0.045314491704251683 0 0.054999629023651603 0.046506485118792504 0 0.056101064124180144 0.047524968581931427 0 0.054999930534152919 0.049012941386109239 0 0.054999629023651603 0.046506485118792504 0 0.056101064124180144 0.047524968581931427 0 0.056469102786547473 0.045314491704251683 0 0.056657508388018481 0.044467102674784098 0 0.056707297063093305 0.044112319427984881 0 0.056469102786547473 0.045314491704251683 0 0.056101064124180144 0.047524968581931427 0 0.057308658125005768 0.0475372973978248 0 0.056839260009657326 0.045502737375835788 0 0.056781105309933987 0.044780457459479617 0 0.056469102786547473 0.045314491704251683 0 0.057308658125005768 0.0475372973978248 0 0.058334916046166203 0.04727131794031264 0 0.056906323853725536 0.048859774726417435 0 0.056101064124180144 0.047524968581931427 0 0.057308658125005768 0.0475372973978248 0 0.057308658125005768 0.0475372973978248 0 0.058334916046166203 0.04727131794031264 0 0.058005956111370847 0.047567473890744984 0 0.058075840455084099 0.048191964472157151 0 0.057308658125005768 0.0475372973978248 0 0.058005956111370847 0.047567473890744984 0 0.058075840455084099 0.048191964472157151 0 0.058334916046166203 0.04727131794031264 0 0.058005956111370847 0.047567473890744984 0 0.057151437955851619 0.045370538264084895 0 0.056781105309933987 0.044780457459479617 0 0.054892177377228006 0.042311333802583236 0 0.055562446788732935 0.042907966594337016 0 0.054289054141822932 0.04275759660226635 0 0.056707297063093305 0.044112319427984881 0 0.056505631872582902 0.043901557661475653 0 0.056253897067016979 0.043228869278675336 0 0.056781105309933987 0.044780457459479617 0 0.05506972627828316 0.04284232643703758 0 0.056657508388018481 0.044467102674784098 0 0.056707297063093305 0.044112319427984881 0 0.056505631872582902 0.043901557661475653 0 0.055555998989590745 0.043255588765013855 0 0.056253897067016979 0.043228869278675336 0 0.056141656570022389 0.043569649538971272 0 0.056505631872582902 0.043901557661475653 0 0.056253897067016979 0.043228869278675336 0 0.056141656570022389 0.043569649538971272 0 0.056505631872582902 0.043901557661475653 0 0.056141656570022389 0.043569649538971272 0 0.056355667262678877 0.043881451733423241 0 0.05588052379859456 0.043798792636895206 0 0.056141656570022389 0.043569649538971272 0 0.056355667262678877 0.043881451733423241 0 0.05588052379859456 0.043798792636895206 0 0.056338607404296887 0.044060386607326571 0 0.056355667262678877 0.043881451733423241 0 0.056338607404296887 0.044060386607326571 0 0.056541228232529224 0.044026541947374702 0 0.056355667262678877 0.043881451733423241 0 0.056541228232529224 0.044026541947374702 0 0.056355667262678877 0.043881451733423241 0 0.056584467924181564 0.044107918661045166 0 0.056619308417759126 0.044051051621241913 0 0.056541228232529224 0.044026541947374702 0 0.056584467924181564 0.044107918661045166 0 0.056619308417759126 0.044051051621241913 0 0.056657508388018481 0.044467102674784098 0 0.056584467924181564 0.044107918661045166 0 0.056657508388018481 0.044467102674784098 0 0.056505631872582902 0.043901557661475653 0 0.056584467924181564 0.044107918661045166 0 0.056505631872582902 0.043901557661475653 0 0.056355667262678877 0.043881451733423241 0 0.056584467924181564 0.044107918661045166 0 0.030604838795282769 0.054999974733215787 0 0.032300672910073346 0.056892976400302948 0 0.039081819479680022 0.054999493848190084 0 0.029434088521147261 0.056526802764001176 0 0.02993998020868616 0.056090285539283427 0 0.030375030128599701 0.056217831762853117 0 0.028478478970597573 0.055807144564033649 0 0.030375030128599701 0.056217831762853117 0 0.029499887804729685 0.056767866163586797 0 0.029185315833801215 0.056091375748713465 0 0.030167674639516268 0.056227735759205907 0 0.029948297341429873 0.055831127435427466 0 0.02993998020868616 0.056090285539283427 0 0.030487298902399422 0.055882046401266323 0 0.02993998020868616 0.056090285539283427 0 0.030487298902399422 0.055882046401266323 0 0.030375030128599701 0.056217831762853117 0 0.029948297341429873 0.055831127435427466 0 0.02993998020868616 0.056090285539283427 0 0.029431289690418357 0.055979058377699543 0 0.029434088521147261 0.056526802764001176 0 0.02993998020868616 0.056090285539283427 0 0.029431289690418357 0.055979058377699543 0 0.029948297341429873 0.055831127435427466 0 0.029838312881125467 0.055539717385228407 0 0.029155562735578663 0.055591331844534235 0 0.029948297341429873 0.055831127435427466 0 0.029431289690418357 0.055979058377699543 0 0.029155562735578663 0.055591331844534235 0 0.028805381930595481 0.054999827256612913 0 0.026206167311060263 0.055744254055398297 0 0.026952712056451673 0.056352615820707504 0 0.02880644614430914 0.054999995375037178 0 0.028074418164969694 0.055875747600320748 0 0.028810684203827451 0.054999701358254452 0 0.029838312881125467 0.055539717385228407 0 0.029155562735578663 0.055591331844534235 0 0.028810684203827451 0.054999701358254452 0 0.029838312881125467 0.055539717385228407 0 0.03060046770382617 0.054999556638679184 0 0.029838312881125467 0.055539717385228407 0 0.03060046770382617 0.054999556638679184 0 0.030714040406679872 0.055501089525818538 0 0.029948297341429873 0.055831127435427466 0 0.029838312881125467 0.055539717385228407 0 0.030714040406679872 0.055501089525818538 0 0.029948297341429873 0.055831127435427466 0 0.030714040406679872 0.055501089525818538 0 0.030487298902399422 0.055882046401266323 0 0.032300672910073346 0.056892976400302948 0 0.033989898997840232 0.058744531200083501 0 0.036327253504