<?xml version="1.0"?>
<VTKFile type="UnstructuredGrid" version="0.1" byte_order="LittleEndian">
<UnstructuredGrid>
<Piece NumberOfPoints="31898" NumberOfCells="11152">
<Points>
<DataArray type="Float64" NumberOfComponents="3" format="ascii">
-0.5 -0.5 0 -0.47620991077874902 -0.44978878706170539 0 -0.49999999999999473 -0.42132396840504388 0 -0.5 -0.5 0 -0.47160970827802529 -0.4793630013852106 0 -0.47620991077874902 -0.44978878706170539 0 -0.5 -0.5 0 -0.47160970827802529 -0.4793630013852106 0 -0.44860394795025399 -0.5 0 -0.47160970827802529 -0.4793630013852106 0 -0.44860394795025399 -0.5 0 -0.4490820238307246 -0.45820516232899983 0 -0.44860394795025399 -0.5 0 -0.4490820238307246 -0.45820516232899983 0 -0.42881687682924802 -0.47781464288736519 0 -0.4490820238307246 -0.45820516232899983 0 -0.45555437223955858 -0.42914059360647611 0 -0.4490820238307246 -0.45820516232899983 0 -0.45555437223955858 -0.42914059360647611 0 -0.43867285131603428 -0.4271457417558665 0 -0.4490820238307246 -0.45820516232899983 0 -0.43867285131603428 -0.4271457417558665 0 -0.4263356171060747 -0.44269880333887462 0 -0.47160970827802529 -0.4793630013852106 0 -0.4490820238307246 -0.45820516232899983 0 -0.47620991077874902 -0.44978878706170539 0 -0.4490820238307246 -0.45820516232899983 0 -0.47620991077874902 -0.44978878706170539 0 -0.45555437223955858 -0.42914059360647611 0 -0.47620991077874902 -0.44978878706170539 0 -0.48101336032419229 -0.41069999664450008 0 -0.45555437223955858 -0.42914059360647611 0 -0.47620991077874902 -0.44978878706170539 0 -0.49999999999999473 -0.42132396840504388 0 -0.48101336032419229 -0.41069999664450008 0 -0.49999999999999473 -0.42132396840504388 0 -0.48101336032419229 -0.41069999664450008 0 -0.5 -0.393886241813306 0 -0.49999999999999473 -0.42132396840504388 0 -0.48101336032419229 -0.41069999664450008 0 -0.5 -0.393886241813306 0 -0.47854472220918332 -0.38978458738689759 0 -0.48422759779560409 -0.37130120630367158 0 -0.5 -0.393886241813306 0 -0.5 -0.36644851522156802 0 -0.48422759779560409 -0.37130120630367158 0 -0.48101336032419229 -0.41069999664450008 0 -0.5 -0.393886241813306 0 -0.47854472220918332 -0.38978458738689759 0 -0.48101336032419229 -0.41069999664450008 0 -0.47854472220918332 -0.38978458738689759 0 -0.46202672064839212 -0.40007602488395211 0 -0.48101336032419229 -0.41069999664450008 0 -0.46202672064839212 -0.40007602488395211 0 -0.47854472220918332 -0.38978458738689759 0 -0.46725442735267431 -0.37660061361585562 0 -0.46202672064839212 -0.40007602488395211 0 -0.47854472220918332 -0.38978458738689759 0 -0.46725442735267431 -0.37660061361585562 0 -0.48422759779560409 -0.37130120630367158 0 -0.46725442735267431 -0.37660061361585562 0 -0.46202672064839212 -0.40007602488395211 0 -0.46725442735267431 -0.37660061361585562 0 -0.45645674801697989 -0.38644133236760531 0 -0.46202672064839212 -0.40007602488395211 0 -0.46725442735267431 -0.37660061361585562 0 -0.45645674801697989 -0.38644133236760531 0 -0.4540003998136638 -0.37455519391687309 0 -0.45645674801697989 -0.38644133236760531 0 -0.46202672064839212 -0.40007602488395211 0 -0.44257020456291563 -0.38918913383950271 0 -0.46202672064839212 -0.40007602488395211 0 -0.44257020456291563 -0.38918913383950271 0 -0.44727608925983742 -0.41095911152778891 0 -0.46202672064839212 -0.40007602488395211 0 -0.44257020456291563 -0.38918913383950271 0 -0.44257020456291563 -0.38918913383950271 0 -0.44727608925983742 -0.41095911152778891 0 -0.43479358559901082 -0.4041454901736512 0 -0.44257020456291563 -0.38918913383950271 0 -0.4540003998136638 -0.37455519391687309 0 -0.44172858264042247 -0.37082207246888088 0 -0.45645674801697989 -0.38644133236760531 0 -0.44257020456291563 -0.38918913383950271 0 -0.4540003998136638 -0.37455519391687309 0 -0.46202672064839212 -0.40007602488395211 0 -0.45555437223955858 -0.42914059360647611 0 -0.44727608925983742 -0.41095911152778891 0 -0.46202672064839212 -0.40007602488395211 0 -0.45555437223955858 -0.42914059360647611 0 -0.48101336032419229 -0.41069999664450008 0 -0.46202672064839212 -0.40007602488395211 0 -0.45555437223955858 -0.42914059360647611 0 -0.44727608925983742 -0.41095911152778891 0 -0.43867285131603428 -0.4271457417558665 0 -0.43676601469929588 -0.41441201227470881 0 -0.44727608925983742 -0.41095911152778891 0 -0.43676601469929588 -0.41441201227470881 0 -0.43479358559901082 -0.4041454901736512 0 -0.45555437223955858 -0.42914059360647611 0 -0.44727608925983742 -0.41095911152778891 0 -0.43867285131603428 -0.4271457417558665 0 -0.43867285131603428 -0.4271457417558665 0 -0.42681803064840879 -0.42717069814352421 0 -0.4263356171060747 -0.44269880333887462 0 -0.42681803064840879 -0.42717069814352421 0 -0.41531815884496182 -0.42985383783075998 0 -0.4263356171060747 -0.44269880333887462 0 -0.42681803064840879 -0.42717069814352421 0 -0.42624289495594048 -0.42089725947505818 0 -0.42083332353326591 -0.42146747131641099 0 -0.42681803064840879 -0.42717069814352421 0 -0.43096994786351572 -0.41951492446283251 0 -0.42624289495594048 -0.42089725947505818 0 -0.43867285131603428 -0.4271457417558665 0 -0.42681803064840879 -0.42717069814352421 0 -0.43096994786351572 -0.41951492446283251 0 -0.43867285131603428 -0.4271457417558665 0 -0.43676601469929588 -0.41441201227470881 0 -0.43096994786351572 -0.41951492446283251 0 -0.43676601469929588 -0.41441201227470881 0 -0.43096994786351572 -0.41951492446283251 0 -0.42907264086257813 -0.41311715872526122 0 -0.43676601469929588 -0.41441201227470881 0 -0.42907264086257813 -0.41311715872526122 0 -0.43479358559901082 -0.4041454901736512 0 -0.42907264086257813 -0.41311715872526122 0 -0.43479358559901082 -0.4041454901736512 0 -0.42460885511582858 -0.40417321677700252 0 -0.42907264086257813 -0.41311715872526122 0 -0.41997834854398469 -0.41180534796019508 0 -0.42907264086257813 -0.41311715872526122 0 -0.42635027777857132 -0.41543594397746519 0 -0.41997834854398469 -0.41180534796019508 0 -0.42907264086257813 -0.41311715872526122 0 -0.41997834854398469 -0.41180534796019508 0 -0.42460885511582858 -0.40417321677700252 0 -0.42635027777857132 -0.41543594397746519 0 -0.41997834854398469 -0.41180534796019508 0 -0.42635027777857132 -0.41543594397746519 0 -0.42083332353326591 -0.42146747131641099 0 -0.41997834854398469 -0.41180534796019508 0 -0.43096994786351572 -0.41951492446283251 0 -0.42624289495594048 -0.42089725947505818 0 -0.42635027777857132 -0.41543594397746519 0 -0.43096994786351572 -0.41951492446283251 0 -0.42907264086257813 -0.41311715872526122 0 -0.42635027777857132 -0.41543594397746519 0 -0.42624289495594048 -0.42089725947505818 0 -0.42635027777857132 -0.41543594397746519 0 -0.42083332353326591 -0.42146747131641099 0 -0.42083332353326591 -0.42146747131641099 0 -0.41997834854398469 -0.41180534796019508 0 -0.40992282953163789 -0.42011435591993562 0 -0.41997834854398469 -0.41180534796019508 0 -0.39756877647335259 -0.40857286797681719 0 -0.41997834854398469 -0.41180534796019508 0 -0.40992282953163789 -0.42011435591993562 0 -0.39756877647335259 -0.40857286797681719 0 -0.40992282953163789 -0.42011435591993562 0 -0.41531815884496182 -0.42985383783075998 0 -0.39591554026262499 -0.42887225451549271 0 -0.41531815884496182 -0.42985383783075998 0 -0.39591554026262499 -0.42887225451549271 0 -0.41160927495564159 -0.44339431233754628 0 -0.42083332353326591 -0.42146747131641099 0 -0.40992282953163789 -0.42011435591993562 0 -0.41531815884496182 -0.42985383783075998 0 -0.42681803064840879 -0.42717069814352421 0 -0.42083332353326591 -0.42146747131641099 0 -0.41531815884496182 -0.42985383783075998 0 -0.44257020456291563 -0.38918913383950271 0 -0.42311368847744002 -0.37830224279505142 0 -0.42594061475171041 -0.39368797999533162 0 -0.44257020456291563 -0.38918913383950271 0 -0.42311368847744002 -0.37830224279505142 0 -0.44172858264042247 -0.37082207246888088 0 -0.44257020456291563 -0.38918913383950271 0 -0.42311368847744002 -0.37830224279505142 0 -0.42311368847744002 -0.37830224279505142 0 -0.42594061475171041 -0.39368797999533162 0 -0.416587075656149 -0.38785930376960043 0 -0.44257020456291563 -0.38918913383950271 0 -0.42594061475171041 -0.39368797999533162 0 -0.43479358559901082 -0.4041454901736512 0 -0.42594061475171041 -0.39368797999533162 0 -0.43479358559901082 -0.4041454901736512 0 -0.42460885511582858 -0.40417321677700252 0 -0.41997834854398469 -0.41180534796019508 0 -0.41325908582185972 -0.39811010703057192 0 -0.39770572831670092 -0.39911486077581648 0 -0.41997834854398469 -0.41180534796019508 0 -0.39770572831670092 -0.39911486077581648 0 -0.42594061475171041 -0.39368797999533162 0 -0.42460885511582858 -0.40417321677700252 0 -0.41325908582185972 -0.39811010703057192 0 -0.41997834854398469 -0.41180534796019508 0 -0.42460885511582858 -0.40417321677700252 0 -0.41325908582185972 -0.39811010703057192 0 -0.42594061475171041 -0.39368797999533162 0 -0.41325908582185972 -0.39811010703057192 0 -0.416587075656149 -0.38785930376960043 0 -0.41325908582185972 -0.39811010703057192 0 -0.416587075656149 -0.38785930376960043 0 -0.40403491357358612 -0.38133688525744702 0 -0.42311368847744002 -0.37830224279505142 0 -0.40403491357358612 -0.38133688525744702 0 -0.40365717239196519 -0.36741535175059892 0 -0.42311368847744002 -0.37830224279505142 0 -0.416587075656149 -0.38785930376960043 0 -0.40403491357358612 -0.38133688525744702 0 -0.40403491357358612 -0.38133688525744702 0 -0.39190790742475001 -0.38540387676521748 0 -0.39770572831670092 -0.39911486077581648 0 -0.40403491357358612 -0.38133688525744702 0 -0.39190790742475001 -0.38540387676521748 0 -0.3904578797192948 -0.37473938743617019 0 -0.41325908582185972 -0.39811010703057192 0 -0.40403491357358612 -0.38133688525744702 0 -0.39770572831670092 -0.39911486077581648 0 -0.39770572831670092 -0.39911486077581648 0 -0.37543310808941849 -0.38642437359143528 0 -0.39770572831670092 -0.39911486077581648 0 -0.37515920440272033 -0.40534038799344108 0 -0.37543310808941849 -0.38642437359143528 0 -0.39770572831670092 -0.39911486077581648 0 -0.37515920440272033 -0.40534038799344108 0 -0.39756877647335259 -0.40857286797681719
[...]
<PointData Scalars="" Vectors="displacement," Tensors="">
<DataArray type="Float64" Name="displacement" NumberOfComponents="3" format="ascii">
-0.034997083261432631 -2.5244731325562126e-07 0 -0.034095870414723457 -0.00016183748693586656 0 -0.034997624969922786 -7.1812232691689828e-07 0 -0.034997083261432631 -2.5244731325562126e-07 0 -0.033445901944925083 -9.9680130628182541e-05 0 -0.034095870414723457 -0.00016183748693586656 0 -0.034997083261432631 -2.5244731325562126e-07 0 -0.033445901944925083 -9.9680130628182541e-05 0 -0.031404188440138023 -1.9377642079579062e-07 0 -0.033445901944925083 -9.9680130628182541e-05 0 -0.031404188440138023 -1.9377642079579062e-07 0 -0.032779902188460108 0.0001468979285626049 0 -0.031404188440138023 -1.9377642079579062e-07 0 -0.032779902188460108 0.0001468979285626049 0 -0.031173121605629503 -6.5275542448456014e-05 0 -0.033037621668733412 0.00029108180215242879 0 -0.033158867616427327 0.00029538592992242553 0 -0.032779902188460108 0.0001468979285626049 0 -0.031925312670932779 0.00054626582432897681 0 -0.031851959034068192 0.00017936184315208074 0 -0.032779902188460108 0.0001468979285626049 0 -0.031851959034068192 0.00017936184315208074 0 -0.03202107115288079 -5.5071510206155655e-07 0 -0.033445901944925083 -9.9680130628182541e-05 0 -0.032779902188460108 0.0001468979285626049 0 -0.034095870414723457 -0.00016183748693586656 0 -0.032779902188460108 0.0001468979285626049 0 -0.034095870414723457 -0.00016183748693586656 0 -0.034437056150178925 0.00031126859202960792 0 -0.034095870414723457 -0.00016183748693586656 0 -0.034890563137348368 -1.2282708537054991e-05 0 -0.034437056150178925 0.00031126859202960792 0 -0.034095870414723457 -0.00016183748693586656 0 -0.034997624969922786 -7.1812232691689828e-07 0 -0.034890563137348368 -1.2282708537054991e-05 0 -0.034999995974933452 4.001518421751974e-10 0 -0.034995126378252764 -5.4931910448257016e-07 0 -0.034999993334878014 -8.6296390582701022e-10 0 -0.034998709395468681 5.275478755737987e-07 0 -0.034361998912562239 0.00017279456340158812 0 -0.034999993334878014 -8.6296390582701022e-10 0 -0.034994307281894101 -1.2786872476520986e-06 0 -0.034997131031185173 -2.5261839258103633e-06 0 -0.034999993334878014 -8.6296390582701022e-10 0 -0.034999991671259383 -4.2785525490976959e-09 0 -0.034997131031185173 -2.5261839258103633e-06 0 -0.034995126378252764 -5.4931910448257016e-07 0 -0.034999993334878014 -8.6296390582701022e-10 0 -0.034994307281894101 -1.2786872476520986e-06 0 -0.034995126378252764 -5.4931910448257016e-07 0 -0.034994307281894101 -1.2786872476520986e-06 0 -0.034988474885785381 -4.2014542544337367e-07 0 -0.034361998912562239 0.00017279456340158812 0 -0.033372876639451564 0.00021111471588132081 0 -0.034994307281894101 -1.2786872476520986e-06 0 -0.034992604486067412 -1.0966590487912098e-06 0 -0.034988474885785381 -4.2014542544337367e-07 0 -0.034994307281894101 -1.2786872476520986e-06 0 -0.034992604486067412 -1.0966590487912098e-06 0 -0.034997131031185173 -2.5261839258103633e-06 0 -0.033855383350746865 0.0001109193810933348 0 -0.033372876639451564 0.00021111471588132081 0 -0.032733267914746907 0.00025875998263026351 0 -0.032605889719120595 0.00044176781100199551 0 -0.032409621560631471 0.00036264024393683336 0 -0.032733267914746907 0.00025875998263026351 0 -0.032605889719120595 0.00044176781100199551 0 -0.032796578062759436 0.00049158832513097254 0 -0.032605889719120595 0.00044176781100199551 0 -0.032409621560631471 0.00036264024393683336 0 -0.032577052786821152 0.0006484585144442683 0 -0.031369349360809512 0.00067626325962614456 0 -0.031147848516812432 0.00032257519458939507 0 -0.031573225623704113 0.00039050021699376796 0 -0.033372876639451564 0.00021111471588132081 0 -0.032295717568081563 0.00033529365835656449 0 -0.031147848516812432 0.00032257519458939507 0 -0.031573225623704113 0.00039050021699376796 0 -0.031441658627176572 0.00017307947266959406 0 -0.032577052786821152 0.0006484585144442683 0 -0.032796578062759436 0.00049158832513097254 0 -0.032852358346415506 0.00066390680258909276 0 -0.032605889719120595 0.00044176781100199551 0 -0.032577052786821152 0.0006484585144442683 0 -0.032796578062759436 0.00049158832513097254 0 -0.031369349360809512 0.00067626325962614456 0 -0.031925312670932779 0.00054626582432897681 0 -0.031573225623704113 0.00039050021699376796 0 -0.033372876639451564 0.00021111471588132081 0 -0.033158867616427327 0.00029538592992242553 0 -0.034890563137348368 -1.2282708537054991e-05 0 -0.03501498645385915 0.00027181580239887262 0 -0.034437056150178925 0.00031126859202960792 0 -0.031573225623704113 0.00039050021699376796 0 -0.031851959034068192 0.00017936184315208074 0 -0.03164877366344402 0.00019632516334128219 0 -0.031573225623704113 0.00039050021699376796 0 -0.03164877366344402 0.00019632516334128219 0 -0.031441658627176572 0.00017307947266959406 0 -0.031925312670932779 0.00054626582432897681 0 -0.031573225623704113 0.00039050021699376796 0 -0.031851959034068192 0.00017936184315208074 0 -0.031851959034068192 0.00017936184315208074 0 -0.031843389079512348 5.8185225245281383e-05 0 -0.03202107115288079 -5.5071510206155655e-07 0 -0.031843389079512348 5.8185225245281383e-05 0 -0.031859555737425632 3.4378832037081345e-05 0 -0.03202107115288079 -5.5071510206155655e-07 0 -0.031843389079512348 5.8185225245281383e-05 0 -0.03176911901911364 5.7997208199512583e-05 0 -0.031781306884124283 3.7780146211895612e-05 0 -0.031843389079512348 5.8185225245281383e-05 0 -0.031746171585943166 0.00010396608810400287 0 -0.03176911901911364 5.7997208199512583e-05 0 -0.031851959034068192 0.00017936184315208074 0 -0.031843389079512348 5.8185225245281383e-05 0 -0.031746171585943166 0.00010396608810400287 0 -0.031851959034068192 0.00017936184315208074 0 -0.03164877366344402 0.00019632516334128219 0 -0.031746171585943166 0.00010396608810400287 0 -0.03164877366344402 0.00019632516334128219 0 -0.031746171585943166 0.00010396608810400287 0 -0.031640741802044098 7.7918971422609177e-05 0 -0.03164877366344402 0.00019632516334128219 0 -0.031640741802044098 7.7918971422609177e-05 0 -0.031441658627176572 0.00017307947266959406 0 -0.031640741802044098 7.7918971422609177e-05 0 -0.031441658627176572 0.00017307947266959406 0 -0.031433905440757068 -2.2971705226838628e-05 0 -0.028548521462124249 0.00065664334150779128 0 -0.028445693530146483 0.00069536145539561545 0 -0.031640741802044098 7.7918971422609177e-05 0 -0.031703025225664018 4.2662330752389011e-05 0 -0.031631117852976322 -6.8948587922628229e-05 0 -0.031640741802044098 7.7918971422609177e-05 0 -0.031591585618363394 -0.00011689493604719659 0 -0.031433905440757068 -2.2971705226838628e-05 0 -0.028546201989378461 0.00073655176978905021 0 -0.028445693530146483 0.00069536145539561545 0 -0.031703025225664018 4.2662330752389011e-05 0 -0.031781306884124283 3.7780146211895612e-05 0 -0.031727804408077723 3.8226194767777396e-05 0 -0.031746171585943166 0.00010396608810400287 0 -0.03176911901911364 5.7997208199512583e-05 0 -0.031703025225664018 4.2662330752389011e-05 0 -0.031746171585943166 0.00010396608810400287 0 -0.031640741802044098 7.7918971422609177e-05 0 -0.031703025225664018 4.2662330752389011e-05 0 -0.03176911901911364 5.7997208199512583e-05 0 -0.031703025225664018 4.2662330752389011e-05 0 -0.031781306884124283 3.7780146211895612e-05 0 -0.031781306884124283 3.7780146211895612e-05 0 -0.031727804408077723 3.8226194767777396e-05 0 -0.031777199036032426 1.166694244592565e-05 0 -0.028445693530146483 0.00069536145539561545 0 -0.027690534938471002 0.00046171670786060838 0 -0.031727804408077723 3.8226194767777396e-05 0 -0.031777199036032426 1.166694244592565e-05 0 -0.031716690199800814 -1.9965598908583472e-05 0 -0.031777199036032426 1.166694244592565e-05 0 -0.031859555737425632 3.4378832037081345e-05 0 -0.031808279429010926 -1.9112249442332389e-05 0 -0.031859555737425632 3.4378832037081345e-05 0 -0.031808279429010926 -1.9112249442332389e-05 0 -0.031923509234528712 8.5199417806398157e-05 0 -0.031781306884124283 3.7780146211895612e-05 0 -0.031777199036032426 1.166694244592565e-05 0 -0.031859555737425632 3.4378832037081345e-05 0 -0.031843389079512348 5.8185225245281383e-05 0 -0.031781306884124283 3.7780146211895612e-05 0 -0.031859555737425632 3.4378832037081345e-05 0 -0.031147848516812432 0.00032257519458939507 0 -0.030890272641644866 -5.0445320066570235e-05 0 -0.031216101064211181 3.1609280898841713e-06 0 -0.032577052786821152 0.0006484585144442683 0 -0.032744587656337587 0.00090355087703845275 0 -0.032852358346415506 0.00066390680258909276 0 -0.032295717568081563 0.00033529365835656449 0 -0.031490550862291411 0.00055130695989413358 0 -0.030890272641644866 -5.0445320066570235e-05 0 -0.031216101064211181 3.1609280898841713e-06 0 -0.031080350867818605 -0.00018128711716178762 0 -0.031147848516812432 0.00032257519458939507 0 -0.031216101064211181 3.1609280898841713e-06 0 -0.031441658627176572 0.00017307947266959406 0 -0.031216101064211181 3.1609280898841713e-06 0 -0.031441658627176572 0.00017307947266959406 0 -0.031433905440757068 -2.2971705226838628e-05 0 -0.031591585618363394 -0.00011689493604719659 0 -0.031295055529684743 -0.00025113950186181176 0 -0.031304518940229072 -0.00057418229594735268 0 -0.028445693530146483 0.00069536145539561545 0 -0.027763930512671217 0.00066220148253087437 0 -0.031216101064211181 3.1609280898841713e-06 0 -0.031433905440757068 -2.2971705226838628e-05 0 -0.031295055529684743 -0.00025113950186181176 0 -0.031591585618363394 -0.00011689493604719659 0 -0.031433905440757068 -2.2971705226838628e-05 0 -0.031295055529684743 -0.00025113950186181176 0 -0.031216101064211181 3.1609280898841713e-06 0 -0.031295055529684743 -0.00025113950186181176 0 -0.031080350867818605 -0.00018128711716178762 0 -0.031295055529684743 -0.00025113950186181176 0 -0.031080350867818605 -0.00018128711716178762 0 -0.030921506425072846 -0.00042823304615891456 0 -0.030890272641644866 -5.0445320066570235e-05 0 -0.030921506425072846 -0.00042823304615891456 0 -0.030654266411591611 -0.00043102299952793051 0 -0.030890272641644866 -5.0445320066570235e-05 0 -0.031080350867818605 -0.00018128711716178762 0 -0.030921506425072846 -0.00042823304615891456 0 -0.030921506425072846 -0.00042823304615891456 0 -0.030992029388160799 -0.00070871064155607929 0 -0.031304518940229072 -0.00057418229594735268 0 -0.030921506425072846 -0.00042823304615891456 0 -0.030992029388160799 -0.00070871064155607929 0 -0.030737225608645998 -0.00074347945702972864 0 -0.031295055529684743 -0.00025113950186181176 0 -0.030921506425072846 -0.00042823304615891456 0 -0.031304518940229072 -0.00057418229594735268 0 -0.027763930512671217 0.00066220148253087437 0 -0.026047887520036072 0.0006708155242003517 0 -0.027142113430785049 0.00058201670945850212 0 -0.027242163197631512 0.00019462680300938079 0 -0.026916377563203257 0.00019992204875562584 0 -0.027142113430785049 0.00058201670945850212 0 -0.027242163197631512 0.00019462680300938079 0 -0.027305655957406812 0.00057940520642571979 0 -0.026115285258068305 0.00017338742890231603 0 -0.026047887520036072 0.0006708155242003517 0 -0.031000253482837532 -0.0010935322778235349 0 -0.030737225608645998 -0.00074347945702972864 0 -0.030589237193823601 -0.0010959534229959894 0 -0.030992029388160799 -0.00070871064155607929 0 -0.031000253482837532 -0.0010935322778235349 0 -0.030737225608645998 -0.00074347945702972864 0 -0.026047887520036072 0.0006708155242003517 0 -0.02736298183333858 0.00046991812130054643 0 -0.030992029388160799 -0.00070871064155607929 0 -0.031304518940229072 -0.00057418229594735268 0 -0.031000253482837532 -0.0010935322778235349 0 -0.027372480450834007 0.00096363587428912548 0 -0.027142113430785049 0.00058201670945850212 0 -0.027305655957406812 0.00057940520642571979 0 -0.031777199036032426 1.166694244592565e-05 0 -0.031808279429010926 -1.9112249442332389e-05 0 -0.031716690199800814 -1.9965598908583472e-05 0 -0.031676818171321557 -0.00010354463607175371 0 -0.031808279429010926 -1.9112249442332389e-05 0 -0.031716690199800814 -1.9965598908583472e-05 0 -0.026115285258068305 0.00017338742890231603 0 -0.027690534938471002 0.00046171670786060838 0 -0.031676818171321557 -0.00010354463607175371 0 -0.031808279429010926 -1.9112249442332389e-05 0 -0.031817855580376968 -9.4413964257490443e-05 0 -0.031808279429010926 -1.9112249442332389e-05 0 -0.031883466923066588 -1.6749644627093006e-05 0 -0.031817855580376968 -9.4413964257490443e-05 0 -0.031883466923066588 -1.6749644627093006e-05 0 -0.031914011249729257 -7.4892417939235236e-05 0 -0.031817855580376968 -9.4413964257490443e-05 0 -0.031808279429010926 -1.9112249442332389e-05 0 -0.031883466923066588 -1.6749644627093006e-05 0 -0.031923509234528712 8.5199417806398157e-05 0 -0.031883466923066588 -1.6749644627093006e-05 0 -0.031926070270408557 3.2789303243371949e-05 0 -0.031923509234528712 8.5199417806398157e-05 0 -0.031567916967413852 0.00053623926349365299 0 -0.029664988682241461 0.00069262915036309887 0 -0.031000979956164968 0.00017344991544242393 0 -0.023989348369197448 0.0014502092633354557 0 -0.024159137676858639 0.00076626667317428751 0 -0.024980381707931633 0.00095584024771963789 0 -0.028226346132818731 -0.00060478098251815805 0 -0.027393793589794914 -8.5194057169007088e-05 0 -0.028226346132818731 -0.00060478098251815805 0 -0.028235610382579188 -0.00060163969194026556 0 -0.028226346132818731 -0.00060478098251815805 0 -0.027442447899702183 0.0001085622397232451 0 -0.031883466923066588 -1.6749644627093006e-05 0 -0.031926070270408557 3.2789303243371949e-05 0 -0.031917895767901397 -2.7214949918982836e-05 0 -0.031883466923066588 -1.6749644627093006e-05 0 -0.031917895767901397 -2.7214949918982836e-05 0 -0.031914011249729257 -7.4892417939235236e-05 0 -0.027442447899702183 0.0001085622397232451 0 -0.026558437070977867 0.00071100228656529436 0 -0.024159137676858639 0.00076626667317428751 0 -0.02462731874444947 0.00050592034800084958 0 -0.024334508134566623 3.7119534830809213e-05 0 -0.02462731874444947 0.00050592034800084958 0 -0.024980381707931633 0.00095584024771963789 0 -0.024893882325662808 4.7551941260200525e-06 0 -0.024980381707931633 0.00095584024771963789 0 -0.025546775362293418 -0.00012559885887865064 0 -0.024893882325662808 4.7551941260200525e-06 0 -0.02462731874444947 0.00050592034800084958 0 -0.024893882325662808 4.7551941260200525e-06 0 -0.024334508134566623 3.7119534830809213e-05 0 -0.024159137676858639 0.00076626667317428751 0 -0.02462731874444947 0.00050592034800084958 0 -0.024980381707931633 0.00095584024771963789 0 -0.026667540559592036 1.0510488883454121e-07 0 -0.027393793589794914 -8.5194057169007088e-05 0 -0.026663327545095736 1.6929579796181177e-06 0 -0.024980381707931633 0.00095584024771963789 0 -0.025546775362293418 -0.00012559885887865064 0 -0.026669717364715614 2.7730094023907956e-06 0 -0.029664988682241461 0.00069262915036309887 0 -0.028698723674343965 -5.5712944169063784e-07 0 -0.029664988682241461 0.00069262915036309887 0 -0.031000979956164968 0.00017344991544242393 0 -0.028698723674343965 -5.5712944169063784e-07 0 -0.031000979956164968 0.00017344991544242393 0 -0.028698723674343965 -5.5712944169063784e-07 0 -0.031173121605629503 -6.5275542448456014e-05 0 -0.031404188440138023 -1.9377642079579062e-07 0 -0.028698723674343965 -5.5712944169063784e-07 0 -0.031173121605629503 -6.5275542448456014e-05 0 -0.031000979956164968 0.00017344991544242393 0 -0.031173121605629503 -6.5275542448456014e-05 0 -0.031837364460329483 1.7562834489053127e-05 0 -0.032779902188460108 0.0001468979285626049 0 -0.031173121605629503 -6.5275542448456014e-05 0 -0.031837364460329483 1.7562834489053127e-05 0 -0.032779902188460108 0.0001468979285626049 0 -0.031837364460329483 1.7562834489053127e-05 0 -0.03202107115288079 -5.5071510206155655e-07 0 -0.031837364460329483 1.7562834489053127e-05 0 -0.03202107115288079 -5.5071510206155655e-07 0 -0.031798999721100285 9.3555882506713101e-05 0 -0.03202107115288079 -5.5071510206155655e-07 0 -0.031923509234528712 8.5199417806398157e-05 0 -0.031798999721100285 9.3555882506713101e-05 0 -0.031859555737425632 3.4378832037081345e-05 0 -0.03202107115288079 -5.5071510206155655e-07 0 -0.031923509234528712 8.5199417806398157e-05 0 -0.031609210117239044 0.00049255692529331918 0 -0.031923509234528712 8.5199417806398157e-05 0 -0.031622625433395911 0.00040472455262449789 0 -0.031923509234528712 8.5199417806398157e-05 0 -0.031622625433395911 0.00040472455262449789 0 -0.031798999721100285 9.3555882506713101e-05 0 -0.028226346132818731 -0.00060478098251815805 0 -0.029118860635373427 -0.00082535623196146324 0 -0.031000979956164968 0.00017344991544242393 0 -0.031622625433395911 0.00040472455262449789 0 -0.031798999721100285 9.3555882506713101e-05 0 -0.031567916967413852 0.00053623926349365299 0 -0.031000979956164968 0.00017344991544242393 0 -0.031622625433395911 0.00040472455262449789 0 -0.031000979956164968 0.00017344991544242393 0 -0.031837364460329483 1.7562834489053127e-05 0 -0.031798999721100285 9.3555882506713101e-05 0 -0.032226569532337518 0.00017732508754721561 0 -0.030665025984836516 0.00062854168776725291 0 -0.034752079716215453 -0.00043907269010543838 0 -0.034805006346898974 -0.0018294405574384299 0 -0.034072598248405146 -0.00071193185406919185 0 -0.034898687378222243 0.00021591925429472847 0 -0.03497051482719251 0.00016492880773882906 0 -0.034972703977283803 0.00029417074090656777 0 -0.034898687378222243 0.00021591925429472847 0 -0.034884516863212006 0.00032686214123736591 0 -0.034972703977283803 0.00029417074090656777 0 -0.034898687378222243 0.00021591925429472847 0 -0.034812578790936473 0.00030365044385271633 0 -0.034884516863212006 0.00032686214123736591 0 -0.034898687378222243 0.00021591925429472847 0 -0.034924325531640821 0.00010738024604620361 0 -0.034906012282904388 9.8021171307370865e-05 0 -0.034898687378222243 0.00021591925429472847 0 -0.034924325531640821 0.00010738024604620361 0 -0.03497051482719251 0.00016492880773882906 0 -0.032226569532337518 0.00017732508754721561 0 -0.032692622603101622 0.00018462481998880286 0 -0.034924325531640821 0.00010738024604620361 0 -0.03497051482719251 0.00016492880773882906 0 -0.034883886565872824 7.2972441705259912e-05 0 -0.034752079716215453 -0.00043907269010543838 0 -0.034883886565872824 7.2972441705259912e-05 0 -0.034148685915604132 4.8354557661775019e-05 0 -0.034883886565872824 7.2972441705259912e-05 0 -0.034999915785441711 1.3355000639059974e-07 0 -0.034945691583856756 4.6293413948521604e-05 0 -0.034883886565872824 7.2972441705259912e-05 0 -0.034999915785441711 1.3355000639059974e-07 0 -0.034677281810212082 8.438302676487876e-05 0 -0.034999915785441711 1.3355000639059974e-07 0 -0.034945691583856756 4.6293413948521604e-05 0 -0.034999877192459075 -1.3568942012870967e-08 0 -0.034924325531640821 0.00010738024604620361 0 -0.034883886565872824 7.2972441705259912e-05 0 -0.034945691583856756 4.6293413948521604e-05 0 -0.034924325531640821 0.00010738024604620361 0 -0.034945691583856756 4.6293413948521604e-05 0 -0.034906012282904388 9.8021171307370865e-05 0 -0.034906012282904388 9.8021171307370865e-05 0 -0.034932262748913132 8.9562673305203391e-06 0 -0.034862548498078752 7.2777683693374509e-05 0 -0.034945691583856756 4.6293413948521604e-05 0 -0.034906012282904388 9.8021171307370865e-05 0 -0.034932262748913132 8.9562673305203391e-06 0 -0.034999877192459075 -1.3568942012870967e-08 0 -0.034932262748913132 8.9562673305203391e-06 0 -0.034999850132464129 1.243177649680092e-08 0 -0.034945691583856756 4.6293413948521604e-05 0 -0.034999877192459075 -1.3568942012870967e-08 0 -0.034932262748913132 8.9562673305203391e-06 0 -0.034932262748913132 8.9562673305203391e-06 0 -0.034999850132464129 1.243177649680092e-08 0 -0.034891369975902663 -2.4840177245415765e-05 0 -0.034891369975902663 -2.4840177245415765e-05 0 -0.034862548498078752 7.2777683693374509e-05 0 -0.034684620040977915 6.3152835866785436e-05 0 -0.034932262748913132 8.9562673305203391e-06 0 -0.034891369975902663 -2.4840177245415765e-05 0 -0.034862548498078752 7.2777683693374509e-05 0 -0.034862548498078752 7.2777683693374509e-05 0 -0.03473818933026019 0.00017721455463862453 0 -0.034684620040977915 6.31528