<?xml version="1.0"?>
<VTKFile type="UnstructuredGrid" version="0.1" byte_order="LittleEndian">
<UnstructuredGrid>
<Piece NumberOfPoints="31898" NumberOfCells="11152">
<Points>
<DataArray type="Float64" NumberOfComponents="3" format="ascii">
-0.5 -0.5 0 -0.47620991077874902 -0.44978878706170539 0 -0.49999999999999473 -0.42132396840504388 0 -0.5 -0.5 0 -0.47160970827802529 -0.4793630013852106 0 -0.47620991077874902 -0.44978878706170539 0 -0.5 -0.5 0 -0.47160970827802529 -0.4793630013852106 0 -0.44860394795025399 -0.5 0 -0.47160970827802529 -0.4793630013852106 0 -0.44860394795025399 -0.5 0 -0.4490820238307246 -0.45820516232899983 0 -0.44860394795025399 -0.5 0 -0.4490820238307246 -0.45820516232899983 0 -0.42881687682924802 -0.47781464288736519 0 -0.4490820238307246 -0.45820516232899983 0 -0.45555437223955858 -0.42914059360647611 0 -0.4490820238307246 -0.45820516232899983 0 -0.45555437223955858 -0.42914059360647611 0 -0.43867285131603428 -0.4271457417558665 0 -0.4490820238307246 -0.45820516232899983 0 -0.43867285131603428 -0.4271457417558665 0 -0.4263356171060747 -0.44269880333887462 0 -0.47160970827802529 -0.4793630013852106 0 -0.4490820238307246 -0.45820516232899983 0 -0.47620991077874902 -0.44978878706170539 0 -0.4490820238307246 -0.45820516232899983 0 -0.47620991077874902 -0.44978878706170539 0 -0.45555437223955858 -0.42914059360647611 0 -0.47620991077874902 -0.44978878706170539 0 -0.48101336032419229 -0.41069999664450008 0 -0.45555437223955858 -0.42914059360647611 0 -0.47620991077874902 -0.44978878706170539 0 -0.49999999999999473 -0.42132396840504388 0 -0.48101336032419229 -0.41069999664450008 0 -0.49999999999999473 -0.42132396840504388 0 -0.48101336032419229 -0.41069999664450008 0 -0.5 -0.393886241813306 0 -0.49999999999999473 -0.42132396840504388 0 -0.48101336032419229 -0.41069999664450008 0 -0.5 -0.393886241813306 0 -0.47854472220918332 -0.38978458738689759 0 -0.48422759779560409 -0.37130120630367158 0 -0.5 -0.393886241813306 0 -0.5 -0.36644851522156802 0 -0.48422759779560409 -0.37130120630367158 0 -0.48101336032419229 -0.41069999664450008 0 -0.5 -0.393886241813306 0 -0.47854472220918332 -0.38978458738689759 0 -0.48101336032419229 -0.41069999664450008 0 -0.47854472220918332 -0.38978458738689759 0 -0.46202672064839212 -0.40007602488395211 0 -0.48101336032419229 -0.41069999664450008 0 -0.46202672064839212 -0.40007602488395211 0 -0.47854472220918332 -0.38978458738689759 0 -0.46725442735267431 -0.37660061361585562 0 -0.46202672064839212 -0.40007602488395211 0 -0.47854472220918332 -0.38978458738689759 0 -0.46725442735267431 -0.37660061361585562 0 -0.48422759779560409 -0.37130120630367158 0 -0.46725442735267431 -0.37660061361585562 0 -0.46202672064839212 -0.40007602488395211 0 -0.46725442735267431 -0.37660061361585562 0 -0.45645674801697989 -0.38644133236760531 0 -0.46202672064839212 -0.40007602488395211 0 -0.46725442735267431 -0.37660061361585562 0 -0.45645674801697989 -0.38644133236760531 0 -0.4540003998136638 -0.37455519391687309 0 -0.45645674801697989 -0.38644133236760531 0 -0.46202672064839212 -0.40007602488395211 0 -0.44257020456291563 -0.38918913383950271 0 -0.46202672064839212 -0.40007602488395211 0 -0.44257020456291563 -0.38918913383950271 0 -0.44727608925983742 -0.41095911152778891 0 -0.46202672064839212 -0.40007602488395211 0 -0.44257020456291563 -0.38918913383950271 0 -0.44257020456291563 -0.38918913383950271 0 -0.44727608925983742 -0.41095911152778891 0 -0.43479358559901082 -0.4041454901736512 0 -0.44257020456291563 -0.38918913383950271 0 -0.4540003998136638 -0.37455519391687309 0 -0.44172858264042247 -0.37082207246888088 0 -0.45645674801697989 -0.38644133236760531 0 -0.44257020456291563 -0.38918913383950271 0 -0.4540003998136638 -0.37455519391687309 0 -0.46202672064839212 -0.40007602488395211 0 -0.45555437223955858 -0.42914059360647611 0 -0.44727608925983742 -0.41095911152778891 0 -0.46202672064839212 -0.40007602488395211 0 -0.45555437223955858 -0.42914059360647611 0 -0.48101336032419229 -0.41069999664450008 0 -0.46202672064839212 -0.40007602488395211 0 -0.45555437223955858 -0.42914059360647611 0 -0.44727608925983742 -0.41095911152778891 0 -0.43867285131603428 -0.4271457417558665 0 -0.43676601469929588 -0.41441201227470881 0 -0.44727608925983742 -0.41095911152778891 0 -0.43676601469929588 -0.41441201227470881 0 -0.43479358559901082 -0.4041454901736512 0 -0.45555437223955858 -0.42914059360647611 0 -0.44727608925983742 -0.41095911152778891 0 -0.43867285131603428 -0.4271457417558665 0 -0.43867285131603428 -0.4271457417558665 0 -0.42681803064840879 -0.42717069814352421 0 -0.4263356171060747 -0.44269880333887462 0 -0.42681803064840879 -0.42717069814352421 0 -0.41531815884496182 -0.42985383783075998 0 -0.4263356171060747 -0.44269880333887462 0 -0.42681803064840879 -0.42717069814352421 0 -0.42624289495594048 -0.42089725947505818 0 -0.42083332353326591 -0.42146747131641099 0 -0.42681803064840879 -0.42717069814352421 0 -0.43096994786351572 -0.41951492446283251 0 -0.42624289495594048 -0.42089725947505818 0 -0.43867285131603428 -0.4271457417558665 0 -0.42681803064840879 -0.42717069814352421 0 -0.43096994786351572 -0.41951492446283251 0 -0.43867285131603428 -0.4271457417558665 0 -0.43676601469929588 -0.41441201227470881 0 -0.43096994786351572 -0.41951492446283251 0 -0.43676601469929588 -0.41441201227470881 0 -0.43096994786351572 -0.41951492446283251 0 -0.42907264086257813 -0.41311715872526122 0 -0.43676601469929588 -0.41441201227470881 0 -0.42907264086257813 -0.41311715872526122 0 -0.43479358559901082 -0.4041454901736512 0 -0.42907264086257813 -0.41311715872526122 0 -0.43479358559901082 -0.4041454901736512 0 -0.42460885511582858 -0.40417321677700252 0 -0.42907264086257813 -0.41311715872526122 0 -0.41997834854398469 -0.41180534796019508 0 -0.42907264086257813 -0.41311715872526122 0 -0.42635027777857132 -0.41543594397746519 0 -0.41997834854398469 -0.41180534796019508 0 -0.42907264086257813 -0.41311715872526122 0 -0.41997834854398469 -0.41180534796019508 0 -0.42460885511582858 -0.40417321677700252 0 -0.42635027777857132 -0.41543594397746519 0 -0.41997834854398469 -0.41180534796019508 0 -0.42635027777857132 -0.41543594397746519 0 -0.42083332353326591 -0.42146747131641099 0 -0.41997834854398469 -0.41180534796019508 0 -0.43096994786351572 -0.41951492446283251 0 -0.42624289495594048 -0.42089725947505818 0 -0.42635027777857132 -0.41543594397746519 0 -0.43096994786351572 -0.41951492446283251 0 -0.42907264086257813 -0.41311715872526122 0 -0.42635027777857132 -0.41543594397746519 0 -0.42624289495594048 -0.42089725947505818 0 -0.42635027777857132 -0.41543594397746519 0 -0.42083332353326591 -0.42146747131641099 0 -0.42083332353326591 -0.42146747131641099 0 -0.41997834854398469 -0.41180534796019508 0 -0.40992282953163789 -0.42011435591993562 0 -0.41997834854398469 -0.41180534796019508 0 -0.39756877647335259 -0.40857286797681719 0 -0.41997834854398469 -0.41180534796019508 0 -0.40992282953163789 -0.42011435591993562 0 -0.39756877647335259 -0.40857286797681719 0 -0.40992282953163789 -0.42011435591993562 0 -0.41531815884496182 -0.42985383783075998 0 -0.39591554026262499 -0.42887225451549271 0 -0.41531815884496182 -0.42985383783075998 0 -0.39591554026262499 -0.42887225451549271 0 -0.41160927495564159 -0.44339431233754628 0 -0.42083332353326591 -0.42146747131641099 0 -0.40992282953163789 -0.42011435591993562 0 -0.41531815884496182 -0.42985383783075998 0 -0.42681803064840879 -0.42717069814352421 0 -0.42083332353326591 -0.42146747131641099 0 -0.41531815884496182 -0.42985383783075998 0 -0.44257020456291563 -0.38918913383950271 0 -0.42311368847744002 -0.37830224279505142 0 -0.42594061475171041 -0.39368797999533162 0 -0.44257020456291563 -0.38918913383950271 0 -0.42311368847744002 -0.37830224279505142 0 -0.44172858264042247 -0.37082207246888088 0 -0.44257020456291563 -0.38918913383950271 0 -0.42311368847744002 -0.37830224279505142 0 -0.42311368847744002 -0.37830224279505142 0 -0.42594061475171041 -0.39368797999533162 0 -0.416587075656149 -0.38785930376960043 0 -0.44257020456291563 -0.38918913383950271 0 -0.42594061475171041 -0.39368797999533162 0 -0.43479358559901082 -0.4041454901736512 0 -0.42594061475171041 -0.39368797999533162 0 -0.43479358559901082 -0.4041454901736512 0 -0.42460885511582858 -0.40417321677700252 0 -0.41997834854398469 -0.41180534796019508 0 -0.41325908582185972 -0.39811010703057192 0 -0.39770572831670092 -0.39911486077581648 0 -0.41997834854398469 -0.41180534796019508 0 -0.39770572831670092 -0.39911486077581648 0 -0.42594061475171041 -0.39368797999533162 0 -0.42460885511582858 -0.40417321677700252 0 -0.41325908582185972 -0.39811010703057192 0 -0.41997834854398469 -0.41180534796019508 0 -0.42460885511582858 -0.40417321677700252 0 -0.41325908582185972 -0.39811010703057192 0 -0.42594061475171041 -0.39368797999533162 0 -0.41325908582185972 -0.39811010703057192 0 -0.416587075656149 -0.38785930376960043 0 -0.41325908582185972 -0.39811010703057192 0 -0.416587075656149 -0.38785930376960043 0 -0.40403491357358612 -0.38133688525744702 0 -0.42311368847744002 -0.37830224279505142 0 -0.40403491357358612 -0.38133688525744702 0 -0.40365717239196519 -0.36741535175059892 0 -0.42311368847744002 -0.37830224279505142 0 -0.416587075656149 -0.38785930376960043 0 -0.40403491357358612 -0.38133688525744702 0 -0.40403491357358612 -0.38133688525744702 0 -0.39190790742475001 -0.38540387676521748 0 -0.39770572831670092 -0.39911486077581648 0 -0.40403491357358612 -0.38133688525744702 0 -0.39190790742475001 -0.38540387676521748 0 -0.3904578797192948 -0.37473938743617019 0 -0.41325908582185972 -0.39811010703057192 0 -0.40403491357358612 -0.38133688525744702 0 -0.39770572831670092 -0.39911486077581648 0 -0.39770572831670092 -0.39911486077581648 0 -0.37543310808941849 -0.38642437359143528 0 -0.39770572831670092 -0.39911486077581648 0 -0.37515920440272033 -0.40534038799344108 0 -0.37543310808941849 -0.38642437359143528 0 -0.39770572831670092 -0.39911486077581648 0 -0.37515920440272033 -0.40534038799344108 0 -0.39756877647335259 -0.40857286797681719
[...]
<PointData Scalars="" Vectors="displacement," Tensors="">
<DataArray type="Float64" Name="displacement" NumberOfComponents="3" format="ascii">
-1.6709563621925904e-06 -0.03499680324672938 0 -0.00016857351253907771 -0.032706682013938705 0 3.5249994029031627e-06 -0.029500794959879756 0 -1.6709563621925904e-06 -0.03499680324672938 0 -0.00015325334540687788 -0.034190769215039725 0 -0.00016857351253907771 -0.032706682013938705 0 -1.6709563621925904e-06 -0.03499680324672938 0 -0.00015325334540687788 -0.034190769215039725 0 1.5417427645952125e-08 -0.034999095703711354 0 -0.00015325334540687788 -0.034190769215039725 0 1.5417427645952125e-08 -0.034999095703711354 0 -8.2078153197434579e-05 -0.0341624117835167 0 1.5417427645952125e-08 -0.034999095703711354 0 -8.2078153197434579e-05 -0.0341624117835167 0 -6.4418962166027698e-05 -0.034731416222286572 0 -0.00031832814956411076 -0.032062930105559787 0 -5.7689073746737317e-05 -0.031180070689154602 0 -8.2078153197434579e-05 -0.0341624117835167 0 0.00034290415427913596 -0.034136141485300066 0 0.00036624922569255608 -0.034256345687115414 0 -8.2078153197434579e-05 -0.0341624117835167 0 0.00036624922569255608 -0.034256345687115414 0 0.00018400323502200031 -0.034480485281729895 0 -0.00015325334540687788 -0.034190769215039725 0 -8.2078153197434579e-05 -0.0341624117835167 0 -0.00016857351253907771 -0.032706682013938705 0 -8.2078153197434579e-05 -0.0341624117835167 0 -0.00016857351253907771 -0.032706682013938705 0 0.00060850755732991322 -0.033332172137911675 0 -0.00016857351253907771 -0.032706682013938705 0 0.0012983817992981337 -0.031598710328950438 0 0.00060850755732991322 -0.033332172137911675 0 -0.00016857351253907771 -0.032706682013938705 0 3.5249994029031627e-06 -0.029500794959879756 0 0.0012983817992981337 -0.031598710328950438 0 1.9721689937233412e-06 -0.029489659097880039 0 0.00029958146767667152 -0.027200200657291323 0 -8.3272502567211273e-07 -0.027572048977785646 0 9.9059661032706597e-07 -0.029491649809710391 0 0.00040591528471518157 -0.029017852377751965 0 -8.3272502567211273e-07 -0.027572048977785646 0 -7.8674952179615956e-05 -0.026493143612067144 0 -0.00016636271407346838 -0.025783321626587429 0 -8.3272502567211273e-07 -0.027572048977785646 0 -2.5276598455453277e-07 -0.02565117497831838 0 -0.00016636271407346838 -0.025783321626587429 0 0.00029958146767667152 -0.027200200657291323 0 -8.3272502567211273e-07 -0.027572048977785646 0 -7.8674952179615956e-05 -0.026493143612067144 0 0.00029958146767667152 -0.027200200657291323 0 -7.8674952179615956e-05 -0.026493143612067144 0 0.00013139650644573261 -0.026241554523394831 0 0.00040591528471518157 -0.029017852377751965 0 0.00050363175511589618 -0.028048204271028315 0 -7.8674952179615956e-05 -0.026493143612067144 0 -0.00020419292300638225 -0.026007007684384888 0 0.00013139650644573261 -0.026241554523394831 0 -7.8674952179615956e-05 -0.026493143612067144 0 -0.00020419292300638225 -0.026007007684384888 0 -0.00016636271407346838 -0.025783321626587429 0 0.000246518527572352 -0.025473259215764512 0 0.00050363175511589618 -0.028048204271028315 0 6.2690367129599939e-05 -0.020643852666561321 0 -0.00037166625647286637 -0.021111667892794457 0 -0.00094472879129254411 -0.020900045156989497 0 6.2690367129599939e-05 -0.020643852666561321 0 -0.00037166625647286637 -0.021111667892794457 0 0.00010967736532693419 -0.021186099190052082 0 -0.00037166625647286637 -0.021111667892794457 0 -0.00094472879129254411 -0.020900045156989497 0 -0.00049968036013594457 -0.021701599849023392 0 0.00029035819256802446 -0.034300414284368648 0 5.9367795066732323e-05 -0.034220024552237265 0 0.00036572227006888806 -0.034222000273130528 0 0.00050363175511589618 -0.028048204271028315 0 0.0001937313070827859 -0.027763698644066345 0 5.9367795066732323e-05 -0.034220024552237265 0 0.00036572227006888806 -0.034222000273130528 0 0.00030983911881769279 -0.034130344400234804 0 -0.00049968036013594457 -0.021701599849023392 0 0.00010967736532693419 -0.021186099190052082 0 0.00026011852812584291 -0.021719128958320393 0 -0.00037166625647286637 -0.021111667892794457 0 -0.00049968036013594457 -0.021701599849023392 0 0.00010967736532693419 -0.021186099190052082 0 0.00029035819256802446 -0.034300414284368648 0 0.00034290415427913596 -0.034136141485300066 0 0.00036572227006888806 -0.034222000273130528 0 0.00050363175511589618 -0.028048204271028315 0 -5.7689073746737317e-05 -0.031180070689154602 0 0.0012983817992981337 -0.031598710328950438 0 0.0019968980099592804 -0.032739281522478306 0 0.00060850755732991322 -0.033332172137911675 0 0.00036572227006888806 -0.034222000273130528 0 0.00036624922569255608 -0.034256345687115414 0 0.00041320611858126324 -0.034200688509165827 0 0.00036572227006888806 -0.034222000273130528 0 0.00041320611858126324 -0.034200688509165827 0 0.00030983911881769279 -0.034130344400234804 0 0.00034290415427913596 -0.034136141485300066 0 0.00036572227006888806 -0.034222000273130528 0 0.00036624922569255608 -0.034256345687115414 0 0.00036624922569255608 -0.034256345687115414 0 0.00033873033654641289 -0.034370711892643714 0 0.00018400323502200031 -0.034480485281729895 0 0.00033873033654641289 -0.034370711892643714 0 0.00030526460823893228 -0.034532723045966225 0 0.00018400323502200031 -0.034480485281729895 0 0.00033873033654641289 -0.034370711892643714 0 0.00039594913653466995 -0.034327696154927333 0 0.00038556440617167813 -0.034423762318830244 0 0.00033873033654641289 -0.034370711892643714 0 0.00041024215726309372 -0.034247085236378913 0 0.00039594913653466995 -0.034327696154927333 0 0.00036624922569255608 -0.034256345687115414 0 0.00033873033654641289 -0.034370711892643714 0 0.00041024215726309372 -0.034247085236378913 0 0.00036624922569255608 -0.034256345687115414 0 0.00041320611858126324 -0.034200688509165827 0 0.00041024215726309372 -0.034247085236378913 0 0.00041320611858126324 -0.034200688509165827 0 0.00041024215726309372 -0.034247085236378913 0 0.00049751980732473851 -0.034147617178407891 0 0.00041320611858126324 -0.034200688509165827 0 0.00049751980732473851 -0.034147617178407891 0 0.00030983911881769279 -0.034130344400234804 0 0.00049751980732473851 -0.034147617178407891 0 0.00030983911881769279 -0.034130344400234804 0 0.00032546420370359731 -0.033893430419527887 0 0.001007272472251757 -0.033343769475718474 0 0.0010137172567176616 -0.033247830900930801 0 0.00049751980732473851 -0.034147617178407891 0 0.00045268173809528744 -0.034274030899961304 0 0.00060355638212477279 -0.03451040394092985 0 0.00049751980732473851 -0.034147617178407891 0 0.0005771591718114437 -0.033747516911173399 0 0.00032546420370359731 -0.033893430419527887 0 0.0010217866268570047 -0.033304706757495826 0 0.0010137172567176616 -0.033247830900930801 0 0.00045268173809528744 -0.034274030899961304 0 0.00038556440617167813 -0.034423762318830244 0 0.00051432301904841043 -0.034429194162382992 0 0.00041024215726309372 -0.034247085236378913 0 0.00039594913653466995 -0.034327696154927333 0 0.00045268173809528744 -0.034274030899961304 0 0.00041024215726309372 -0.034247085236378913 0 0.00049751980732473851 -0.034147617178407891 0 0.00045268173809528744 -0.034274030899961304 0 0.00039594913653466995 -0.034327696154927333 0 0.00045268173809528744 -0.034274030899961304 0 0.00038556440617167813 -0.034423762318830244 0 0.00038556440617167813 -0.034423762318830244 0 0.00051432301904841043 -0.034429194162382992 0 0.00040167790786773755 -0.034564264529967775 0 0.0010137172567176616 -0.033247830900930801 0 0.00084369435241807029 -0.033116600393240971 0 0.00051432301904841043 -0.034429194162382992 0 0.00040167790786773755 -0.034564264529967775 0 0.00050858029237715256 -0.034684213459049117 0 0.00040167790786773755 -0.034564264529967775 0 0.00030526460823893228 -0.034532723045966225 0 0.00031704684158147321 -0.034706217308675527 0 0.00030526460823893228 -0.034532723045966225 0 0.00031704684158147321 -0.034706217308675527 0 0.00018854108606544098 -0.034624252786244973 0 0.00038556440617167813 -0.034423762318830244 0 0.00040167790786773755 -0.034564264529967775 0 0.00030526460823893228 -0.034532723045966225 0 0.00033873033654641289 -0.034370711892643714 0 0.00038556440617167813 -0.034423762318830244 0 0.00030526460823893228 -0.034532723045966225 0 5.9367795066732323e-05 -0.034220024552237265 0 -0.00041654580539416579 -0.033765072455490937 0 6.7125539099228751e-05 -0.033877332535547637 0 -0.00049968036013594457 -0.021701599849023392 0 -6.0741177584538539e-05 -0.022539106436619133 0 0.00026011852812584291 -0.021719128958320393 0 0.0001937313070827859 -0.027763698644066345 0 0.00017250927757855221 -0.027592228062985748 0 -0.00041654580539416579 -0.033765072455490937 0 6.7125539099228751e-05 -0.033877332535547637 0 -0.00012873079346099192 -0.033554590145887395 0 5.9367795066732323e-05 -0.034220024552237265 0 6.7125539099228751e-05 -0.033877332535547637 0 0.00030983911881769279 -0.034130344400234804 0 6.7125539099228751e-05 -0.033877332535547637 0 0.00030983911881769279 -0.034130344400234804 0 0.00032546420370359731 -0.033893430419527887 0 0.0005771591718114437 -0.033747516911173399 0 0.00018956370132830881 -0.033467585198464662 0 0.00026992500013151466 -0.032877152340876827 0 0.0010137172567176616 -0.033247830900930801 0 0.00093417942036657059 -0.032074911519085592 0 6.7125539099228751e-05 -0.033877332535547637 0 0.00032546420370359731 -0.033893430419527887 0 0.00018956370132830881 -0.033467585198464662 0 0.0005771591718114437 -0.033747516911173399 0 0.00032546420370359731 -0.033893430419527887 0 0.00018956370132830881 -0.033467585198464662 0 6.7125539099228751e-05 -0.033877332535547637 0 0.00018956370132830881 -0.033467585198464662 0 -0.00012873079346099192 -0.033554590145887395 0 0.00018956370132830881 -0.033467585198464662 0 -0.00012873079346099192 -0.033554590145887395 0 -0.00036368020762756636 -0.033094304727668986 0 -0.00041654580539416579 -0.033765072455490937 0 -0.00036368020762756636 -0.033094304727668986 0 -0.00084603903258825396 -0.033057625884203669 0 -0.00041654580539416579 -0.033765072455490937 0 -0.00012873079346099192 -0.033554590145887395 0 -0.00036368020762756636 -0.033094304727668986 0 -0.00036368020762756636 -0.033094304727668986 0 -0.00022327473042804038 -0.032622667432858424 0 0.00026992500013151466 -0.032877152340876827 0 -0.00036368020762756636 -0.033094304727668986 0 -0.00022327473042804038 -0.032622667432858424 0 -0.00063326107991345973 -0.032546671401938017 0 0.00018956370132830881 -0.033467585198464662 0 -0.00036368020762756636 -0.033094304727668986 0 0.00026992500013151466 -0.032877152340876827 0 0.00093417942036657059 -0.032074911519085592 0 0.00077920425118793853 -0.030188514450798988 0 0.00098116285681703924 -0.032174552359321339 0 0.0011939301188033373 -0.031396444454983102 0 0.00054511426176622889 -0.031400535522183859 0 0.00098116285681703924 -0.032174552359321339 0 0.0011939301188033373 -0.031396444454983102 0 0.0013071774468736762 -0.03217169512661637 0 0.00056581276118423311 -0.032304868048703417 0 0.00077920425118793853 -0.030188514450798988 0 -0.00017264266246568095 -0.031961629953740668 0 -0.00063326107991345973 -0.032546671401938017 0 -0.00084879045709182206 -0.031948098335124887 0 -0.00022327473042804038 -0.032622667432858424 0 -0.00017264266246568095 -0.031961629953740668 0 -0.00063326107991345973 -0.032546671401938017 0 0.00077920425118793853 -0.030188514450798988 0 0.00033620239338040927 -0.028403469361265147 0 -0.00022327473042804038 -0.032622667432858424 0 0.00026992500013151466 -0.032877152340876827 0 -0.00017264266246568095 -0.031961629953740668 0 0.0014195186436365566 -0.032950995453554219 0 0.00098116285681703924 -0.032174552359321339 0 0.0013071774468736762 -0.03217169512661637 0 0.00040167790786773755 -0.034564264529967775 0 0.00031704684158147321 -0.034706217308675527 0 0.00050858029237715256 -0.034684213459049117 0 0.00052681401525573723 -0.034865434954572935 0 0.00031704684158147321 -0.034706217308675527 0 0.00050858029237715256 -0.034684213459049117 0 0.00056581276118423311 -0.032304868048703417 0 0.00084369435241807029 -0.033116600393240971 0 0.00052681401525573723 -0.034865434954572935 0 0.00031704684158147321 -0.034706217308675527 0 0.0002660397121460287 -0.034869646106707175 0 0.00031704684158147321 -0.034706217308675527 0 0.0001812899730443801 -0.034734655554149313 0 0.0002660397121460287 -0.034869646106707175 0 0.0001812899730443801 -0.034734655554149313 0 4.8040036659740416e-05 -0.034866437619100091 0 0.0002660397121460287 -0.034869646106707175 0 0.00031704684158147321 -0.034706217308675527 0 0.0001812899730443801 -0.034734655554149313 0 0.00018854108606544098 -0.034624252786244973 0 0.0001812899730443801 -0.034734655554149313 0 0.00010835184807718159 -0.034667112817964751 0 0.00018854108606544098 -0.034624252786244973 0 4.8237645001428338e-05 -0.034803253014307492 0 -2.2154615822529054e-05 -0.034931629858988088 0 -2.1883749873322142e-05 -0.03478636292654002 0 1.5703217416149915e-05 -0.034981034962017259 0 1.2448491580869208e-05 -0.034991178501286246 0 1.9851568790450181e-06 -0.034991461015524208 0 8.4132505622293668e-05 -0.03481531537927627 0 3.8754279383550166e-06 -0.03493338168472538 0 8.4132505622293668e-05 -0.03481531537927627 0 8.413001445128111e-05 -0.034814935952096455 0 8.4132505622293668e-05 -0.03481531537927627 0 9.0448429495804792e-05 -0.034744022861109579 0 0.0001812899730443801 -0.034734655554149313 0 0.00010835184807718159 -0.034667112817964751 0 7.791124921654102e-05 -0.034762649092489974 0 0.0001812899730443801 -0.034734655554149313 0 7.791124921654102e-05 -0.034762649092489974 0 4.8040036659740416e-05 -0.034866437619100091 0 9.0448429495804792e-05 -0.034744022861109579 0 0.00013047774840682931 -0.034555020933821748 0 1.2448491580869208e-05 -0.034991178501286246 0 5.7837999028680735e-06 -0.034994356025185164 0 9.4502516315536228e-06 -0.034998660448764596 0 5.7837999028680735e-06 -0.034994356025185164 0 1.9851568790450181e-06 -0.034991461015524208 0 1.451120308674027e-06 -0.034998522169036948 0 1.9851568790450181e-06 -0.034991461015524208 0 1.7454416360000851e-07 -0.034999336436876957 0 1.451120308674027e-06 -0.034998522169036948 0 5.7837999028680735e-06 -0.034994356025185164 0 1.451120308674027e-06 -0.034998522169036948 0 9.4502516315536228e-06 -0.034998660448764596 0 1.2448491580869208e-05 -0.034991178501286246 0 5.7837999028680735e-06 -0.034994356025185164 0 1.9851568790450181e-06 -0.034991461015524208 0 -4.3794292803154121e-08 -0.034999893822476098 0 3.8754279383550166e-06 -0.03493338168472538 0 -5.6273495439139346e-09 -0.034999992209438606 0 1.9851568790450181e-06 -0.034991461015524208 0 1.7454416360000851e-07 -0.034999336436876957 0 5.914041207406847e-08 -0.034999987913873994 0 -2.2154615822529054e-05 -0.034931629858988088 0 -1.4628494653018088e-07 -0.034999821531551956 0 -2.2154615822529054e-05 -0.034931629858988088 0 -2.1883749873322142e-05 -0.03478636292654002 0 -1.4628494653018088e-07 -0.034999821531551956 0 -2.1883749873322142e-05 -0.03478636292654002 0 -1.4628494653018088e-07 -0.034999821531551956 0 -6.4418962166027698e-05 -0.034731416222286572 0 1.5417427645952125e-08 -0.034999095703711354 0 -1.4628494653018088e-07 -0.034999821531551956 0 -6.4418962166027698e-05 -0.034731416222286572 0 -2.1883749873322142e-05 -0.03478636292654002 0 -6.4418962166027698e-05 -0.034731416222286572 0 1.943929395528265e-06 -0.034586174394572823 0 -8.2078153197434579e-05 -0.0341624117835167 0 -6.4418962166027698e-05 -0.034731416222286572 0 1.943929395528265e-06 -0.034586174394572823 0 -8.2078153197434579e-05 -0.0341624117835167 0 1.943929395528265e-06 -0.034586174394572823 0 0.00018400323502200031 -0.034480485281729895 0 1.943929395528265e-06 -0.034586174394572823 0 0.00018400323502200031 -0.034480485281729895 0 7.6735790595190378e-05 -0.034649027857000851 0 0.00018400323502200031 -0.034480485281729895 0 0.00018854108606544098 -0.034624252786244973 0 7.6735790595190378e-05 -0.034649027857000851 0 0.00030526460823893228 -0.034532723045966225 0 0.00018400323502200031 -0.034480485281729895 0 0.00018854108606544098 -0.034624252786244973 0 5.0737175862194787e-05 -0.034816187053375351 0 0.00018854108606544098 -0.034624252786244973 0 5.5677890044642685e-05 -0.034775336930580672 0 0.00018854108606544098 -0.034624252786244973 0 5.5677890044642685e-05 -0.034775336930580672 0 7.6735790595190378e-05 -0.034649027857000851 0 8.4132505622293668e-05 -0.03481531537927627 0 0.00010562732634476287 -0.034792567292346803 0 -2.1883749873322142e-05 -0.03478636292654002 0 5.5677890044642685e-05 -0.034775336930580672 0 7.6735790595190378e-05 -0.034649027857000851 0 4.8237645001428338e-05 -0.034803253014307492 0 -2.1883749873322142e-05 -0.03478636292654002 0 5.5677890044642685e-05 -0.034775336930580672 0 -2.1883749873322142e-05 -0.03478636292654002 0 1.943929395528265e-06 -0.034586174394572823 0 7.6735790595190378e-05 -0.034649027857000851 0 0.00089533676426492527 -0.01811569152670307 0 0.0012109619983870377 -0.017494744139093233 0 0.00054438915522221176 -0.017458148181668003 0 0.00063037526899566002 -0.016837208373051183 0 0.00033621046359957825 -0.017250093367424474 0 -9.7449959255841828e-05 -0.019674119542885529 0 0.00020767587351908648 -0.019610407997476102 0 0.00014473235437541162 -0.019781481749977282 0 -9.7449959255841828e-05 -0.019674119542885529 0 -4.3302755078483876e-05 -0.019739791716799279 0 0.00014473235437541162 -0.019781481749977282 0 -9.7449959255841828e-05 -0.019674119542885529 0 -7.0754042394048118e-05 -0.019637475531336327 0 -4.3302755078483876e-05 -0.019739791716799279 0 -9.7449959255841828e-05 -0.019674119542885529 0 -8.3760891961203788e-05 -0.019352768120485975 0 -0.00017094095558761315 -0.019703211606099853 0 -9.7449959255841828e-05 -0.019674119542885529 0 -8.3760891961203788e-05 -0.019352768120485975 0 0.00020767587351908648 -0.019610407997476102 0 0.00089533676426492527 -0.01811569152670307 0 0.0007847513595741377 -0.018227499502179605 0 -8.3760891961203788e-05 -0.019352768120485975 0 0.00020767587351908648 -0.019610407997476102 0 0.00017608865813699187 -0.018498093249697041 0 0.00054438915522221176 -0.017458148181668003 0 0.00017608865813699187 -0.018498093249697041 0 4.3137381433822153e-05 -0.017761502461576557 0 0.00017608865813699187 -0.018498093249697041 0 -3.4158514400417856e-07 -0.017968586082305671 0 -0.00010757211158044052 -0.019272108683797074 0 0.00017608865813699187 -0.018498093249697041 0 -3.4158514400417856e-07 -0.017968586082305671 0 -1.9959083155658127e-05 -0.017556231841644475 0 -3.4158514400417856e-07 -0.017968586082305671 0 -0.00010757211158044052 -0.019272108683797074 0 -3.5287879584438559e-07 -0.019889479005835532 0 -8.3760891961203788e-05 -0.019352768120485975 0 0.00017608865813699187 -0.018498093249697041 0 -0.00010757211158044052 -0.019272108683797074 0 -8.3760891961203788e-05 -0.019352768120485975 0 -0.00010757211158044052 -0.019272108683797074 0 -0.00017094095558761315 -0.019703211606099853 0 -0.00017094095558761315 -0.019703211606099853 0 -7.5503772762989556e-05 -0.020283799379305897 0 -2.9268393658609448e-05 -0.0201995713020253 0 -0.00010757211158044052 -0.019272108683797074 0 -0.00017094095558761315 -0.019703211606099853 0 -7.5503772762989556e-05 -0.020283799379305897 0 -3.5287879584438559e-07 -0.019889479005835532 0 -7.5503772762989556e-05 -0.020283799379305897 0 4.3760800835705333e-07 -0.021809993250232289 0 -0.00010757211158044052 -0.019272108683797074 0 -3.5287879584438559e-07 -0.019889479005835532 0 -7.5503772762989556e-05 -0.020283799379305897 0 -7.5503772762989556e-05 -0.020283799379305897 0 4.3760800835705333e-07 -0.021809993250232289 0 0.00013796970166474258 -0.021067456900062884 0 0.00013796970166474258 -0.021067456900062884 0 -2.9268393658609448e-05 -0.0201995713020253 0 0.00051058334020836062 -0.020458329756135724 0 -7.5503772762989556e-05 -0.020283799379305897 0 0.00013796970166474258 -0.021067456900062884 0 -2.9268393658609448e-05 -0.0201995713020253 0 -2.9268393658609448e-05 -0.0201995713020253 0 0.00023122533667733016 -0.020009490713138345 0 0.00051058334020836062 -0.020458329756135724 0 0.00023122533667733016 -0