<?xml version="1.0"?>
<VTKFile type="UnstructuredGrid" version="0.1" byte_order="LittleEndian">
<UnstructuredGrid>
<Piece NumberOfPoints="31898" NumberOfCells="11152">
<Points>
<DataArray type="Float64" NumberOfComponents="3" format="ascii">
-0.5 -0.5 0 -0.47620991077874902 -0.44978878706170539 0 -0.49999999999999473 -0.42132396840504388 0 -0.5 -0.5 0 -0.47160970827802529 -0.4793630013852106 0 -0.47620991077874902 -0.44978878706170539 0 -0.5 -0.5 0 -0.47160970827802529 -0.4793630013852106 0 -0.44860394795025399 -0.5 0 -0.47160970827802529 -0.4793630013852106 0 -0.44860394795025399 -0.5 0 -0.4490820238307246 -0.45820516232899983 0 -0.44860394795025399 -0.5 0 -0.4490820238307246 -0.45820516232899983 0 -0.42881687682924802 -0.47781464288736519 0 -0.4490820238307246 -0.45820516232899983 0 -0.45555437223955858 -0.42914059360647611 0 -0.4490820238307246 -0.45820516232899983 0 -0.45555437223955858 -0.42914059360647611 0 -0.43867285131603428 -0.4271457417558665 0 -0.4490820238307246 -0.45820516232899983 0 -0.43867285131603428 -0.4271457417558665 0 -0.4263356171060747 -0.44269880333887462 0 -0.47160970827802529 -0.4793630013852106 0 -0.4490820238307246 -0.45820516232899983 0 -0.47620991077874902 -0.44978878706170539 0 -0.4490820238307246 -0.45820516232899983 0 -0.47620991077874902 -0.44978878706170539 0 -0.45555437223955858 -0.42914059360647611 0 -0.47620991077874902 -0.44978878706170539 0 -0.48101336032419229 -0.41069999664450008 0 -0.45555437223955858 -0.42914059360647611 0 -0.47620991077874902 -0.44978878706170539 0 -0.49999999999999473 -0.42132396840504388 0 -0.48101336032419229 -0.41069999664450008 0 -0.49999999999999473 -0.42132396840504388 0 -0.48101336032419229 -0.41069999664450008 0 -0.5 -0.393886241813306 0 -0.49999999999999473 -0.42132396840504388 0 -0.48101336032419229 -0.41069999664450008 0 -0.5 -0.393886241813306 0 -0.47854472220918332 -0.38978458738689759 0 -0.48422759779560409 -0.37130120630367158 0 -0.5 -0.393886241813306 0 -0.5 -0.36644851522156802 0 -0.48422759779560409 -0.37130120630367158 0 -0.48101336032419229 -0.41069999664450008 0 -0.5 -0.393886241813306 0 -0.47854472220918332 -0.38978458738689759 0 -0.48101336032419229 -0.41069999664450008 0 -0.47854472220918332 -0.38978458738689759 0 -0.46202672064839212 -0.40007602488395211 0 -0.48101336032419229 -0.41069999664450008 0 -0.46202672064839212 -0.40007602488395211 0 -0.47854472220918332 -0.38978458738689759 0 -0.46725442735267431 -0.37660061361585562 0 -0.46202672064839212 -0.40007602488395211 0 -0.47854472220918332 -0.38978458738689759 0 -0.46725442735267431 -0.37660061361585562 0 -0.48422759779560409 -0.37130120630367158 0 -0.46725442735267431 -0.37660061361585562 0 -0.46202672064839212 -0.40007602488395211 0 -0.46725442735267431 -0.37660061361585562 0 -0.45645674801697989 -0.38644133236760531 0 -0.46202672064839212 -0.40007602488395211 0 -0.46725442735267431 -0.37660061361585562 0 -0.45645674801697989 -0.38644133236760531 0 -0.4540003998136638 -0.37455519391687309 0 -0.45645674801697989 -0.38644133236760531 0 -0.46202672064839212 -0.40007602488395211 0 -0.44257020456291563 -0.38918913383950271 0 -0.46202672064839212 -0.40007602488395211 0 -0.44257020456291563 -0.38918913383950271 0 -0.44727608925983742 -0.41095911152778891 0 -0.46202672064839212 -0.40007602488395211 0 -0.44257020456291563 -0.38918913383950271 0 -0.44257020456291563 -0.38918913383950271 0 -0.44727608925983742 -0.41095911152778891 0 -0.43479358559901082 -0.4041454901736512 0 -0.44257020456291563 -0.38918913383950271 0 -0.4540003998136638 -0.37455519391687309 0 -0.44172858264042247 -0.37082207246888088 0 -0.45645674801697989 -0.38644133236760531 0 -0.44257020456291563 -0.38918913383950271 0 -0.4540003998136638 -0.37455519391687309 0 -0.46202672064839212 -0.40007602488395211 0 -0.45555437223955858 -0.42914059360647611 0 -0.44727608925983742 -0.41095911152778891 0 -0.46202672064839212 -0.40007602488395211 0 -0.45555437223955858 -0.42914059360647611 0 -0.48101336032419229 -0.41069999664450008 0 -0.46202672064839212 -0.40007602488395211 0 -0.45555437223955858 -0.42914059360647611 0 -0.44727608925983742 -0.41095911152778891 0 -0.43867285131603428 -0.4271457417558665 0 -0.43676601469929588 -0.41441201227470881 0 -0.44727608925983742 -0.41095911152778891 0 -0.43676601469929588 -0.41441201227470881 0 -0.43479358559901082 -0.4041454901736512 0 -0.45555437223955858 -0.42914059360647611 0 -0.44727608925983742 -0.41095911152778891 0 -0.43867285131603428 -0.4271457417558665 0 -0.43867285131603428 -0.4271457417558665 0 -0.42681803064840879 -0.42717069814352421 0 -0.4263356171060747 -0.44269880333887462 0 -0.42681803064840879 -0.42717069814352421 0 -0.41531815884496182 -0.42985383783075998 0 -0.4263356171060747 -0.44269880333887462 0 -0.42681803064840879 -0.42717069814352421 0 -0.42624289495594048 -0.42089725947505818 0 -0.42083332353326591 -0.42146747131641099 0 -0.42681803064840879 -0.42717069814352421 0 -0.43096994786351572 -0.41951492446283251 0 -0.42624289495594048 -0.42089725947505818 0 -0.43867285131603428 -0.4271457417558665 0 -0.42681803064840879 -0.42717069814352421 0 -0.43096994786351572 -0.41951492446283251 0 -0.43867285131603428 -0.4271457417558665 0 -0.43676601469929588 -0.41441201227470881 0 -0.43096994786351572 -0.41951492446283251 0 -0.43676601469929588 -0.41441201227470881 0 -0.43096994786351572 -0.41951492446283251 0 -0.42907264086257813 -0.41311715872526122 0 -0.43676601469929588 -0.41441201227470881 0 -0.42907264086257813 -0.41311715872526122 0 -0.43479358559901082 -0.4041454901736512 0 -0.42907264086257813 -0.41311715872526122 0 -0.43479358559901082 -0.4041454901736512 0 -0.42460885511582858 -0.40417321677700252 0 -0.42907264086257813 -0.41311715872526122 0 -0.41997834854398469 -0.41180534796019508 0 -0.42907264086257813 -0.41311715872526122 0 -0.42635027777857132 -0.41543594397746519 0 -0.41997834854398469 -0.41180534796019508 0 -0.42907264086257813 -0.41311715872526122 0 -0.41997834854398469 -0.41180534796019508 0 -0.42460885511582858 -0.40417321677700252 0 -0.42635027777857132 -0.41543594397746519 0 -0.41997834854398469 -0.41180534796019508 0 -0.42635027777857132 -0.41543594397746519 0 -0.42083332353326591 -0.42146747131641099 0 -0.41997834854398469 -0.41180534796019508 0 -0.43096994786351572 -0.41951492446283251 0 -0.42624289495594048 -0.42089725947505818 0 -0.42635027777857132 -0.41543594397746519 0 -0.43096994786351572 -0.41951492446283251 0 -0.42907264086257813 -0.41311715872526122 0 -0.42635027777857132 -0.41543594397746519 0 -0.42624289495594048 -0.42089725947505818 0 -0.42635027777857132 -0.41543594397746519 0 -0.42083332353326591 -0.42146747131641099 0 -0.42083332353326591 -0.42146747131641099 0 -0.41997834854398469 -0.41180534796019508 0 -0.40992282953163789 -0.42011435591993562 0 -0.41997834854398469 -0.41180534796019508 0 -0.39756877647335259 -0.40857286797681719 0 -0.41997834854398469 -0.41180534796019508 0 -0.40992282953163789 -0.42011435591993562 0 -0.39756877647335259 -0.40857286797681719 0 -0.40992282953163789 -0.42011435591993562 0 -0.41531815884496182 -0.42985383783075998 0 -0.39591554026262499 -0.42887225451549271 0 -0.41531815884496182 -0.42985383783075998 0 -0.39591554026262499 -0.42887225451549271 0 -0.41160927495564159 -0.44339431233754628 0 -0.42083332353326591 -0.42146747131641099 0 -0.40992282953163789 -0.42011435591993562 0 -0.41531815884496182 -0.42985383783075998 0 -0.42681803064840879 -0.42717069814352421 0 -0.42083332353326591 -0.42146747131641099 0 -0.41531815884496182 -0.42985383783075998 0 -0.44257020456291563 -0.38918913383950271 0 -0.42311368847744002 -0.37830224279505142 0 -0.42594061475171041 -0.39368797999533162 0 -0.44257020456291563 -0.38918913383950271 0 -0.42311368847744002 -0.37830224279505142 0 -0.44172858264042247 -0.37082207246888088 0 -0.44257020456291563 -0.38918913383950271 0 -0.42311368847744002 -0.37830224279505142 0 -0.42311368847744002 -0.37830224279505142 0 -0.42594061475171041 -0.39368797999533162 0 -0.416587075656149 -0.38785930376960043 0 -0.44257020456291563 -0.38918913383950271 0 -0.42594061475171041 -0.39368797999533162 0 -0.43479358559901082 -0.4041454901736512 0 -0.42594061475171041 -0.39368797999533162 0 -0.43479358559901082 -0.4041454901736512 0 -0.42460885511582858 -0.40417321677700252 0 -0.41997834854398469 -0.41180534796019508 0 -0.41325908582185972 -0.39811010703057192 0 -0.39770572831670092 -0.39911486077581648 0 -0.41997834854398469 -0.41180534796019508 0 -0.39770572831670092 -0.39911486077581648 0 -0.42594061475171041 -0.39368797999533162 0 -0.42460885511582858 -0.40417321677700252 0 -0.41325908582185972 -0.39811010703057192 0 -0.41997834854398469 -0.41180534796019508 0 -0.42460885511582858 -0.40417321677700252 0 -0.41325908582185972 -0.39811010703057192 0 -0.42594061475171041 -0.39368797999533162 0 -0.41325908582185972 -0.39811010703057192 0 -0.416587075656149 -0.38785930376960043 0 -0.41325908582185972 -0.39811010703057192 0 -0.416587075656149 -0.38785930376960043 0 -0.40403491357358612 -0.38133688525744702 0 -0.42311368847744002 -0.37830224279505142 0 -0.40403491357358612 -0.38133688525744702 0 -0.40365717239196519 -0.36741535175059892 0 -0.42311368847744002 -0.37830224279505142 0 -0.416587075656149 -0.38785930376960043 0 -0.40403491357358612 -0.38133688525744702 0 -0.40403491357358612 -0.38133688525744702 0 -0.39190790742475001 -0.38540387676521748 0 -0.39770572831670092 -0.39911486077581648 0 -0.40403491357358612 -0.38133688525744702 0 -0.39190790742475001 -0.38540387676521748 0 -0.3904578797192948 -0.37473938743617019 0 -0.41325908582185972 -0.39811010703057192 0 -0.40403491357358612 -0.38133688525744702 0 -0.39770572831670092 -0.39911486077581648 0 -0.39770572831670092 -0.39911486077581648 0 -0.37543310808941849 -0.38642437359143528 0 -0.39770572831670092 -0.39911486077581648 0 -0.37515920440272033 -0.40534038799344108 0 -0.37543310808941849 -0.38642437359143528 0 -0.39770572831670092 -0.39911486077581648 0 -0.37515920440272033 -0.40534038799344108 0 -0.39756877647335259 -0.40857286797681719
[...]
<PointData Scalars="" Vectors="displacement," Tensors="">
<DataArray type="Float64" Name="displacement" NumberOfComponents="3" format="ascii">
-0.034997365658344229 -0.034997997859360634 0 -0.032600975768959178 -0.034331977856704138 0 -0.029503338461686193 -0.034995272208160566 0 -0.034997365658344229 -0.034997997859360634 0 -0.03440001820183354 -0.03367908752025011 0 -0.032600975768959178 -0.034331977856704138 0 -0.034997365658344229 -0.034997997859360634 0 -0.03440001820183354 -0.03367908752025011 0 -0.034998023974174543 -0.031405140477507476 0 -0.03440001820183354 -0.03367908752025011 0 -0.034998023974174543 -0.031405140477507476 0 -0.034544671188036197 -0.033061838635347222 0 -0.034998023974174543 -0.031405140477507476 0 -0.034544671188036197 -0.033061838635347222 0 -0.035059918474099054 -0.030759765655839856 0 -0.03362666611777592 -0.0339338287485259 0 -0.033353163252723514 -0.034189719054728729 0 -0.034544671188036197 -0.033061838635347222 0 -0.036853265441236252 -0.032911639777175712 0 -0.037055283373185283 -0.031848432225380412 0 -0.034544671188036197 -0.033061838635347222 0 -0.037055283373185283 -0.031848432225380412 0 -0.036166241648339294 -0.030943115938192833 0 -0.03440001820183354 -0.03367908752025011 0 -0.034544671188036197 -0.033061838635347222 0 -0.032600975768959178 -0.034331977856704138 0 -0.034544671188036197 -0.033061838635347222 0 -0.032600975768959178 -0.034331977856704138 0 -0.031863719949990064 -0.034861732687761673 0 -0.032600975768959178 -0.034331977856704138 0 -0.030410652256092647 -0.034578961091825608 0 -0.031863719949990064 -0.034861732687761673 0 -0.032600975768959178 -0.034331977856704138 0 -0.029503338461686193 -0.034995272208160566 0 -0.030410652256092647 -0.034578961091825608 0 -0.029492653473363127 -0.034999989642669406 0 -0.028745290034450224 -0.036306819927778698 0 -0.027572046854946075 -0.034999985795337731 0 -0.029493308082347708 -0.035000211648683291 0 -0.029778475722963108 -0.035071250533375314 0 -0.027572046854946075 -0.034999985795337731 0 -0.027290087188977099 -0.036476211146454357 0 -0.02599590956029843 -0.036086379807553789 0 -0.027572046854946075 -0.034999985795337731 0 -0.025651401767017228 -0.034999984920756906 0 -0.02599590956029843 -0.036086379807553789 0 -0.028745290034450224 -0.036306819927778698 0 -0.027572046854946075 -0.034999985795337731 0 -0.027290087188977099 -0.036476211146454357 0 -0.028745290034450224 -0.036306819927778698 0 -0.027290087188977099 -0.036476211146454357 0 -0.028012074499317911 -0.037605076168442365 0 -0.029778475722963108 -0.035071250533375314 0 -0.030492497715850695 -0.034401953192978493 0 -0.027290087188977099 -0.036476211146454357 0 -0.026371333004304574 -0.037255695982805696 0 -0.028012074499317911 -0.037605076168442365 0 -0.027290087188977099 -0.036476211146454357 0 -0.026371333004304574 -0.037255695982805696 0 -0.02599590956029843 -0.036086379807553789 0 -0.026380440562805935 -0.035319644703248672 0 -0.030492497715850695 -0.034401953192978493 0 -0.024176600013016605 -0.03669636066543483 0 -0.023947335424051686 -0.036505458006032443 0 -0.023701618533482238 -0.036612098791059838 0 -0.024176600013016605 -0.03669636066543483 0 -0.023947335424051686 -0.036505458006032443 0 -0.024123522664734685 -0.036492629809578778 0 -0.023947335424051686 -0.036505458006032443 0 -0.023701618533482238 -0.036612098791059838 0 -0.023855615938546935 -0.036220306325350247 0 -0.038024277777105348 -0.032745746770917031 0 -0.038207657444341701 -0.031946958133885643 0 -0.037668357400196813 -0.032235600981137209 0 -0.030492497715850695 -0.034401953192978493 0 -0.03044085815909605 -0.033771993551315042 0 -0.038207657444341701 -0.031946958133885643 0 -0.037668357400196813 -0.032235600981137209 0 -0.037854512912483325 -0.031710079896480552 0 -0.023855615938546935 -0.036220306325350247 0 -0.024123522664734685 -0.036492629809578778 0 -0.024182560611499038 -0.036200873907802675 0 -0.023947335424051686 -0.036505458006032443 0 -0.023855615938546935 -0.036220306325350247 0 -0.024123522664734685 -0.036492629809578778 0 -0.038024277777105348 -0.032745746770917031 0 -0.036853265441236252 -0.032911639777175712 0 -0.037668357400196813 -0.032235600981137209 0 -0.030492497715850695 -0.034401953192978493 0 -0.033353163252723514 -0.034189719054728729 0 -0.030410652256092647 -0.034578961091825608 0 -0.030289338122877305 -0.035049954210182477 0 -0.031863719949990064 -0.034861732687761673 0 -0.037668357400196813 -0.032235600981137209 0 -0.037055283373185283 -0.031848432225380412 0 -0.037583728988251269 -0.031763283732704255 0 -0.037668357400196813 -0.032235600981137209 0 -0.037583728988251269 -0.031763283732704255 0 -0.037854512912483325 -0.031710079896480552 0 -0.036853265441236252 -0.032911639777175712 0 -0.037668357400196813 -0.032235600981137209 0 -0.037055283373185283 -0.031848432225380412 0 -0.037055283373185283 -0.031848432225380412 0 -0.037016376060048151 -0.031119143303398222 0 -0.036166241648339294 -0.030943115938192833 0 -0.037016376060048151 -0.031119143303398222 0 -0.036871308822941866 -0.030397357061539745 0 -0.036166241648339294 -0.030943115938192833 0 -0.037016376060048151 -0.031119143303398222 0 -0.037333336065049919 -0.031143427590819638 0 -0.037307412687643121 -0.030784019544159994 0 -0.037016376060048151 -0.031119143303398222 0 -0.037399733644533778 -0.031451766537523136 0 -0.037333336065049919 -0.031143427590819638 0 -0.037055283373185283 -0.031848432225380412 0 -0.037016376060048151 -0.031119143303398222 0 -0.037399733644533778 -0.031451766537523136 0 -0.037055283373185283 -0.031848432225380412 0 -0.037583728988251269 -0.031763283732704255 0 -0.037399733644533778 -0.031451766537523136 0 -0.037583728988251269 -0.031763283732704255 0 -0.037399733644533778 -0.031451766537523136 0 -0.037704837985811639 -0.031443947958400199 0 -0.037583728988251269 -0.031763283732704255 0 -0.037704837985811639 -0.031443947958400199 0 -0.037854512912483325 -0.031710079896480552 0 -0.037704837985811639 -0.031443947958400199 0 -0.037854512912483325 -0.031710079896480552 0 -0.037833646026308156 -0.031472138257303807 0 -0.03638958993108065 -0.029752603098446111 0 -0.036363665367321399 -0.029558197759406279 0 -0.037704837985811639 -0.031443947958400199 0 -0.037608444966383665 -0.031213322825968455 0 -0.037886606504868137 -0.03074726766623093 0 -0.037704837985811639 -0.031443947958400199 0 -0.037754076839891501 -0.031405224231528674 0 -0.037833646026308156 -0.031472138257303807 0 -0.036372553449704345 -0.029624103742325235 0 -0.036363665367321399 -0.029558197759406279 0 -0.037608444966383665 -0.031213322825968455 0 -0.037307412687643121 -0.030784019544159994 0 -0.037881818084313165 -0.030730447018772849 0 -0.037399733644533778 -0.031451766537523136 0 -0.037333336065049919 -0.031143427590819638 0 -0.037608444966383665 -0.031213322825968455 0 -0.037399733644533778 -0.031451766537523136 0 -0.037704837985811639 -0.031443947958400199 0 -0.037608444966383665 -0.031213322825968455 0 -0.037333336065049919 -0.031143427590819638 0 -0.037608444966383665 -0.031213322825968455 0 -0.037307412687643121 -0.030784019544159994 0 -0.037307412687643121 -0.030784019544159994 0 -0.037881818084313165 -0.030730447018772849 0 -0.037400839888316793 -0.03011736307978757 0 -0.036363665367321399 -0.029558197759406279 0 -0.036660463319493831 -0.028358555888318975 0 -0.037881818084313165 -0.030730447018772849 0 -0.037400839888316793 -0.03011736307978757 0 -0.038040910132064863 -0.0294097682876284 0 -0.037400839888316793 -0.03011736307978757 0 -0.036871308822941866 -0.030397357061539745 0 -0.03693662534285224 -0.029322743797110699 0 -0.036871308822941866 -0.030397357061539745 0 -0.03693662534285224 -0.029322743797110699 0 -0.03619252488749259 -0.030123453976460487 0 -0.037307412687643121 -0.030784019544159994 0 -0.037400839888316793 -0.03011736307978757 0 -0.036871308822941866 -0.030397357061539745 0 -0.037016376060048151 -0.031119143303398222 0 -0.037307412687643121 -0.030784019544159994 0 -0.036871308822941866 -0.030397357061539745 0 -0.038207657444341701 -0.031946958133885643 0 -0.038105698421514976 -0.031473097689359963 0 -0.037987832312605919 -0.031526057680295816 0 -0.023855615938546935 -0.036220306325350247 0 -0.024021828906751374 -0.035728021339533442 0 -0.024182560611499038 -0.036200873907802675 0 -0.03044085815909605 -0.033771993551315042 0 -0.030215550347442985 -0.032879378771533532 0 -0.038105698421514976 -0.031473097689359963 0 -0.037987832312605919 -0.031526057680295816 0 -0.037986783385790569 -0.031396112213598795 0 -0.038207657444341701 -0.031946958133885643 0 -0.037987832312605919 -0.031526057680295816 0 -0.037854512912483325 -0.031710079896480552 0 -0.037987832312605919 -0.031526057680295816 0 -0.037854512912483325 -0.031710079896480552 0 -0.037833646026308156 -0.031472138257303807 0 -0.037754076839891501 -0.031405224231528674 0 -0.037897451670375587 -0.031351848663944124 0 -0.03790051674565207 -0.031242110508172456 0 -0.036363665367321399 -0.029558197759406279 0 -0.035918537038812162 -0.028676403296812921 0 -0.037987832312605919 -0.031526057680295816 0 -0.037833646026308156 -0.031472138257303807 0 -0.037897451670375587 -0.031351848663944124 0 -0.037754076839891501 -0.031405224231528674 0 -0.037833646026308156 -0.031472138257303807 0 -0.037897451670375587 -0.031351848663944124 0 -0.037987832312605919 -0.031526057680295816 0 -0.037897451670375587 -0.031351848663944124 0 -0.037986783385790569 -0.031396112213598795 0 -0.037897451670375587 -0.031351848663944124 0 -0.037986783385790569 -0.031396112213598795 0 -0.037950407829169246 -0.031252912933420293 0 -0.038105698421514976 -0.031473097689359963 0 -0.037950407829169246 -0.031252912933420293 0 -0.038069700005370397 -0.031253840330040708 0 -0.038105698421514976 -0.031473097689359963 0 -0.037986783385790569 -0.031396112213598795 0 -0.037950407829169246 -0.031252912933420293 0 -0.037950407829169246 -0.031252912933420293 0 -0.037899659913725681 -0.031264535820373883 0 -0.03790051674565207 -0.031242110508172456 0 -0.037950407829169246 -0.031252912933420293 0 -0.037899659913725681 -0.031264535820373883 0 -0.037837740294263178 -0.031273659575218736 0 -0.037897451670375587 -0.031351848663944124 0 -0.037950407829169246 -0.031252912933420293 0 -0.03790051674565207 -0.031242110508172456 0 -0.035918537038812162 -0.028676403296812921 0 -0.035091263665131683 -0.026677910446111255 0 -0.036405796323233978 -0.027985413318387695 0 -0.036111433223000491 -0.026917993926342546 0 -0.036990905231919578 -0.026929163650386514 0 -0.036405796323233978 -0.027985413318387695 0 -0.036111433223000491 -0.026917993926342546 0 -0.03596175624535241 -0.027980369180620135 0 -0.036884633008067297 -0.026468004712899736 0 -0.035091263665131683 -0.026677910446111255 0 -0.037893436115288136 -0.031319990410667138 0 -0.037837740294263178 -0.031273659575218736 0 -0.03777052219056231 -0.031352132882655391 0 -0.037899659913725681 -0.031264535820373883 0 -0.037893436115288136 -0.031319990410667138 0 -0.037837740294263178 -0.031273659575218736 0 -0.035091263665131683 -0.026677910446111255 0 -0.033121927963026147 -0.027379321323062689 0 -0.037899659913725681 -0.031264535820373883 0 -0.03790051674565207 -0.031242110508172456 0 -0.037893436115288136 -0.031319990410667138 0 -0.035817235659221951 -0.029051649987849721 0 -0.036405796323233978 -0.027985413318387695 0 -0.03596175624535241 -0.027980369180620135 0 -0.037400839888316793 -0.03011736307978757 0 -0.03693662534285224 -0.029322743797110699 0 -0.038040910132064863 -0.0294097682876284 0 -0.038201778119294011 -0.028196719914860401 0 -0.03693662534285224 -0.029322743797110699 0 -0.038040910132064863 -0.0294097682876284 0 -0.036884633008067297 -0.026468004712899736 0 -0.036660463319493831 -0.028358555888318975 0 -0.038201778119294011 -0.028196719914860401 0 -0.03693662534285224 -0.029322743797110699 0 -0.036596723513694362 -0.028193585895954769 0 -0.03693662534285224 -0.029322743797110699 0 -0.036024253486700707 -0.029155534307658316 0 -0.036596723513694362 -0.028193585895954769 0 -0.036024253486700707 -0.029155534307658316 0 -0.035044670491540642 -0.028171587501398813 0 -0.036596723513694362 -0.028193585895954769 0 -0.03693662534285224 -0.029322743797110699 0 -0.036024253486700707 -0.029155534307658316 0 -0.03619252488749259 -0.030123453976460487 0 -0.036024253486700707 -0.029155534307658316 0 -0.035459164541693365 -0.029718740135394276 0 -0.03619252488749259 -0.030123453976460487 0 -0.035839015363186295 -0.029520847551103836 0 -0.035543546202918358 -0.028257564160504851 0 -0.035470535069922392 -0.029729396285424061 0 -0.03779196997947077 -0.028119558019200904 0 -0.037539273844787405 -0.027171253554746765 0 -0.036432083930584225 -0.027394974216068648 0 -0.036506293427650313 -0.027995662546841434 0 -0.03578696885934924 -0.027421320359987192 0 -0.036506293427650313 -0.027995662546841434 0 -0.036507121339131497 -0.028010183093863158 0 -0.036506293427650313 -0.027995662546841434 0 -0.036462963371130634 -0.027496173404311878 0 -0.036024253486700707 -0.029155534307658316 0 -0.035459164541693365 -0.029718740135394276 0 -0.035251378067528379 -0.028946602813395939 0 -0.036024253486700707 -0.029155534307658316 0 -0.035251378067528379 -0.028946602813395939 0 -0.035044670491540642 -0.028171587501398813 0 -0.036462963371130634 -0.027496173404311878 0 -0.036341192323079939 -0.026549555780120325 0 -0.037539273844787405 -0.027171253554746765 0 -0.036896812584321474 -0.026823205754770672 0 -0.037285177890220123 -0.026205940306306449 0 -0.036896812584321474 -0.026823205754770672 0 -0.036432083930584225 -0.027394974216068648 0 -0.036529638696894268 -0.026183151652555102 0 -0.036432083930584225 -0.027394974216068648 0 -0.035696727866397979 -0.026066724949399423 0 -0.036529638696894268 -0.026183151652555102 0 -0.036896812584321474 -0.026823205754770672 0 -0.036529638696894268 -0.026183151652555102 0 -0.037285177890220123 -0.026205940306306449 0 -0.037539273844787405 -0.027171253554746765 0 -0.036896812584321474 -0.026823205754770672 0 -0.036432083930584225 -0.027394974216068648 0 -0.035000495956763356 -0.026667292718002149 0 -0.03578696885934924 -0.027421320359987192 0 -0.03500000385256561 -0.026666199695800905 0 -0.036432083930584225 -0.027394974216068648 0 -0.035696727866397979 -0.026066724949399423 0 -0.034999856883050941 -0.026667576006534549 0 -0.035543546202918358 -0.028257564160504851 0 -0.03499911463046998 -0.028699216150034953 0 -0.035543546202918358 -0.028257564160504851 0 -0.035470535069922392 -0.029729396285424061 0 -0.03499911463046998 -0.028699216150034953 0 -0.035470535069922392 -0.029729396285424061 0 -0.03499911463046998 -0.028699216150034953 0 -0.035059918474099054 -0.030759765655839856 0 -0.034998023974174543 -0.031405140477507476 0 -0.03499911463046998 -0.028699216150034953 0 -0.035059918474099054 -0.030759765655839856 0 -0.035470535069922392 -0.029729396285424061 0 -0.035059918474099054 -0.030759765655839856 0 -0.03533834200046812 -0.030873262869580902 0 -0.034544671188036197 -0.033061838635347222 0 -0.035059918474099054 -0.030759765655839856 0 -0.03533834200046812 -0.030873262869580902 0 -0.034544671188036197 -0.033061838635347222 0 -0.03533834200046812 -0.030873262869580902 0 -0.036166241648339294 -0.030943115938192833 0 -0.03533834200046812 -0.030873262869580902 0 -0.036166241648339294 -0.030943115938192833 0 -0.035780543697917694 -0.030253488211469372 0 -0.036166241648339294 -0.030943115938192833 0 -0.03619252488749259 -0.030123453976460487 0 -0.035780543697917694 -0.030253488211469372 0 -0.036871308822941866 -0.030397357061539745 0 -0.036166241648339294 -0.030943115938192833 0 -0.03619252488749259 -0.030123453976460487 0 -0.035805225028516005 -0.0295513443920974 0 -0.03619252488749259 -0.030123453976460487 0 -0.035818362107691203 -0.029671477044192728 0 -0.03619252488749259 -0.030123453976460487 0 -0.035818362107691203 -0.029671477044192728 0 -0.035780543697917694 -0.030253488211469372 0 -0.036506293427650313 -0.027995662546841434 0 -0.036522424416412444 -0.028220225200081522 0 -0.035470535069922392 -0.029729396285424061 0 -0.035818362107691203 -0.029671477044192728 0 -0.035780543697917694 -0.030253488211469372 0 -0.035839015363186295 -0.029520847551103836 0 -0.035470535069922392 -0.029729396285424061 0 -0.035818362107691203 -0.029671477044192728 0 -0.035470535069922392 -0.029729396285424061 0 -0.03533834200046812 -0.030873262869580902 0 -0.035780543697917694 -0.030253488211469372 0 -0.015377196903170782 -0.036376583488569265 0 -0.014070293136563916 -0.034608607614415303 0 -0.01742690084628773 -0.037205466198572727 0 -0.017321761059032999 -0.038889419487189845 0 -0.016406514437815232 -0.037565599490455584 0 -0.019214236940381716 -0.038022350139895147 0 -0.017939251305475717 -0.037618215764268229 0 -0.017838660972194456 -0.039006442056135994 0 -0.019214236940381716 -0.038022350139895147 0 -0.019142647071138583 -0.039235589480017916 0 -0.017838660972194456 -0.039006442056135994 0 -0.019214236940381716 -0.038022350139895147 0 -0.020377663989982218 -0.038530959787629111 0 -0.019142647071138583 -0.039235589480017916 0 -0.019214236940381716 -0.038022350139895147 0 -0.018716477675010577 -0.036952399033411687 0 -0.019752217075836725 -0.03683114424949132 0 -0.019214236940381716 -0.038022350139895147 0 -0.018716477675010577 -0.036952399033411687 0 -0.017939251305475717 -0.037618215764268229 0 -0.015377196903170782 -0.036376583488569265 0 -0.015810567781108713 -0.036321455641161605 0 -0.018716477675010577 -0.036952399033411687 0 -0.017939251305475717 -0.037618215764268229 0 -0.017885187929603499 -0.036122762418838043 0 -0.01742690084628773 -0.037205466198572727 0 -0.017885187929603499 -0.036122762418838043 0 -0.016239671140124118 -0.036332211183981999 0 -0.017885187929603499 -0.036122762418838043 0 -0.017968493990861614 -0.034999578934376802 0 -0.019130503785586932 -0.035918215391253373 0 -0.017885187929603499 -0.036122762418838043 0 -0.017968493990861614 -0.034999578934376802 0 -0.016820416299204482 -0.035586017922007093 0 -0.017968493990861614 -0.034999578934376802 0 -0.019130503785586932 -0.035918215391253373 0 -0.019889424180186053 -0.034999882446836682 0 -0.018716477675010577 -0.036952399033411687 0 -0.017885187929603499 -0.036122762418838043 0 -0.019130503785586932 -0.035918215391253373 0 -0.018716477675010577 -0.036952399033411687 0 -0.019130503785586932 -0.035918215391253373 0 -0.019752217075836725 -0.03683114424949132 0 -0.019752217075836725 -0.03683114424949132 0 -0.020385371473150393 -0.035842169882859744 0 -0.020806888377143739 -0.036675482460854184 0 -0.019130503785586932 -0.035918215391253373 0 -0.019752217075836725 -0.03683114424949132 0 -0.020385371473150393 -0.035842169882859744 0 -0.019889424180186053 -0.034999882446836682 0 -0.020385371473150393 -0.035842169882859744 0 -0.021809946828963776 -0.034999890543640395 0 -0.019130503785586932 -0.035918215391253373 0 -0.019889424180186053 -0.034999882446836682 0 -0.020385371473150393 -0.035842169882859744 0 -0.020385371473150393 -0.035842169882859744 0 -0.021809946828963776 -0.034999890543640395 0 -0.021349578313539824 -0.036044915084113165 0 -0.021349578313539824 -0.036044915084113165 0 -0.020806888377143739 -0.036675482460854184 0 -0.021861193491411097 -0.036607144765034308 0 -0.020385371473150393 -0.035842169882859744 0 -0.021349578313539824 -0.036044915084113165 0 -0.020806888377143739 -0.036675482460854184 0 -0.020806888377143739 -0.036675482460854184 0 -0.021313647240378951 -0.037278722013605284 0 -0.021861193491411097 -0.036607144765034308 0 -0.021313647240378951 -0.037278722013605284 0 -0.02109077836289679 -0.038127131531662813 0 -0.021771081238003077 -0.037778449106410789 0 -0.021313647240378951 -0.037278722013605284 0 -0.020406930186049631 -0.037571112025949323 0 -0.02109077836289679 -0.038127131531662813 0 -0.020806888377143739 -0.036675482460854184 0 -0.021313647240378951 -0.037278722013605284 0 -0.020406930186049631 -0.037571112025949323 0 -0.019214236940381716 -0.038022350139895147 0 -0.019752217075836725 -0.03683114424949132 0 -0.020406930186049631 -0.037571112025949323 0 -0.019752217075