<?xml version="1.0"?>
<VTKFile type="UnstructuredGrid" version="0.1" byte_order="LittleEndian">
<UnstructuredGrid>
<Piece NumberOfPoints="30618" NumberOfCells="10744">
<Points>
<DataArray type="Float64" NumberOfComponents="3" format="ascii">
-0.49427958746526202 -0.49999999999999512 0 -0.4943900888896422 -0.47349089190363358 0 -0.49427958746526202 -0.49999999999999512 0 -0.5 -0.5 0 -0.4943900888896422 -0.47349089190363358 0 -0.5 -0.5 0 -0.4943900888896422 -0.47349089190363358 0 -0.5 -0.44150235328842258 0 -0.49427958746526202 -0.49999999999999512 0 -0.4943900888896422 -0.47349089190363358 0 -0.48436842240857858 -0.48714093788813112 0 -0.49427958746526202 -0.49999999999999512 0 -0.47650045540741742 -0.5 0 -0.48436842240857858 -0.48714093788813112 0 -0.4943900888896422 -0.47349089190363358 0 -0.47066899942757451 -0.47576530412887819 0 -0.48436842240857858 -0.48714093788813112 0 -0.47066899942757451 -0.47576530412887819 0 -0.47650045540741742 -0.5 0 -0.48436842240857858 -0.48714093788813112 0 -0.47066899942757451 -0.47576530412887819 0 -0.45872132334957288 -0.49999999999999928 0 -0.45242967983978871 -0.4846708604340636 0 -0.47066899942757451 -0.47576530412887819 0 -0.47650045540741742 -0.5 0 -0.45872132334957288 -0.49999999999999928 0 -0.47066899942757451 -0.47576530412887819 0 -0.45872132334957288 -0.49999999999999928 0 -0.47066899942757451 -0.47576530412887819 0 -0.45242967983978871 -0.4846708604340636 0 -0.45249717469141032 -0.46588444847215849 0 -0.43763952177061649 -0.47770500498713542 0 -0.45242967983978871 -0.4846708604340636 0 -0.45249717469141032 -0.46588444847215849 0 -0.43763952177061649 -0.47770500498713542 0 -0.44291044788006362 -0.49999999999999939 0 -0.45242967983978871 -0.4846708604340636 0 -0.43763952177061649 -0.47770500498713542 0 -0.44291044788006362 -0.49999999999999939 0 -0.45872132334957288 -0.49999999999999928 0 -0.44291044788006362 -0.49999999999999939 0 -0.45242967983978871 -0.4846708604340636 0 -0.44838221886832419 -0.4464230337388379 0 -0.4323685956611692 -0.45541000997427139 0 -0.435988539966085 -0.44148905847597392 0 -0.44838221886832419 -0.4464230337388379 0 -0.44213238819953832 -0.43491600865963681 0 -0.435988539966085 -0.44148905847597392 0 -0.44838221886832419 -0.4464230337388379 0 -0.45249717469141032 -0.46588444847215849 0 -0.45755175660874181 -0.45423607616472811 0 -0.44838221886832419 -0.4464230337388379 0 -0.45249717469141032 -0.46588444847215849 0 -0.4323685956611692 -0.45541000997427139 0 -0.43763952177061649 -0.47770500498713542 0 -0.45249717469141032 -0.46588444847215849 0 -0.4323685956611692 -0.45541000997427139 0 -0.47066899942757451 -0.47576530412887819 0 -0.45249717469141032 -0.46588444847215849 0 -0.4675747862741928 -0.45726336772241771 0 -0.45249717469141032 -0.46588444847215849 0 -0.45755175660874181 -0.45423607616472811 0 -0.4675747862741928 -0.45726336772241771 0 -0.44838221886832419 -0.4464230337388379 0 -0.46897642374787268 -0.44262015471777721 0 -0.45660235518767722 -0.42786105997071933 0 -0.44838221886832419 -0.4464230337388379 0 -0.45755175660874181 -0.45423607616472811 0 -0.46897642374787268 -0.44262015471777721 0 -0.45755175660874181 -0.45423607616472811 0 -0.4675747862741928 -0.45726336772241771 0 -0.46897642374787268 -0.44262015471777721 0 -0.4943900888896422 -0.47349089190363358 0 -0.5 -0.44150235328842258 0 -0.49450059031402238 -0.44698178380727199 0 -0.46897642374787268 -0.44262015471777721 0 -0.48473746643246862 -0.43972512984246093 0 -0.48043585850414389 -0.43127077967876992 0 -0.46897642374787268 -0.44262015471777721 0 -0.4826166755055763 -0.45153060825775743 0 -0.48473746643246862 -0.43972512984246093 0 -0.4675747862741928 -0.45726336772241771 0 -0.46897642374787268 -0.44262015471777721 0 -0.4826166755055763 -0.45153060825775743 0 -0.47066899942757451 -0.47576530412887819 0 -0.4826166755055763 -0.45153060825775743 0 -0.4943900888896422 -0.47349089190363358 0 -0.47066899942757451 -0.47576530412887819 0 -0.4826166755055763 -0.45153060825775743 0 -0.47066899942757451 -0.47576530412887819 0 -0.4675747862741928 -0.45726336772241771 0 -0.4826166755055763 -0.45153060825775743 0 -0.4943900888896422 -0.47349089190363358 0 -0.49450059031402238 -0.44698178380727199 0 -0.4943900888896422 -0.47349089190363358 0 -0.4826166755055763 -0.45153060825775743 0 -0.49450059031402238 -0.44698178380727199 0 -0.4826166755055763 -0.45153060825775743 0 -0.48473746643246862 -0.43972512984246093 0 -0.49450059031402238 -0.44698178380727199 0 -0.5 -0.44150235328842258 0 -0.49461109173840262 -0.42047267571091063 0 -0.5 -0.39656953661894012 0 -0.49450059031402238 -0.44698178380727199 0 -0.49461109173840262 -0.42047267571091063 0 -0.48473746643246862 -0.43972512984246093 0 -0.49461109173840262 -0.42047267571091063 0 -0.48043585850414389 -0.43127077967876992 0 -0.5 -0.44150235328842258 0 -0.49450059031402238 -0.44698178380727199 0 -0.49461109173840262 -0.42047267571091063 0 -0.48473746643246862 -0.43972512984246093 0 -0.49450059031402238 -0.44698178380727199 0 -0.49461109173840262 -0.42047267571091063 0 -0.49461109173840262 -0.42047267571091063 0 -0.4947215931627828 -0.39396356761454909 0 -0.49461109173840262 -0.42047267571091063 0 -0.48393842445605872 -0.40713040098299402 0 -0.4947215931627828 -0.39396356761454909 0 -0.49461109173840262 -0.42047267571091063 0 -0.48393842445605872 -0.40713040098299402 0 -0.47214510592166908 -0.41939033492402211 0 -0.48393842445605872 -0.40713040098299402 0 -0.47214510592166908 -0.41939033492402211 0 -0.47427590700138023 -0.39469502568249409 0 -0.46897642374787268 -0.44262015471777721 0 -0.47214510592166908 -0.41939033492402211 0 -0.48043585850414389 -0.43127077967876992 0 -0.49461109173840262 -0.42047267571091063 0 -0.47214510592166908 -0.41939033492402211 0 -0.48043585850414389 -0.43127077967876992 0 -0.5 -0.39656953661894012 0 -0.4947215931627828 -0.39396356761454909 0 -0.48030453056746109 -0.36861144308094029 0 -0.49461109173840262 -0.42047267571091063 0 -0.5 -0.39656953661894012 0 -0.4947215931627828 -0.39396356761454909 0 -0.48393842445605872 -0.40713040098299402 0 -0.4947215931627828 -0.39396356761454909 0 -0.47427590700138023 -0.39469502568249409 0 -0.47427590700138023 -0.39469502568249409 0 -0.48030453056746109 -0.36861144308094029 0 -0.4947215931627828 -0.39396356761454909 0 -0.47427590700138023 -0.39469502568249409 0 -0.48030453056746109 -0.36861144308094029 0 -0.47427590700138023 -0.39469502568249409 0 -0.46334377193483078 -0.37842983215876019 0 -0.48030453056746109 -0.36861144308094029 0 -0.46334377193483078 -0.37842983215876019 0 -0.45726543839001688 -0.40541672899881109 0 -0.44416021803808919 -0.38243724496113263 0 -0.47427590700138023 -0.39469502568249409 0 -0.46334377193483078 -0.37842983215876019 0 -0.45726543839001688 -0.40541672899881109 0 -0.45726543839001688 -0.40541672899881109 0 -0.43814282409564848 -0.40387353522152758 0 -0.44416021803808919 -0.38243724496113263 0 -0.43814282409564848 -0.40387353522152758 0 -0.44416021803808919 -0.38243724496113263 0 -0.4329908326547659 -0.40007252460533121 0 -0.43814282409564848 -0.40387353522152758 0 -0.44416021803808919 -0.38243724496113263 0 -0.46897642374787268 -0.44262015471777721 0 -0.47214510592166908 -0.41939033492402211 0 -0.45660235518767722 -0.42786105997071933 0 -0.47214510592166908 -0.41939033492402211 0 -0.47427590700138023 -0.39469502568249409 0 -0.45726543839001688 -0.40541672899881109 0 -0.47214510592166908 -0.41939033492402211 0 -0.45726543839001688 -0.40541672899881109 0 -0.45660235518767722 -0.42786105997071933 0 -0.45726543839001688 -0.40541672899881109 0 -0.45660235518767722 -0.42786105997071933 0 -0.44309263043645408 -0.41812298423377797 0 -0.45726543839001688 -0.40541672899881109 0 -0.43814282409564848 -0.40387353522152758 0 -0.44309263043645408 -0.41812298423377797 0 -0.43814282409564848 -0.40387353522152758 0 -0.44309263043645408 -0.41812298423377797 0 -0.43209373842114163 -0.42530092927673752 0 -0.44838221886832419 -0.4464230337388379 0 -0.45660235518767722 -0.42786105997071933 0 -0.44213238819953832 -0.43491600865963681 0 -0.45660235518767722 -0.42786105997071933 0 -0.44213238819953832 -0.43491600865963681 0 -0.43132710435572019 -0.42815377149591122 0 -0.45660235518767722 -0.42786105997071933 0 -0.44309263043645408 -0.41812298423377797 0 -0.43132710435572019 -0.42815377149591122 0 -0.45660235518767722 -0.42786105997071933 0 -0.43132710435572019 -0.42815377149591122 0 -0.44213238819953832 -0.43491600865963681 0 -0.42986244815509678 -0.43337144475258638 0 -0.435988539966085 -0.44148905847597392 0 -0.44213238819953832 -0.43491600865963681 0 -0.42986244815509678 -0.43337144475258638 0 -0.43132710435572019 -0.42815377149591122 0 -0.42986244815509678 -0.43337144475258638 0 -0.43132710435572019 -0.42815377149591122 0 -0.42986244815509678 -0.43337144475258638 0 -0.42494843276815808 -0.42822764260015772 0 -0.42026026496879931 -0.43681168621285732 0 -0.42986244815509678 -0.43337144475258638 0 -0.42494843276815808 -0.42822764260015772 0 -0.43132710435572019 -0.42815377149591122 0 -0.42494843276815808 -0.42822764260015772 0 -0.43209373842114163 -0.42530092927673752 0 -0.42214799869492048 -0.41876725226122891 0 -0.42494843276815808 -0.42822764260015772 0 -0.43209373842114163 -0.42530092927673752 0 -0.42494843276815808 -0.42822764260015772 0 -0.43209373842114163 -0.42530092927673752 0 -0.43132710435572019 -0.42815377149591122 0 -0.42494843276815808 -0.42822764260015772 0 -0.43132710435572019 -0.42815377149591122 0 -0.44309263043645408 -0.41812298423377797 0 -0.43209373842114163 -0.42530092927673752 0 -0.43132710435572019 -0.42815377149591122 0 -0.43209373842114163 -0.42530092927673752 0 -0.43132710435572019 -0.42815377149591122 0 -0.43814282409564848 -0.40387353522152758 0 -0.43209373842114163 -0.42530092927673752 0 -0.43814282409564848 -0.40387353522152758 0 -0.43209373842114163 -0.42530092927673752 0 -0.42736227186559528 -0.41250939947999687 0 -0.43814282409564848 -0.40387353522152758 0 -0.42736227186559528 -0.41250939947999687 0 -0.42798743510346321 -0.40461924019690898 0
[...]
<PointData Scalars="" Vectors="displacement," Tensors="">
<DataArray type="Float64" Name="displacement" NumberOfComponents="3" format="ascii">
0.05499941475096827 0.054370708264043027 0 0.054136748712799929 0.054158538914050459 0 0.054998704442131167 0.054377698059593804 0 0.05500082788975081 0.05499542091389404 0 0.052147272621874199 0.055565872757857113 0 0.05500082788975081 0.05499542091389404 0 0.052147272621874199 0.055565872757857113 0 0.048564185619700675 0.055002391019655844 0 0.055000170091315297 0.054369079041255666 0 0.056431823593952969 0.052820436058234735 0 0.055872389995847635 0.052985722160518813 0 0.055000170091315297 0.054369079041255666 0 0.054999728012926664 0.052415103992943309 0 0.055872389995847635 0.052985722160518813 0 0.056431823593952969 0.052820436058234735 0 0.056479087605387363 0.052417624958378511 0 0.055872389995847635 0.052985722160518813 0 0.056479087605387363 0.052417624958378511 0 0.054999728012926664 0.052415103992943309 0 0.055872389995847635 0.052985722160518813 0 0.055478036121389643 0.05201189842626492 0 0.054998986900666021 0.050457450247277845 0 0.055326702041151671 0.050575644343710667 0 0.056479087605387363 0.052417624958378511 0 0.054999728012926664 0.052415103992943309 0 0.054999917840272937 0.050460440507032675 0 0.055957116344485844 0.05215418738835826 0 0.055000158013009677 0.05045991981680472 0 0.055478036121389643 0.05201189842626492 0 0.055326702041151671 0.050575644343710667 0 0.05556710024961696 0.051552586012013339 0 0.055237661085285827 0.05022134898129843 0 0.055326702041151671 0.050575644343710667 0 0.05556710024961696 0.051552586012013339 0 0.055237661085285827 0.05022134898129843 0 0.054999679095376307 0.048724679622566658 0 0.055326702041151671 0.050575644343710667 0 0.055677925993864105 0.04922144932193858 0 0.054999792425320583 0.048720502586296434 0 0.054998986900666021 0.050457450247277845 0 0.054999679095376307 0.048724679622566658 0 0.055326702041151671 0.050575644343710667 0 0.056111280707451992 0.052310235110700071 0 0.056379809315679708 0.049515905493258849 0 0.056928963968214501 0.050720826634194964 0 0.056111280707451992 0.052310235110700071 0 0.056600215225137161 0.052080870521044764 0 0.056928963968214501 0.050720826634194964 0 0.056111280707451992 0.052310235110700071 0 0.05556710024961696 0.051552586012013339 0 0.055758254544909638 0.052385076608154169 0 0.056111280707451992 0.052310235110700071 0 0.05556710024961696 0.051552586012013339 0 0.056379809315679708 0.049515905493258849 0 0.055237661085285827 0.05022134898129843 0 0.05556710024961696 0.051552586012013339 0 0.056379809315679708 0.049515905493258849 0 0.055478036121389643 0.05201189842626492 0 0.05556710024961696 0.051552586012013339 0 0.05568095889985334 0.052570540561288882 0 0.05556710024961696 0.051552586012013339 0 0.055758254544909638 0.052385076608154169 0 0.05568095889985334 0.052570540561288882 0 0.056111280707451992 0.052310235110700071 0 0.055334090011971933 0.053485566710132063 0 0.054489315070654763 0.05516923747272065 0 0.056111280707451992 0.052310235110700071 0 0.055758254544909638 0.052385076608154169 0 0.055334090011971933 0.053485566710132063 0 0.055758254544909638 0.052385076608154169 0 0.05568095889985334 0.052570540561288882 0 0.055334090011971933 0.053485566710132063 0 0.052147272621874199 0.055565872757857113 0 0.048564185619700675 0.055002391019655844 0 0.049182907881009985 0.055604411335658244 0 0.055334090011971933 0.053485566710132063 0 0.054461567519015604 0.052565114466481766 0 0.053268062560966389 0.053044489277857813 0 0.055334090011971933 0.053485566710132063 0 0.055692951310333604 0.052640359697039681 0 0.054461567519015604 0.052565114466481766 0 0.05568095889985334 0.052570540561288882 0 0.055334090011971933 0.053485566710132063 0 0.055692951310333604 0.052640359697039681 0 0.055957116344485844 0.05215418738835826 0 0.055742324235762183 0.052580379111530733 0 0.056431823593952969 0.052820436058234735 0 0.056479087605387363 0.052417624958378511 0 0.055692951310333604 0.052640359697039681 0 0.055478036121389643 0.05201189842626492 0 0.05568095889985334 0.052570540561288882 0 0.055692951310333604 0.052640359697039681 0 0.054136748712799929 0.054158538914050459 0 0.052226167231131153 0.053652854210263362 0 0.056431823593952969 0.052820436058234735 0 0.055692951310333604 0.052640359697039681 0 0.055387452114807785 0.051671472548441351 0 0.055692951310333604 0.052640359697039681 0 0.054461567519015604 0.052565114466481766 0 0.055387452114807785 0.051671472548441351 0 0.048564185619700675 0.055002391019655844 0 0.04621122031874552 0.055585947997291212 0 0.043626670539713287 0.054994492285924942 0 0.052226167231131153 0.053652854210263362 0 0.048660552540714032 0.053622680718908543 0 0.054461567519015604 0.052565114466481766 0 0.051123054428215964 0.051300898080078643 0 0.053268062560966389 0.053044489277857813 0 0.048564185619700675 0.055002391019655844 0 0.049182907881009985 0.055604411335658244 0 0.04621122031874552 0.055585947997291212 0 0.054461567519015604 0.052565114466481766 0 0.055387452114807785 0.051671472548441351 0 0.051123054428215964 0.051300898080078643 0 0.048660552540714032 0.053622680718908543 0 0.044187560880853786 0.054597436049007436 0 0.051123054428215964 0.051300898080078643 0 0.047689819832473251 0.054129079823686664 0 0.04364039345753961 0.054896837853232835 0 0.051123054428215964 0.051300898080078643 0 0.047689819832473251 0.054129079823686664 0 0.051355536297009625 0.054495171799966512 0 0.047689819832473251 0.054129079823686664 0 0.051355536297009625 0.054495171799966512 0 0.045293057667706596 0.05557590693027064 0 0.055334090011971933 0.053485566710132063 0 0.051355536297009625 0.054495171799966512 0 0.053268062560966389 0.053044489277857813 0 0.051123054428215964 0.051300898080078643 0 0.051355536297009625 0.054495171799966512 0 0.053268062560966389 0.053044489277857813 0 0.043626670539713287 0.054994492285924942 0 0.04364039345753961 0.054896837853232835 0 0.041093331276919304 0.056323250939939257 0 0.04621122031874552 0.055585947997291212 0 0.043626670539713287 0.054994492285924942 0 0.04364039345753961 0.054896837853232835 0 0.047689819832473251 0.054129079823686664 0 0.04364039345753961 0.054896837853232835 0 0.045293057667706596 0.05557590693027064 0 0.044913999356022423 0.055645647117280636 0 0.041638934592660333 0.055348005687218545 0 0.04364039345753961 0.054896837853232835 0 0.045293057667706596 0.05557590693027064 0 0.041093331276919304 0.056323250939939257 0 0.045293057667706596 0.05557590693027064 0 0.043261225202173979 0.056756530973852054 0 0.04193770203596086 0.054560587246006764 0 0.043261225202173979 0.056756530973852054 0 0.048031011723611156 0.057118906134381052 0 0.043914131737638425 0.059654950059609663 0 0.045293057667706596 0.05557590693027064 0 0.043261225202173979 0.056756530973852054 0 0.048031011723611156 0.057118906134381052 0 0.048031011723611156 0.057118906134381052 0 0.047840654456577786 0.060833217123701669 0 0.043914131737638425 0.059654950059609663 0 0.045128791226359835 0.047765353284725316 0 0.044855573885903034 0.04757939428380193 0 0.045206343326677507 0.047622673133400045 0 0.045962678810038744 0.054516690959712788 0 0.045195202639469988 0.053589271884204974 0 0.055334090011971933 0.053485566710132063 0 0.051355536297009625 0.054495171799966512 0 0.054489315070654763 0.05516923747272065 0 0.051355536297009625 0.054495171799966512 0 0.045293057667706596 0.05557590693027064 0 0.048031011723611156 0.057118906134381052 0 0.051355536297009625 0.054495171799966512 0 0.048031011723611156 0.057118906134381052 0 0.054489315070654763 0.05516923747272065 0 0.048031011723611156 0.057118906134381052 0 0.054489315070654763 0.05516923747272065 0 0.05143591441603055 0.059639066010705587 0 0.048031011723611156 0.057118906134381052 0 0.047840654456577786 0.060833217123701669 0 0.05143591441603055 0.059639066010705587 0 0.047840654456577786 0.060833217123701669 0 0.05143591441603055 0.059639066010705587 0 0.05346124028670577 0.062779223385108163 0 0.056111280707451992 0.052310235110700071 0 0.054489315070654763 0.05516923747272065 0 0.056600215225137161 0.052080870521044764 0 0.054489315070654763 0.05516923747272065 0 0.056600215225137161 0.052080870521044764 0 0.059009807590041131 0.050051320163133933 0 0.054489315070654763 0.05516923747272065 0 0.05143591441603055 0.059639066010705587 0 0.054304117860307755 0.063030355233219565 0 0.055377282240644823 0.056479486257578392 0 0.054454654725608183 0.052767923177295124 0 0.056600215225137161 0.052080870521044764 0 0.058289898416165796 0.049706137422947029 0 0.056928963968214501 0.050720826634194964 0 0.056600215225137161 0.052080870521044764 0 0.058289898416165796 0.049706137422947029 0 0.059009807590041131 0.050051320163133933 0 0.056717703966438299 0.052393636848047057 0 0.054454654725608183 0.052767923177295124 0 0.058289898416165796 0.049706137422947029 0 0.059385630602808707 0.048784361016100015 0 0.058527703015621671 0.048043805464083975 0 0.058289898416165796 0.049706137422947029 0 0.059385630602808707 0.048784361016100015 0 0.059346142265875271 0.050027083161765316 0 0.043111582768723081 0.046871358695927554 0 0.043401268181815507 0.047474211851807571 0 0.043874934304942208 0.046624583729263633 0 0.054323650870983425 0.047516354377776758 0 0.050961294151413157 0.051602330228131994 0 0.053030586160295226 0.048857481389756041 0 0.054445076282969913 0.052360218884837384 0 0.053056296294853492 0.051984233681617587 0 0.054323650870983425 0.047516354377776758 0 0.054454654725608183 0.052767923177295124 0 0.05143591441603055 0.059639066010705587 0 0.05346124028670577 0.062779223385108163 0 0.054304117860307755 0.063030355233219565 0 0.050961294151413157 0.051602330228131994 0 0.054454654725608183 0.052767923177295124 0 0.045962678810038744 0.054516690959712788 0 0.050961294151413157 0.051602330228131994 0 0.045128791226359835 0.047765353284725316 0 0.043401268181815507 0.047474211851807571 0 0.044392962281463777 0.047066087633164583 0 0.045128791226359835 0.047765353284725316 0 0.044392962281463777 0.047066087633164583 0 0.044947893444713068 0.047163153263783245 0 0.044392962281463777 0.047066087633164583 0 0.043874934304942208 0.046624583729263633 0 0.044552115797018038 0.046142037834005438 0 0.044392962281463777 0.047066087633164583 0 0.044552115797018038 0.046142037834005438 0 0.044947893444713068 0.047163153263783245 0 0.043401268181815507 0.047474211851807571 0 0.044392962281463777 0.047066087633164583 0 0.043874934304942208 0.046624583729263633 0 0.044552115797018038 0.046142037834005438 0 0.043766901687372274 0.045840756350467131 0 0.044326481829473109 0.044715461345292987 0 0.044552115797018038 0.046142037834005438 0 0.045215771369371861 0.045059808773194293 0 0.044326481829473109 0.044715461345292987 0 0.043874934304942208 0.046624583729263633 0 0.044552115797018038 0.046142037834005438 0 0.043766901687372274 0.045840756350467131 0 0.059385630602808707 0.048784361016100015 0 0.058527703015621671 0.048043805464083975 0 0.059261556281800153 0.045637654381286467 0 0.054323650870983425 0.047516354377776758 0 0.059991906440091405 0.044437437987259791 0 0.060252022627201737 0.044872744751535486 0 0.059701081416703487 0.043098766716633902 0 0.06035685055598667 0.04293912186390534 0 0.054323650870983425 0.047516354377776758 0 0.051414623965443502 0.043418879448094382 0 0.043111582768723081 0.046871358695927554 0 0.043766901687372274 0.045840756350467131 0 0.042971588753801263 0.044805072853086554 0 0.043111582768723081 0.046871358695927554 0 0.043874934304942208 0.046624583729263633 0 0.043766901687372274 0.045840756350467131 0 0.048008470162928835 0.046319618522312221 0 0.039146625007280784 0.049807560398525949 0 0.045206343326677507 0.047622673133400045 0 0.04602569171727338 0.046274727892594632 0 0.047198692590118697 0.046364442963590956 0 0.044816840381978806 0.047777165596030596 0 0.045206343326677507 0.047622673133400045 0 0.044674109761630644 0.048128649430633497 0 0.044855573885903034 0.04757939428380193 0 0.044816840381978806 0.047777165596030596 0 0.045206343326677507 0.047622673133400045 0 0.044816840381978806 0.047777165596030596 0 0.044674109761630644 0.048128649430633497 0 0.044495206037279439 0.047791936992447978 0 0.044855573885903034 0.04757939428380193 0 0.044816840381978806 0.047777165596030596 0 0.044495206037279439 0.047791936992447978 0 0.045206343326677507 0.047622673133400045 0 0.045212256945651751 0.046613999911022309 0 0.04602569171727338 0.046274727892594632 0 0.045128791226359835 0.047765353284725316 0 0.045206343326677507 0.047622673133400045 0 0.044947893444713068 0.047163153263783245 0 0.045206343326677507 0.047622673133400045 0 0.044947893444713068 0.047163153263783245 0 0.045212256945651751 0.046613999911022309 0 0.044552115797018038 0.046142037834005438 0 0.044947893444713068 0.047163153263783245 0 0.045212256945651751 0.046613999911022309 0 0.045766316233199412 0.045235231703718411 0 0.04602569171727338 0.046274727892594632 0 0.046587800720299118 0.044773223467616356 0 0.044552115797018038 0.046142037834005438 0 0.045212256945651751 0.046613999911022309 0 0.04535255277202617 0.045867781323874625 0 0.044552115797018038 0.046142037834005438 0 0.04535255277202617 0.045867781323874625 0 0.045215771369371861 0.045059808773194293 0 0.04535255277202617 0.045867781323874625 0 0.045766316233199412 0.045235231703718411 0 0.045215771369371861 0.045059808773194293 0 0.04535255277202617 0.045867781323874625 0 0.045766316233199412 0.045235231703718411 0 0.04602569171727338 0.046274727892594632 0 0.045212256945651751 0.046613999911022309 0 0.04535255277202617 0.045867781323874625 0 0.04602569171727338 0.046274727892594632 0 0.046034368141135616 0.046260538524491503 0 0.042350935936403919 0.042968472786664276 0 0.04602569171727338 0.046274727892594632 0 0.04679799758000152 0.045603113797794526 0 0.046399398039912686 0.044852944163984138 0 0.04602569171727338 0.046274727892594632 0 0.046812104051165877 0.046104896157152492 0 0.047198692590118697 0.046364442963590956 0 0.04602569171727338 0.046274727892594632 0 0.04680442175942201 0.045818132918516601 0 0.046812104051165877 0.046104896157152492 0 0.04602569171727338 0.046274727892594632 0 0.04680442175942201 0.045818132918516601 0 0.04679799758000152 0.045603113797794526 0 0.03873994138208172 0.045318472757230707 0 0.039686688986993249 0.044037530894272744 0 0.04680442175942201 0.045818132918516601 0 0.046971200910054106 0.045939043941692438 0 0.046792614852042343 0.045600707770348782 0 0.033635310525745747 0.04167038467245044 0 0.033412302385662528 0.041236028036542527 0 0.035021143735978741 0.040299986851511434 0 0.04011979336544063 0.044413541056559709 0 0.039686688986993249 0.044037530894272744 0 0.03873994138208172 0.045318472757230707 0 0.039146625007280784 0.049807560398525949 0 0.04696900294396885 0.045948257658601714 0 0.046812104051165877 0.046104896157152492 0 0.047198692590118697 0.046364442963590956 0 0.04680442175942201 0.045818132918516601 0 0.046971200910054106 0.045939043941692438 0 0.046812104051165877 0.046104896157152492 0 0.03873994138208172 0.045318472757230707 0 0.040057987512745349 0.044692791561384171 0 0.038273978514274921 0.044172236619737341 0 0.038202794041047247 0.037733285083289547 0 0.036734720779410632 0.041172192534252444 0 0.040082133829905248 0.039194081610071929 0 0.040033624873223136 0.039336996523228106 0 0.039920809057604263 0.039060788726870251 0 0.033412302385662528 0.041236028036542527 0 0.033377969801054258 0.039147594568878896 0 0.035021143735978741 0.040299986851511434 0 0.039686688986993249 0.044037530894272744 0 0.034004279286704069 0.03606761733627762 0 0.039686688986993249 0.044037530894272744 0 0.042350935936403919 0.042968472786664276 0 0.034004279286704069 0.03606761733627762 0 0.042350935936403919 0.042968472786664276 0 0.046587800720299118 0.044773223467616356 0 0.04568567518755616 0.044203329602251311 0 0.045714686813662038 0.043007840257924937 0 0.042350935936403919 0.042968472786664276 0 0.041850856366736487 0.038955859002327849 0 0.045766316233199412 0.045235231703718411 0 0.04568567518755616 0.044203329602251311 0 0.045215771369371861 0.045059808773194293 0 0.045766316233199412 0.045235231703718411 0 0.046587800720299118 0.044773223467616356 0 0.04568567518755616 0.044203329602251311 0 0.04568567518755616 0.044203329602251311 0 0.045215771369371861 0.045059808773194293 0 0.045113668514592059 0.044337131078895607 0 0.045215771369371861 0.045059808773194293 0 0.045113668514592059 0.044337131078895607 0 0.044326481829473109 0.044715461345292987 0 0.045113668514592059 0.044337131078895607 0 0.045349833412557251 0.043522163883516901 0 0.044796853718717444 0.043727228955619174 0 0.04568567518755616 0.044203329602251311 0 0.045113668514592059 0.044337131078895607 0 0.045349833412557251 0.043522163883516901 0 0.045029394953845482 0.04280050499718948 0 0.045378739855287495 0.042809078543354015 0 0.044796853718717444 0.043727228955619174 0 0.045378739855287495 0.042809078543354015 0 0.045968307688367321 0.042611940038336515 0 0.044796853718717444 0.043727228955619174 0 0.045349833412557251 0.043522163883516901 0 0.0455451634037169 0.042899391610420626 0 0.044796853718717444 0.043727228955619174 0 0.042367967013241491 0.038396254261012223 0 0.04416778877775776 0.043030068928828789 0 0.042367967013241491 0.038396254261012223 0 0.041978221554744802 0.033536831804175257 0 0.045571247853648085 0.042136594887565833 0 0.045961994484244782 0.042602048684818344 0 0.045654665844633985 0.041612758133990367 0 0.045029394953845482 0.04280050499718948 0 0.045378739855287495 0.042809078543354015 0 0.04535525703583123 0.042422162809299044 0 0.045029394953845482 0.04280050499718948 0 0.045072157480032425 0.042116260281231888 0 0.04535525703583123 0.042422162809299044 0 0.045072157480032425 0.042116260281231888 0 0.04535525703583123 0.042422162809299044 0 0.045571247853648085 0.042136594887565833 0 0.04535525703583123 0.042422162809299044 0 0.045571247853648085 0.042136594887565833 0 0.045741575063227354 0.042445156695770446 0 0.045571247853648085 0.042136594887565833 0 0.045741575063227354 0.042445156695770446 0 0.045961994484244782 0.042602048684818344 0 0.043122173165673565 0.039001698178778278 0 0.042367967013241491 0.038396254261012223 0 0.045378739855287495 0.042809078543354015 0 0.045741575063227354 0.042445156695770446 0 0.045968307688367321 0.042611940038336515 0 0.045378739855287495 0.042809078543354015 0 0.04535525703583123 0.042422162809299044 0 0.045741575063227354 0.042445156695770446 0 0.041778074911078607 0.034163274528119701 0 0.041963146391226412 0.03396412366993895 0 0.041647095160075705 0.033770997633089432 0 0.038829605054667461 0.034385954233953575 0 0.038084341055773289 0.036392689791091962 0 0.033344407468271796 0.033597421587070124 0 0.038829605054667461 0.034385954233953575 0 0.039570954900825586 0.034891326998102483 0 0.038084341055773289 0.036392689791091962 0 0.041850856366736487 0.038955859002327849 0 0.042367967013241491 0.038396254261012223 0 0.042367967013241491 0.038396254261012223 0 0.03940299714412708 0.031884712123320683 0 0.04568567518755616 0.044203329602251311 0 0.045349833412557251 0.043522163883516901 0 0.045714686813662038 0.043007840257924937 0 0.045349833412557251 0.043522163883516901 0 0.045714686813662038 0.043007840257924937 0 0.0455451634037169 0.042899391610420626 0 0.034004279286704069 0.03606761733627762 0 0.041850856366736487 0.038955859002327849 0 0.038829605054667461 0.034385954233953575 0 0.033344407468271796 0.033597421587070124 0 0.03333366801742968 0.032019298545458152 0 0.03332337132729446 0.030659304114982484 0 0.038829605054667461 0.034385954233953575 0 0.03333366801742968 0.032019298545458152 0 0.03940299714412708 0.031884712123320683 0 0.0283266669964168 0.026537311471223179 0 0.0283266669964168 0.026537311471223179 0 0.024624527536163725 0.020364090845615964 0 0.019930707238937771 0.020626934658458589 0 0.02106916819492138 0.019370131511689197 0 0.020952151313963177 0.018383729301242071 0 0.