<?xml version="1.0"?>
<VTKFile type="UnstructuredGrid" version="0.1" byte_order="LittleEndian">
<UnstructuredGrid>
<Piece NumberOfPoints="30618" NumberOfCells="10744">
<Points>
<DataArray type="Float64" NumberOfComponents="3" format="ascii">
-0.49427958746526202 -0.49999999999999512 0 -0.4943900888896422 -0.47349089190363358 0 -0.49427958746526202 -0.49999999999999512 0 -0.5 -0.5 0 -0.4943900888896422 -0.47349089190363358 0 -0.5 -0.5 0 -0.4943900888896422 -0.47349089190363358 0 -0.5 -0.44150235328842258 0 -0.49427958746526202 -0.49999999999999512 0 -0.4943900888896422 -0.47349089190363358 0 -0.48436842240857858 -0.48714093788813112 0 -0.49427958746526202 -0.49999999999999512 0 -0.47650045540741742 -0.5 0 -0.48436842240857858 -0.48714093788813112 0 -0.4943900888896422 -0.47349089190363358 0 -0.47066899942757451 -0.47576530412887819 0 -0.48436842240857858 -0.48714093788813112 0 -0.47066899942757451 -0.47576530412887819 0 -0.47650045540741742 -0.5 0 -0.48436842240857858 -0.48714093788813112 0 -0.47066899942757451 -0.47576530412887819 0 -0.45872132334957288 -0.49999999999999928 0 -0.45242967983978871 -0.4846708604340636 0 -0.47066899942757451 -0.47576530412887819 0 -0.47650045540741742 -0.5 0 -0.45872132334957288 -0.49999999999999928 0 -0.47066899942757451 -0.47576530412887819 0 -0.45872132334957288 -0.49999999999999928 0 -0.47066899942757451 -0.47576530412887819 0 -0.45242967983978871 -0.4846708604340636 0 -0.45249717469141032 -0.46588444847215849 0 -0.43763952177061649 -0.47770500498713542 0 -0.45242967983978871 -0.4846708604340636 0 -0.45249717469141032 -0.46588444847215849 0 -0.43763952177061649 -0.47770500498713542 0 -0.44291044788006362 -0.49999999999999939 0 -0.45242967983978871 -0.4846708604340636 0 -0.43763952177061649 -0.47770500498713542 0 -0.44291044788006362 -0.49999999999999939 0 -0.45872132334957288 -0.49999999999999928 0 -0.44291044788006362 -0.49999999999999939 0 -0.45242967983978871 -0.4846708604340636 0 -0.44838221886832419 -0.4464230337388379 0 -0.4323685956611692 -0.45541000997427139 0 -0.435988539966085 -0.44148905847597392 0 -0.44838221886832419 -0.4464230337388379 0 -0.44213238819953832 -0.43491600865963681 0 -0.435988539966085 -0.44148905847597392 0 -0.44838221886832419 -0.4464230337388379 0 -0.45249717469141032 -0.46588444847215849 0 -0.45755175660874181 -0.45423607616472811 0 -0.44838221886832419 -0.4464230337388379 0 -0.45249717469141032 -0.46588444847215849 0 -0.4323685956611692 -0.45541000997427139 0 -0.43763952177061649 -0.47770500498713542 0 -0.45249717469141032 -0.46588444847215849 0 -0.4323685956611692 -0.45541000997427139 0 -0.47066899942757451 -0.47576530412887819 0 -0.45249717469141032 -0.46588444847215849 0 -0.4675747862741928 -0.45726336772241771 0 -0.45249717469141032 -0.46588444847215849 0 -0.45755175660874181 -0.45423607616472811 0 -0.4675747862741928 -0.45726336772241771 0 -0.44838221886832419 -0.4464230337388379 0 -0.46897642374787268 -0.44262015471777721 0 -0.45660235518767722 -0.42786105997071933 0 -0.44838221886832419 -0.4464230337388379 0 -0.45755175660874181 -0.45423607616472811 0 -0.46897642374787268 -0.44262015471777721 0 -0.45755175660874181 -0.45423607616472811 0 -0.4675747862741928 -0.45726336772241771 0 -0.46897642374787268 -0.44262015471777721 0 -0.4943900888896422 -0.47349089190363358 0 -0.5 -0.44150235328842258 0 -0.49450059031402238 -0.44698178380727199 0 -0.46897642374787268 -0.44262015471777721 0 -0.48473746643246862 -0.43972512984246093 0 -0.48043585850414389 -0.43127077967876992 0 -0.46897642374787268 -0.44262015471777721 0 -0.4826166755055763 -0.45153060825775743 0 -0.48473746643246862 -0.43972512984246093 0 -0.4675747862741928 -0.45726336772241771 0 -0.46897642374787268 -0.44262015471777721 0 -0.4826166755055763 -0.45153060825775743 0 -0.47066899942757451 -0.47576530412887819 0 -0.4826166755055763 -0.45153060825775743 0 -0.4943900888896422 -0.47349089190363358 0 -0.47066899942757451 -0.47576530412887819 0 -0.4826166755055763 -0.45153060825775743 0 -0.47066899942757451 -0.47576530412887819 0 -0.4675747862741928 -0.45726336772241771 0 -0.4826166755055763 -0.45153060825775743 0 -0.4943900888896422 -0.47349089190363358 0 -0.49450059031402238 -0.44698178380727199 0 -0.4943900888896422 -0.47349089190363358 0 -0.4826166755055763 -0.45153060825775743 0 -0.49450059031402238 -0.44698178380727199 0 -0.4826166755055763 -0.45153060825775743 0 -0.48473746643246862 -0.43972512984246093 0 -0.49450059031402238 -0.44698178380727199 0 -0.5 -0.44150235328842258 0 -0.49461109173840262 -0.42047267571091063 0 -0.5 -0.39656953661894012 0 -0.49450059031402238 -0.44698178380727199 0 -0.49461109173840262 -0.42047267571091063 0 -0.48473746643246862 -0.43972512984246093 0 -0.49461109173840262 -0.42047267571091063 0 -0.48043585850414389 -0.43127077967876992 0 -0.5 -0.44150235328842258 0 -0.49450059031402238 -0.44698178380727199 0 -0.49461109173840262 -0.42047267571091063 0 -0.48473746643246862 -0.43972512984246093 0 -0.49450059031402238 -0.44698178380727199 0 -0.49461109173840262 -0.42047267571091063 0 -0.49461109173840262 -0.42047267571091063 0 -0.4947215931627828 -0.39396356761454909 0 -0.49461109173840262 -0.42047267571091063 0 -0.48393842445605872 -0.40713040098299402 0 -0.4947215931627828 -0.39396356761454909 0 -0.49461109173840262 -0.42047267571091063 0 -0.48393842445605872 -0.40713040098299402 0 -0.47214510592166908 -0.41939033492402211 0 -0.48393842445605872 -0.40713040098299402 0 -0.47214510592166908 -0.41939033492402211 0 -0.47427590700138023 -0.39469502568249409 0 -0.46897642374787268 -0.44262015471777721 0 -0.47214510592166908 -0.41939033492402211 0 -0.48043585850414389 -0.43127077967876992 0 -0.49461109173840262 -0.42047267571091063 0 -0.47214510592166908 -0.41939033492402211 0 -0.48043585850414389 -0.43127077967876992 0 -0.5 -0.39656953661894012 0 -0.4947215931627828 -0.39396356761454909 0 -0.48030453056746109 -0.36861144308094029 0 -0.49461109173840262 -0.42047267571091063 0 -0.5 -0.39656953661894012 0 -0.4947215931627828 -0.39396356761454909 0 -0.48393842445605872 -0.40713040098299402 0 -0.4947215931627828 -0.39396356761454909 0 -0.47427590700138023 -0.39469502568249409 0 -0.47427590700138023 -0.39469502568249409 0 -0.48030453056746109 -0.36861144308094029 0 -0.4947215931627828 -0.39396356761454909 0 -0.47427590700138023 -0.39469502568249409 0 -0.48030453056746109 -0.36861144308094029 0 -0.47427590700138023 -0.39469502568249409 0 -0.46334377193483078 -0.37842983215876019 0 -0.48030453056746109 -0.36861144308094029 0 -0.46334377193483078 -0.37842983215876019 0 -0.45726543839001688 -0.40541672899881109 0 -0.44416021803808919 -0.38243724496113263 0 -0.47427590700138023 -0.39469502568249409 0 -0.46334377193483078 -0.37842983215876019 0 -0.45726543839001688 -0.40541672899881109 0 -0.45726543839001688 -0.40541672899881109 0 -0.43814282409564848 -0.40387353522152758 0 -0.44416021803808919 -0.38243724496113263 0 -0.43814282409564848 -0.40387353522152758 0 -0.44416021803808919 -0.38243724496113263 0 -0.4329908326547659 -0.40007252460533121 0 -0.43814282409564848 -0.40387353522152758 0 -0.44416021803808919 -0.38243724496113263 0 -0.46897642374787268 -0.44262015471777721 0 -0.47214510592166908 -0.41939033492402211 0 -0.45660235518767722 -0.42786105997071933 0 -0.47214510592166908 -0.41939033492402211 0 -0.47427590700138023 -0.39469502568249409 0 -0.45726543839001688 -0.40541672899881109 0 -0.47214510592166908 -0.41939033492402211 0 -0.45726543839001688 -0.40541672899881109 0 -0.45660235518767722 -0.42786105997071933 0 -0.45726543839001688 -0.40541672899881109 0 -0.45660235518767722 -0.42786105997071933 0 -0.44309263043645408 -0.41812298423377797 0 -0.45726543839001688 -0.40541672899881109 0 -0.43814282409564848 -0.40387353522152758 0 -0.44309263043645408 -0.41812298423377797 0 -0.43814282409564848 -0.40387353522152758 0 -0.44309263043645408 -0.41812298423377797 0 -0.43209373842114163 -0.42530092927673752 0 -0.44838221886832419 -0.4464230337388379 0 -0.45660235518767722 -0.42786105997071933 0 -0.44213238819953832 -0.43491600865963681 0 -0.45660235518767722 -0.42786105997071933 0 -0.44213238819953832 -0.43491600865963681 0 -0.43132710435572019 -0.42815377149591122 0 -0.45660235518767722 -0.42786105997071933 0 -0.44309263043645408 -0.41812298423377797 0 -0.43132710435572019 -0.42815377149591122 0 -0.45660235518767722 -0.42786105997071933 0 -0.43132710435572019 -0.42815377149591122 0 -0.44213238819953832 -0.43491600865963681 0 -0.42986244815509678 -0.43337144475258638 0 -0.435988539966085 -0.44148905847597392 0 -0.44213238819953832 -0.43491600865963681 0 -0.42986244815509678 -0.43337144475258638 0 -0.43132710435572019 -0.42815377149591122 0 -0.42986244815509678 -0.43337144475258638 0 -0.43132710435572019 -0.42815377149591122 0 -0.42986244815509678 -0.43337144475258638 0 -0.42494843276815808 -0.42822764260015772 0 -0.42026026496879931 -0.43681168621285732 0 -0.42986244815509678 -0.43337144475258638 0 -0.42494843276815808 -0.42822764260015772 0 -0.43132710435572019 -0.42815377149591122 0 -0.42494843276815808 -0.42822764260015772 0 -0.43209373842114163 -0.42530092927673752 0 -0.42214799869492048 -0.41876725226122891 0 -0.42494843276815808 -0.42822764260015772 0 -0.43209373842114163 -0.42530092927673752 0 -0.42494843276815808 -0.42822764260015772 0 -0.43209373842114163 -0.42530092927673752 0 -0.43132710435572019 -0.42815377149591122 0 -0.42494843276815808 -0.42822764260015772 0 -0.43132710435572019 -0.42815377149591122 0 -0.44309263043645408 -0.41812298423377797 0 -0.43209373842114163 -0.42530092927673752 0 -0.43132710435572019 -0.42815377149591122 0 -0.43209373842114163 -0.42530092927673752 0 -0.43132710435572019 -0.42815377149591122 0 -0.43814282409564848 -0.40387353522152758 0 -0.43209373842114163 -0.42530092927673752 0 -0.43814282409564848 -0.40387353522152758 0 -0.43209373842114163 -0.42530092927673752 0 -0.42736227186559528 -0.41250939947999687 0 -0.43814282409564848 -0.40387353522152758 0 -0.42736227186559528 -0.41250939947999687 0 -0.42798743510346321 -0.40461924019690898 0
[...]
<PointData Scalars="" Vectors="displacement," Tensors="">
<DataArray type="Float64" Name="displacement" NumberOfComponents="3" format="ascii">
2.0296973477608363e-07 0.054999122734613014 0 0.00013424494553218418 0.052630628363926742 0 7.3644768650518735e-09 0.054999154392498383 0 -1.4522349215993535e-08 0.05499985159746397 0 3.2804763428308023e-07 0.052089536453047085 0 -1.4522349215993535e-08 0.05499985159746397 0 3.2804763428308023e-07 0.052089536453047085 0 6.4969673675505543e-08 0.048564855677593895 0 1.5511301501733855e-07 0.054999176119120335 0 0.00015178494236324741 0.053206271626338168 0 0.00010420880033586554 0.054244697189752167 0 1.5511301501733855e-07 0.054999176119120335 0 1.7015536611799874e-07 0.054998737648827727 0 0.00010420880033586554 0.054244697189752167 0 0.00015178494236324741 0.053206271626338168 0 0.00011819715663732958 0.053897675894752813 0 0.00010420880033586554 0.054244697189752167 0 0.00011819715663732958 0.053897675894752813 0 1.7015536611799874e-07 0.054998737648827727 0 0.00010420880033586554 0.054244697189752167 0 0.00069538710689290317 0.052732317382543539 0 1.0275583227541491e-06 0.054998535090698859 0 0.00046840328890182038 0.053953654005449637 0 0.00011819715663732958 0.053897675894752813 0 1.7015536611799874e-07 0.054998737648827727 0 -6.2040084446458313e-08 0.055000141227515877 0 0.0003870878920154334 0.053256920241186792 0 -2.4084378712173203e-08 0.054999315782850923 0 0.00069538710689290317 0.052732317382543539 0 0.00046840328890182038 0.053953654005449637 0 0.00066460750286195846 0.052886222919827093 0 0.00068975446011742571 0.053548369815002189 0 0.00046840328890182038 0.053953654005449637 0 0.00066460750286195846 0.052886222919827093 0 0.00068975446011742571 0.053548369815002189 0 8.0870940461146558e-09 0.054998099540673084 0 0.00046840328890182038 0.053953654005449637 0 0.0004621300321460445 0.054107780810956081 0 2.8989631847566337e-07 0.054999566043361488 0 1.0275583227541491e-06 0.054998535090698859 0 8.0870940461146558e-09 0.054998099540673084 0 0.00046840328890182038 0.053953654005449637 0 0.0003411010761102197 0.052231130070769308 0 0.00042684089085498266 0.053618090180500698 0 5.0170357666936191e-05 0.053023727456102163 0 0.0003411010761102197 0.052231130070769308 0 -0.00012349344100470223 0.052294157824663789 0 5.0170357666936191e-05 0.053023727456102163 0 0.0003411010761102197 0.052231130070769308 0 0.00066460750286195846 0.052886222919827093 0 0.0005048472730288736 0.05210379821612323 0 0.0003411010761102197 0.052231130070769308 0 0.00066460750286195846 0.052886222919827093 0 0.00042684089085498266 0.053618090180500698 0 0.00068975446011742571 0.053548369815002189 0 0.00066460750286195846 0.052886222919827093 0 0.00042684089085498266 0.053618090180500698 0 0.00069538710689290317 0.052732317382543539 0 0.00066460750286195846 0.052886222919827093 0 0.00050737885666337138 0.051868258208264947 0 0.00066460750286195846 0.052886222919827093 0 0.0005048472730288736 0.05210379821612323 0 0.00050737885666337138 0.051868258208264947 0 0.0003411010761102197 0.052231130070769308 0 0.00041754026230694135 0.050820546185806545 0 3.5572616161637843e-05 0.05040033178807183 0 0.0003411010761102197 0.052231130070769308 0 0.0005048472730288736 0.05210379821612323 0 0.00041754026230694135 0.050820546185806545 0 0.0005048472730288736 0.05210379821612323 0 0.00050737885666337138 0.051868258208264947 0 0.00041754026230694135 0.050820546185806545 0 3.2804763428308023e-07 0.052089536453047085 0 6.4969673675505543e-08 0.048564855677593895 0 -1.4702534049672291e-06 0.049172208276642732 0 0.00041754026230694135 0.050820546185806545 0 0.00049186941291193688 0.050308144227079798 0 0.00048098693891918945 0.049622701783148419 0 0.00041754026230694135 0.050820546185806545 0 0.00039671587461805144 0.05135326202534618 0 0.00049186941291193688 0.050308144227079798 0 0.00050737885666337138 0.051868258208264947 0 0.00041754026230694135 0.050820546185806545 0 0.00039671587461805144 0.05135326202534618 0 0.0003870878920154334 0.053256920241186792 0 0.00039174361388119843 0.051696141699270302 0 0.00015178494236324741 0.053206271626338168 0 0.00011819715663732958 0.053897675894752813 0 0.00039671587461805144 0.05135326202534618 0 0.00069538710689290317 0.052732317382543539 0 0.00050737885666337138 0.051868258208264947 0 0.00039671587461805144 0.05135326202534618 0 0.00013424494553218418 0.052630628363926742 0 0.00024915615440178302 0.05006135362764691 0 0.00015178494236324741 0.053206271626338168 0 0.00039671587461805144 0.05135326202534618 0 0.00045776890302207725 0.050981449080017498 0 0.00039671587461805144 0.05135326202534618 0 0.00049186941291193688 0.050308144227079798 0 0.00045776890302207725 0.050981449080017498 0 6.4969673675505543e-08 0.048564855677593895 0 3.048324799552951e-05 0.046257201855226193 0 2.0734450803464632e-07 0.043624594247183617 0 0.00024915615440178302 0.05006135362764691 0 0.00022137547933622197 0.047066803824512844 0 0.00049186941291193688 0.050308144227079798 0 0.00052669272794787195 0.048079935150540411 0 0.00048098693891918945 0.049622701783148419 0 6.4969673675505543e-08 0.048564855677593895 0 -1.4702534049672291e-06 0.049172208276642732 0 3.048324799552951e-05 0.046257201855226193 0 0.00049186941291193688 0.050308144227079798 0 0.00045776890302207725 0.050981449080017498 0 0.00052669272794787195 0.048079935150540411 0 0.00022137547933622197 0.047066803824512844 0 -0.00013140358368247758 0.044489819194279565 0 0.00052669272794787195 0.048079935150540411 0 0.00023784505667340204 0.046846899259069694 0 -4.8343247421123989e-05 0.043889662236598355 0 0.00052669272794787195 0.048079935150540411 0 0.00023784505667340204 0.046846899259069694 0 0.0003635340052449883 0.048894578266974353 0 0.00023784505667340204 0.046846899259069694 0 0.0003635340052449883 0.048894578266974353 0 -0.00043236802373253751 0.046534085213491602 0 0.00041754026230694135 0.050820546185806545 0 0.0003635340052449883 0.048894578266974353 0 0.00048098693891918945 0.049622701783148419 0 0.00052669272794787195 0.048079935150540411 0 0.0003635340052449883 0.048894578266974353 0 0.00048098693891918945 0.049622701783148419 0 2.0734450803464632e-07 0.043624594247183617 0 -4.8343247421123989e-05 0.043889662236598355 0 -0.00034082748949830613 0.042269346981004242 0 3.048324799552951e-05 0.046257201855226193 0 2.0734450803464632e-07 0.043624594247183617 0 -4.8343247421123989e-05 0.043889662236598355 0 0.00023784505667340204 0.046846899259069694 0 -4.8343247421123989e-05 0.043889662236598355 0 -0.00043236802373253751 0.046534085213491602 0 -0.00019104532942727236 0.046059482121129702 0 -0.0020117622845995942 0.044477915902205734 0 -4.8343247421123989e-05 0.043889662236598355 0 -0.00043236802373253751 0.046534085213491602 0 -0.00034082748949830613 0.042269346981004242 0 -0.00043236802373253751 0.046534085213491602 0 -0.0024034671934522406 0.04773395919999196 0 -0.0035706037383151441 0.045562623433383638 0 -0.0024034671934522406 0.04773395919999196 0 7.7697752655430448e-06 0.049047589446415546 0 -0.001961778591632918 0.049759356873130253 0 -0.00043236802373253751 0.046534085213491602 0 -0.0024034671934522406 0.04773395919999196 0 7.7697752655430448e-06 0.049047589446415546 0 7.7697752655430448e-06 0.049047589446415546 0 -0.00021497496805235081 0.050185877239182573 0 -0.001961778591632918 0.049759356873130253 0 -0.0004950887037341909 0.042349951364657155 0 -0.001058196526246274 0.042165580733425273 0 -0.00062117997482318194 0.04250869316603486 0 -0.00022297291222241725 0.046056939815264361 0 -0.0017909269652051953 0.046452541091005682 0 0.00041754026230694135 0.050820546185806545 0 0.0003635340052449883 0.048894578266974353 0 3.5572616161637843e-05 0.05040033178807183 0 0.0003635340052449883 0.048894578266974353 0 -0.00043236802373253751 0.046534085213491602 0 7.7697752655430448e-06 0.049047589446415546 0 0.0003635340052449883 0.048894578266974353 0 7.7697752655430448e-06 0.049047589446415546 0 3.5572616161637843e-05 0.05040033178807183 0 7.7697752655430448e-06 0.049047589446415546 0 3.5572616161637843e-05 0.05040033178807183 0 0.00014951476058131492 0.050005075676084962 0 7.7697752655430448e-06 0.049047589446415546 0 -0.00021497496805235081 0.050185877239182573 0 0.00014951476058131492 0.050005075676084962 0 -0.00021497496805235081 0.050185877239182573 0 0.00014951476058131492 0.050005075676084962 0 0.00015070421051664352 0.049963592373210582 0 0.0003411010761102197 0.052231130070769308 0 3.5572616161637843e-05 0.05040033178807183 0 -0.00012349344100470223 0.052294157824663789 0 3.5572616161637843e-05 0.05040033178807183 0 -0.00012349344100470223 0.052294157824663789 0 -0.0010636252793598683 0.053439937739113097 0 3.5572616161637843e-05 0.05040033178807183 0 0.00014951476058131492 0.050005075676084962 0 0.00012643155327463746 0.049939971252360223 0 -8.4062163459794605e-05 0.051035448123356045 0 -0.00035013685525372003 0.050545854342465529 0 -0.00012349344100470223 0.052294157824663789 0 -0.00049096900395072273 0.053540647057744341 0 5.0170357666936191e-05 0.053023727456102163 0 -0.00012349344100470223 0.052294157824663789 0 -0.00049096900395072273 0.053540647057744341 0 -0.0010636252793598683 0.053439937739113097 0 -0.00021332938849029311 0.051331785573158366 0 -0.00035013685525372003 0.050545854342465529 0 -0.00049096900395072273 0.053540647057744341 0 -0.00070452051893973844 0.053785984813895932 0 -0.00032457265642420093 0.053995408869688871 0 -0.00049096900395072273 0.053540647057744341 0 -0.00070452051893973844 0.053785984813895932 0 -0.00072517676182923447 0.053470620210918661 0 0.00054324711505414922 0.042918232500974408 0 0.00041704001289521347 0.042617035379883088 0 0.00014914906020928236 0.043013744196217694 0 -0.00039710977291875014 0.049334390332814011 0 -0.00075951939662285755 0.048510009250810428 0 -0.00015967782421364034 0.049388784717571264 0 -0.00011303387965381997 0.049511231073532426 0 -0.00016081408739323933 0.049498869573699568 0 -0.00039710977291875014 0.049334390332814011 0 -0.00035013685525372003 0.050545854342465529 0 0.00014951476058131492 0.050005075676084962 0 0.00015070421051664352 0.049963592373210582 0 0.00012643155327463746 0.049939971252360223 0 -0.00075951939662285755 0.048510009250810428 0 -0.00035013685525372003 0.050545854342465529 0 -0.00022297291222241725 0.046056939815264361 0 -0.00075951939662285755 0.048510009250810428 0 -0.0004950887037341909 0.042349951364657155 0 0.00041704001289521347 0.042617035379883088 0 -0.00011936569331098273 0.042783028315753625 0 -0.0004950887037341909 0.042349951364657155 0 -0.00011936569331098273 0.042783028315753625 0 -0.00044210135730039172 0.042730750021038232 0 -0.00011936569331098273 0.042783028315753625 0 0.00014914906020928236 0.043013744196217694 0 -0.0002160474396248297 0.043229735285469285 0 -0.00011936569331098273 0.042783028315753625 0 -0.0002160474396248297 0.043229735285469285 0 -0.00044210135730039172 0.042730750021038232 0 0.00041704001289521347 0.042617035379883088 0 -0.00011936569331098273 0.042783028315753625 0 0.00014914906020928236 0.043013744196217694 0 -0.0002160474396248297 0.043229735285469285 0 0.00019554979723986488 0.043388987835343361 0 -9.889655891473155e-05 0.043918639392582365 0 -0.0002160474396248297 0.043229735285469285 0 -0.0005606267629445599 0.043738446781904201 0 -9.889655891473155e-05 0.043918639392582365 0 0.00014914906020928236 0.043013744196217694 0 -0.0002160474396248297 0.043229735285469285 0 0.00019554979723986488 0.043388987835343361 0 -0.00070452051893973844 0.053785984813895932 0 -0.00032457265642420093 0.053995408869688871 0 -0.0002480179428786268 0.054590119668449545 0 -0.00039710977291875014 0.049334390332814011 0 -0.00019784476665837624 0.054095523749094078 0 -0.00090858855530989442 0.050950517959528895 0 -0.00029896264435184228 0.052528356420168412 0 -0.00086941842113195228 0.052655991694287016 0 -0.00039710977291875014 0.049334390332814011 0 -0.00011883006481393312 0.047710584945688701 0 0.00054324711505414922 0.042918232500974408 0 0.00019554979723986488 0.043388987835343361 0 0.00058643329750312839 0.043886315287814032 0 0.00054324711505414922 0.042918232500974408 0 0.00014914906020928236 0.043013744196217694 0 0.00019554979723986488 0.043388987835343361 0 -0.0013321846162735154 0.043951765230023178 0 -0.00056477866246950302 0.038191993309203809 0 -0.00062117997482318194 0.04250869316603486 0 -0.00099769760777349654 0.043105586241867382 0 -0.0015299402158270305 0.043029784192294473 0 -0.0010606920362350907 0.042439761670854941 0 -0.00062117997482318194 0.04250869316603486 0 -0.0011815458484916853 0.042713633659389676 0 -0.001058196526246274 0.042165580733425273 0 -0.0010606920362350907 0.042439761670854941 0 -0.00062117997482318194 0.04250869316603486 0 -0.0010606920362350907 0.042439761670854941 0 -0.0011815458484916853 0.042713633659389676 0 -0.0013703232134075944 0.042364341502039965 0 -0.001058196526246274 0.042165580733425273 0 -0.0010606920362350907 0.042439761670854941 0 -0.0013703232134075944 0.042364341502039965 0 -0.00062117997482318194 0.04250869316603486 0 -0.00058051415617862295 0.042982589330848461 0 -0.00099769760777349654 0.043105586241867382 0 -0.0004950887037341909 0.042349951364657155 0 -0.00062117997482318194 0.04250869316603486 0 -0.00044210135730039172 0.042730750021038232 0 -0.00062117997482318194 0.04250869316603486 0 -0.00044210135730039172 0.042730750021038232 0 -0.00058051415617862295 0.042982589330848461 0 -0.0002160474396248297 0.043229735285469285 0 -0.00044210135730039172 0.042730750021038232 0 -0.00058051415617862295 0.042982589330848461 0 -0.00084528829965976112 0.043643778560690155 0 -0.00099769760777349654 0.043105586241867382 0 -0.0012592691759653878 0.043864436225838146 0 -0.0002160474396248297 0.043229735285469285 0 -0.00058051415617862295 0.042982589330848461 0 -0.00063900819095056931 0.043338639652926073 0 -0.0002160474396248297 0.043229735285469285 0 -0.00063900819095056931 0.043338639652926073 0 -0.0005606267629445599 0.043738446781904201 0 -0.00063900819095056931 0.043338639652926073 0 -0.00084528829965976112 0.043643778560690155 0 -0.0005606267629445599 0.043738446781904201 0 -0.00063900819095056931 0.043338639652926073 0 -0.00084528829965976112 0.043643778560690155 0 -0.00099769760777349654 0.043105586241867382 0 -0.00058051415617862295 0.042982589330848461 0 -0.00063900819095056931 0.043338639652926073 0 -0.00099769760777349654 0.043105586241867382 0 -0.0012109863060692386 0.043743142264588093 0 -0.00097680911739483228 0.041917782902650705 0 -0.00099769760777349654 0.043105586241867382 0 -0.0013387370966014846 0.043327296555771097 0 -0.0011991247643600004 0.043591389466323842 0 -0.00099769760777349654 0.043105586241867382 0 -0.0013502863457222302 0.043144210672710702 0 -0.0015299402158270305 0.043029784192294473 0 -0.00099769760777349654 0.043105586241867382 0 -0.0013435294288442943 0.043246692269780479 0 -0.0013502863457222302 0.043144210672710702 0 -0.00099769760777349654 0.043105586241867382 0 -0.0013435294288442943 0.043246692269780479 0 -0.0013387370966014846 0.043327296555771097 0 -0.0008891914142456572 0.039222761471921004 0 -0.00082848363309279941 0.040434686312965262 0 -0.0013435294288442943 0.043246692269780479 0 -0.0014025525818592065 0.043203151297563469 0 -0.0013389697055392143 0.043311353599138049 0 -0.00056366852147798441 0.038010402586614978 0 -0.00077436763752701575 0.037595860208588738 0 0.00081216066652117563 0.036691616087320286 0 -0.00085680875335036866 0.041047604657657721 0 -0.00082848363309279941 0.040434686312965262 0 -0.0008891914142456572 0.039222761471921004 0 -0.00056477866246950302 0.038191993309203809 0 -0.001425221045359243 0.043208916809302431 0 -0.0013502863457222302 0.043144210672710702 0 -0.0015299402158270305 0.043029784192294473 0 -0.0013435294288442943 0.043246692269780479 0 -0.0014025525818592065 0.043203151297563469 0 -0.0013502863457222302 0.043144210672710702 0 -0.0008891914142456572 0.039222761471921004 0 -0.0013312238030747251 0.039897744172004597 0 -0.00048854691248263488 0.041153587073570717 0 -0.00049685044400842547 0.037562205810544917 0 -0.001334930833384355 0.039481928700222456 0 -0.00076093183198435517 0.039803959266163161 0 -0.00067186779813116623 0.039600434787812271 0 -0.00044476220249643371 0.040021538075360859 0 -0.00077436763752701575 0.037595860208588738 0 -0.00078216085406090593 0.03561241571252162 0 0.00081216066652117563 0.036691616087320286 0 -0.00082848363309279941 0.040434686312965262 0 -0.00041226280468368431 0.036203629531064312 0 -0.00082848363309279941 0.040434686312965262 0 -0.00097680911739483228 0.041917782902650705 0 -0.00041226280468368431 0.036203629531064312 0 -0.00097680911739483228 0.041917782902650705 0 -0.0012592691759653878 0.043864436225838146 0 -0.00080057775862003237 0.04414765144828936 0 -0.00081222639480058587 0.044712417275902736 0 -0.00097680911739483228 0.041917782902650705 0 -0.00019679666728721404 0.040965193787002925 0 -0.00084528829965976112 0.043643778560690155 0 -0.00080057775862003237 0.04414765144828936 0 -0.0005606267629445599 0.043738446781904201 0 -0.00084528829965976112 0.043643778560690155 0 -0.0012592691759653878 0.043864436225838146 0 -0.00080057775862003237 0.04414765144828936 0 -0.00080057775862003237 0.04414765144828936 0 -0.0005606267629445599 0.043738446781904201 0 -0.00050663708947551586 0.044092122795964084 0 -0.0005606267629445599 0.043738446781904201 0 -0.00050663708947551586 0.044092122795964084 0 -9.889655891473155e-05 0.043918639392582365 0 -0.00050663708947551586 0.044092122795964084 0 -0.00062794855167407028 0.044478406900663313 0 -0.00033974752998622168 0.04439735853164524 0 -0.00080057775862003237 0.04414765144828936 0 -0.00050663708947551586 0.044092122795964084 0 -0.00062794855167407028 0.044478406900663313 0 -0.00038190105128564102 0.044723276066876184 0 -0.00048019147737836198 0.044703556398920472 0 -0.00033974752998622168 0.04439735853164524 0 -0.00048019147737836198 0.044703556398920472 0 -0.00063967251736980865 0.044760400147436742 0 -0.00033974752998622168 0.04439735853164524 0 -0.00062794855167407028 0.044478406900663313 0 -0.00073313066251711021 0.04476177024134663 0 -0.00033974752998622168 0.04439735853164524 0 -0.00037642078681388166 0.041295916605382232 0 -0.0011274860777811516 0.044665278024022238 0 -0.00037642078681388166 0.041295916605382232 0 0.00044558716082823067 0.040079856755599955 0 -0.0005174430101092108 0.044864315784872502 0 -0.00063009355312625267 0.044754880906494598 0 -0.00052390933589737537 0.044976842758280094 0 -0.00038190105128564102 0.044723276066876184 0 -0.00048019147737836198 0.044703556398920472 0 -0.00046624538912172367 0.044803752091640774 0 -0.00038190105128564102 0.044723276066876184 0 -0.00039035124985397338 0.04487890119247212 0 -0.00046624538912172367 0.044803752091640774 0 -0.00039035124985397338 0.04487890119247212 0 -0.00046624538912172367 0.044803752091640774 0 -0.0005174430101092108 0.044864315784872502 0 -0.00046624538912172367 0.044803752091640774 0 -0.0005174430101092108 0.044864315784872502 0 -0.0005710473082802829 0.044793972640982081 0 -0.0005174430101092108 0.044864315784872502 0 -0.0005710473082802829 0.044793972640982081 0 -0.00063009355312625267 0.044754880906494598 0 -0.00018848971232286491 0.041611631205355132 0 -0.00037642078681388166 0.041295916605382232 0 -0.00048019147737836198 0.044703556398920472 0 -0.0005710473082802829 0.044793972640982081 0 -0.00063967251736980865 0.044760400147436742 0 -0.00048019147737836198 0.044703556398920472 0 -0.00046624538912172367 0.044803752091640774 0 -0.0005710473082802829 0.044793972640982081 0 0.00020924098875749574 0.038905799205205704 0 -5.5025689621849083e-05 0.039173116487919608 0 0.00040421976717413226 0.039448408240208073 0 0.00099954354102770124 0.036893043345347348 0 0.00070394123127757167 0.03769450944204028 0 -0.0011785339162889786 0.036558096338750519 0 0.00099954354102770124 0.036893043345347348 0 0.0012933856047766177 0.03709780357841904 0 0.00070394123127757167 0.03769450944204028 0 -0.00019679666728721404 0.0409651