<?xml version="1.0"?>
<VTKFile type="UnstructuredGrid" version="0.1" byte_order="LittleEndian">
<UnstructuredGrid>
<Piece NumberOfPoints="30618" NumberOfCells="10744">
<Points>
<DataArray type="Float64" NumberOfComponents="3" format="ascii">
-0.49427958746526202 -0.49999999999999512 0 -0.4943900888896422 -0.47349089190363358 0 -0.49427958746526202 -0.49999999999999512 0 -0.5 -0.5 0 -0.4943900888896422 -0.47349089190363358 0 -0.5 -0.5 0 -0.4943900888896422 -0.47349089190363358 0 -0.5 -0.44150235328842258 0 -0.49427958746526202 -0.49999999999999512 0 -0.4943900888896422 -0.47349089190363358 0 -0.48436842240857858 -0.48714093788813112 0 -0.49427958746526202 -0.49999999999999512 0 -0.47650045540741742 -0.5 0 -0.48436842240857858 -0.48714093788813112 0 -0.4943900888896422 -0.47349089190363358 0 -0.47066899942757451 -0.47576530412887819 0 -0.48436842240857858 -0.48714093788813112 0 -0.47066899942757451 -0.47576530412887819 0 -0.47650045540741742 -0.5 0 -0.48436842240857858 -0.48714093788813112 0 -0.47066899942757451 -0.47576530412887819 0 -0.45872132334957288 -0.49999999999999928 0 -0.45242967983978871 -0.4846708604340636 0 -0.47066899942757451 -0.47576530412887819 0 -0.47650045540741742 -0.5 0 -0.45872132334957288 -0.49999999999999928 0 -0.47066899942757451 -0.47576530412887819 0 -0.45872132334957288 -0.49999999999999928 0 -0.47066899942757451 -0.47576530412887819 0 -0.45242967983978871 -0.4846708604340636 0 -0.45249717469141032 -0.46588444847215849 0 -0.43763952177061649 -0.47770500498713542 0 -0.45242967983978871 -0.4846708604340636 0 -0.45249717469141032 -0.46588444847215849 0 -0.43763952177061649 -0.47770500498713542 0 -0.44291044788006362 -0.49999999999999939 0 -0.45242967983978871 -0.4846708604340636 0 -0.43763952177061649 -0.47770500498713542 0 -0.44291044788006362 -0.49999999999999939 0 -0.45872132334957288 -0.49999999999999928 0 -0.44291044788006362 -0.49999999999999939 0 -0.45242967983978871 -0.4846708604340636 0 -0.44838221886832419 -0.4464230337388379 0 -0.4323685956611692 -0.45541000997427139 0 -0.435988539966085 -0.44148905847597392 0 -0.44838221886832419 -0.4464230337388379 0 -0.44213238819953832 -0.43491600865963681 0 -0.435988539966085 -0.44148905847597392 0 -0.44838221886832419 -0.4464230337388379 0 -0.45249717469141032 -0.46588444847215849 0 -0.45755175660874181 -0.45423607616472811 0 -0.44838221886832419 -0.4464230337388379 0 -0.45249717469141032 -0.46588444847215849 0 -0.4323685956611692 -0.45541000997427139 0 -0.43763952177061649 -0.47770500498713542 0 -0.45249717469141032 -0.46588444847215849 0 -0.4323685956611692 -0.45541000997427139 0 -0.47066899942757451 -0.47576530412887819 0 -0.45249717469141032 -0.46588444847215849 0 -0.4675747862741928 -0.45726336772241771 0 -0.45249717469141032 -0.46588444847215849 0 -0.45755175660874181 -0.45423607616472811 0 -0.4675747862741928 -0.45726336772241771 0 -0.44838221886832419 -0.4464230337388379 0 -0.46897642374787268 -0.44262015471777721 0 -0.45660235518767722 -0.42786105997071933 0 -0.44838221886832419 -0.4464230337388379 0 -0.45755175660874181 -0.45423607616472811 0 -0.46897642374787268 -0.44262015471777721 0 -0.45755175660874181 -0.45423607616472811 0 -0.4675747862741928 -0.45726336772241771 0 -0.46897642374787268 -0.44262015471777721 0 -0.4943900888896422 -0.47349089190363358 0 -0.5 -0.44150235328842258 0 -0.49450059031402238 -0.44698178380727199 0 -0.46897642374787268 -0.44262015471777721 0 -0.48473746643246862 -0.43972512984246093 0 -0.48043585850414389 -0.43127077967876992 0 -0.46897642374787268 -0.44262015471777721 0 -0.4826166755055763 -0.45153060825775743 0 -0.48473746643246862 -0.43972512984246093 0 -0.4675747862741928 -0.45726336772241771 0 -0.46897642374787268 -0.44262015471777721 0 -0.4826166755055763 -0.45153060825775743 0 -0.47066899942757451 -0.47576530412887819 0 -0.4826166755055763 -0.45153060825775743 0 -0.4943900888896422 -0.47349089190363358 0 -0.47066899942757451 -0.47576530412887819 0 -0.4826166755055763 -0.45153060825775743 0 -0.47066899942757451 -0.47576530412887819 0 -0.4675747862741928 -0.45726336772241771 0 -0.4826166755055763 -0.45153060825775743 0 -0.4943900888896422 -0.47349089190363358 0 -0.49450059031402238 -0.44698178380727199 0 -0.4943900888896422 -0.47349089190363358 0 -0.4826166755055763 -0.45153060825775743 0 -0.49450059031402238 -0.44698178380727199 0 -0.4826166755055763 -0.45153060825775743 0 -0.48473746643246862 -0.43972512984246093 0 -0.49450059031402238 -0.44698178380727199 0 -0.5 -0.44150235328842258 0 -0.49461109173840262 -0.42047267571091063 0 -0.5 -0.39656953661894012 0 -0.49450059031402238 -0.44698178380727199 0 -0.49461109173840262 -0.42047267571091063 0 -0.48473746643246862 -0.43972512984246093 0 -0.49461109173840262 -0.42047267571091063 0 -0.48043585850414389 -0.43127077967876992 0 -0.5 -0.44150235328842258 0 -0.49450059031402238 -0.44698178380727199 0 -0.49461109173840262 -0.42047267571091063 0 -0.48473746643246862 -0.43972512984246093 0 -0.49450059031402238 -0.44698178380727199 0 -0.49461109173840262 -0.42047267571091063 0 -0.49461109173840262 -0.42047267571091063 0 -0.4947215931627828 -0.39396356761454909 0 -0.49461109173840262 -0.42047267571091063 0 -0.48393842445605872 -0.40713040098299402 0 -0.4947215931627828 -0.39396356761454909 0 -0.49461109173840262 -0.42047267571091063 0 -0.48393842445605872 -0.40713040098299402 0 -0.47214510592166908 -0.41939033492402211 0 -0.48393842445605872 -0.40713040098299402 0 -0.47214510592166908 -0.41939033492402211 0 -0.47427590700138023 -0.39469502568249409 0 -0.46897642374787268 -0.44262015471777721 0 -0.47214510592166908 -0.41939033492402211 0 -0.48043585850414389 -0.43127077967876992 0 -0.49461109173840262 -0.42047267571091063 0 -0.47214510592166908 -0.41939033492402211 0 -0.48043585850414389 -0.43127077967876992 0 -0.5 -0.39656953661894012 0 -0.4947215931627828 -0.39396356761454909 0 -0.48030453056746109 -0.36861144308094029 0 -0.49461109173840262 -0.42047267571091063 0 -0.5 -0.39656953661894012 0 -0.4947215931627828 -0.39396356761454909 0 -0.48393842445605872 -0.40713040098299402 0 -0.4947215931627828 -0.39396356761454909 0 -0.47427590700138023 -0.39469502568249409 0 -0.47427590700138023 -0.39469502568249409 0 -0.48030453056746109 -0.36861144308094029 0 -0.4947215931627828 -0.39396356761454909 0 -0.47427590700138023 -0.39469502568249409 0 -0.48030453056746109 -0.36861144308094029 0 -0.47427590700138023 -0.39469502568249409 0 -0.46334377193483078 -0.37842983215876019 0 -0.48030453056746109 -0.36861144308094029 0 -0.46334377193483078 -0.37842983215876019 0 -0.45726543839001688 -0.40541672899881109 0 -0.44416021803808919 -0.38243724496113263 0 -0.47427590700138023 -0.39469502568249409 0 -0.46334377193483078 -0.37842983215876019 0 -0.45726543839001688 -0.40541672899881109 0 -0.45726543839001688 -0.40541672899881109 0 -0.43814282409564848 -0.40387353522152758 0 -0.44416021803808919 -0.38243724496113263 0 -0.43814282409564848 -0.40387353522152758 0 -0.44416021803808919 -0.38243724496113263 0 -0.4329908326547659 -0.40007252460533121 0 -0.43814282409564848 -0.40387353522152758 0 -0.44416021803808919 -0.38243724496113263 0 -0.46897642374787268 -0.44262015471777721 0 -0.47214510592166908 -0.41939033492402211 0 -0.45660235518767722 -0.42786105997071933 0 -0.47214510592166908 -0.41939033492402211 0 -0.47427590700138023 -0.39469502568249409 0 -0.45726543839001688 -0.40541672899881109 0 -0.47214510592166908 -0.41939033492402211 0 -0.45726543839001688 -0.40541672899881109 0 -0.45660235518767722 -0.42786105997071933 0 -0.45726543839001688 -0.40541672899881109 0 -0.45660235518767722 -0.42786105997071933 0 -0.44309263043645408 -0.41812298423377797 0 -0.45726543839001688 -0.40541672899881109 0 -0.43814282409564848 -0.40387353522152758 0 -0.44309263043645408 -0.41812298423377797 0 -0.43814282409564848 -0.40387353522152758 0 -0.44309263043645408 -0.41812298423377797 0 -0.43209373842114163 -0.42530092927673752 0 -0.44838221886832419 -0.4464230337388379 0 -0.45660235518767722 -0.42786105997071933 0 -0.44213238819953832 -0.43491600865963681 0 -0.45660235518767722 -0.42786105997071933 0 -0.44213238819953832 -0.43491600865963681 0 -0.43132710435572019 -0.42815377149591122 0 -0.45660235518767722 -0.42786105997071933 0 -0.44309263043645408 -0.41812298423377797 0 -0.43132710435572019 -0.42815377149591122 0 -0.45660235518767722 -0.42786105997071933 0 -0.43132710435572019 -0.42815377149591122 0 -0.44213238819953832 -0.43491600865963681 0 -0.42986244815509678 -0.43337144475258638 0 -0.435988539966085 -0.44148905847597392 0 -0.44213238819953832 -0.43491600865963681 0 -0.42986244815509678 -0.43337144475258638 0 -0.43132710435572019 -0.42815377149591122 0 -0.42986244815509678 -0.43337144475258638 0 -0.43132710435572019 -0.42815377149591122 0 -0.42986244815509678 -0.43337144475258638 0 -0.42494843276815808 -0.42822764260015772 0 -0.42026026496879931 -0.43681168621285732 0 -0.42986244815509678 -0.43337144475258638 0 -0.42494843276815808 -0.42822764260015772 0 -0.43132710435572019 -0.42815377149591122 0 -0.42494843276815808 -0.42822764260015772 0 -0.43209373842114163 -0.42530092927673752 0 -0.42214799869492048 -0.41876725226122891 0 -0.42494843276815808 -0.42822764260015772 0 -0.43209373842114163 -0.42530092927673752 0 -0.42494843276815808 -0.42822764260015772 0 -0.43209373842114163 -0.42530092927673752 0 -0.43132710435572019 -0.42815377149591122 0 -0.42494843276815808 -0.42822764260015772 0 -0.43132710435572019 -0.42815377149591122 0 -0.44309263043645408 -0.41812298423377797 0 -0.43209373842114163 -0.42530092927673752 0 -0.43132710435572019 -0.42815377149591122 0 -0.43209373842114163 -0.42530092927673752 0 -0.43132710435572019 -0.42815377149591122 0 -0.43814282409564848 -0.40387353522152758 0 -0.43209373842114163 -0.42530092927673752 0 -0.43814282409564848 -0.40387353522152758 0 -0.43209373842114163 -0.42530092927673752 0 -0.42736227186559528 -0.41250939947999687 0 -0.43814282409564848 -0.40387353522152758 0 -0.42736227186559528 -0.41250939947999687 0 -0.42798743510346321 -0.40461924019690898 0
[...]
<PointData Scalars="" Vectors="displacement," Tensors="">
<DataArray type="Float64" Name="displacement" NumberOfComponents="3" format="ascii">
0.054370270963564719 -2.434956450787736e-07 0 0.052901582874224432 -0.00045075480581405794 0 0.054377275308302192 -7.0555841997748206e-07 0 0.054995722439982214 5.1430954293255446e-07 0 0.054987726303128225 -1.779233871483843e-06 0 0.054995722439982214 5.1430954293255446e-07 0 0.054987726303128225 -1.779233871483843e-06 0 0.055001809509527134 -4.7349604779528242e-07 0 0.054367781279669791 -2.6692991085191433e-06 0 0.050867816299515874 -0.0010608350849471173 0 0.052401794771569088 9.5171395495049918e-05 0 0.054367781279669791 -2.6692991085191433e-06 0 0.052413810104580079 1.5687993626321099e-06 0 0.052401794771569088 9.5171395495049918e-05 0 0.050867816299515874 -0.0010608350849471173 0 0.051481144811838665 0.00082518064320637218 0 0.052401794771569088 9.5171395495049918e-05 0 0.051481144811838665 0.00082518064320637218 0 0.052413810104580079 1.5687993626321099e-06 0 0.052401794771569088 9.5171395495049918e-05 0 0.048086177985490627 -0.00099260227933253668 0 0.050452575358572657 -2.6539998980356874e-06 0 0.04885923737488386 -2.9523545758183378e-05 0 0.051481144811838665 0.00082518064320637218 0 0.052413810104580079 1.5687993626321099e-06 0 0.050463890074273626 -2.7084251641680387e-07 0 0.049739769804186221 -6.0544095872367759e-05 0 0.050459221310499229 5.4812786295102018e-09 0 0.048086177985490627 -0.00099260227933253668 0 0.04885923737488386 -2.9523545758183378e-05 0 0.047827596589398655 -0.00057097294434692541 0 0.048502097046187929 0.00020148160678423922 0 0.04885923737488386 -2.9523545758183378e-05 0 0.047827596589398655 -0.00057097294434692541 0 0.048502097046187929 0.00020148160678423922 0 0.048726077688101187 2.0733039556438375e-06 0 0.04885923737488386 -2.9523545758183378e-05 0 0.047167824926791869 8.3097445580476752e-05 0 0.04871957835656935 1.3944320831917631e-08 0 0.050452575358572657 -2.6539998980356874e-06 0 0.048726077688101187 2.0733039556438375e-06 0 0.04885923737488386 -2.9523545758183378e-05 0 0.047396431176351117 -0.00079062728704581628 0 0.046486008752057724 -2.1382385942746054e-05 0 0.046860842512233956 -0.00047134723023947543 0 0.047396431176351117 -0.00079062728704581628 0 0.047378131754021051 -0.00083489504101817008 0 0.046860842512233956 -0.00047134723023947543 0 0.047396431176351117 -0.00079062728704581628 0 0.047827596589398655 -0.00057097294434692541 0 0.047786158489590669 -0.00073674875186859686 0 0.047396431176351117 -0.00079062728704581628 0 0.047827596589398655 -0.00057097294434692541 0 0.046486008752057724 -2.1382385942746054e-05 0 0.048502097046187929 0.00020148160678423922 0 0.047827596589398655 -0.00057097294434692541 0 0.046486008752057724 -2.1382385942746054e-05 0 0.048086177985490627 -0.00099260227933253668 0 0.047827596589398655 -0.00057097294434692541 0 0.048059152398621456 -0.00073069223900939877 0 0.047827596589398655 -0.00057097294434692541 0 0.047786158489590669 -0.00073674875186859686 0 0.048059152398621456 -0.00073069223900939877 0 0.047396431176351117 -0.00079062728704581628 0 0.048276053974454246 -0.0007611672567291311 0 0.048736740743232074 -0.001608380953100475 0 0.047396431176351117 -0.00079062728704581628 0 0.047786158489590669 -0.00073674875186859686 0 0.048276053974454246 -0.0007611672567291311 0 0.047786158489590669 -0.00073674875186859686 0 0.048059152398621456 -0.00073069223900939877 0 0.048276053974454246 -0.0007611672567291311 0 0.054987726303128225 -1.779233871483843e-06 0 0.055001809509527134 -4.7349604779528242e-07 0 0.054993749937608673 -2.7702403762360724e-06 0 0.048276053974454246 -0.0007611672567291311 0 0.048774817264136912 -0.00013205590523006724 0 0.049346675905611426 -0.00022986852968110753 0 0.048276053974454246 -0.0007611672567291311 0 0.048514055592003197 -9.7427036475369113e-05 0 0.048774817264136912 -0.00013205590523006724 0 0.048059152398621456 -0.00073069223900939877 0 0.048276053974454246 -0.0007611672567291311 0 0.048514055592003197 -9.7427036475369113e-05 0 0.049739769804186221 -6.0544095872367759e-05 0 0.048628742270250817 -0.00015617817225355038 0 0.050867816299515874 -0.0010608350849471173 0 0.051481144811838665 0.00082518064320637218 0 0.048514055592003197 -9.7427036475369113e-05 0 0.048086177985490627 -0.00099260227933253668 0 0.048059152398621456 -0.00073069223900939877 0 0.048514055592003197 -9.7427036475369113e-05 0 0.052901582874224432 -0.00045075480581405794 0 0.051827193738484996 -9.150140682088624e-05 0 0.050867816299515874 -0.0010608350849471173 0 0.048514055592003197 -9.7427036475369113e-05 0 0.0484186209826937 -0.00022301211190242214 0 0.048514055592003197 -9.7427036475369113e-05 0 0.048774817264136912 -0.00013205590523006724 0 0.0484186209826937 -0.00022301211190242214 0 0.055001809509527134 -4.7349604779528242e-07 0 0.055009348815995812 3.7467681509575929e-06 0 0.054996855120306158 1.3970773233597327e-06 0 0.051827193738484996 -9.150140682088624e-05 0 0.052748227929871938 0.00041414277796031964 0 0.048774817264136912 -0.00013205590523006724 0 0.050385375174096511 0.0010346345986930298 0 0.049346675905611426 -0.00022986852968110753 0 0.055001809509527134 -4.7349604779528242e-07 0 0.054993749937608673 -2.7702403762360724e-06 0 0.055009348815995812 3.7467681509575929e-06 0 0.048774817264136912 -0.00013205590523006724 0 0.0484186209826937 -0.00022301211190242214 0 0.050385375174096511 0.0010346345986930298 0 0.052748227929871938 0.00041414277796031964 0 0.054589077237888591 0.00021363937982332723 0 0.050385375174096511 0.0010346345986930298 0 0.052371477512911137 -0.00018227131327361464 0 0.054787157325319497 0.00011740001949326232 0 0.050385375174096511 0.0010346345986930298 0 0.052371477512911137 -0.00018227131327361464 0 0.050350956561302167 -0.00084643740073647473 0 0.052371477512911137 -0.00018227131327361464 0 0.050350956561302167 -0.00084643740073647473 0 0.053726619306121257 -0.0007963399283550574 0 0.048276053974454246 -0.0007611672567291311 0 0.050350956561302167 -0.00084643740073647473 0 0.049346675905611426 -0.00022986852968110753 0 0.050385375174096511 0.0010346345986930298 0 0.050350956561302167 -0.00084643740073647473 0 0.049346675905611426 -0.00022986852968110753 0 0.054996855120306158 1.3970773233597327e-06 0 0.054787157325319497 0.00011740001949326232 0 0.054931982536887587 -7.0365139396233524e-05 0 0.055009348815995812 3.7467681509575929e-06 0 0.054996855120306158 1.3970773233597327e-06 0 0.054787157325319497 0.00011740001949326232 0 0.052371477512911137 -0.00018227131327361464 0 0.054787157325319497 0.00011740001949326232 0 0.053726619306121257 -0.0007963399283550574 0 0.053705295327068893 -0.0007613705750133163 0 0.055568216968180574 -0.00019758928163073126 0 0.054787157325319497 0.00011740001949326232 0 0.053726619306121257 -0.0007963399283550574 0 0.054931982536887587 -7.0365139396233524e-05 0 0.053726619306121257 -0.0007963399283550574 0 0.055053979952376111 -0.0017643239915174922 0 0.055880709226136034 -0.00035156688337999821 0 0.055053979952376111 -0.0017643239915174922 0 0.052132057986808436 -0.0022573592813099059 0 0.054599442373280335 -0.0036811777425646034 0 0.053726619306121257 -0.0007963399283550574 0 0.055053979952376111 -0.0017643239915174922 0 0.052132057986808436 -0.0022573592813099059 0 0.052132057986808436 -0.0022573592813099059 0 0.052214123818726803 -0.0044702689051248547 0 0.054599442373280335 -0.0036811777425646034 0 0.041765268851163294 -0.0013665626452668931 0 0.04412455670109864 -0.00048577861440319078 0 0.042054788657756671 -0.0017543610587299854 0 0.046996800267501103 -0.0029764967527930366 0 0.049458699817404368 -0.002107447975636269 0 0.048276053974454246 -0.0007611672567291311 0 0.050350956561302167 -0.00084643740073647473 0 0.048736740743232074 -0.001608380953100475 0 0.050350956561302167 -0.00084643740073647473 0 0.053726619306121257 -0.0007963399283550574 0 0.052132057986808436 -0.0022573592813099059 0 0.050350956561302167 -0.00084643740073647473 0 0.052132057986808436 -0.0022573592813099059 0 0.048736740743232074 -0.001608380953100475 0 0.052132057986808436 -0.0022573592813099059 0 0.048736740743232074 -0.001608380953100475 0 0.050267304990628495 -0.0038369353632378084 0 0.052132057986808436 -0.0022573592813099059 0 0.052214123818726803 -0.0044702689051248547 0 0.050267304990628495 -0.0038369353632378084 0 0.052214123818726803 -0.0044702689051248547 0 0.050267304990628495 -0.0038369353632378084 0 0.049175181063794808 -0.0054934147756503272 0 0.047396431176351117 -0.00079062728704581628 0 0.048736740743232074 -0.001608380953100475 0 0.047378131754021051 -0.00083489504101817008 0 0.048736740743232074 -0.001608380953100475 0 0.047378131754021051 -0.00083489504101817008 0 0.046470410730209216 -0.00038461703868742221 0 0.048736740743232074 -0.001608380953100475 0 0.050267304990628495 -0.0038369353632378084 0 0.048734455411308823 -0.0056192716217199883 0 0.04879075375599605 -0.001797179524619803 0 0.046358799886908518 -0.0023324556172468272 0 0.047378131754021051 -0.00083489504101817008 0 0.04650667350890153 -0.00029824167469168493 0 0.046860842512233956 -0.00047134723023947543 0 0.047378131754021051 -0.00083489504101817008 0 0.04650667350890153 -0.00029824167469168493 0 0.046470410730209216 -0.00038461703868742221 0 0.046648141316815175 -0.0017657105780629809 0 0.046358799886908518 -0.0023324556172468272 0 0.04650667350890153 -0.00029824167469168493 0 0.046259068138664934 -0.00015272191351570869 0 0.046010407958107048 -9.386756432105633e-05 0 0.04650667350890153 -0.00029824167469168493 0 0.046259068138664934 -0.00015272191351570869 0 0.046281637957242737 -0.00038034925525594809 0 0.041221824194821781 -0.0018816748472975776 0 0.041270466251974662 -0.0017183382680538949 0 0.04142922415994698 -0.0019424571807536591 0 0.043812087102468693 -0.0012963605668206413 0 0.045103315311846165 -0.0028433620846591303 0 0.04481354582591722 -0.0019162887043645276 0 0.044854260351536633 -0.0018273469883456719 0 0.044817612360842085 -0.0018365168820335146 0 0.043812087102468693 -0.0012963605668206413 0 0.046358799886908518 -0.0023324556172468272 0 0.050267304990628495 -0.0038369353632378084 0 0.049175181063794808 -0.0054934147756503272 0 0.048734455411308823 -0.0056192716217199883 0 0.045103315311846165 -0.0028433620846591303 0 0.046358799886908518 -0.0023324556172468272 0 0.046996800267501103 -0.0029764967527930366 0 0.045103315311846165 -0.0028433620846591303 0 0.041765268851163294 -0.0013665626452668931 0 0.041270466251974662 -0.0017183382680538949 0 0.041574403998086332 -0.0018185144124668385 0 0.041765268851163294 -0.0013665626452668931 0 0.041574403998086332 -0.0018185144124668385 0 0.04182775590748098 -0.0018426860703506299 0 0.041574403998086332 -0.0018185144124668385 0 0.04142922415994698 -0.0019424571807536591 0 0.041636568858639568 -0.0020787402057324874 0 0.041574403998086332 -0.0018185144124668385 0 0.041636568858639568 -0.0020787402057324874 0 0.04182775590748098 -0.0018426860703506299 0 0.041270466251974662 -0.0017183382680538949 0 0.041574403998086332 -0.0018185144124668385 0 0.04142922415994698 -0.0019424571807536591 0 0.041636568858639568 -0.0020787402057324874 0 0.041411430625885669 -0.0021393724707014588 0 0.041521006775284752 -0.0023873247830598857 0 0.041636568858639568 -0.0020787402057324874 0 0.041768141633509448 -0.0023104715033659402 0 0.041521006775284752 -0.0023873247830598857 0 0.04142922415994698 -0.0019424571807536591 0 0.041636568858639568 -0.0020787402057324874 0 0.041411430625885669 -0.0021393724707014588 0 0.046259068138664934 -0.00015272191351570869 0 0.046010407958107048 -9.386756432105633e-05 0 0.045317281981499882 -3.782565226628736e-05 0 0.043812087102468693 -0.0012963605668206413 0 0.043297846841476202 -0.00017406644125689534 0 0.041155287208880766 -0.0010409543557033715 0 0.041241966820717187 -0.00070783781482503601 0 0.041104573987797419 -0.00068016380697913587 0 0.043812087102468693 -0.0012963605668206413 0 0.040929077438002823 -0.0015673682475145438 0 0.041221824194821781 -0.0018816748472975776 0 0.041411430625885669 -0.0021393724707014588 0 0.041243322052441932 -0.0023685298889519401 0 0.041221824194821781 -0.0018816748472975776 0 0.04142922415994698 -0.0019424571807536591 0 0.041411430625885669 -0.0021393724707014588 0 0.042149688860977495 -0.0016514947388721248 0 0.04326097753324764 -0.0033785945598111544 0 0.042054788657756671 -0.0017543610587299854 0 0.042051685307344246 -0.0020372238613015361 0 0.042199435839143755 -0.0020532885486850088 0 0.044177319082396159 -0.0018371857306054026 0 0.042054788657756671 -0.0017543610587299854 0 0.044789625354233399 -0.0034771641311487126 0 0.04412455670109864 -0.00048577861440319078 0 0.044177319082396159 -0.0018371857306054026 0 0.042054788657756671 -0.0017543610587299854 0 0.044177319082396159 -0.0018371857306054026 0 0.044789625354233399 -0.0034771641311487126 0 0.045777536513446258 -0.0016288504762089562 0 0.04412455670109864 -0.00048577861440319078 0 0.044177319082396159 -0.0018371857306054026 0 0.045777536513446258 -0.0016288504762089562 0 0.042054788657756671 -0.0017543610587299854 0 0.041884464106632227 -0.001974970500358436 0 0.042051685307344246 -0.0020372238613015361 0 0.041765268851163294 -0.0013665626452668931 0 0.042054788657756671 -0.0017543610587299854 0 0.04182775590748098 -0.0018426860703506299 0 0.042054788657756671 -0.0017543610587299854 0 0.04182775590748098 -0.0018426860703506299 0 0.041884464106632227 -0.001974970500358436 0 0.041636568858639568 -0.0020787402057324874 0 0.04182775590748098 -0.0018426860703506299 0 0.041884464106632227 -0.001974970500358436 0 0.041922088458060426 -0.0022691708215668337 0 0.042051685307344246 -0.0020372238613015361 0 0.042090924063255993 -0.0023659616422158861 0 0.041636568858639568 -0.0020787402057324874 0 0.041884464106632227 -0.001974970500358436 0 0.041858006303574211 -0.0021327991729518576 0 0.041636568858639568 -0.0020787402057324874 0 0.041858006303574211 -0.0021327991729518576 0 0.041768141633509448 -0.0023104715033659402 0 0.041858006303574211 -0.0021327991729518576 0 0.041922088458060426 -0.0022691708215668337 0 0.041768141633509448 -0.0023104715033659402 0 0.041858006303574211 -0.0021327991729518576 0 0.041922088458060426 -0.0022691708215668337 0 0.042051685307344246 -0.0020372238613015361 0 0.041884464106632227 -0.001974970500358436 0 0.041858006303574211 -0.0021327991729518576 0 0.042051685307344246 -0.0020372238613015361 0 0.04209703188211087 -0.002230212418977159 0 0.040120219837686363 -0.0023956370785326074 0 0.042051685307344246 -0.0020372238613015361 0 0.042146717975770645 -0.0021423148139102159 0 0.04208262124574589 -0.0022506339097953178 0 0.042051685307344246 -0.0020372238613015361 0 0.042150253768323931 -0.002076386992309043 0 0.042199435839143755 -0.0020532885486850088 0 0.042051685307344246 -0.0020372238613015361 0 0.042148218547338287 -0.0021133374144321781 0 0.042150253768323931 -0.002076386992309043 0 0.042051685307344246 -0.0020372238613015361 0 0.042148218547338287 -0.0021133374144321781 0 0.042146717975770645 -0.0021423148139102159 0 0.040733399220929951 -0.0033837301954929779 0 0.039970613475956991 -0.0028181613342326216 0 0.042148218547338287 -0.0021133374144321781 0 0.042170337366232588 -0.0020981944834273457 0 0.042145484664810565 -0.00214349336581108 0 0.037881456085397849 -0.0033332503509065376 0 0.037938922589384597 -0.0032133187388304323 0 0.037471402351832349 -0.0029603394747417665 0 0.040103302397782432 -0.0026658216215664997 0 0.039970613475956991 -0.0028181613342326216 0 0.040733399220929951 -0.0033837301954929779 0 0.04326097753324764 -0.0033785945598111544 0 0.042169048322533466 -0.0020975659852060925 0 0.042150253768323931 -0.002076386992309043 0 0.042199435839143755 -0.0020532885486850088 0 0.042148218547338287 -0.0021133374144321781 0 0.042170337366232588 -0.0020981944834273457 0 0.042150253768323931 -0.002076386992309043 0 0.040733399220929951 -0.0033837301954929779 0 0.040857176178806118 -0.0033056494419809526 0 0.03819307409367368 -0.002675249199330855 0 0.038166700382937117 -0.0021051457960764132 0 0.038316137605624245 -0.0024093491294560764 0 0.038070475686971056 -0.0023035738317418492 0 0.038086868683898711 -0.0023235448594333893 0 0.038098429280238835 -0.0022836455033795975 0 0.037938922589384597 -0.0032133187388304323 0 0.037923358758602199 -0.002642279696025865 0 0.037471402351832349 -0.0029603394747417665 0 0.039970613475956991 -0.0028181613342326216 0 0.035557414342099157 -0.0021732641938666231 0 0.039970613475956991 -0.0028181613342326216 0 0.040120219837686363 -0.0023956370785326074 0 0.035557414342099157 -0.0021732641938666231 0 0.040120219837686363 -0.0023956370785326074 0 0.042090924063255993 -0.0023659616422158861 0 0.041851816458797944 -0.002497729390904081 0 0.041835887060565749 -0.00279396784594665 0 0.040120219837686363 -0.0023956370785326074 0 0.037837070910493986 -0.0020492141711051627 0 0.041922088458060426 -0.0022691708215668337 0 0.041851816458797944 -0.002497729390904081 0 0.041768141633509448 -0.0023104715033659402 0 0.041922088458060426 -0.0022691708215668337 0 0.042090924063255993 -0.0023659616422158861 0 0.041851816458797944 -0.002497729390904081 0 0.041851816458797944 -0.002497729390904081 0 0.041768141633509448 -0.0023104715033659402 0 0.041699137606765704 -0.002462999692892231 0 0.041768141633509448 -0.0023104715033659402 0 0.041699137606765704 -0.002462999692892231 0 0.041521006775284752 -0.0023873247830598857 0 0.041699137606765704 -0.002462999692892231 0 0.041738566321590578 -0.0026583467113340019 0 0.041563724427127899 -0.002592599828009945 0 0.041851816458797944 -0.002497729390904081 0 0.041699137606765704 -0.002462999692892231 0 0.041738566321590578 -0.0026583467113340019 0 0.041490902740585429 -0.002634828196246634 0 0.041486220303075701 -0.0026327114908162655 0 0.041563724427127899 -0.002592599828009945 0 0.041486220303075701 -0.0026327114908162655 0 0.041448156348635412 -0.0026469868331541707 0 0.041563724427127899 -0.002592599828009945 0 0.041738566321590578 -0.0026583467113340019 0 0.041789890437071292 -0.0028288362785115644 0 0.041563724427127899 -0.002592599828009945 0 0.037656624296438984 -0.0022043233046201067 0 0.041794707345805149 -0.003471850608188044 0 0.037656624296438984 -0.0022043233046201067 0 0.033424693391181891 -0.00079609886489688997 0 0.04146041945248969 -0.0026346410293928021 0 0.041453894139762984 -0.0026360335266501374 0 0.041451740508713412 -0.0026332795105305225 0 0.041490902740585429 -0.002634828196246634 0 0.041486220303075701 -0.0026327114908162655 0 0.04147236901792057 -0.0026347870858106606 0 0.041490902740585429 -0.002634828196246634 0 0.041465793791032581 -0.0026365745714256161 0 0.04147236901792057 -0.0026347870858106606 0 0.041465793791032581 -0.0026365745714256161 0 0.04147236901792057 -0.0026347870858106606 0 0.04146041945248969 -0.0026346410293928021 0 0.04147236901792057 -0.0026347870858106606 0 0.04146041945248969 -0.0026346410293928021 0 0.041458994090331214 -0.002636012257793436 0 0.04146041945248969 -0.0026346410293928021 0 0.041458994090331214 -0.002636012257793436 0 0.041453894139762984 -0.0026360335266501374 0 0.038176212033771889 -0.0020054215522005083 0 0.037656624296438984 -0.0022043233046201067 0 0.041486220303075701 -0.0026327114908162655 0 0.041458994090331214 -0.002636012257793436 0 0.041448156348635412 -0.0026469868331541707 0 0.041486220303075701 -0.0026327114908162655 0 0.04147236901792057 -0.0026347870858106606 0 0.041458994090331214 -0.002636012257793436 0 0.03470377452102482 -0.00039061912916707377 0 0.035074016053522325 -0.00077334136455673612 0 0.034424867584510535 -0.0011606883961098255 0 0.03402322302706566 -0.0014323122615489709 0 0.033950231050931833 -0.0012529048445652923 0 0.033533323240406296 -0.0014969586581733369 0 0.03402322302706566 -0.0014323122615489709 0 0.03408922005713598 -0.0013893065670436155 0 0.033950231050931833 -0.0012529048445652923 0 0.037837070910493986 -0.0020492141711051627 0 0.037656624296438984 -0.0022043233046201067 0 0.03765662429643898