<?xml version="1.0"?>
<VTKFile type="UnstructuredGrid" version="0.1" byte_order="LittleEndian">
<UnstructuredGrid>
<Piece NumberOfPoints="31898" NumberOfCells="11152">
<Points>
<DataArray type="Float64" NumberOfComponents="3" format="ascii">
-0.5 -0.5 0 -0.47620991077874902 -0.44978878706170539 0 -0.49999999999999473 -0.42132396840504388 0 -0.5 -0.5 0 -0.47160970827802529 -0.4793630013852106 0 -0.47620991077874902 -0.44978878706170539 0 -0.5 -0.5 0 -0.47160970827802529 -0.4793630013852106 0 -0.44860394795025399 -0.5 0 -0.47160970827802529 -0.4793630013852106 0 -0.44860394795025399 -0.5 0 -0.4490820238307246 -0.45820516232899983 0 -0.44860394795025399 -0.5 0 -0.4490820238307246 -0.45820516232899983 0 -0.42881687682924802 -0.47781464288736519 0 -0.4490820238307246 -0.45820516232899983 0 -0.45555437223955858 -0.42914059360647611 0 -0.4490820238307246 -0.45820516232899983 0 -0.45555437223955858 -0.42914059360647611 0 -0.43867285131603428 -0.4271457417558665 0 -0.4490820238307246 -0.45820516232899983 0 -0.43867285131603428 -0.4271457417558665 0 -0.4263356171060747 -0.44269880333887462 0 -0.47160970827802529 -0.4793630013852106 0 -0.4490820238307246 -0.45820516232899983 0 -0.47620991077874902 -0.44978878706170539 0 -0.4490820238307246 -0.45820516232899983 0 -0.47620991077874902 -0.44978878706170539 0 -0.45555437223955858 -0.42914059360647611 0 -0.47620991077874902 -0.44978878706170539 0 -0.48101336032419229 -0.41069999664450008 0 -0.45555437223955858 -0.42914059360647611 0 -0.47620991077874902 -0.44978878706170539 0 -0.49999999999999473 -0.42132396840504388 0 -0.48101336032419229 -0.41069999664450008 0 -0.49999999999999473 -0.42132396840504388 0 -0.48101336032419229 -0.41069999664450008 0 -0.5 -0.393886241813306 0 -0.49999999999999473 -0.42132396840504388 0 -0.48101336032419229 -0.41069999664450008 0 -0.5 -0.393886241813306 0 -0.47854472220918332 -0.38978458738689759 0 -0.48422759779560409 -0.37130120630367158 0 -0.5 -0.393886241813306 0 -0.5 -0.36644851522156802 0 -0.48422759779560409 -0.37130120630367158 0 -0.48101336032419229 -0.41069999664450008 0 -0.5 -0.393886241813306 0 -0.47854472220918332 -0.38978458738689759 0 -0.48101336032419229 -0.41069999664450008 0 -0.47854472220918332 -0.38978458738689759 0 -0.46202672064839212 -0.40007602488395211 0 -0.48101336032419229 -0.41069999664450008 0 -0.46202672064839212 -0.40007602488395211 0 -0.47854472220918332 -0.38978458738689759 0 -0.46725442735267431 -0.37660061361585562 0 -0.46202672064839212 -0.40007602488395211 0 -0.47854472220918332 -0.38978458738689759 0 -0.46725442735267431 -0.37660061361585562 0 -0.48422759779560409 -0.37130120630367158 0 -0.46725442735267431 -0.37660061361585562 0 -0.46202672064839212 -0.40007602488395211 0 -0.46725442735267431 -0.37660061361585562 0 -0.45645674801697989 -0.38644133236760531 0 -0.46202672064839212 -0.40007602488395211 0 -0.46725442735267431 -0.37660061361585562 0 -0.45645674801697989 -0.38644133236760531 0 -0.4540003998136638 -0.37455519391687309 0 -0.45645674801697989 -0.38644133236760531 0 -0.46202672064839212 -0.40007602488395211 0 -0.44257020456291563 -0.38918913383950271 0 -0.46202672064839212 -0.40007602488395211 0 -0.44257020456291563 -0.38918913383950271 0 -0.44727608925983742 -0.41095911152778891 0 -0.46202672064839212 -0.40007602488395211 0 -0.44257020456291563 -0.38918913383950271 0 -0.44257020456291563 -0.38918913383950271 0 -0.44727608925983742 -0.41095911152778891 0 -0.43479358559901082 -0.4041454901736512 0 -0.44257020456291563 -0.38918913383950271 0 -0.4540003998136638 -0.37455519391687309 0 -0.44172858264042247 -0.37082207246888088 0 -0.45645674801697989 -0.38644133236760531 0 -0.44257020456291563 -0.38918913383950271 0 -0.4540003998136638 -0.37455519391687309 0 -0.46202672064839212 -0.40007602488395211 0 -0.45555437223955858 -0.42914059360647611 0 -0.44727608925983742 -0.41095911152778891 0 -0.46202672064839212 -0.40007602488395211 0 -0.45555437223955858 -0.42914059360647611 0 -0.48101336032419229 -0.41069999664450008 0 -0.46202672064839212 -0.40007602488395211 0 -0.45555437223955858 -0.42914059360647611 0 -0.44727608925983742 -0.41095911152778891 0 -0.43867285131603428 -0.4271457417558665 0 -0.43676601469929588 -0.41441201227470881 0 -0.44727608925983742 -0.41095911152778891 0 -0.43676601469929588 -0.41441201227470881 0 -0.43479358559901082 -0.4041454901736512 0 -0.45555437223955858 -0.42914059360647611 0 -0.44727608925983742 -0.41095911152778891 0 -0.43867285131603428 -0.4271457417558665 0 -0.43867285131603428 -0.4271457417558665 0 -0.42681803064840879 -0.42717069814352421 0 -0.4263356171060747 -0.44269880333887462 0 -0.42681803064840879 -0.42717069814352421 0 -0.41531815884496182 -0.42985383783075998 0 -0.4263356171060747 -0.44269880333887462 0 -0.42681803064840879 -0.42717069814352421 0 -0.42624289495594048 -0.42089725947505818 0 -0.42083332353326591 -0.42146747131641099 0 -0.42681803064840879 -0.42717069814352421 0 -0.43096994786351572 -0.41951492446283251 0 -0.42624289495594048 -0.42089725947505818 0 -0.43867285131603428 -0.4271457417558665 0 -0.42681803064840879 -0.42717069814352421 0 -0.43096994786351572 -0.41951492446283251 0 -0.43867285131603428 -0.4271457417558665 0 -0.43676601469929588 -0.41441201227470881 0 -0.43096994786351572 -0.41951492446283251 0 -0.43676601469929588 -0.41441201227470881 0 -0.43096994786351572 -0.41951492446283251 0 -0.42907264086257813 -0.41311715872526122 0 -0.43676601469929588 -0.41441201227470881 0 -0.42907264086257813 -0.41311715872526122 0 -0.43479358559901082 -0.4041454901736512 0 -0.42907264086257813 -0.41311715872526122 0 -0.43479358559901082 -0.4041454901736512 0 -0.42460885511582858 -0.40417321677700252 0 -0.42907264086257813 -0.41311715872526122 0 -0.41997834854398469 -0.41180534796019508 0 -0.42907264086257813 -0.41311715872526122 0 -0.42635027777857132 -0.41543594397746519 0 -0.41997834854398469 -0.41180534796019508 0 -0.42907264086257813 -0.41311715872526122 0 -0.41997834854398469 -0.41180534796019508 0 -0.42460885511582858 -0.40417321677700252 0 -0.42635027777857132 -0.41543594397746519 0 -0.41997834854398469 -0.41180534796019508 0 -0.42635027777857132 -0.41543594397746519 0 -0.42083332353326591 -0.42146747131641099 0 -0.41997834854398469 -0.41180534796019508 0 -0.43096994786351572 -0.41951492446283251 0 -0.42624289495594048 -0.42089725947505818 0 -0.42635027777857132 -0.41543594397746519 0 -0.43096994786351572 -0.41951492446283251 0 -0.42907264086257813 -0.41311715872526122 0 -0.42635027777857132 -0.41543594397746519 0 -0.42624289495594048 -0.42089725947505818 0 -0.42635027777857132 -0.41543594397746519 0 -0.42083332353326591 -0.42146747131641099 0 -0.42083332353326591 -0.42146747131641099 0 -0.41997834854398469 -0.41180534796019508 0 -0.40992282953163789 -0.42011435591993562 0 -0.41997834854398469 -0.41180534796019508 0 -0.39756877647335259 -0.40857286797681719 0 -0.41997834854398469 -0.41180534796019508 0 -0.40992282953163789 -0.42011435591993562 0 -0.39756877647335259 -0.40857286797681719 0 -0.40992282953163789 -0.42011435591993562 0 -0.41531815884496182 -0.42985383783075998 0 -0.39591554026262499 -0.42887225451549271 0 -0.41531815884496182 -0.42985383783075998 0 -0.39591554026262499 -0.42887225451549271 0 -0.41160927495564159 -0.44339431233754628 0 -0.42083332353326591 -0.42146747131641099 0 -0.40992282953163789 -0.42011435591993562 0 -0.41531815884496182 -0.42985383783075998 0 -0.42681803064840879 -0.42717069814352421 0 -0.42083332353326591 -0.42146747131641099 0 -0.41531815884496182 -0.42985383783075998 0 -0.44257020456291563 -0.38918913383950271 0 -0.42311368847744002 -0.37830224279505142 0 -0.42594061475171041 -0.39368797999533162 0 -0.44257020456291563 -0.38918913383950271 0 -0.42311368847744002 -0.37830224279505142 0 -0.44172858264042247 -0.37082207246888088 0 -0.44257020456291563 -0.38918913383950271 0 -0.42311368847744002 -0.37830224279505142 0 -0.42311368847744002 -0.37830224279505142 0 -0.42594061475171041 -0.39368797999533162 0 -0.416587075656149 -0.38785930376960043 0 -0.44257020456291563 -0.38918913383950271 0 -0.42594061475171041 -0.39368797999533162 0 -0.43479358559901082 -0.4041454901736512 0 -0.42594061475171041 -0.39368797999533162 0 -0.43479358559901082 -0.4041454901736512 0 -0.42460885511582858 -0.40417321677700252 0 -0.41997834854398469 -0.41180534796019508 0 -0.41325908582185972 -0.39811010703057192 0 -0.39770572831670092 -0.39911486077581648 0 -0.41997834854398469 -0.41180534796019508 0 -0.39770572831670092 -0.39911486077581648 0 -0.42594061475171041 -0.39368797999533162 0 -0.42460885511582858 -0.40417321677700252 0 -0.41325908582185972 -0.39811010703057192 0 -0.41997834854398469 -0.41180534796019508 0 -0.42460885511582858 -0.40417321677700252 0 -0.41325908582185972 -0.39811010703057192 0 -0.42594061475171041 -0.39368797999533162 0 -0.41325908582185972 -0.39811010703057192 0 -0.416587075656149 -0.38785930376960043 0 -0.41325908582185972 -0.39811010703057192 0 -0.416587075656149 -0.38785930376960043 0 -0.40403491357358612 -0.38133688525744702 0 -0.42311368847744002 -0.37830224279505142 0 -0.40403491357358612 -0.38133688525744702 0 -0.40365717239196519 -0.36741535175059892 0 -0.42311368847744002 -0.37830224279505142 0 -0.416587075656149 -0.38785930376960043 0 -0.40403491357358612 -0.38133688525744702 0 -0.40403491357358612 -0.38133688525744702 0 -0.39190790742475001 -0.38540387676521748 0 -0.39770572831670092 -0.39911486077581648 0 -0.40403491357358612 -0.38133688525744702 0 -0.39190790742475001 -0.38540387676521748 0 -0.3904578797192948 -0.37473938743617019 0 -0.41325908582185972 -0.39811010703057192 0 -0.40403491357358612 -0.38133688525744702 0 -0.39770572831670092 -0.39911486077581648 0 -0.39770572831670092 -0.39911486077581648 0 -0.37543310808941849 -0.38642437359143528 0 -0.39770572831670092 -0.39911486077581648 0 -0.37515920440272033 -0.40534038799344108 0 -0.37543310808941849 -0.38642437359143528 0 -0.39770572831670092 -0.39911486077581648 0 -0.37515920440272033 -0.40534038799344108 0 -0.39756877647335259 -0.40857286797681719
[...]
<PointData Scalars="" Vectors="displacement," Tensors="">
<DataArray type="Float64" Name="displacement" NumberOfComponents="3" format="ascii">
-0.044996753755630177 -0.04499746609194244 0 -0.041952621055928722 -0.044197801470872398 0 -0.037932782303896323 -0.044994003984626239 0 -0.044996753755630177 -0.04499746609194244 0 -0.04428226113717449 -0.043359149943233109 0 -0.041952621055928722 -0.044197801470872398 0 -0.044996753755630177 -0.04499746609194244 0 -0.04428226113717449 -0.043359149943233109 0 -0.044997479051537892 -0.040378242153486801 0 -0.04428226113717449 -0.043359149943233109 0 -0.044997479051537892 -0.040378242153486801 0 -0.044555183493821426 -0.042733066413943921 0 -0.044997479051537892 -0.040378242153486801 0 -0.044555183493821426 -0.042733066413943921 0 -0.045143322129895816 -0.039548619711532812 0 -0.043653899040602212 -0.043938423991358798 0 -0.043482577958975657 -0.044293010779492673 0 -0.044555183493821426 -0.042733066413943921 0 -0.048413083925029278 -0.043124825502784583 0 -0.048714639416547349 -0.041201452252252531 0 -0.044555183493821426 -0.042733066413943921 0 -0.048714639416547349 -0.041201452252252531 0 -0.047097377916670118 -0.039721487177077665 0 -0.04428226113717449 -0.043359149943233109 0 -0.044555183493821426 -0.042733066413943921 0 -0.041952621055928722 -0.044197801470872398 0 -0.044555183493821426 -0.042733066413943921 0 -0.041952621055928722 -0.044197801470872398 0 -0.040943133702541469 -0.044973650624980294 0 -0.041952621055928722 -0.044197801470872398 0 -0.039043376037044115 -0.04451938327669628 0 -0.040943133702541469 -0.044973650624980294 0 -0.041952621055928722 -0.044197801470872398 0 -0.037932782303896323 -0.044994003984626239 0 -0.039043376037044115 -0.04451938327669628 0 -0.037919145183793725 -0.044999994715064301 0 -0.036961810887952598 -0.0466973869425516 0 -0.035449767998120579 -0.044999992745287806 0 -0.037920484210612289 -0.045000578725835808 0 -0.038534323404401979 -0.045222190365719318 0 -0.035449767998120579 -0.044999992745287806 0 -0.035084082794790639 -0.046917707579157059 0 -0.033420018796606395 -0.046410203846509471 0 -0.035449767998120579 -0.044999992745287806 0 -0.032980369971582636 -0.04499999145218167 0 -0.033420018796606395 -0.046410203846509471 0 -0.036961810887952598 -0.0466973869425516 0 -0.035449767998120579 -0.044999992745287806 0 -0.035084082794790639 -0.046917707579157059 0 -0.036961810887952598 -0.0466973869425516 0 -0.035084082794790639 -0.046917707579157059 0 -0.036012032628114699 -0.048390404972194379 0 -0.038534323404401979 -0.045222190365719318 0 -0.03985874130848175 -0.04444159150612198 0 -0.035084082794790639 -0.046917707579157059 0 -0.033899794166978831 -0.047928360560617327 0 -0.036012032628114699 -0.048390404972194379 0 -0.035084082794790639 -0.046917707579157059 0 -0.033899794166978831 -0.047928360560617327 0 -0.033420018796606395 -0.046410203846509471 0 -0.034173722214768297 -0.045579711664985485 0 -0.03985874130848175 -0.04444159150612198 0 -0.031346298694549211 -0.047559884365995529 0 -0.031261006699400559 -0.047532671517136235 0 -0.031202781406188998 -0.047560422518605684 0 -0.031346298694549211 -0.047559884365995529 0 -0.031261006699400559 -0.047532671517136235 0 -0.031273712439865771 -0.047549182423524475 0 -0.031261006699400559 -0.047532671517136235 0 -0.031202781406188998 -0.047560422518605684 0 -0.031216810277489425 -0.047460468557237921 0 -0.051117591869731742 -0.043343356784490972 0 -0.051886009175160161 -0.041542711777680791 0 -0.050177131557853555 -0.042057497003082256 0 -0.03985874130848175 -0.04444159150612198 0 -0.040240045140144405 -0.043688282733928281 0 -0.051886009175160161 -0.041542711777680791 0 -0.050177131557853555 -0.042057497003082256 0 -0.050727810621636463 -0.040903671368463256 0 -0.031216810277489425 -0.047460468557237921 0 -0.031273712439865771 -0.047549182423524475 0 -0.031275864173342376 -0.047456897541636379 0 -0.031261006699400559 -0.047532671517136235 0 -0.031216810277489425 -0.047460468557237921 0 -0.031273712439865771 -0.047549182423524475 0 -0.051117591869731742 -0.043343356784490972 0 -0.048413083925029278 -0.043124825502784583 0 -0.050177131557853555 -0.042057497003082256 0 -0.03985874130848175 -0.04444159150612198 0 -0.043482577958975657 -0.044293010779492673 0 -0.039043376037044115 -0.04451938327669628 0 -0.038847394930741297 -0.045192147118562086 0 -0.040943133702541469 -0.044973650624980294 0 -0.050177131557853555 -0.042057497003082256 0 -0.048714639416547349 -0.041201452252252531 0 -0.049895262073859512 -0.041051014781623776 0 -0.050177131557853555 -0.042057497003082256 0 -0.049895262073859512 -0.041051014781623776 0 -0.050727810621636463 -0.040903671368463256 0 -0.048413083925029278 -0.043124825502784583 0 -0.050177131557853555 -0.042057497003082256 0 -0.048714639416547349 -0.041201452252252531 0 -0.048714639416547349 -0.041201452252252531 0 -0.048672669281412173 -0.039937140167559712 0 -0.047097377916670118 -0.039721487177077665 0 -0.048672669281412173 -0.039937140167559712 0 -0.048396851089520222 -0.038751109940148826 0 -0.047097377916670118 -0.039721487177077665 0 -0.048672669281412173 -0.039937140167559712 0 -0.049289782800065254 -0.039933142934478527 0 -0.049226685819879448 -0.039351013521538275 0 -0.048672669281412173 -0.039937140167559712 0 -0.049431871400864906 -0.040454322520825495 0 -0.049289782800065254 -0.039933142934478527 0 -0.048714639416547349 -0.041201452252252531 0 -0.048672669281412173 -0.039937140167559712 0 -0.049431871400864906 -0.040454322520825495 0 -0.048714639416547349 -0.041201452252252531 0 -0.049895262073859512 -0.041051014781623776 0 -0.049431871400864906 -0.040454322520825495 0 -0.049895262073859512 -0.041051014781623776 0 -0.049431871400864906 -0.040454322520825495 0 -0.050070766391915822 -0.040352258090086961 0 -0.049895262073859512 -0.041051014781623776 0 -0.050070766391915822 -0.040352258090086961 0 -0.050727810621636463 -0.040903671368463256 0 -0.050070766391915822 -0.040352258090086961 0 -0.050727810621636463 -0.040903671368463256 0 -0.050715314174874182 -0.04013292619570076 0 -0.048435747829751491 -0.037708189209710301 0 -0.048410170406148922 -0.037402914283457059 0 -0.050070766391915822 -0.040352258090086961 0 -0.049829081260617969 -0.039991638669048639 0 -0.050292023593226404 -0.039195647551355982 0 -0.050070766391915822 -0.040352258090086961 0 -0.050223405080847987 -0.039818941372050012 0 -0.050715314174874182 -0.04013292619570076 0 -0.048404662633481872 -0.037520174273509607 0 -0.048410170406148922 -0.037402914283457059 0 -0.049829081260617969 -0.039991638669048639 0 -0.049226685819879448 -0.039351013521538275 0 -0.050213460202668064 -0.039264706390230511 0 -0.049431871400864906 -0.040454322520825495 0 -0.049289782800065254 -0.039933142934478527 0 -0.049829081260617969 -0.039991638669048639 0 -0.049431871400864906 -0.040454322520825495 0 -0.050070766391915822 -0.040352258090086961 0 -0.049829081260617969 -0.039991638669048639 0 -0.049289782800065254 -0.039933142934478527 0 -0.049829081260617969 -0.039991638669048639 0 -0.049226685819879448 -0.039351013521538275 0 -0.049226685819879448 -0.039351013521538275 0 -0.050213460202668064 -0.039264706390230511 0 -0.049363593436205659 -0.03823722405617342 0 -0.048410170406148922 -0.037402914283457059 0 -0.048713316684942276 -0.035789788447631442 0 -0.050213460202668064 -0.039264706390230511 0 -0.049363593436205659 -0.03823722405617342 0 -0.05049293741512282 -0.037015224813059022 0 -0.049363593436205659 -0.03823722405617342 0 -0.048396851089520222 -0.038751109940148826 0 -0.048511850842371931 -0.03685944638660086 0 -0.048396851089520222 -0.038751109940148826 0 -0.048511850842371931 -0.03685944638660086 0 -0.047118322564575814 -0.038366821605420882 0 -0.049226685819879448 -0.039351013521538275 0 -0.049363593436205659 -0.03823722405617342 0 -0.048396851089520222 -0.038751109940148826 0 -0.048672669281412173 -0.039937140167559712 0 -0.049226685819879448 -0.039351013521538275 0 -0.048396851089520222 -0.038751109940148826 0 -0.051886009175160161 -0.041542711777680791 0 -0.05239484689229694 -0.040060451144258671 0 -0.0514397059412438 -0.04025758976904862 0 -0.031216810277489425 -0.047460468557237921 0 -0.031227856104522465 -0.047292108172347309 0 -0.031275864173342376 -0.047456897541636379 0 -0.040240045140144405 -0.043688282733928281 0 -0.040211786023865846 -0.042330204428787321 0 -0.05239484689229694 -0.040060451144258671 0 -0.0514397059412438 -0.04025758976904862 0 -0.051764817283879105 -0.039639952746449811 0 -0.051886009175160161 -0.041542711777680791 0 -0.0514397059412438 -0.04025758976904862 0 -0.050727810621636463 -0.040903671368463256 0 -0.0514397059412438 -0.04025758976904862 0 -0.050727810621636463 -0.040903671368463256 0 -0.050715314174874182 -0.04013292619570076 0 -0.050223405080847987 -0.039818941372050012 0 -0.051123105494240276 -0.039418363562465641 0 -0.051091152485533135 -0.038494742476683053 0 -0.048410170406148922 -0.037402914283457059 0 -0.048123320161187096 -0.035857007543099097 0 -0.0514397059412438 -0.04025758976904862 0 -0.050715314174874182 -0.04013292619570076 0 -0.051123105494240276 -0.039418363562465641 0 -0.050223405080847987 -0.039818941372050012 0 -0.050715314174874182 -0.04013292619570076 0 -0.051123105494240276 -0.039418363562465641 0 -0.0514397059412438 -0.04025758976904862 0 -0.051123105494240276 -0.039418363562465641 0 -0.051764817283879105 -0.039639952746449811 0 -0.051123105494240276 -0.039418363562465641 0 -0.051764817283879105 -0.039639952746449811 0 -0.052095323804213688 -0.038843473097293808 0 -0.05239484689229694 -0.040060451144258671 0 -0.052095323804213688 -0.038843473097293808 0 -0.052962805481043859 -0.038823263909398491 0 -0.05239484689229694 -0.040060451144258671 0 -0.051764817283879105 -0.039639952746449811 0 -0.052095323804213688 -0.038843473097293808 0 -0.052095323804213688 -0.038843473097293808 0 -0.051833406815937226 -0.038216769450164376 0 -0.051091152485533135 -0.038494742476683053 0 -0.052095323804213688 -0.038843473097293808 0 -0.051833406815937226 -0.038216769450164376 0 -0.052350102083158212 -0.038153392905803885 0 -0.051123105494240276 -0.039418363562465641 0 -0.052095323804213688 -0.038843473097293808 0 -0.051091152485533135 -0.038494742476683053 0 -0.048123320161187096 -0.035857007543099097 0 -0.047039013696194683 -0.033446903471249748 0 -0.04847744767854973 -0.035259670245270325 0 -0.048105163307413691 -0.033911389164445291 0 -0.049229173065048704 -0.033926722005940428 0 -0.04847744767854973 -0.035259670245270325 0 -0.048105163307413691 -0.033911389164445291 0 -0.047913242759774412 -0.035252309247497386 0 -0.048873879572181485 -0.033509310488710871 0 -0.047039013696194683 -0.033446903471249748 0 -0.051781005023444772 -0.037404544530256816 0 -0.052350102083158212 -0.038153392905803885 0 -0.052591018749837383 -0.037450925455425353 0 -0.051833406815937226 -0.038216769450164376 0 -0.051781005023444772 -0.037404544530256816 0 -0.052350102083158212 -0.038153392905803885 0 -0.047039013696194683 -0.033446903471249748 0 -0.044526009904771048 -0.03428528433566725 0 -0.051833406815937226 -0.038216769450164376 0 -0.051091152485533135 -0.038494742476683053 0 -0.051781005023444772 -0.037404544530256816 0 -0.047723353539466079 -0.036598804191907107 0 -0.04847744767854973 -0.035259670245270325 0 -0.047913242759774412 -0.035252309247497386 0 -0.049363593436205659 -0.03823722405617342 0 -0.048511850842371931 -0.03685944638660086 0 -0.05049293741512282 -0.037015224813059022 0 -0.05079704630551956 -0.034841202947813378 0 -0.048511850842371931 -0.03685944638660086 0 -0.05049293741512282 -0.037015224813059022 0 -0.048873879572181485 -0.033509310488710871 0 -0.048713316684942276 -0.035789788447631442 0 -0.05079704630551956 -0.034841202947813378 0 -0.048511850842371931 -0.03685944638660086 0 -0.047880140776286988 -0.034812497708130385 0 -0.048511850842371931 -0.03685944638660086 0 -0.046815727067984342 -0.036575766145886937 0 -0.047880140776286988 -0.034812497708130385 0 -0.046815727067984342 -0.036575766145886937 0 -0.044994919477166009 -0.03477555378834675 0 -0.047880140776286988 -0.034812497708130385 0 -0.048511850842371931 -0.03685944638660086 0 -0.046815727067984342 -0.036575766145886937 0 -0.047118322564575814 -0.038366821605420882 0 -0.046815727067984342 -0.036575766145886937 0 -0.045763653686737321 -0.037626059249161861 0 -0.047118322564575814 -0.038366821605420882 0 -0.04633146058675109 -0.037707998595133164 0 -0.045770247406476602 -0.036223961643367615 0 -0.045742694605623496 -0.038094377220350646 0 -0.048731051614252466 -0.03627245716040655 0 -0.048383796244538889 -0.034985152753241502 0 -0.04688542126991338 -0.035280561863534808 0 -0.047164930197122347 -0.035793292512214442 0 -0.0461410748746078 -0.03518304594789954 0 -0.047164930197122347 -0.035793292512214442 0 -0.047166015596885741 -0.035811535007761248 0 -0.047164930197122347 -0.035793292512214442 0 -0.047170719193489315 -0.035060851568264204 0 -0.046815727067984342 -0.036575766145886937 0 -0.045763653686737321 -0.037626059249161861 0 -0.04537964190546194 -0.036200255557747134 0 -0.046815727067984342 -0.036575766145886937 0 -0.04537964190546194 -0.036200255557747134 0 -0.044994919477166009 -0.03477555378834675 0 -0.047170719193489315 -0.035060851568264204 0 -0.047156311217894133 -0.033942431375146243 0 -0.048383796244538889 -0.034985152753241502 0 -0.047511270846572196 -0.034518563462666581 0 -0.048036182874714339 -0.033688212951991453 0 -0.047511270846572196 -0.034518563462666581 0 -0.04688542126991338 -0.035280561863534808 0 -0.047012390855302434 -0.033667595137379255 0 -0.04688542126991338 -0.035280561863534808 0 -0.045912549987185608 -0.033515060211185888 0 -0.047012390855302434 -0.033667595137379255 0 -0.047511270846572196 -0.034518563462666581 0 -0.047012390855302434 -0.033667595137379255 0 -0.048036182874714339 -0.033688212951991453 0 -0.048383796244538889 -0.034985152753241502 0 -0.047511270846572196 -0.034518563462666581 0 -0.04688542126991338 -0.035280561863534808 0 -0.045000850706412819 -0.034286353474864882 0 -0.0461410748746078 -0.03518304594789954 0 -0.045000004210138174 -0.034285190028799865 0 -0.04688542126991338 -0.035280561863534808 0 -0.045912549987185608 -0.033515060211185888 0 -0.044999850476465507 -0.03428678154251432 0 -0.045770247406476602 -0.036223961643367615 0 -0.044998883791706544 -0.036898820540991632 0 -0.045770247406476602 -0.036223961643367615 0 -0.045742694605623496 -0.038094377220350646 0 -0.044998883791706544 -0.036898820540991632 0 -0.045742694605623496 -0.038094377220350646 0 -0.044998883791706544 -0.036898820540991632 0 -0.045143322129895816 -0.039548619711532812 0 -0.044997479051537892 -0.040378242153486801 0 -0.044998883791706544 -0.036898820540991632 0 -0.045143322129895816 -0.039548619711532812 0 -0.045742694605623496 -0.038094377220350646 0 -0.045143322129895816 -0.039548619711532812 0 -0.045658991664522273 -0.039652923197600123 0 -0.044555183493821426 -0.042733066413943921 0 -0.045143322129895816 -0.039548619711532812 0 -0.045658991664522273 -0.039652923197600123 0 -0.044555183493821426 -0.042733066413943921 0 -0.045658991664522273 -0.039652923197600123 0 -0.047097377916670118 -0.039721487177077665 0 -0.045658991664522273 -0.039652923197600123 0 -0.047097377916670118 -0.039721487177077665 0 -0.046337947093934004 -0.038711999638479239 0 -0.047097377916670118 -0.039721487177077665 0 -0.047118322564575814 -0.038366821605420882 0 -0.046337947093934004 -0.038711999638479239 0 -0.048396851089520222 -0.038751109940148826 0 -0.047097377916670118 -0.039721487177077665 0 -0.047118322564575814 -0.038366821605420882 0 -0.046283330644447743 -0.037716901354372299 0 -0.047118322564575814 -0.038366821605420882 0 -0.046320944639620484 -0.037894393295858739 0 -0.047118322564575814 -0.038366821605420882 0 -0.046320944639620484 -0.037894393295858739 0 -0.046337947093934004 -0.038711999638479239 0 -0.047164930197122347 -0.035793292512214442 0 -0.047257094482888722 -0.036090752141679699 0 -0.045742694605623496 -0.038094377220350646 0 -0.046320944639620484 -0.037894393295858739 0 -0.046337947093934004 -0.038711999638479239 0 -0.04633146058675109 -0.037707998595133164 0 -0.045742694605623496 -0.038094377220350646 0 -0.046320944639620484 -0.037894393295858739 0 -0.045742694605623496 -0.038094377220350646 0 -0.045658991664522273 -0.039652923197600123 0 -0.046337947093934004 -0.038711999638479239 0 -0.019266978805768067 -0.047192576549254434 0 -0.01724458162635668 -0.044717128931315415 0 -0.022645105447800549 -0.0485743669292302 0 -0.022521381170673618 -0.051285587649725572 0 -0.021082861298229911 -0.049215990723454603 0 -0.024728740758406097 -0.049218356828844977 0 -0.023027479387759127 -0.048654209795400138 0 -0.022882039322336796 -0.050572594932930155 0 -0.024728740758406097 -0.049218356828844977 0 -0.024635725620507788 -0.050886842643344053 0 -0.022882039322336796 -0.050572594932930155 0 -0.024728740758406097 -0.049218356828844977 0 -0.026278821305540326 -0.049939848201002585 0 -0.024635725620507788 -0.050886842643344053 0 -0.024728740758406097 -0.049218356828844977 0 -0.024082055574723402 -0.047739199623122397 0 -0.025428869402826435 -0.047571518753663063 0 -0.024728740758406097 -0.049218356828844977 0 -0.024082055574723402 -0.047739199623122397 0 -0.023027479387759127 -0.048654209795400138 0 -0.019266978805768067 -0.047192576549254434 0 -0.019927708138282305 -0.047090623867468442 0 -0.024082055574723402 -0.047739199623122397 0 -0.023027479387759127 -0.048654209795400138 0 -0.023070663230336453 -0.046645871517781587 0 -0.022645105447800549 -0.0485743669292302 0 -0.023070663230336453 -0.046645871517781587 0 -0.020778472208694346 -0.047120002518006687 0 -0.023070663230336453 -0.046645871517781587 0 -0.02310257080656309 -0.044999599544132782 0 -0.024621706634965976 -0.046313830350038242 0 -0.023070663230336453 -0.046645871517781587 0 -0.02310257080656309 -0.044999599544132782 0 -0.021596452074788993 -0.045870216916419439 0 -0.02310257080656309 -0.044999599544132782 0 -0.024621706634965976 -0.046313830350038242 0 -0.025572113878135825 -0.044999944127002603 0 -0.024082055574723402 -0.047739199623122397 0 -0.023070663230336453 -0.046645871517781587 0 -0.024621706634965976 -0.046313830350038242 0 -0.024082055574723402 -0.047739199623122397 0 -0.024621706634965976 -0.046313830350038242 0 -0.025428869402826435 -0.047571518753663063 0 -0.025428869402826435 -0.047571518753663063 0 -0.026238003771730044 -0.04617768157710269 0 -0.026810096988975567 -0.047360965029839677 0 -0.024621706634965976 -0.046313830350038242 0 -0.025428869402826435 -0.047571518753663063 0 -0.026238003771730044 -0.04617768157710269 0 -0.025572113878135825 -0.044999944127002603 0 -0.026238003771730044 -0.04617768157710269 0 -0.028041478066607377 -0.044999925304016794 0 -0.024621706634965976 -0.046313830350038242 0 -0.025572113878135825 -0.044999944127002603 0 -0.026238003771730044 -0.04617768157710269 0 -0.026238003771730044 -0.04617768157710269 0 -0.028041478066607377 -0.044999925304016794 0 -0.027505029320379393 -0.046444435074549775 0 -0.027505029320379393 -0.046444435074549775 0 -0.026810096988975567 -0.047360965029839677 0 -0.028237441140288717 -0.04730608885316618 0 -0.026238003771730044 -0.04617768157710269 0 -0.027505029320379393 -0.046444435074549775 0 -0.026810096988975567 -0.047360965029839677 0 -0.026810096988975567 -0.047360965029839677 0 -0.027512691041621695 -0.048234784210836802 0 -0.028237441140288717 -0.04730608885316618 0 -0.027512691041621695 -0.048234784210836802 0 -0.027232338265121413 -0.049400339603254934 0 -0.028142270483865566 -0.048950390581022116 0 -0.027512691041621695 -0.048234784210836802 0 -0.026304427557554268 -0.048612573691573714 0 -0.027232338265121413 -0.049400339603254934 0 -0.026810096988975567 -0.047360965029839677 0 -0.027512691041621695 -0.048234784210836802 0 -0.026304427557554268 -0.048612573691573714 0 -0.024728740758406097 -0.049218356828844977 0 -0.025428869402826435 -0.047571518753663063 0 -0.026304427557554268 -0.048612573691573714 0 -0.025428869402826435 -0.047571518753663063 0 -