<?xml version="1.0"?>
<VTKFile type="UnstructuredGrid" version="0.1" byte_order="LittleEndian">
<UnstructuredGrid>
<Piece NumberOfPoints="30881" NumberOfCells="10862">
<Points>
<DataArray type="Float64" NumberOfComponents="3" format="ascii">
-0.49999999999999828 -0.48677703703187492 0 -0.5 -0.5 0 -0.48129281494584059 -0.49338851851593718 0 -0.5 -0.5 0 -0.48129281494584059 -0.49338851851593718 0 -0.46258562989168328 -0.5 0 -0.49999999999999828 -0.48677703703187492 0 -0.48129281494584059 -0.49338851851593718 0 -0.49999999999999828 -0.48677703703187492 0 -0.4824545428279598 -0.47451624516148783 0 -0.48129281494584059 -0.49338851851593718 0 -0.49999999999999828 -0.48677703703187492 0 -0.4824545428279598 -0.47451624516148783 0 -0.5 -0.46599539173150673 0 -0.4824545428279598 -0.47451624516148783 0 -0.46853075243710779 -0.48354990242643758 0 -0.46411508256092049 -0.46598235294430129 0 -0.4824545428279598 -0.47451624516148783 0 -0.48129281494584059 -0.49338851851593718 0 -0.46853075243710779 -0.48354990242643758 0 -0.48129281494584059 -0.49338851851593718 0 -0.46258562989168328 -0.5 0 -0.48129281494584059 -0.49338851851593718 0 -0.46258562989168328 -0.5 0 -0.46853075243710779 -0.48354990242643758 0 -0.46258562989168328 -0.5 0 -0.46853075243710779 -0.48354990242643758 0 -0.45147378687733691 -0.48362213557840178 0 -0.46853075243710779 -0.48354990242643758 0 -0.45147378687733691 -0.48362213557840178 0 -0.46411508256092049 -0.46598235294430129 0 -0.4457251648104853 -0.47020164095208389 0 -0.45147378687733691 -0.48362213557840178 0 -0.46411508256092049 -0.46598235294430129 0 -0.4457251648104853 -0.47020164095208389 0 -0.45147378687733691 -0.48362213557840178 0 -0.43513446131126993 -0.48199891714758791 0 -0.45147378687733691 -0.48362213557840178 0 -0.43275163025255442 -0.5 0 -0.43513446131126993 -0.48199891714758791 0 -0.46258562989168328 -0.5 0 -0.45147378687733691 -0.48362213557840178 0 -0.43275163025255442 -0.5 0 -0.4467190029717853 -0.45478934699519452 0 -0.4422915115958943 -0.43555510214664611 0 -0.43246707723660932 -0.44794326854796312 0 -0.4457251648104853 -0.47020164095208389 0 -0.4467190029717853 -0.45478934699519452 0 -0.46411508256092049 -0.46598235294430129 0 -0.4457251648104853 -0.47020164095208389 0 -0.4467190029717853 -0.45478934699519452 0 -0.43016578207734568 -0.46313500011938619 0 -0.4467190029717853 -0.45478934699519452 0 -0.46411508256092049 -0.46598235294430129 0 -0.47114575579794699 -0.4403844242888923 0 -0.4467190029717853 -0.45478934699519452 0 -0.47114575579794699 -0.4403844242888923 0 -0.4422915115958943 -0.43555510214664611 0 -0.47114575579794699 -0.4403844242888923 0 -0.4422915115958943 -0.43555510214664611 0 -0.46411508256092049 -0.46598235294430129 0 -0.47114575579794699 -0.4403844242888923 0 -0.48354307623736548 -0.45841843211146538 0 -0.4824545428279598 -0.47451624516148783 0 -0.46411508256092049 -0.46598235294430129 0 -0.48354307623736548 -0.45841843211146538 0 -0.4824545428279598 -0.47451624516148783 0 -0.48354307623736548 -0.45841843211146538 0 -0.5 -0.46599539173150673 0 -0.48354307623736548 -0.45841843211146538 0 -0.5 -0.46599539173150673 0 -0.49999999999999972 -0.44521374643113848 0 -0.47114575579794699 -0.4403844242888923 0 -0.49999999999999972 -0.44521374643113848 0 -0.47114575579794699 -0.4403844242888923 0 -0.49999999999999972 -0.44521374643113848 0 -0.48704432221743971 -0.42935617662229603 0 -0.47114575579794699 -0.4403844242888923 0 -0.48354307623736548 -0.45841843211146538 0 -0.49999999999999972 -0.44521374643113848 0 -0.49999999999999972 -0.44521374643113848 0 -0.48704432221743971 -0.42935617662229603 0 -0.5 -0.41591957503128979 0 -0.48704432221743971 -0.42935617662229603 0 -0.5 -0.41591957503128979 0 -0.47703153307181151 -0.41590696073786332 0 -0.5 -0.41591957503128979 0 -0.47703153307181151 -0.41590696073786332 0 -0.48817838912021821 -0.4022119694541284 0 -0.47114575579794699 -0.4403844242888923 0 -0.48704432221743971 -0.42935617662229603 0 -0.47703153307181151 -0.41590696073786332 0 -0.5 -0.38662540363144121 0 -0.47568202340906118 -0.39039593841591919 0 -0.4947615751445838 -0.37332156409002909 0 -0.47568202340906118 -0.39039593841591919 0 -0.4947615751445838 -0.37332156409002909 0 -0.5 -0.38662540363144121 0 -0.48817838912021821 -0.4022119694541284 0 -0.47568202340906118 -0.39039593841591919 0 -0.5 -0.41591957503128979 0 -0.5 -0.38662540363144121 0 -0.48817838912021821 -0.4022119694541284 0 -0.47703153307181151 -0.41590696073786332 0 -0.48817838912021821 -0.4022119694541284 0 -0.47568202340906118 -0.39039593841591919 0 -0.47703153307181151 -0.41590696073786332 0 -0.47568202340906118 -0.39039593841591919 0 -0.45660247167353862 -0.40747031274180939 0 -0.47568202340906118 -0.39039593841591919 0 -0.48030931097003587 -0.37191064435083931 0 -0.46669490250066459 -0.37481721741951951 0 -0.47568202340906118 -0.39039593841591919 0 -0.4947615751445838 -0.37332156409002909 0 -0.48030931097003587 -0.37191064435083931 0 -0.45332061783919553 -0.38729481725706361 0 -0.46669490250066459 -0.37481721741951951 0 -0.45095991715087752 -0.36968037302039969 0 -0.47568202340906118 -0.39039593841591919 0 -0.45332061783919553 -0.38729481725706361 0 -0.46669490250066459 -0.37481721741951951 0 -0.47568202340906118 -0.39039593841591919 0 -0.45660247167353862 -0.40747031274180939 0 -0.47568202340906118 -0.39039593841591919 0 -0.45332061783919553 -0.38729481725706361 0 -0.45660247167353862 -0.40747031274180939 0 -0.44332653075004852 -0.401690115615219 0 -0.44646247228389868 -0.41654464256061052 0 -0.42870657106664078 -0.39987574649354879 0 -0.45332061783919553 -0.38729481725706361 0 -0.44332653075004852 -0.401690115615219 0 -0.43479631603355468 -0.39077639303142497 0 -0.45332061783919553 -0.38729481725706361 0 -0.44332653075004852 -0.401690115615219 0 -0.45660247167353862 -0.40747031274180939 0 -0.45332061783919553 -0.38729481725706361 0 -0.43421362475025049 -0.37527491429266319 0 -0.43479631603355468 -0.39077639303142497 0 -0.45332061783919553 -0.38729481725706361 0 -0.43421362475025049 -0.37527491429266319 0 -0.45095991715087752 -0.36968037302039969 0 -0.47114575579794699 -0.4403844242888923 0 -0.45663439814062529 -0.42533932462455271 0 -0.4422915115958943 -0.43555510214664611 0 -0.47114575579794699 -0.4403844242888923 0 -0.47703153307181151 -0.41590696073786332 0 -0.45663439814062529 -0.42533932462455271 0 -0.45663439814062529 -0.42533932462455271 0 -0.45660247167353862 -0.40747031274180939 0 -0.44646247228389868 -0.41654464256061052 0 -0.47703153307181151 -0.41590696073786332 0 -0.45663439814062529 -0.42533932462455271 0 -0.45660247167353862 -0.40747031274180939 0 -0.44332653075004852 -0.401690115615219 0 -0.45660247167353862 -0.40747031274180939 0 -0.44646247228389868 -0.41654464256061052 0 -0.45660247167353862 -0.40747031274180939 0 -0.44646247228389868 -0.41654464256061052 0 -0.44646247228389868 -0.41654464256061052 0 -0.4375229199380159 -0.42454468706769971 0 -0.45663439814062529 -0.42533932462455271 0 -0.4375229199380159 -0.42454468706769971 0 -0.4422915115958943 -0.43555510214664611 0 -0.45663439814062529 -0.42533932462455271 0 -0.44646247228389868 -0.41654464256061052 0 -0.4375229199380159 -0.42454468706769971 0 -0.4375229199380159 -0.42454468706769971 0 -0.4422915115958943 -0.43555510214664611 0 -0.43077617074680319 -0.43406335077952207 0 -0.43077617074680319 -0.43406335077952207 0 -0.42550232634077589 -0.42345940056268039 0 -0.41950844772475421 -0.43888456563633732 0 -0.4375229199380159 -0.42454468706769971 0 -0.43077617074680319 -0.43406335077952207 0 -0.42550232634077589 -0.42345940056268039 0 -0.44646247228389868 -0.41654464256061052 0 -0.41657232816672918 -0.41306671883907142 0 -0.42870657106664078 -0.39987574649354879 0 -0.44646247228389868 -0.41654464256061052 0 -0.4375229199380159 -0.42454468706769971 0 -0.42550232634077589 -0.42345940056268039 0 -0.44646247228389868 -0.41654464256061052 0 -0.42550232634077589 -0.42345940056268039 0 -0.41657232816672918 -0.41306671883907142 0 -0.44646247228389868 -0.41654464256061052 0 -0.41657232816672918 -0.41306671883907142 0 -0.42550232634077589 -0.42345940056268039 0 -0.41657232816672918 -0.41306671883907142 0 -0.41333489101611293 -0.42699700567040988 0 -0.41657232816672918 -0.41306671883907142 0 -0.41333489101611293 -0.42699700567040988 0 -0.39893236021425188 -0.42931692235905211 0 -0.41333489101611293 -0.42699700567040988 0 -0.39893236021425188 -0.42931692235905211 0 -0.41950844772475421 -0.43888456563633732 0 -0.42550232634077589 -0.42345940056268039 0 -0.41333489101611293 -0.42699700567040988 0 -0.41950844772475421 -0.43888456563633732 0 -0.43421362475025049 -0.37527491429266319 0 -0.42478231784314502 -0.38643128255249681 0 -0.41656514696884139 -0.37636588688318029 0 -0.43421362475025049 -0.37527491429266319 0 -0.42478231784314502 -0.38643128255249681 0 -0.43479631603355468 -0.39077639303142497 0 -0.42478231784314502 -0.38643128255249681 0 -0.43479631603355468 -0.39077639303142497 0 -0.42870657106664078 -0.39987574649354879 0 -0.44332653075004852 -0.401690115615219 0 -0.43479631603355468 -0.39077639303142497 0 -0.42870657106664078 -0.39987574649354879 0 -0.41657232816672918 -0.41306671883907142 0 -0.40962993039643741 -0.3898634720616666 0 -0.3946356370269814 -0.39577424904278191 0 -0.42478231784314502 -0.38643128255249681 0 -0.42870657106664078 -0.39987574649354879 0 -0.40962993039643741 -0.3898634720616666 0 -0.41657232816672918 -0.41306671883907142 0 -0.42870657106664078 -0.39987574649354879 0 -0.40962993039643741 -0.3898634720616666 0 -0.42478231784314502 -0.38643128255249681 0 -0.40962993039643741 -0.3898634720616666 0 -0.41656514696884139 -0.37636588688318029 0 -0.40962993039643741 -0.3898634720616666 0 -0.41656514696884139 -0.37636588688318029 0 -0.40465459864295228 -0.37650109000307358 0 -0.39431275766669582 -0.38061373190328529 0 -0.40465459864295228 -0.37650109000307358 0 -0.3968495855878465 -0.36923685638487008 0 -0.40962993039643741 -0.3898634720616666 0 -0.39431275766669582 -0.38061373190328529 0 -0.40465459864295228 -0.376501090003
[...]
<PointData Scalars="" Vectors="displacement," Tensors="">
<DataArray type="Float64" Name="displacement" NumberOfComponents="3" format="ascii">
0.1049993705416724 -2.8992335626181247e-07 0 0.10499792117169583 5.8570490995323879e-07 0 0.10185680952171873 -9.8443319546308864e-08 0 0.10499792117169583 5.8570490995323879e-07 0 0.10185680952171873 -9.8443319546308864e-08 0 0.097147763254757616 -8.7968161461223534e-07 0 0.10499071053356764 1.516481779815991e-06 0 0.10113386404781681 0.00014051039225315603 0 0.10499401986875684 1.8354591821611112e-06 0 0.10241238552003709 0.00075403145395001197 0 0.10086939322674314 0.00089217251386903163 0 0.10499401986875684 1.8354591821611112e-06 0 0.10241238552003709 0.00075403145395001197 0 0.10499844719523796 1.3391481554002796e-07 0 0.10241238552003709 0.00075403145395001197 0 0.099743723911214568 0.00063545508045061117 0 0.10060171072706903 0.00086814129929344052 0 0.10241238552003709 0.00075403145395001197 0 0.10086939322674314 0.00089217251386903163 0 0.099743723911214568 0.00063545508045061117 0 0.10113386404781681 0.00014051039225315603 0 0.097152549413962938 -1.0004025068756798e-06 0 0.10086939322674314 0.00089217251386903163 0 0.09714159283685353 3.3541315820725062e-06 0 0.099743723911214568 0.00063545508045061117 0 0.09714159283685353 3.3541315820725062e-06 0 0.099743723911214568 0.00063545508045061117 0 0.097167472920712344 0.00056463906928762688 0 0.099743723911214568 0.00063545508045061117 0 0.097167472920712344 0.00056463906928762688 0 0.10060171072706903 0.00086814129929344052 0 0.098173974138979728 0.00047818266303447521 0 0.097167472920712344 0.00056463906928762688 0 0.10060171072706903 0.00086814129929344052 0 0.098173974138979728 0.00047818266303447521 0 0.097167472920712344 0.00056463906928762688 0 0.095193780582877183 0.00019419188851250586 0 0.097167472920712344 0.00056463906928762688 0 0.090882874318113066 7.0309610149658305e-07 0 0.095193780582877183 0.00019419188851250586 0 0.09714159283685353 3.3541315820725062e-06 0 0.097167472920712344 0.00056463906928762688 0 0.090882874318113066 7.0309610149658305e-07 0 0.099885474960556178 0.00041993202841889579 0 0.10133277079598588 -6.9851952721644312e-05 0 0.099780995321409743 -0.00040053410490281828 0 0.098173974138979728 0.00047818266303447521 0 0.099885474960556178 0.00041993202841889579 0 0.10060171072706903 0.00086814129929344052 0 0.098173974138979728 0.00047818266303447521 0 0.099885474960556178 0.00041993202841889579 0 0.09798856250973785 -0.00030913701126580574 0 0.099885474960556178 0.00041993202841889579 0 0.10060171072706903 0.00086814129929344052 0 0.10193555434261506 0.0010211272182791583 0 0.099885474960556178 0.00041993202841889579 0 0.10193555434261506 0.0010211272182791583 0 0.10133277079598588 -6.9851952721644312e-05 0 0.10377008422446503 0.00038919850906221951 0 0.10327010954116629 0.00010926642070486737 0 0.10060171072706903 0.00086814129929344052 0 0.10193555434261506 0.0010211272182791583 0 0.10303701425357106 0.00063445894708000368 0 0.10241238552003709 0.00075403145395001197 0 0.10060171072706903 0.00086814129929344052 0 0.10303701425357106 0.00063445894708000368 0 0.10241238552003709 0.00075403145395001197 0 0.10303701425357106 0.00063445894708000368 0 0.10499844719523796 1.3391481554002796e-07 0 0.10303701425357106 0.00063445894708000368 0 0.10499844719523796 1.3391481554002796e-07 0 0.10499556338261957 8.7611991555794113e-07 0 0.10377008422446503 0.00038919850906221951 0 0.10499772545666447 7.1834724786119115e-07 0 0.10380781231830545 0.00025074786769239287 0 0.10499924859286675 1.0710947274125755e-07 0 0.1045024680278058 0.00013606410038382921 0 0.10193555434261506 0.0010211272182791583 0 0.10303701425357106 0.00063445894708000368 0 0.10499556338261957 8.7611991555794113e-07 0 0.10499924859286675 1.0710947274125755e-07 0 0.1045024680278058 0.00013606410038382921 0 0.1049990446304476 2.6395099744577454e-07 0 0.1045024680278058 0.00013606410038382921 0 0.1049990446304476 2.6395099744577454e-07 0 0.10419925957286111 0.00023143118769785776 0 0.1049990446304476 2.6395099744577454e-07 0 0.10419925957286111 0.00023143118769785776 0 0.10474473052344707 0.00015578755308455231 0 0.10380781231830545 0.00025074786769239287 0 0.1045024680278058 0.00013606410038382921 0 0.10419925957286111 0.00023143118769785776 0 0.10499909521187951 2.0890214528057831e-07 0 0.10475474212779155 0.00017792070139283672 0 0.1045919629353959 0.00013783892834442232 0 0.10267145321424109 -0.00055642398042136216 0 0.10310246174431065 -0.00028112181238409392 0 0.10499909521187951 2.0890214528057831e-07 0 0.10474473052344707 0.00015578755308455231 0 0.10475474212779155 0.00017792070139283672 0 0.1049990446304476 2.6395099744577454e-07 0 0.10499909521187951 2.0890214528057831e-07 0 0.10474473052344707 0.00015578755308455231 0 0.10419925957286111 0.00023143118769785776 0 0.10474473052344707 0.00015578755308455231 0 0.10475474212779155 0.00017792070139283672 0 0.10419925957286111 0.00023143118769785776 0 0.10475474212779155 0.00017792070139283672 0 0.10394913252464597 -4.7367896665492218e-06 0 0.10110100266900016 -0.00045674067971177853 0 0.10345508240095158 -0.00033113172097406764 0 0.10241550360284102 -0.0011863700907077997 0 0.10110100266900016 -0.00045674067971177853 0 0.1045919629353959 0.00013783892834442232 0 0.10345508240095158 -0.00033113172097406764 0 0.1007384356686528 -0.0023671566370726685 0 0.10241550360284102 -0.0011863700907077997 0 0.10198002494100394 -0.0022571728113007648 0 0.10110100266900016 -0.00045674067971177853 0 0.1007384356686528 -0.0023671566370726685 0 0.10241550360284102 -0.0011863700907077997 0 0.10267145321424109 -0.00055642398042136216 0 0.10188795822014098 -0.0012087354698707611 0 0.10110100266900016 -0.00045674067971177853 0 0.1007384356686528 -0.0023671566370726685 0 0.099079620663206941 -0.0021866245074820779 0 0.099419343286292775 -0.0032207391483033043 0 0.098543971891170784 -0.0030734083396966368 0 0.099438140285542001 -0.0041166694013700161 0 0.1007384356686528 -0.0023671566370726685 0 0.099419343286292775 -0.0032207391483033043 0 0.099876760074088855 -0.0037526215846158347 0 0.1007384356686528 -0.0023671566370726685 0 0.099419343286292775 -0.0032207391483033043 0 0.099079620663206941 -0.0021866245074820779 0 0.1007384356686528 -0.0023671566370726685 0 0.10065371954176724 -0.0037032399400108501 0 0.099876760074088855 -0.0037526215846158347 0 0.1007384356686528 -0.0023671566370726685 0 0.10065371954176724 -0.0037032399400108501 0 0.10198002494100394 -0.0022571728113007648 0 0.10380781231830545 0.00025074786769239287 0 0.10300663154199945 0.00016149640417511369 0 0.10133277079598588 -6.9851952721644312e-05 0 0.10380781231830545 0.00025074786769239287 0 0.10419925957286111 0.00023143118769785776 0 0.10300663154199945 0.00016149640417511369 0 0.10300663154199945 0.00016149640417511369 0 0.10394913252464597 -4.7367896665492218e-06 0 0.10310593253719968 -0.00025493843726369906 0 0.10419925957286111 0.00023143118769785776 0 0.10300663154199945 0.00016149640417511369 0 0.10394913252464597 -4.7367896665492218e-06 0 0.099419343286292775 -0.0032207391483033043 0 0.099079620663206941 -0.0021866245074820779 0 0.098543971891170784 -0.0030734083396966368 0 0.10188795822014098 -0.0012087354698707611 0 0.10148297551269232 -0.0016418051811722936 0 0.10148297551269232 -0.0016418051811722936 0 0.10169401807083706 -0.0013680982250149115 0 0.10300663154199945 0.00016149640417511369 0 0.10170328229271201 -0.00049238276390862568 0 0.10133277079598588 -6.9851952721644312e-05 0 0.10300663154199945 0.00016149640417511369 0 0.10310593253719968 -0.00025493843726369906 0 0.10170328229271201 -0.00049238276390862568 0 0.10170328229271201 -0.00049238276390862568 0 0.10133277079598588 -6.9851952721644312e-05 0 0.10083846952593603 -0.00065695511292584812 0 0.10083846952593603 -0.00065695511292584812 0 0.10120417271687904 -0.00094928400284148551 0 0.1000131693072432 -0.0012102136718511554 0 0.10170328229271201 -0.00049238276390862568 0 0.10083846952593603 -0.00065695511292584812 0 0.10120417271687904 -0.00094928400284148551 0 0.098543971891170784 -0.0030734083396966368 0 0.099172928483125464 -0.0045869060534110308 0 0.099438140285542001 -0.0041166694013700161 0 0.1019877637657156 -0.00016437203962313041 0 0.10170328229271201 -0.00049238276390862568 0 0.10120417271687904 -0.00094928400284148551 0 0.1019877637657156 -0.00016437203962313041 0 0.10120417271687904 -0.00094928400284148551 0 0.10126537978137218 -0.0013843550601416804 0 0.10148297551269232 -0.0016418051811722936 0 0.10066892641732265 -0.0023657342328266264 0 0.10120417271687904 -0.00094928400284148551 0 0.10126537978137218 -0.0013843550601416804 0 0.10055456422986407 -0.0015687087351043997 0 0.10126537978137218 -0.0013843550601416804 0 0.10055456422986407 -0.0015687087351043997 0 0.10002102217675746 -0.0023399340498867324 0 0.10055456422986407 -0.0015687087351043997 0 0.10002102217675746 -0.0023399340498867324 0 0.1000131693072432 -0.0012102136718511554 0 0.10120417271687904 -0.00094928400284148551 0 0.10055456422986407 -0.0015687087351043997 0 0.1000131693072432 -0.0012102136718511554 0 0.10065371954176724 -0.0037032399400108501 0 0.099689185559758212 -0.0043211945699468931 0 0.099535917672280178 -0.0048330554143074349 0 0.10065371954176724 -0.0037032399400108501 0 0.099689185559758212 -0.0043211945699468931 0 0.099876760074088855 -0.0037526215846158347 0 0.099689185559758212 -0.0043211945699468931 0 0.099876760074088855 -0.0037526215846158347 0 0.099438140285542001 -0.0041166694013700161 0 0.099419343286292775 -0.0032207391483033043 0 0.099876760074088855 -0.0037526215846158347 0 0.099438140285542001 -0.0041166694013700161 0 0.099172928483125464 -0.0045869060534110308 0 0.09924584077957431 -0.0046913645168560718 0 0.099184330614169314 -0.0042229240751470391 0 0.099689185559758212 -0.0043211945699468931 0 0.099438140285542001 -0.0041166694013700161 0 0.09924584077957431 -0.0046913645168560718 0 0.099172928483125464 -0.0045869060534110308 0 0.099438140285542001 -0.0041166694013700161 0 0.09924584077957431 -0.0046913645168560718 0 0.099689185559758212 -0.0043211945699468931 0 0.09924584077957431 -0.0046913645168560718 0 0.099535917672280178 -0.0048330554143074349 0 0.09924584077957431 -0.0046913645168560718 0 0.099535917672280178 -0.0048330554143074349 0 0.098790814673115235 -0.0048484080734278378 0 0.098445683126922201 -0.0042645286918391676 0 0.098790814673115235 -0.0048484080734278378 0 0.097820040404476657 -0.0045286629607117403 0 0.09924584077957431 -0.0046913645168560718 0 0.098445683126922201 -0.0042645286918391676 0 0.098790814673115235 -0.0048484080734278378 0 0.09924584077957431 -0.0046913645168560718 0 0.098445683126922201 -0.0042645286918391676 0 0.099184330614169314 -0.0042229240751470391 0 0.099184330614169314 -0.0042229240751470391 0 0.099673261065357358 -0.0037907617062605411 0 0.098983548611337527 -0.0029099533779209713 0 0.099184330614169314 -0.0042229240751470391 0 0.097773325599295566 -0.0027745442908064973 0 0.098983548611337527 -0.0029099533779209713 0 0.098445683126922201 -0.0042645286918391676 0 0.099184330614169314 -0.0042229240751470391 0 0.097773325599295566 -0.0027745442908064973 0 0.098445683126922201 -0.0042645286918391676 0 0.097773325599295566 -0.0027745442908064973 0 0.097171599718080787 -0.0035436094546380443 0 0.10126537978137218 -0.0013843550601416804 0 0.10002102217675746 -0.0023399340498867324 0 0.10027805649486375 -0.0028552202511150627 0 0.099172928483125464 -0.0045869060534110308 0 0.099184330614169314 -0.0042229240751470391 0 0.099673261065357358 -0.0037907617062605411 0 0.10066892641732265 -0.0023657342328266264 0 0.10025900153009654 -0.0026754503238081051 0 0.10027805649486375 -0.0028552202511150627 0 0.099792595635315812 -0.0029425762382614216 0 0.099725396868400956 -0.0027075011861343069 0 0.099792595635315812 -0.0029425762382614216 0 0.098864305712582243 -0.0031602170720432632 0 0.099434712680143394 -0.0031669104580779885 0 0.10002102217675746 -0.0023399340498867324 0 0.099792595635315812 -0.0029425762382614216 0 0.098864305712582243 -0.0031602170720432632 0 0.10002102217675746 -0.0023399340498867324 0 0.10027805649486375 -0.0028552202511150627 0 0.099792595635315812 -0.0029425762382614216 0 0.098864305712582243 -0.0031602170720432632 0 0.098556834617455458 -0.0021320725393806058 0 0.096967232727880048 -0.00323341728689537 0 0.10002102217675746 -0.0023399340498867324 0 0.098864305712582243 -0.0031602170720432632 0 0.098556834617455458 -0.0021320725393806058 0 0.098556834617455458 -0.0021320725393806058 0 0.096967232727880048 -0.00323341728689537 0 0.096023374410985129 -0.0023852917424629964 0 0.098864305712582243 -0.0031602170720432632 0 0.096967232727880048 -0.00323341728689537 0 0.097445227188861852 -0.0039067460860671031 0 0.096967232727880048 -0.00323341728689537 0 0.095376387557201403 -0.0040391862142241611 0 0.097445227188861852 -0.0039067460860671031 0 0.095376387557201403 -0.0040391862142241611 0 0.093153284347641252 -0.0035958694789275727 0 0.095012944718117831 -0.0032245437010353156 0 0.096967232727880048 -0.00323341728689537 0 0.095376387557201403 -0.0040391862142241611 0 0.095012944718117831 -0.0032245437010353156 0 0.082183926340654287 0.00030912363171822039 0 0.078642554287519456 -0.0016513193028502384 0 0.082453617177857499 -3.5098471729823411e-05 0 0.084615475784180105 -2.9378968738332503e-06 0 0.078350197353539819 6.7103472399472413e-07 0 0.082453617177857499 -3.5098471729823411e-05 0 0.078665346336694905 -0.00014432212327603291 0 0.078350197353539819 6.7103472399472413e-07 0 0.095376387557201403 -0.0040391862142241611 0 0.093153284347641252 -0.0035958694789275727 0 0.0938364048136371 -0.0048843194224488067 0 0.082183926340654287 0.00030912363171822039 0 0.083397512678495156 0.0013718156474129377 0 0.093153284347641252 -0.0035958694789275727 0 0.095012944718117831 -0.0032245437010353156 0 0.093702706584121151 -0.0023867687995614466 0 0.082453617177857499 -3.5098471729823411e-05 0 0.084615475784180105 -2.9378968738332503e-06 0 0.089856972174237271 -0.00051893912096028698 0 0.093153284347641252 -0.0035958694789275727 0 0.093702706584121151 -0.0023867687995614466 0 0.089856972174237271 -0.00051893912096028698 0 0.096967232727880048 -0.00323341728689537 0 0.095012944718117831 -0.0032245437010353156 0 0.096023374410985129 -0.0023852917424629964 0 0.095012944718117831 -0.0032245437010353156 0 0.093702706584121151 -0.0023867687995614466 0 0.096023374410985129 -0.0023852917424629964 0 0.096023374410985129 -0.0023852917424629964 0 0.09522554494857817 -0.00080243229044986224 0 0.097465152864083179 -0.0013196930782092087 0 0.093702706584121151 -0.0023867687995614466 0 0.09522554494857817 -0.00080243229044986224 0 0.089856972174237271 -0.00051893912096028698 0 0.093702706584121151 -0.0023867687995614466 0 0.096023374410985129 -0.0023852917424629964 0 0.09522554494857817 -0.00080243229044986224 0 0.09522554494857817 -0.00080243229044986224 0 0.089856972174237271 -0.00051893912096028698 0 0.092640879861526665 -0.00019996736451439477 0 0.084615475784180105 -2.9378968738332503e-06 0 0.089856972174237271 -0.00051893912096028698 0 0.090882874318113066 7.0309610149658305e-07 0 0.089856972174237271 -0.00051893912096028698 0 0.092640879861526665 -0.00019996736451439477 0 0.090882874318113066 7.0309610149658305e-07 0 0.092640879861526665 -0.00019996736451439477 0 0.090882874318113066 7.0309610149658305e-07 0 0.095193780582877183 0.00019419188851250586 0 0.098173974138979728 0.00047818266303447521 0 0.095193780582877183 0.00019419188851250586 0 0.09798856250973785 -0.00030913701126580574 0 0.09522554494857817 -0.00080243229044986224 0 0.095193780582877183 0.00019419188851250586 0 0.09798856250973785 -0.00030913701126580574 0 0.09522554494857817 -0.00080243229044986224 0 0.092640879861526665 -0.00019996736451439477 0 0.095193780582877183 0.00019419188851250586 0 0.099885474960556178 0.00041993202841889579 0 0.09798856250973785 -0.00030913701126580574 0 0.099780995321409743 -0.00040053410490281828 0 0.09798856250973785 -0.00030913701126580574 0 0.09886360140751034 -0.0010585578577438574 0 0.097465152864083179 -0.0013196930782092087 0 0.09798856250973785 -0.00030913701126580574 0 0.099780995321409743 -0.00040053410490281828 0 0.09886360140751034 -0.0010585578577438574 0 0.10133277079598588 -6.9851952721644312e-05 0 0.10083846952593603 -0.00065695511292584812 0 0.099780995321409743 -0.00040053410490281828 0 0.10083846952593603 -0.00065695511292584812 0 0.099780995321409743 -0.00040053410490281828 0 0.1000131693072432 -0.0012102136718511554 0 0.099780995321409743 -0.00040053410490281828 0 0.09886360140751034 -0.0010585578577438574 0 0.1000131693072432 -0.0012102136718511554 0 0.10002102217675746 -0.0023399340498867324 0 0.098556834617455458 -0.0021320725393806058 0 0.1000131693072432 -0.0012102136718511554 0 0.098556834617455458 -0.0021320725393806058 0 0.09886360140751034 -0.0010585578577438574 0 0.1000131693072432 -0.0012102136718511554 0 0.098556834617455458 -0.0021320725393806058 0 0.09886360140751034 -0.0010585578577438574 0 0.097465152864083179 -0.0013196930782092087 0 0.098556834617455458 -0.0021320725393806058 0 0.096023374410985129 -0.0023852917424629964 0 0.097465152864083179 -0.0013196930782092087 0 0.09522554494857817 -0.00080243229044986224 0 0.09798856250973785 -0.00030913701126580574 0 0.097465152864083179 -0.0013196930782092087 0 0.10465336791633788 0.00010911115362893393 0 0.10467450398594244 3.6229899577049877e-05 0 0.10464395393126613 8.7460722474578081e-05 0 0.10465336791633788 0.00010911115362893393 0 0.10473453993518732 -1.5987106922839019e-05 0 0.10467450398594244 3.6229899577049877e-05 0 0.10465336791633788 0.00010911115362893393 0 0.10464395393126613 8.7460722474578081e-05 0 0.10457068368675518 0.00018554256564959194 0 0.10465336791633788 0.00010911115362893393 0 0.10473453993518732 -1.5987106922839019e-05 0 0.10482038823413961 -2.6187761475231759e-05 0 0.10473453993518732 -1.5987106922839019e-05 0 0.10482038823413961 -2.6187761475231759e-05 0 0.10483644506296869 -0.00016821673982880906 0 0.10482038823413961 -2.6187761475231759e-05 0 0.10477669908301672 -6.5945443309354482e-05 0 0.10458240923005699 0.00014572032150890498 0 0.10465336791633788 0.00010911115362893393 0 0.10482038823413961 -2.6187761475231759e-05 0 0.10458240923005699 0.00014572032150890498 0 0.10465336791633788 0.00010911115362893393 0 0.10458240923005699 0.00014572032150890498 0 0.10457068368675518 0.00018554256564959194 0 0.10477669908301672 -6.5945443309354482e-05 0 0.10499999684724397 4.6938361798067772e-08 0 0.10499890872642056 -6.4817426606118228e-07 0 0.10477669908301672 -6.5945443309354482e-05 0 0.10499999684724397 4.6938361798067772e-08 0 0.1049413103276343 -7.736806559180668e-05 0 0.10482038823413961 -2.6187761475231759e-05 0 0.10477669908301672 -6.5945443309354482e-05 0 0.1049413103276343 -7.736806559180668e-05 0 0.10482038823413961 -2.6187761475231759e-05 0 0.1049413103276343 -7.736806559180668e-05 0 0.10492485184702864 -0.00017894377221952903 0 0.1049413103276343 -7.736806559180668e-05 0 0.1049999077217835 -1.182439666251158e-07 0 0.10492485184702864 -0.00017894377221952903 0 0.10499999684724397 4.6938361798067772e-08 0 0.1049413103276343 -7.736806559180668e-05 0 0.1049999077217835 -1.182439666251158e-07 0 0.1049999077217835 -1.182439666251158e-07 0 0.10492485184702864 -0.00017894377221952903 0 0.10491540278243512 -0.00025149964674477121 0 0.10492485184702864 -0.00017894377221952903 0 0.10483644506296869 -0.00016821673982880906 0 0.1048015272769082 -0.00051854204777997874 0 0.10482038823413961 -2.6187761475231759e-05 0 0.10492485184702864 -0.00017894377221952903 0 0.10483644506296869 -0.00016821673982880906 0 0.10473453993518732 -1.5987106922839019e-05 0 0.10483644506296869 -0.00016821673982880906 0 0.10479305820976625 -7.0908709935222974e-05 0 0.10483644506296869 -0.00016821673982880906 0 0.1048015272769082 -0.00051854204777997874 0 0.10484228269602551 -0.00013143624838871261 0 0.1016943516668313 -0.0030524816223725126 0 0.10075