<?xml version="1.0"?>
<VTKFile type="UnstructuredGrid" version="0.1" byte_order="LittleEndian">
<UnstructuredGrid>
<Piece NumberOfPoints="30881" NumberOfCells="10862">
<Points>
<DataArray type="Float64" NumberOfComponents="3" format="ascii">
-0.49999999999999828 -0.48677703703187492 0 -0.5 -0.5 0 -0.48129281494584059 -0.49338851851593718 0 -0.5 -0.5 0 -0.48129281494584059 -0.49338851851593718 0 -0.46258562989168328 -0.5 0 -0.49999999999999828 -0.48677703703187492 0 -0.48129281494584059 -0.49338851851593718 0 -0.49999999999999828 -0.48677703703187492 0 -0.4824545428279598 -0.47451624516148783 0 -0.48129281494584059 -0.49338851851593718 0 -0.49999999999999828 -0.48677703703187492 0 -0.4824545428279598 -0.47451624516148783 0 -0.5 -0.46599539173150673 0 -0.4824545428279598 -0.47451624516148783 0 -0.46853075243710779 -0.48354990242643758 0 -0.46411508256092049 -0.46598235294430129 0 -0.4824545428279598 -0.47451624516148783 0 -0.48129281494584059 -0.49338851851593718 0 -0.46853075243710779 -0.48354990242643758 0 -0.48129281494584059 -0.49338851851593718 0 -0.46258562989168328 -0.5 0 -0.48129281494584059 -0.49338851851593718 0 -0.46258562989168328 -0.5 0 -0.46853075243710779 -0.48354990242643758 0 -0.46258562989168328 -0.5 0 -0.46853075243710779 -0.48354990242643758 0 -0.45147378687733691 -0.48362213557840178 0 -0.46853075243710779 -0.48354990242643758 0 -0.45147378687733691 -0.48362213557840178 0 -0.46411508256092049 -0.46598235294430129 0 -0.4457251648104853 -0.47020164095208389 0 -0.45147378687733691 -0.48362213557840178 0 -0.46411508256092049 -0.46598235294430129 0 -0.4457251648104853 -0.47020164095208389 0 -0.45147378687733691 -0.48362213557840178 0 -0.43513446131126993 -0.48199891714758791 0 -0.45147378687733691 -0.48362213557840178 0 -0.43275163025255442 -0.5 0 -0.43513446131126993 -0.48199891714758791 0 -0.46258562989168328 -0.5 0 -0.45147378687733691 -0.48362213557840178 0 -0.43275163025255442 -0.5 0 -0.4467190029717853 -0.45478934699519452 0 -0.4422915115958943 -0.43555510214664611 0 -0.43246707723660932 -0.44794326854796312 0 -0.4457251648104853 -0.47020164095208389 0 -0.4467190029717853 -0.45478934699519452 0 -0.46411508256092049 -0.46598235294430129 0 -0.4457251648104853 -0.47020164095208389 0 -0.4467190029717853 -0.45478934699519452 0 -0.43016578207734568 -0.46313500011938619 0 -0.4467190029717853 -0.45478934699519452 0 -0.46411508256092049 -0.46598235294430129 0 -0.47114575579794699 -0.4403844242888923 0 -0.4467190029717853 -0.45478934699519452 0 -0.47114575579794699 -0.4403844242888923 0 -0.4422915115958943 -0.43555510214664611 0 -0.47114575579794699 -0.4403844242888923 0 -0.4422915115958943 -0.43555510214664611 0 -0.46411508256092049 -0.46598235294430129 0 -0.47114575579794699 -0.4403844242888923 0 -0.48354307623736548 -0.45841843211146538 0 -0.4824545428279598 -0.47451624516148783 0 -0.46411508256092049 -0.46598235294430129 0 -0.48354307623736548 -0.45841843211146538 0 -0.4824545428279598 -0.47451624516148783 0 -0.48354307623736548 -0.45841843211146538 0 -0.5 -0.46599539173150673 0 -0.48354307623736548 -0.45841843211146538 0 -0.5 -0.46599539173150673 0 -0.49999999999999972 -0.44521374643113848 0 -0.47114575579794699 -0.4403844242888923 0 -0.49999999999999972 -0.44521374643113848 0 -0.47114575579794699 -0.4403844242888923 0 -0.49999999999999972 -0.44521374643113848 0 -0.48704432221743971 -0.42935617662229603 0 -0.47114575579794699 -0.4403844242888923 0 -0.48354307623736548 -0.45841843211146538 0 -0.49999999999999972 -0.44521374643113848 0 -0.49999999999999972 -0.44521374643113848 0 -0.48704432221743971 -0.42935617662229603 0 -0.5 -0.41591957503128979 0 -0.48704432221743971 -0.42935617662229603 0 -0.5 -0.41591957503128979 0 -0.47703153307181151 -0.41590696073786332 0 -0.5 -0.41591957503128979 0 -0.47703153307181151 -0.41590696073786332 0 -0.48817838912021821 -0.4022119694541284 0 -0.47114575579794699 -0.4403844242888923 0 -0.48704432221743971 -0.42935617662229603 0 -0.47703153307181151 -0.41590696073786332 0 -0.5 -0.38662540363144121 0 -0.47568202340906118 -0.39039593841591919 0 -0.4947615751445838 -0.37332156409002909 0 -0.47568202340906118 -0.39039593841591919 0 -0.4947615751445838 -0.37332156409002909 0 -0.5 -0.38662540363144121 0 -0.48817838912021821 -0.4022119694541284 0 -0.47568202340906118 -0.39039593841591919 0 -0.5 -0.41591957503128979 0 -0.5 -0.38662540363144121 0 -0.48817838912021821 -0.4022119694541284 0 -0.47703153307181151 -0.41590696073786332 0 -0.48817838912021821 -0.4022119694541284 0 -0.47568202340906118 -0.39039593841591919 0 -0.47703153307181151 -0.41590696073786332 0 -0.47568202340906118 -0.39039593841591919 0 -0.45660247167353862 -0.40747031274180939 0 -0.47568202340906118 -0.39039593841591919 0 -0.48030931097003587 -0.37191064435083931 0 -0.46669490250066459 -0.37481721741951951 0 -0.47568202340906118 -0.39039593841591919 0 -0.4947615751445838 -0.37332156409002909 0 -0.48030931097003587 -0.37191064435083931 0 -0.45332061783919553 -0.38729481725706361 0 -0.46669490250066459 -0.37481721741951951 0 -0.45095991715087752 -0.36968037302039969 0 -0.47568202340906118 -0.39039593841591919 0 -0.45332061783919553 -0.38729481725706361 0 -0.46669490250066459 -0.37481721741951951 0 -0.47568202340906118 -0.39039593841591919 0 -0.45660247167353862 -0.40747031274180939 0 -0.47568202340906118 -0.39039593841591919 0 -0.45332061783919553 -0.38729481725706361 0 -0.45660247167353862 -0.40747031274180939 0 -0.44332653075004852 -0.401690115615219 0 -0.44646247228389868 -0.41654464256061052 0 -0.42870657106664078 -0.39987574649354879 0 -0.45332061783919553 -0.38729481725706361 0 -0.44332653075004852 -0.401690115615219 0 -0.43479631603355468 -0.39077639303142497 0 -0.45332061783919553 -0.38729481725706361 0 -0.44332653075004852 -0.401690115615219 0 -0.45660247167353862 -0.40747031274180939 0 -0.45332061783919553 -0.38729481725706361 0 -0.43421362475025049 -0.37527491429266319 0 -0.43479631603355468 -0.39077639303142497 0 -0.45332061783919553 -0.38729481725706361 0 -0.43421362475025049 -0.37527491429266319 0 -0.45095991715087752 -0.36968037302039969 0 -0.47114575579794699 -0.4403844242888923 0 -0.45663439814062529 -0.42533932462455271 0 -0.4422915115958943 -0.43555510214664611 0 -0.47114575579794699 -0.4403844242888923 0 -0.47703153307181151 -0.41590696073786332 0 -0.45663439814062529 -0.42533932462455271 0 -0.45663439814062529 -0.42533932462455271 0 -0.45660247167353862 -0.40747031274180939 0 -0.44646247228389868 -0.41654464256061052 0 -0.47703153307181151 -0.41590696073786332 0 -0.45663439814062529 -0.42533932462455271 0 -0.45660247167353862 -0.40747031274180939 0 -0.44332653075004852 -0.401690115615219 0 -0.45660247167353862 -0.40747031274180939 0 -0.44646247228389868 -0.41654464256061052 0 -0.45660247167353862 -0.40747031274180939 0 -0.44646247228389868 -0.41654464256061052 0 -0.44646247228389868 -0.41654464256061052 0 -0.4375229199380159 -0.42454468706769971 0 -0.45663439814062529 -0.42533932462455271 0 -0.4375229199380159 -0.42454468706769971 0 -0.4422915115958943 -0.43555510214664611 0 -0.45663439814062529 -0.42533932462455271 0 -0.44646247228389868 -0.41654464256061052 0 -0.4375229199380159 -0.42454468706769971 0 -0.4375229199380159 -0.42454468706769971 0 -0.4422915115958943 -0.43555510214664611 0 -0.43077617074680319 -0.43406335077952207 0 -0.43077617074680319 -0.43406335077952207 0 -0.42550232634077589 -0.42345940056268039 0 -0.41950844772475421 -0.43888456563633732 0 -0.4375229199380159 -0.42454468706769971 0 -0.43077617074680319 -0.43406335077952207 0 -0.42550232634077589 -0.42345940056268039 0 -0.44646247228389868 -0.41654464256061052 0 -0.41657232816672918 -0.41306671883907142 0 -0.42870657106664078 -0.39987574649354879 0 -0.44646247228389868 -0.41654464256061052 0 -0.4375229199380159 -0.42454468706769971 0 -0.42550232634077589 -0.42345940056268039 0 -0.44646247228389868 -0.41654464256061052 0 -0.42550232634077589 -0.42345940056268039 0 -0.41657232816672918 -0.41306671883907142 0 -0.44646247228389868 -0.41654464256061052 0 -0.41657232816672918 -0.41306671883907142 0 -0.42550232634077589 -0.42345940056268039 0 -0.41657232816672918 -0.41306671883907142 0 -0.41333489101611293 -0.42699700567040988 0 -0.41657232816672918 -0.41306671883907142 0 -0.41333489101611293 -0.42699700567040988 0 -0.39893236021425188 -0.42931692235905211 0 -0.41333489101611293 -0.42699700567040988 0 -0.39893236021425188 -0.42931692235905211 0 -0.41950844772475421 -0.43888456563633732 0 -0.42550232634077589 -0.42345940056268039 0 -0.41333489101611293 -0.42699700567040988 0 -0.41950844772475421 -0.43888456563633732 0 -0.43421362475025049 -0.37527491429266319 0 -0.42478231784314502 -0.38643128255249681 0 -0.41656514696884139 -0.37636588688318029 0 -0.43421362475025049 -0.37527491429266319 0 -0.42478231784314502 -0.38643128255249681 0 -0.43479631603355468 -0.39077639303142497 0 -0.42478231784314502 -0.38643128255249681 0 -0.43479631603355468 -0.39077639303142497 0 -0.42870657106664078 -0.39987574649354879 0 -0.44332653075004852 -0.401690115615219 0 -0.43479631603355468 -0.39077639303142497 0 -0.42870657106664078 -0.39987574649354879 0 -0.41657232816672918 -0.41306671883907142 0 -0.40962993039643741 -0.3898634720616666 0 -0.3946356370269814 -0.39577424904278191 0 -0.42478231784314502 -0.38643128255249681 0 -0.42870657106664078 -0.39987574649354879 0 -0.40962993039643741 -0.3898634720616666 0 -0.41657232816672918 -0.41306671883907142 0 -0.42870657106664078 -0.39987574649354879 0 -0.40962993039643741 -0.3898634720616666 0 -0.42478231784314502 -0.38643128255249681 0 -0.40962993039643741 -0.3898634720616666 0 -0.41656514696884139 -0.37636588688318029 0 -0.40962993039643741 -0.3898634720616666 0 -0.41656514696884139 -0.37636588688318029 0 -0.40465459864295228 -0.37650109000307358 0 -0.39431275766669582 -0.38061373190328529 0 -0.40465459864295228 -0.37650109000307358 0 -0.3968495855878465 -0.36923685638487008 0 -0.40962993039643741 -0.3898634720616666 0 -0.39431275766669582 -0.38061373190328529 0 -0.40465459864295228 -0.376501090003
[...]
<PointData Scalars="" Vectors="displacement," Tensors="">
<DataArray type="Float64" Name="displacement" NumberOfComponents="3" format="ascii">
0.10223263964170866 0.10499825983096155 0 0.10499447356671145 0.10499957916087822 0 0.10582923587879216 0.10153309877962777 0 0.10499447356671145 0.10499957916087822 0 0.10582923587879216 0.10153309877962777 0 0.10500157449753833 0.097145565670608905 0 0.10222747697428568 0.10499276336578146 0 0.10355060465928576 0.10099063638851995 0 0.10221467229060006 0.10499552511730817 0 0.10006012116283913 0.1016026902376745 0 0.10057456464018624 0.10020884857815722 0 0.10221467229060006 0.10499552511730817 0 0.10006012116283913 0.1016026902376745 0 0.097859955524360109 0.10499641327105394 0 0.10006012116283913 0.1016026902376745 0 0.10128141614764462 0.098301915882792565 0 0.099668666377621687 0.098185156293585679 0 0.10006012116283913 0.1016026902376745 0 0.10057456464018624 0.10020884857815722 0 0.10128141614764462 0.098301915882792565 0 0.10355060465928576 0.10099063638851995 0 0.10499536068026093 0.097149949723340651 0 0.10057456464018624 0.10020884857815722 0 0.10498567427158545 0.097140330587181759 0 0.10128141614764462 0.098301915882792565 0 0.10498567427158545 0.097140330587181759 0 0.10128141614764462 0.098301915882792565 0 0.10235314862900061 0.095732850837748587 0 0.10128141614764462 0.098301915882792565 0 0.10235314862900061 0.095732850837748587 0 0.099668666377621687 0.098185156293585679 0 0.10061177789990769 0.095560232934278927 0 0.10235314862900061 0.095732850837748587 0 0.099668666377621687 0.098185156293585679 0 0.10061177789990769 0.095560232934278927 0 0.10235314862900061 0.095732850837748587 0 0.10240268584652834 0.093072315363868272 0 0.10235314862900061 0.095732850837748587 0 0.10499783502525566 0.090883211235421188 0 0.10240268584652834 0.093072315363868272 0 0.10498567427158545 0.097140330587181759 0 0.10235314862900061 0.095732850837748587 0 0.10499783502525566 0.090883211235421188 0 0.098780422598020834 0.096616903012452085 0 0.095208257479080557 0.098088735103151553 0 0.097266694951699928 0.095963382677252157 0 0.10061177789990769 0.095560232934278927 0 0.098780422598020834 0.096616903012452085 0 0.099668666377621687 0.098185156293585679 0 0.10061177789990769 0.095560232934278927 0 0.098780422598020834 0.096616903012452085 0 0.099391470518836247 0.094407544559370948 0 0.098780422598020834 0.096616903012452085 0 0.099668666377621687 0.098185156293585679 0 0.099120647832471903 0.099239498305235554 0 0.098780422598020834 0.096616903012452085 0 0.099120647832471903 0.099239498305235554 0 0.095208257479080557 0.098088735103151553 0 0.094285015865467087 0.10238938209108989 0 0.094533871048165408 0.10143284174276468 0 0.099668666377621687 0.098185156293585679 0 0.099120647832471903 0.099239498305235554 0 0.09794776759904647 0.10219240442026276 0 0.10006012116283913 0.1016026902376745 0 0.099668666377621687 0.098185156293585679 0 0.09794776759904647 0.10219240442026276 0 0.10006012116283913 0.1016026902376745 0 0.09794776759904647 0.10219240442026276 0 0.097859955524360109 0.10499641327105394 0 0.09794776759904647 0.10219240442026276 0 0.097859955524360109 0.10499641327105394 0 0.093508404556855954 0.10499651686372051 0 0.094285015865467087 0.10238938209108989 0 0.093496271334620906 0.10499597184072758 0 0.090546410584869216 0.10553806294398335 0 0.093488700581652248 0.10499928878212426 0 0.090294810538130529 0.10572134637344048 0 0.099120647832471903 0.099239498305235554 0 0.09794776759904647 0.10219240442026276 0 0.093508404556855954 0.10499651686372051 0 0.093488700581652248 0.10499928878212426 0 0.090294810538130529 0.10572134637344048 0 0.087347339082011893 0.10499793460715558 0 0.090294810538130529 0.10572134637344048 0 0.087347339082011893 0.10499793460715558 0 0.089896152348180949 0.10571552952021113 0 0.087347339082011893 0.10499793460715558 0 0.089896152348180949 0.10571552952021113 0 0.085996546567930834 0.10571679324696234 0 0.090546410584869216 0.10553806294398335 0 0.090294810538130529 0.10572134637344048 0 0.089896152348180949 0.10571552952021113 0 0.08119500848607307 0.10499840590419336 0 0.085117566306101664 0.10698410896583931 0 0.078847937982298583 0.10588228382634651 0 0.084571422942747596 0.10491072156112594 0 0.082895002229714715 0.10444803220913995 0 0.08119500848607307 0.10499840590419336 0 0.085996546567930834 0.10571679324696234 0 0.085117566306101664 0.10698410896583931 0 0.087347339082011893 0.10499793460715558 0 0.08119500848607307 0.10499840590419336 0 0.085996546567930834 0.10571679324696234 0 0.089896152348180949 0.10571552952021113 0 0.085996546567930834 0.10571679324696234 0 0.085117566306101664 0.10698410896583931 0 0.089896152348180949 0.10571552952021113 0 0.085117566306101664 0.10698410896583931 0 0.091306715046035616 0.10451111803472758 0 0.082192290493325632 0.10923890280055022 0 0.079250151904565039 0.10828078012202655 0 0.080506008808467783 0.11001641711676409 0 0.082192290493325632 0.10923890280055022 0 0.078847937982298583 0.10588228382634651 0 0.079250151904565039 0.10828078012202655 0 0.082192355367441738 0.11098492891047813 0 0.080506008808467783 0.11001641711676409 0 0.081125112392097187 0.11096566285152937 0 0.082192290493325632 0.10923890280055022 0 0.082192355367441738 0.11098492891047813 0 0.080506008808467783 0.11001641711676409 0 0.084571422942747596 0.10491072156112594 0 0.087498846834554903 0.10442710986913499 0 0.082192290493325632 0.10923890280055022 0 0.082192355367441738 0.11098492891047813 0 0.082565711895011953 0.11101147978383177 0 0.082445124227302866 0.11106196603095148 0 0.081729599477689305 0.11127493818297478 0 0.082408951682488796 0.1102878648630799 0 0.082192355367441738 0.11098492891047813 0 0.082445124227302866 0.11106196603095148 0 0.083038289012221614 0.1108482369558656 0 0.082192355367441738 0.11098492891047813 0 0.082445124227302866 0.11106196603095148 0 0.082565711895011953 0.11101147978383177 0 0.082192355367441738 0.11098492891047813 0 0.083386009666943164 0.11115852064475661 0 0.083038289012221614 0.1108482369558656 0 0.082192355367441738 0.11098492891047813 0 0.083386009666943164 0.11115852064475661 0 0.081125112392097187 0.11096566285152937 0 0.090546410584869216 0.10553806294398335 0 0.092986839950132197 0.10267021557551194 0 0.095208257479080557 0.098088735103151553 0 0.090546410584869216 0.10553806294398335 0 0.089896152348180949 0.10571552952021113 0 0.092986839950132197 0.10267021557551194 0 0.092986839950132197 0.10267021557551194 0 0.091306715046035616 0.10451111803472758 0 0.09384246402578611 0.10138934627746081 0 0.089896152348180949 0.10571552952021113 0 0.092986839950132197 0.10267021557551194 0 0.091306715046035616 0.10451111803472758 0 0.082445124227302866 0.11106196603095148 0 0.082565711895011953 0.11101147978383177 0 0.081729599477689305 0.11127493818297478 0 0.087498846834554903 0.10442710986913499 0 0.089500550425736305 0.10379837452973695 0 0.089500550425736305 0.10379837452973695 0 0.089600985710560216 0.10326978038653974 0 0.092986839950132197 0.10267021557551194 0 0.095444729000355805 0.098081110543869393 0 0.095208257479080557 0.098088735103151553 0 0.092986839950132197 0.10267021557551194 0 0.09384246402578611 0.10138934627746081 0 0.095444729000355805 0.098081110543869393 0 0.095444729000355805 0.098081110543869393 0 0.095208257479080557 0.098088735103151553 0 0.095759478004732806 0.096538485574747188 0 0.095759478004732806 0.096538485574747188 0 0.095821568230040108 0.096041689854004131 0 0.0962265724994356 0.095039922246315203 0 0.095444729000355805 0.098081110543869393 0 0.095759478004732806 0.096538485574747188 0 0.095821568230040108 0.096041689854004131 0 0.081729599477689305 0.11127493818297478 0 0.080498798617216274 0.10874640009027883 0 0.082408951682488796 0.1102878648630799 0 0.096793364521211067 0.099291893208815249 0 0.095444729000355805 0.098081110543869393 0 0.095821568230040108 0.096041689854004131 0 0.096793364521211067 0.099291893208815249 0 0.095821568230040108 0.096041689854004131 0 0.096517555671129851 0.094784977620915506 0 0.089500550425736305 0.10379837452973695 0 0.088665849034249386 0.10158174926816636 0 0.095821568230040108 0.096041689854004131 0 0.096517555671129851 0.094784977620915506 0 0.095727314854672632 0.094741490562878533 0 0.096517555671129851 0.094784977620915506 0 0.095727314854672632 0.094741490562878533 0 0.095112263709483599 0.093798915110686984 0 0.095727314854672632 0.094741490562878533 0 0.095112263709483599 0.093798915110686984 0 0.0962265724994356 0.095039922246315203 0 0.095821568230040108 0.096041689854004131 0 0.095727314854672632 0.094741490562878533 0 0.0962265724994356 0.095039922246315203 0 0.083386009666943164 0.11115852064475661 0 0.083959292161017676 0.11012442771157688 0 0.085586660608057474 0.10970034399934578 0 0.083386009666943164 0.11115852064475661 0 0.083959292161017676 0.11012442771157688 0 0.083038289012221614 0.1108482369558656 0 0.083959292161017676 0.11012442771157688 0 0.083038289012221614 0.1108482369558656 0 0.082408951682488796 0.1102878648630799 0 0.082445124227302866 0.11106196603095148 0 0.083038289012221614 0.1108482369558656 0 0.082408951682488796 0.1102878648630799 0 0.080498798617216274 0.10874640009027883 0 0.084498496985474847 0.10747918651946888 0 0.084180775349479237 0.10303820307315033 0 0.083959292161017676 0.11012442771157688 0 0.082408951682488796 0.1102878648630799 0 0.084498496985474847 0.10747918651946888 0 0.080498798617216274 0.10874640009027883 0 0.082408951682488796 0.1102878648630799 0 0.084498496985474847 0.10747918651946888 0 0.083959292161017676 0.11012442771157688 0 0.084498496985474847 0.10747918651946888 0 0.085586660608057474 0.10970034399934578 0 0.084498496985474847 0.10747918651946888 0 0.085586660608057474 0.10970034399934578 0 0.087244031970089633 0.1067572374752266 0 0.087459655270886089 0.10324100222531148 0 0.087244031970089633 0.1067572374752266 0 0.090276267658258996 0.10437857645533317 0 0.084498496985474847 0.10747918651946888 0 0.087459655270886089 0.10324100222531148 0 0.087244031970089633 0.1067572374752266 0 0.084498496985474847 0.10747918651946888 0 0.087459655270886089 0.10324100222531148 0 0.084180775349479237 0.10303820307315033 0 0.084180775349479237 0.10303820307315033 0 0.081107652161421628 0.10038956638912815 0 0.085700749910338811 0.096492595951461271 0 0.084180775349479237 0.10303820307315033 0 0.088844918550166851 0.096472488148619057 0 0.085700749910338811 0.096492595951461271 0 0.087459655270886089 0.10324100222531148 0 0.084180775349479237 0.10303820307315033 0 0.088844918550166851 0.096472488148619057 0 0.087459655270886089 0.10324100222531148 0 0.088844918550166851 0.096472488148619057 0 0.091202639273302286 0.10017255423758582 0 0.096517555671129851 0.094784977620915506 0 0.095112263709483599 0.093798915110686984 0 0.093822076156608272 0.093139369782835393 0 0.080498798617216274 0.10874640009027883 0 0.084180775349479237 0.10303820307315033 0 0.081107652161421628 0.10038956638912815 0 0.088665849034249386 0.10158174926816636 0 0.088124177746468496 0.098781688674626375 0 0.093822076156608272 0.093139369782835393 0 0.093938674033900341 0.093471513152008079 0 0.091360698655891429 0.093369345275441246 0 0.093938674033900341 0.093471513152008079 0 0.095707744208901865 0.093934996108429508 0 0.093647092035711615 0.093881406092366296 0 0.095112263709483599 0.093798915110686984 0 0.093938674033900341 0.093471513152008079 0 0.095707744208901865 0.093934996108429508 0 0.095112263709483599 0.093798915110686984 0 0.093822076156608272 0.093139369782835393 0 0.093938674033900341 0.093471513152008079 0 0.095707744208901865 0.093934996108429508 0 0.097004554446108171 0.09391335516127744 0 0.098201466805671767 0.09410427548510493 0 0.095112263709483599 0.093798915110686984 0 0.095707744208901865 0.093934996108429508 0 0.097004554446108171 0.09391335516127744 0 0.097004554446108171 0.09391335516127744 0 0.098201466805671767 0.09410427548510493 0 0.099547680562257629 0.093234951714104702 0 0.095707744208901865 0.093934996108429508 0 0.098201466805671767 0.09410427548510493 0 0.097503283823163159 0.09495956122121893 0 0.098201466805671767 0.09410427548510493 0 0.099965371258296479 0.094956636783770337 0 0.097503283823163159 0.09495956122121893 0 0.099965371258296479 0.094956636783770337 0 0.10260773796682011 0.094152868705733056 0 0.10026250988511494 0.093780987399886356 0 0.098201466805671767 0.09410427548510493 0 0.099965371258296479 0.094956636783770337 0 0.10026250988511494 0.093780987399886356 0 0.10394519798993646 0.085264538818710808 0 0.10342548671008561 0.080149202634195602 0 0.106604213276972 0.082204478896689234 0 0.10499664277832159 0.084618685469753596 0 0.10500193448218015 0.078344154105226743 0 0.106604213276972 0.082204478896689234 0 0.1061844112008892 0.077822833706004041 0 0.10500193448218015 0.078344154105226743 0 0.099965371258296479 0.094956636783770337 0 0.10260773796682011 0.094152868705733056 0 0.10194989094706564 0.096038959517389944 0 0.10394519798993646 0.085264538818710808 0 0.10408147471417566 0.086292742640575501 0 0.10260773796682011 0.094152868705733056 0 0.10026250988511494 0.093780987399886356 0 0.10143972042945777 0.092261443531294646 0 0.106604213276972 0.082204478896689234 0 0.10499664277832159 0.084618685469753596 0 0.10463389991834414 0.088919360004260414 0 0.10260773796682011 0.094152868705733056 0 0.10143972042945777 0.092261443531294646 0 0.10463389991834414 0.088919360004260414 0 0.098201466805671767 0.09410427548510493 0 0.10026250988511494 0.093780987399886356 0 0.099547680562257629 0.093234951714104702 0 0.10026250988511494 0.093780987399886356 0 0.10143972042945777 0.092261443531294646 0 0.099547680562257629 0.093234951714104702 0 0.099547680562257629 0.093234951714104702 0 0.1010820672923716 0.092077047682704041 0 0.098752837091001355 0.09353312705555894 0 0.10143972042945777 0.092261443531294646 0 0.1010820672923716 0.092077047682704041 0 0.10463389991834414 0.088919360004260414 0 0.10143972042945777 0.092261443531294646 0 0.099547680562257629 0.093234951714104702 0 0.1010820672923716 0.092077047682704041 0 0.1010820672923716 0.092077047682704041 0 0.10463389991834414 0.088919360004260414 0 0.1034515603375963 0.09116423463336594 0 0.10499664277832159 0.084618685469753596 0 0.10463389991834414 0.088919360004260414 0 0.10499783502525566 0.090883211235421188 0 0.10463389991834414 0.088919360004260414 0 0.1034515603375963 0.09116423463336594 0 0.10499783502525566 0.090883211235421188 0 0.1034515603375963 0.09116423463336594 0 0.10499783502525566 0.090883211235421188 0 0.10240268584652834 0.093072315363868272 0 0.10061177789990769 0.095560232934278927 0 0.10240268584652834 0.093072315363868272 0 0.099391470518836247 0.094407544559370948 0 0.1010820672923716 0.092077047682704041 0 0.10240268584652834 0.093072315363868272 0 0.099391470518836247 0.094407544559370948 0 0.1010820672923716 0.092077047682704041 0 0.1034515603375963 0.09116423463336594 0 0.10240268584652834 0.093072315363868272 0 0.098780422598020834 0.096616903012452085 0 0.099391470518836247 0.094407544559370948 0 0.097266694951699928 0.095963382677252157 0 0.099391470518836247 0.094407544559370948 0 0.097580927844161836 0.094534992383219094 0 0.098752837091001355 0.09353312705555894 0 0.099391470518836247 0.094407544559370948 0 0.097266694951699928 0.095963382677252157 0 0.097580927844161836 0.094534992383219094 0 0.095208257479080557 0.098088735103151553 0 0.095759478004732806 0.096538485574747188 0 0.097266694951699928 0.095963382677252157 0 0.095759478004732806 0.096538485574747188 0 0.097266694951699928 0.095963382677252157 0 0.0962265724994356 0.095039922246315203 0 0.097266694951699928 0.095963382677252157 0 0.097580927844161836 0.094534992383219094 0 0.0962265724994356 0.095039922246315203 0 0.095112263709483599 0.093798915110686984 0 0.097004554446108171 0.09391335516127744 0 0.0962265724994356 0.095039922246315203 0 0.097004554446108171 0.09391335516127744 0 0.097580927844161836 0.094534992383219094 0 0.0962265724994356 0.095039922246315203 0 0.097004554446108171 0.09391335516127744 0 0.097580927844161836 0.094534992383219094 0 0.098752837091001355 0.09353312705555894 0 0.097004554446108171 0.09391335516127744 0 0.099547680562257629 0.093234951714104702 0 0.098752837091001355 0.09353312705555894 0 0.1010820672923716 0.092077047682704041 0 0.099391470518836247 0.094407544559370948 0 0.098752837091001355 0.09353312705555894 0 0.053623997892209722 0.11566609950947992 0 0.05475414047655968 0.12027179006035406 0 0.051445231430352303 0.11889019524686129 0 0.053623997892209722 0.11566609950947992 0 0.057703844658583775 0.1184850670118799 0 0.05475414047655968 0.12027179006035406 0 0.053623997892209722 0.11566609950947992 0 0.051445231430352303 0.11889019524686129 0 0.051386861450010098 0.11544042389951442 0 0.053623997892209722 0.11566609950947992 0 0.057703844658583775 0.1184850670118799 0 0.057078923502545488 0.11290571170526065 0 0.057703844658583775 0.1184850670118799 0 0.057078923502545488 0.11290571170526065 0 0.0619581089093496 0.11611460753338536 0 0.057078923502545488 0.11290571170526065 0 0.053367322209887769 0.1087750407331072 0 0.051666831700025832 0.11282001976347099 0 0.053623997892209722 0.11566609950947992 0 0.057078923502545488 0.11290571170526065 0 0.051666831700025832 0.11282001976347099 0 0.053623997892209722 0.11566609950947992 0 0.051666831700025832 0.11282001976347099 0 0.051386861450010098 0.11544042389951442 0 0.053367322209887769 0.1087750407331072 0 0.056584565808059185 0.10499999815587818 0 0.050430387207532408 0.10499876722406142 0 0.053367322209887769 0.1087750407331072 0 0.056584565808059185 0.10499999815587818 0 0.059054349985139469 0.10843514390142632 0 0.057078923502545488 0.11290571170526065 0 0.053367322209887769 0.1087750407331072 0 0.059054349985139469 0.10843514390142632 0 0.057078923502545488 0.11290571170526065 0 0.059054349985139469 0.10843514390142632 0 0.063116634536862018 0.11101902377712393 0 0.059054349985139469 0.10843514390142632 0 0.062736411959042546 0.10499938523294121 0 0.063116634536862018 0.11101902377712393 0 0.056584565808059185 0.10499999815587818 0 0.059054349985139469 0.10843514390142632 0 0.062736411959042546 0.10499938523294121 0 0.062736411959042546 0.10499938523294121 0 0.063116634536862018 0.11101902377712393 0 0.068819834482420295 0.10910680103137986 0 0.063116634536862018 0.11101902377712393 0 0.0619581089093496 0.11611460753338536 0 0.069244154045540116 0.11528367643689187 0 0.057078923502545488 0.11290571170526065 0 0.063116634536862018 0.11101902377712393 0 0.0619581089093496 0.11611460753338536 0 0.057703844658583775 0.1184850670118799 0 0.0619581089093496 0.11611460753338536 0 0.061347811663170798 0.11971686569197272 0 0.0619581089093496 0.11611460753338536 0 0.069244154045540116 0.11528367643689187 0 0.064917491525188817 0.11997680598849113 0 0.065072772003891374 0.11416918243619764 0 0.064377130026743556 0.1133271334856118 0 0.069244154045540116 0.11528367643689187 0 0.075499816168145037 0.11144362305943317 0 0.074005064640764756 0.11944722970451077 0 0.080968529055973515 0.11249777750672064 0 0.082476724998579706 0.11293711812715254 0 0.069244154045540116 0.11528367643689187 0 0.075499816168145037 0.11144362305943317 0 0.068819834482420295 0.10910680103137986 0 0.063116634536862018 0.11101902377712393 0 0.069244154045540116 0.11528367643689187 0 0.068819834482420295 0.10910680103137986 0 0.062736411959042546 0.10499938523294121 0 0.068819834482420295 0.10910680103137986 0 0.06889002219500942 0.10499905543490207 0 0.068819834482420295 0.10910680103137986 0 0.06889002219500942 0.10499905543490207 0 0.073509213028201362 0.10736096679178145 0 0.06889002219500942 0.10499905543490207 0 0.075041767343281163 0.10499975063154902 0 0.073509213028201362 0.10736096679178145 0 0.075499816168145037 0.11144362305943317 0 0.068819834482420295 0.10910680103137986 0 0.073509213028201362 0.10736096679178145 0 0.075499816168145037 0.11144362305943317 0 0.077391263495957666 0.108937234