<?xml version="1.0"?>
<VTKFile type="UnstructuredGrid" version="0.1" byte_order="LittleEndian">
<UnstructuredGrid>
<Piece NumberOfPoints="30881" NumberOfCells="10862">
<Points>
<DataArray type="Float64" NumberOfComponents="3" format="ascii">
-0.49999999999999828 -0.48677703703187492 0 -0.5 -0.5 0 -0.48129281494584059 -0.49338851851593718 0 -0.5 -0.5 0 -0.48129281494584059 -0.49338851851593718 0 -0.46258562989168328 -0.5 0 -0.49999999999999828 -0.48677703703187492 0 -0.48129281494584059 -0.49338851851593718 0 -0.49999999999999828 -0.48677703703187492 0 -0.4824545428279598 -0.47451624516148783 0 -0.48129281494584059 -0.49338851851593718 0 -0.49999999999999828 -0.48677703703187492 0 -0.4824545428279598 -0.47451624516148783 0 -0.5 -0.46599539173150673 0 -0.4824545428279598 -0.47451624516148783 0 -0.46853075243710779 -0.48354990242643758 0 -0.46411508256092049 -0.46598235294430129 0 -0.4824545428279598 -0.47451624516148783 0 -0.48129281494584059 -0.49338851851593718 0 -0.46853075243710779 -0.48354990242643758 0 -0.48129281494584059 -0.49338851851593718 0 -0.46258562989168328 -0.5 0 -0.48129281494584059 -0.49338851851593718 0 -0.46258562989168328 -0.5 0 -0.46853075243710779 -0.48354990242643758 0 -0.46258562989168328 -0.5 0 -0.46853075243710779 -0.48354990242643758 0 -0.45147378687733691 -0.48362213557840178 0 -0.46853075243710779 -0.48354990242643758 0 -0.45147378687733691 -0.48362213557840178 0 -0.46411508256092049 -0.46598235294430129 0 -0.4457251648104853 -0.47020164095208389 0 -0.45147378687733691 -0.48362213557840178 0 -0.46411508256092049 -0.46598235294430129 0 -0.4457251648104853 -0.47020164095208389 0 -0.45147378687733691 -0.48362213557840178 0 -0.43513446131126993 -0.48199891714758791 0 -0.45147378687733691 -0.48362213557840178 0 -0.43275163025255442 -0.5 0 -0.43513446131126993 -0.48199891714758791 0 -0.46258562989168328 -0.5 0 -0.45147378687733691 -0.48362213557840178 0 -0.43275163025255442 -0.5 0 -0.4467190029717853 -0.45478934699519452 0 -0.4422915115958943 -0.43555510214664611 0 -0.43246707723660932 -0.44794326854796312 0 -0.4457251648104853 -0.47020164095208389 0 -0.4467190029717853 -0.45478934699519452 0 -0.46411508256092049 -0.46598235294430129 0 -0.4457251648104853 -0.47020164095208389 0 -0.4467190029717853 -0.45478934699519452 0 -0.43016578207734568 -0.46313500011938619 0 -0.4467190029717853 -0.45478934699519452 0 -0.46411508256092049 -0.46598235294430129 0 -0.47114575579794699 -0.4403844242888923 0 -0.4467190029717853 -0.45478934699519452 0 -0.47114575579794699 -0.4403844242888923 0 -0.4422915115958943 -0.43555510214664611 0 -0.47114575579794699 -0.4403844242888923 0 -0.4422915115958943 -0.43555510214664611 0 -0.46411508256092049 -0.46598235294430129 0 -0.47114575579794699 -0.4403844242888923 0 -0.48354307623736548 -0.45841843211146538 0 -0.4824545428279598 -0.47451624516148783 0 -0.46411508256092049 -0.46598235294430129 0 -0.48354307623736548 -0.45841843211146538 0 -0.4824545428279598 -0.47451624516148783 0 -0.48354307623736548 -0.45841843211146538 0 -0.5 -0.46599539173150673 0 -0.48354307623736548 -0.45841843211146538 0 -0.5 -0.46599539173150673 0 -0.49999999999999972 -0.44521374643113848 0 -0.47114575579794699 -0.4403844242888923 0 -0.49999999999999972 -0.44521374643113848 0 -0.47114575579794699 -0.4403844242888923 0 -0.49999999999999972 -0.44521374643113848 0 -0.48704432221743971 -0.42935617662229603 0 -0.47114575579794699 -0.4403844242888923 0 -0.48354307623736548 -0.45841843211146538 0 -0.49999999999999972 -0.44521374643113848 0 -0.49999999999999972 -0.44521374643113848 0 -0.48704432221743971 -0.42935617662229603 0 -0.5 -0.41591957503128979 0 -0.48704432221743971 -0.42935617662229603 0 -0.5 -0.41591957503128979 0 -0.47703153307181151 -0.41590696073786332 0 -0.5 -0.41591957503128979 0 -0.47703153307181151 -0.41590696073786332 0 -0.48817838912021821 -0.4022119694541284 0 -0.47114575579794699 -0.4403844242888923 0 -0.48704432221743971 -0.42935617662229603 0 -0.47703153307181151 -0.41590696073786332 0 -0.5 -0.38662540363144121 0 -0.47568202340906118 -0.39039593841591919 0 -0.4947615751445838 -0.37332156409002909 0 -0.47568202340906118 -0.39039593841591919 0 -0.4947615751445838 -0.37332156409002909 0 -0.5 -0.38662540363144121 0 -0.48817838912021821 -0.4022119694541284 0 -0.47568202340906118 -0.39039593841591919 0 -0.5 -0.41591957503128979 0 -0.5 -0.38662540363144121 0 -0.48817838912021821 -0.4022119694541284 0 -0.47703153307181151 -0.41590696073786332 0 -0.48817838912021821 -0.4022119694541284 0 -0.47568202340906118 -0.39039593841591919 0 -0.47703153307181151 -0.41590696073786332 0 -0.47568202340906118 -0.39039593841591919 0 -0.45660247167353862 -0.40747031274180939 0 -0.47568202340906118 -0.39039593841591919 0 -0.48030931097003587 -0.37191064435083931 0 -0.46669490250066459 -0.37481721741951951 0 -0.47568202340906118 -0.39039593841591919 0 -0.4947615751445838 -0.37332156409002909 0 -0.48030931097003587 -0.37191064435083931 0 -0.45332061783919553 -0.38729481725706361 0 -0.46669490250066459 -0.37481721741951951 0 -0.45095991715087752 -0.36968037302039969 0 -0.47568202340906118 -0.39039593841591919 0 -0.45332061783919553 -0.38729481725706361 0 -0.46669490250066459 -0.37481721741951951 0 -0.47568202340906118 -0.39039593841591919 0 -0.45660247167353862 -0.40747031274180939 0 -0.47568202340906118 -0.39039593841591919 0 -0.45332061783919553 -0.38729481725706361 0 -0.45660247167353862 -0.40747031274180939 0 -0.44332653075004852 -0.401690115615219 0 -0.44646247228389868 -0.41654464256061052 0 -0.42870657106664078 -0.39987574649354879 0 -0.45332061783919553 -0.38729481725706361 0 -0.44332653075004852 -0.401690115615219 0 -0.43479631603355468 -0.39077639303142497 0 -0.45332061783919553 -0.38729481725706361 0 -0.44332653075004852 -0.401690115615219 0 -0.45660247167353862 -0.40747031274180939 0 -0.45332061783919553 -0.38729481725706361 0 -0.43421362475025049 -0.37527491429266319 0 -0.43479631603355468 -0.39077639303142497 0 -0.45332061783919553 -0.38729481725706361 0 -0.43421362475025049 -0.37527491429266319 0 -0.45095991715087752 -0.36968037302039969 0 -0.47114575579794699 -0.4403844242888923 0 -0.45663439814062529 -0.42533932462455271 0 -0.4422915115958943 -0.43555510214664611 0 -0.47114575579794699 -0.4403844242888923 0 -0.47703153307181151 -0.41590696073786332 0 -0.45663439814062529 -0.42533932462455271 0 -0.45663439814062529 -0.42533932462455271 0 -0.45660247167353862 -0.40747031274180939 0 -0.44646247228389868 -0.41654464256061052 0 -0.47703153307181151 -0.41590696073786332 0 -0.45663439814062529 -0.42533932462455271 0 -0.45660247167353862 -0.40747031274180939 0 -0.44332653075004852 -0.401690115615219 0 -0.45660247167353862 -0.40747031274180939 0 -0.44646247228389868 -0.41654464256061052 0 -0.45660247167353862 -0.40747031274180939 0 -0.44646247228389868 -0.41654464256061052 0 -0.44646247228389868 -0.41654464256061052 0 -0.4375229199380159 -0.42454468706769971 0 -0.45663439814062529 -0.42533932462455271 0 -0.4375229199380159 -0.42454468706769971 0 -0.4422915115958943 -0.43555510214664611 0 -0.45663439814062529 -0.42533932462455271 0 -0.44646247228389868 -0.41654464256061052 0 -0.4375229199380159 -0.42454468706769971 0 -0.4375229199380159 -0.42454468706769971 0 -0.4422915115958943 -0.43555510214664611 0 -0.43077617074680319 -0.43406335077952207 0 -0.43077617074680319 -0.43406335077952207 0 -0.42550232634077589 -0.42345940056268039 0 -0.41950844772475421 -0.43888456563633732 0 -0.4375229199380159 -0.42454468706769971 0 -0.43077617074680319 -0.43406335077952207 0 -0.42550232634077589 -0.42345940056268039 0 -0.44646247228389868 -0.41654464256061052 0 -0.41657232816672918 -0.41306671883907142 0 -0.42870657106664078 -0.39987574649354879 0 -0.44646247228389868 -0.41654464256061052 0 -0.4375229199380159 -0.42454468706769971 0 -0.42550232634077589 -0.42345940056268039 0 -0.44646247228389868 -0.41654464256061052 0 -0.42550232634077589 -0.42345940056268039 0 -0.41657232816672918 -0.41306671883907142 0 -0.44646247228389868 -0.41654464256061052 0 -0.41657232816672918 -0.41306671883907142 0 -0.42550232634077589 -0.42345940056268039 0 -0.41657232816672918 -0.41306671883907142 0 -0.41333489101611293 -0.42699700567040988 0 -0.41657232816672918 -0.41306671883907142 0 -0.41333489101611293 -0.42699700567040988 0 -0.39893236021425188 -0.42931692235905211 0 -0.41333489101611293 -0.42699700567040988 0 -0.39893236021425188 -0.42931692235905211 0 -0.41950844772475421 -0.43888456563633732 0 -0.42550232634077589 -0.42345940056268039 0 -0.41333489101611293 -0.42699700567040988 0 -0.41950844772475421 -0.43888456563633732 0 -0.43421362475025049 -0.37527491429266319 0 -0.42478231784314502 -0.38643128255249681 0 -0.41656514696884139 -0.37636588688318029 0 -0.43421362475025049 -0.37527491429266319 0 -0.42478231784314502 -0.38643128255249681 0 -0.43479631603355468 -0.39077639303142497 0 -0.42478231784314502 -0.38643128255249681 0 -0.43479631603355468 -0.39077639303142497 0 -0.42870657106664078 -0.39987574649354879 0 -0.44332653075004852 -0.401690115615219 0 -0.43479631603355468 -0.39077639303142497 0 -0.42870657106664078 -0.39987574649354879 0 -0.41657232816672918 -0.41306671883907142 0 -0.40962993039643741 -0.3898634720616666 0 -0.3946356370269814 -0.39577424904278191 0 -0.42478231784314502 -0.38643128255249681 0 -0.42870657106664078 -0.39987574649354879 0 -0.40962993039643741 -0.3898634720616666 0 -0.41657232816672918 -0.41306671883907142 0 -0.42870657106664078 -0.39987574649354879 0 -0.40962993039643741 -0.3898634720616666 0 -0.42478231784314502 -0.38643128255249681 0 -0.40962993039643741 -0.3898634720616666 0 -0.41656514696884139 -0.37636588688318029 0 -0.40962993039643741 -0.3898634720616666 0 -0.41656514696884139 -0.37636588688318029 0 -0.40465459864295228 -0.37650109000307358 0 -0.39431275766669582 -0.38061373190328529 0 -0.40465459864295228 -0.37650109000307358 0 -0.3968495855878465 -0.36923685638487008 0 -0.40962993039643741 -0.3898634720616666 0 -0.39431275766669582 -0.38061373190328529 0 -0.40465459864295228 -0.376501090003
[...]
<PointData Scalars="" Vectors="displacement," Tensors="">
<DataArray type="Float64" Name="displacement" NumberOfComponents="3" format="ascii">
-1.4603925145824438e-06 0.102232311678267 0 9.7389877808971023e-07 0.10499413985585059 0 -4.7582228319552538e-07 0.10491653749625673 0 9.7389877808971023e-07 0.10499413985585059 0 -4.7582228319552538e-07 0.10491653749625673 0 -4.8315035144839985e-07 0.10500258048840243 0 -3.4097155512404627e-07 0.10222532417069238 0 8.3981472206737028e-06 0.10353473530562654 0 3.5023492476960281e-07 0.10221673214259493 0 0.00053890464019209464 0.10061788150432485 0 0.00050645074228105377 0.10162889105456392 0 3.5023492476960281e-07 0.10221673214259493 0 0.00053890464019209464 0.10061788150432485 0 3.0563476383679478e-06 0.097860045156876629 0 0.00053890464019209464 0.10061788150432485 0 0.00030097722844329316 0.10269409905146014 0 0.00042026380439530848 0.1019457293342596 0 0.00053890464019209464 0.10061788150432485 0 0.00050645074228105377 0.10162889105456392 0 0.00030097722844329316 0.10269409905146014 0 8.3981472206737028e-06 0.10353473530562654 0 4.9159650646330628e-07 0.10499752141214795 0 0.00050645074228105377 0.10162889105456392 0 3.5539078082548111e-06 0.10499280979682901 0 0.00030097722844329316 0.10269409905146014 0 3.5539078082548111e-06 0.10499280979682901 0 0.00030097722844329316 0.10269409905146014 0 0.00028068084669594746 0.10361636226357769 0 0.00030097722844329316 0.10269409905146014 0 0.00028068084669594746 0.10361636226357769 0 0.00042026380439530848 0.1019457293342596 0 0.00044651437285052347 0.10277800339191422 0 0.00028068084669594746 0.10361636226357769 0 0.00042026380439530848 0.1019457293342596 0 0.00044651437285052347 0.10277800339191422 0 0.00028068084669594746 0.10361636226357769 0 0.0001736697452693645 0.10364961845028318 0 0.00028068084669594746 0.10361636226357769 0 -1.0740694600455246e-06 0.10499829826228455 0 0.0001736697452693645 0.10364961845028318 0 3.5539078082548111e-06 0.10499280979682901 0 0.00028068084669594746 0.10361636226357769 0 -1.0740694600455246e-06 0.10499829826228455 0 0.00058942010294296384 0.10177834353609491 0 0.0020829842915487851 0.10002377616255065 0 0.0013456982179266559 0.10132934337489651 0 0.00044651437285052347 0.10277800339191422 0 0.00058942010294296384 0.10177834353609491 0 0.00042026380439530848 0.1019457293342596 0 0.00044651437285052347 0.10277800339191422 0 0.00058942010294296384 0.10177834353609491 0 0.0007193754021491205 0.10233536059532665 0 0.00058942010294296384 0.10177834353609491 0 0.00042026380439530848 0.1019457293342596 0 -0.00079907222610085598 0.10125004773061755 0 0.00058942010294296384 0.10177834353609491 0 -0.00079907222610085598 0.10125004773061755 0 0.0020829842915487851 0.10002377616255065 0 0.00043993534958515257 0.095955383035057448 0 0.00063976970764479356 0.097550718945194417 0 0.00042026380439530848 0.1019457293342596 0 -0.00079907222610085598 0.10125004773061755 0 0.00050232140890625913 0.099099189151980252 0 0.00053890464019209464 0.10061788150432485 0 0.00042026380439530848 0.1019457293342596 0 0.00050232140890625913 0.099099189151980252 0 0.00053890464019209464 0.10061788150432485 0 0.00050232140890625913 0.099099189151980252 0 3.0563476383679478e-06 0.097860045156876629 0 0.00050232140890625913 0.099099189151980252 0 3.0563476383679478e-06 0.097860045156876629 0 -5.8135061809764209e-06 0.093504876429897285 0 0.00043993534958515257 0.095955383035057448 0 1.0991410966774264e-06 0.09349743079899521 0 0.0024462815123929955 0.090576439738840595 0 6.3414337119137903e-07 0.093484714919362374 0 0.0010065697370778418 0.090126046867285328 0 -0.00079907222610085598 0.10125004773061755 0 0.00050232140890625913 0.099099189151980252 0 -5.8135061809764209e-06 0.093504876429897285 0 6.3414337119137903e-07 0.093484714919362374 0 0.0010065697370778418 0.090126046867285328 0 2.6707975740138928e-06 0.087346751665832459 0 0.0010065697370778418 0.090126046867285328 0 2.6707975740138928e-06 0.087346751665832459 0 0.00010318699924830202 0.089431950744921648 0 2.6707975740138928e-06 0.087346751665832459 0 0.00010318699924830202 0.089431950744921648 0 -0.00023884647095827127 0.086192418441144489 0 0.0024462815123929955 0.090576439738840595 0 0.0010065697370778418 0.090126046867285328 0 0.00010318699924830202 0.089431950744921648 0 -4.7180962315103536e-06 0.081190961257693026 0 -0.0019523212057253147 0.087481644849890669 0 -0.00077997275636507732 0.077965096368800044 0 -0.00022709276047862422 0.082357755591369486 0 -0.00021858212304012395 0.081709910011308021 0 -4.7180962315103536e-06 0.081190961257693026 0 -0.00023884647095827127 0.086192418441144489 0 -0.0019523212057253147 0.087481644849890669 0 2.6707975740138928e-06 0.087346751665832459 0 -4.7180962315103536e-06 0.081190961257693026 0 -0.00023884647095827127 0.086192418441144489 0 0.00010318699924830202 0.089431950744921648 0 -0.00023884647095827127 0.086192418441144489 0 -0.0019523212057253147 0.087481644849890669 0 0.00010318699924830202 0.089431950744921648 0 -0.0019523212057253147 0.087481644849890669 0 -0.0018868038422376922 0.093469468397976263 0 -0.0014623622092483565 0.071354666070917519 0 -0.00063601089505137222 0.072968839792504112 0 -0.00095240795566855813 0.071433480336990207 0 -0.0014623622092483565 0.071354666070917519 0 -0.00077997275636507732 0.077965096368800044 0 -0.00063601089505137222 0.072968839792504112 0 -0.00018117698390066758 0.072020458543116644 0 -0.00095240795566855813 0.071433480336990207 0 -0.0011882817371994924 0.071957610679293335 0 -0.0014623622092483565 0.071354666070917519 0 -0.00018117698390066758 0.072020458543116644 0 -0.00095240795566855813 0.071433480336990207 0 -0.00022709276047862422 0.082357755591369486 0 0.00044538093807688309 0.084636894961081233 0 -0.0014623622092483565 0.071354666070917519 0 -0.00018117698390066758 0.072020458543116644 0 0.0021570400948363786 0.071715795563373153 0 0.0019549011314981294 0.073226908701836957 0 0.0040698638810013248 0.072776283629443828 0 0.0022695350243127086 0.075346567828107322 0 -0.00018117698390066758 0.072020458543116644 0 0.0019549011314981294 0.073226908701836957 0 0.0006487480276379761 0.074280904507507087 0 -0.00018117698390066758 0.072020458543116644 0 0.0019549011314981294 0.073226908701836957 0 0.0021570400948363786 0.071715795563373153 0 -0.00018117698390066758 0.072020458543116644 0 -0.0012256349089299118 0.074008869192988519 0 0.0006487480276379761 0.074280904507507087 0 -0.00018117698390066758 0.072020458543116644 0 -0.0012256349089299118 0.074008869192988519 0 -0.0011882817371994924 0.071957610679293335 0 0.0024462815123929955 0.090576439738840595 0 0.00042067082738180889 0.094543525744403181 0 0.0020829842915487851 0.10002377616255065 0 0.0024462815123929955 0.090576439738840595 0 0.00010318699924830202 0.089431950744921648 0 0.00042067082738180889 0.094543525744403181 0 0.00042067082738180889 0.094543525744403181 0 -0.0018868038422376922 0.093469468397976263 0 -0.0011653057860511996 0.097026854559850079 0 0.00010318699924830202 0.089431950744921648 0 0.00042067082738180889 0.094543525744403181 0 -0.0018868038422376922 0.093469468397976263 0 0.0019549011314981294 0.073226908701836957 0 0.0021570400948363786 0.071715795563373153 0 0.0040698638810013248 0.072776283629443828 0 0.00044538093807688309 0.084636894961081233 0 0.00091220818529726708 0.086321665071568202 0 0.00091220818529726708 0.086321665071568202 0 0.001895105258208333 0.088190040083477528 0 0.00042067082738180889 0.094543525744403181 0 0.00097683252204557925 0.10042948757646809 0 0.0020829842915487851 0.10002377616255065 0 0.00042067082738180889 0.094543525744403181 0 -0.0011653057860511996 0.097026854559850079 0 0.00097683252204557925 0.10042948757646809 0 0.00097683252204557925 0.10042948757646809 0 0.0020829842915487851 0.10002377616255065 0 0.0016709064775928834 0.10091881879696522 0 0.0016709064775928834 0.10091881879696522 0 0.0016388004629433186 0.1008166056066659 0 0.001650881857948661 0.10116556545338169 0 0.00097683252204557925 0.10042948757646809 0 0.0016709064775928834 0.10091881879696522 0 0.0016388004629433186 0.1008166056066659 0 0.0040698638810013248 0.072776283629443828 0 0.0051517517959921433 0.077558290177730985 0 0.0022695350243127086 0.075346567828107322 0 0.00077014727090482396 0.1003340447832359 0 0.00097683252204557925 0.10042948757646809 0 0.0016388004629433186 0.1008166056066659 0 0.00077014727090482396 0.1003340447832359 0 0.0016388004629433186 0.1008166056066659 0 0.0022544035837976381 0.10092358116459539 0 0.00091220818529726708 0.086321665071568202 0 0.0026513148480107151 0.089202768229479298 0 0.0016388004629433186 0.1008166056066659 0 0.0022544035837976381 0.10092358116459539 0 0.0019702551055527455 0.100791855602903 0 0.0022544035837976381 0.10092358116459539 0 0.0019702551055527455 0.100791855602903 0 0.0022386604352175482 0.10019052282027312 0 0.0019702551055527455 0.100791855602903 0 0.0022386604352175482 0.10019052282027312 0 0.001650881857948661 0.10116556545338169 0 0.0016388004629433186 0.1008166056066659 0 0.0019702551055527455 0.100791855602903 0 0.001650881857948661 0.10116556545338169 0 -0.0012256349089299118 0.074008869192988519 0 8.5689357150254303e-05 0.075874791318614951 0 -0.0016274472732229826 0.077192243219012774 0 -0.0012256349089299118 0.074008869192988519 0 8.5689357150254303e-05 0.075874791318614951 0 0.0006487480276379761 0.074280904507507087 0 8.5689357150254303e-05 0.075874791318614951 0 0.0006487480276379761 0.074280904507507087 0 0.0022695350243127086 0.075346567828107322 0 0.0019549011314981294 0.073226908701836957 0 0.0006487480276379761 0.074280904507507087 0 0.0022695350243127086 0.075346567828107322 0 0.0051517517959921433 0.077558290177730985 0 0.0007205193456180796 0.079074367914952814 0 0.0020645434007546893 0.082975393354688481 0 8.5689357150254303e-05 0.075874791318614951 0 0.0022695350243127086 0.075346567828107322 0 0.0007205193456180796 0.079074367914952814 0 0.0051517517959921433 0.077558290177730985 0 0.0022695350243127086 0.075346567828107322 0 0.0007205193456180796 0.079074367914952814 0 8.5689357150254303e-05 0.075874791318614951 0 0.0007205193456180796 0.079074367914952814 0 -0.0016274472732229826 0.077192243219012774 0 0.0007205193456180796 0.079074367914952814 0 -0.0016274472732229826 0.077192243219012774 0 -0.0020739751039891784 0.080220284517970628 0 -0.0014733965495045513 0.083095280570213551 0 -0.0020739751039891784 0.080220284517970628 0 -0.0041041132912181255 0.082426262587770346 0 0.0007205193456180796 0.079074367914952814 0 -0.0014733965495045513 0.083095280570213551 0 -0.0020739751039891784 0.080220284517970628 0 0.0007205193456180796 0.079074367914952814 0 -0.0014733965495045513 0.083095280570213551 0 0.0020645434007546893 0.082975393354688481 0 0.0020645434007546893 0.082975393354688481 0 0.0058295311009684469 0.085081998918622129 0 0.0019550554837630893 0.089028349283861538 0 0.0020645434007546893 0.082975393354688481 0 -0.0019285022983687625 0.088649761284989789 0 0.0019550554837630893 0.089028349283861538 0 -0.0014733965495045513 0.083095280570213551 0 0.0020645434007546893 0.082975393354688481 0 -0.0019285022983687625 0.088649761284989789 0 -0.0014733965495045513 0.083095280570213551 0 -0.0019285022983687625 0.088649761284989789 0 -0.004189721487753352 0.085666360500223582 0 0.0022544035837976381 0.10092358116459539 0 0.0022386604352175482 0.10019052282027312 0 0.0039158782048556483 0.099256914014020453 0 0.0051517517959921433 0.077558290177730985 0 0.0020645434007546893 0.082975393354688481 0 0.0058295311009684469 0.085081998918622129 0 0.0026513148480107151 0.089202768229479298 0 0.0035680232708061054 0.091799171648264885 0 0.0039158782048556483 0.099256914014020453 0 0.0026670632048976751 0.098674633138688628 0 0.003327403612804862 0.096504352307265021 0 0.0026670632048976751 0.098674633138688628 0 0.0016933858858460501 0.099134483143680036 0 0.0025251015690771626 0.097400508727672253 0 0.0022386604352175482 0.10019052282027312 0 0.0026670632048976751 0.098674633138688628 0 0.0016933858858460501 0.099134483143680036 0 0.0022386604352175482 0.10019052282027312 0 0.0039158782048556483 0.099256914014020453 0 0.0026670632048976751 0.098674633138688628 0 0.0016933858858460501 0.099134483143680036 0 0.001328356001010902 0.10089974687673728 0 0.00069879647354126404 0.10002475475858842 0 0.0022386604352175482 0.10019052282027312 0 0.0016933858858460501 0.099134483143680036 0 0.001328356001010902 0.10089974687673728 0 0.001328356001010902 0.10089974687673728 0 0.00069879647354126404 0.10002475475858842 0 0.00041210886918015673 0.10145229867449818 0 0.0016933858858460501 0.099134483143680036 0 0.00069879647354126404 0.10002475475858842 0 0.00081649262228597821 0.098530722094253023 0 0.00069879647354126404 0.10002475475858842 0 -0.00032099026178550766 0.099274060963642316 0 0.00081649262228597821 0.098530722094253023 0 -0.00032099026178550766 0.099274060963642316 0 -0.0017373879429356193 0.10051945093846534 0 -9.8128787591070954e-05 0.10069708189156149 0 0.00069879647354126404 0.10002475475858842 0 -0.00032099026178550766 0.099274060963642316 0 -9.8128787591070954e-05 0.10069708189156149 0 -0.00014978281579280497 0.10308652123692467 0 0.00023985340417714422 0.10397063974825282 0 -6.5805313155202749e-05 0.10511384357712067 0 -1.1705350468847629e-07 0.10499807885682966 0 -6.076472751611232e-08 0.1050012954374875 0 -6.5805313155202749e-05 0.10511384357712067 0 2.6622794458485659e-05 0.10498929869664193 0 -6.076472751611232e-08 0.1050012954374875 0 -0.00032099026178550766 0.099274060963642316 0 -0.0017373879429356193 0.10051945093846534 0 -0.0019044635132239719 0.098397278057272233 0 -0.00014978281579280497 0.10308652123692467 0 -0.00022485611462357336 0.1031720077031314 0 -0.0017373879429356193 0.10051945093846534 0 -9.8128787591070954e-05 0.10069708189156149 0 -0.00019401447025349351 0.10212975971494943 0 -6.5805313155202749e-05 0.10511384357712067 0 -1.1705350468847629e-07 0.10499807885682966 0 -0.00045368996587373777 0.10412898962621732 0 -0.0017373879429356193 0.10051945093846534 0 -0.00019401447025349351 0.10212975971494943 0 -0.00045368996587373777 0.10412898962621732 0 0.00069879647354126404 0.10002475475858842 0 -9.8128787591070954e-05 0.10069708189156149 0 0.00041210886918015673 0.10145229867449818 0 -9.8128787591070954e-05 0.10069708189156149 0 -0.00019401447025349351 0.10212975971494943 0 0.00041210886918015673 0.10145229867449818 0 0.00041210886918015673 0.10145229867449818 0 0.00025650253207734793 0.10292449836603446 0 0.00083864270970959828 0.10190960214140378 0 -0.00019401447025349351 0.10212975971494943 0 0.00025650253207734793 0.10292449836603446 0 -0.00045368996587373777 0.10412898962621732 0 -0.00019401447025349351 0.10212975971494943 0 0.00041210886918015673 0.10145229867449818 0 0.00025650253207734793 0.10292449836603446 0 0.00025650253207734793 0.10292449836603446 0 -0.00045368996587373777 0.10412898962621732 0 -5.3377132789544654e-05 0.10395966116697625 0 -1.1705350468847629e-07 0.10499807885682966 0 -0.00045368996587373777 0.10412898962621732 0 -1.0740694600455246e-06 0.10499829826228455 0 -0.00045368996587373777 0.10412898962621732 0 -5.3377132789544654e-05 0.10395966116697625 0 -1.0740694600455246e-06 0.10499829826228455 0 -5.3377132789544654e-05 0.10395966116697625 0 -1.0740694600455246e-06 0.10499829826228455 0 0.0001736697452693645 0.10364961845028318 0 0.00044651437285052347 0.10277800339191422 0 0.0001736697452693645 0.10364961845028318 0 0.0007193754021491205 0.10233536059532665 0 0.00025650253207734793 0.10292449836603446 0 0.0001736697452693645 0.10364961845028318 0 0.0007193754021491205 0.10233536059532665 0 0.00025650253207734793 0.10292449836603446 0 -5.3377132789544654e-05 0.10395966116697625 0 0.0001736697452693645 0.10364961845028318 0 0.00058942010294296384 0.10177834353609491 0 0.0007193754021491205 0.10233536059532665 0 0.0013456982179266559 0.10132934337489651 0 0.0007193754021491205 0.10233536059532665 0 0.0012384810535427987 0.10158411504334124 0 0.00083864270970959828 0.10190960214140378 0 0.0007193754021491205 0.10233536059532665 0 0.0013456982179266559 0.10132934337489651 0 0.0012384810535427987 0.10158411504334124 0 0.0020829842915487851 0.10002377616255065 0 0.0016709064775928834 0.10091881879696522 0 0.0013456982179266559 0.10132934337489651 0 0.0016709064775928834 0.10091881879696522 0 0.0013456982179266559 0.10132934337489651 0 0.001650881857948661 0.10116556545338169 0 0.0013456982179266559 0.10132934337489651 0 0.0012384810535427987 0.10158411504334124 0 0.001650881857948661 0.10116556545338169 0 0.0022386604352175482 0.10019052282027312 0 0.001328356001010902 0.10089974687673728 0 0.001650881857948661 0.10116556545338169 0 0.001328356001010902 0.10089974687673728 0 0.0012384810535427987 0.10158411504334124 0 0.001650881857948661 0.10116556545338169 0 0.001328356001010902 0.10089974687673728 0 0.0012384810535427987 0.10158411504334124 0 0.00083864270970959828 0.10190960214140378 0 0.001328356001010902 0.10089974687673728 0 0.00041210886918015673 0.10145229867449818 0 0.00083864270970959828 0.10190960214140378 0 0.00025650253207734793 0.10292449836603446 0 0.0007193754021491205 0.10233536059532665 0 0.00083864270970959828 0.10190960214140378 0 0.00046998502989830418 0.059994586757364271 0 0.00060459150109451411 0.061668568627435263 0 -0.00033644494802930082 0.061258711980090884 0 0.00046998502989830418 0.059994586757364271 0 0.0011137271780527274 0.061501632984187586 0 0.00060459150109451411 0.061668568627435263 0 0.00046998502989830418 0.059994586757364271 0 -0.00033644494802930082 0.061258711980090884 0 -0.00038823958096464799 0.05947749469169241 0 0.00046998502989830418 0.059994586757364271 0 0.0011137271780527274 0.061501632984187586 0 0.0011084137313551619 0.060054805343734217 0 0.0011137271780527274 0.061501632984187586 0 0.0011084137313551619 0.060054805343734217 0 0.0013219754973201575 0.062205504102674211 0 0.0011084137313551619 0.060054805343734217 0 0.00041395095268956266 0.055893105035783493 0 6.9454315734134288e-07 0.05774935817805741 0 0.00046998502989830418 0.059994586757364271 0 0.0011084137313551619 0.060054805343734217 0 6.9454315734134288e-07 0.05774935817805741 0 0.00046998502989830418 0.059994586757364271 0 6.9454315734134288e-07 0.05774935817805741 0 -0.00038823958096464799 0.05947749469169241 0 0.00041395095268956266 0.055893105035783493 0 1.1100173174813517e-06 0.056585805388778714 0 1.3240265414583454e-06 0.050431991994327623 0 0.00041395095268956266 0.055893105035783493 0 1.1100173174813517e-06 0.056585805388778714 0 0.00073024591727613311 0.059875001322943197 0 0.0011084137313551619 0.060054805343734217 0 0.00041395095268956266 0.055893105035783493 0 0.00073024591727613311 0.059875001322943197 0 0.0011084137313551619 0.060054805343734217 0 0.00073024591727613311 0.059875001322943197 0 0.0010030939164347918 0.062968771492938488 0 0.00073024591727613311 0.059875001322943197 0 1.7216291364366427e-06 0.062736620320166941 0 0.0010030939164347918 0.062968771492938488 0 1.1100173174813517e-06 0.056585805388778714 0 0.00073024591727613311 0.059875001322943197 0 1.7216291364366427e-06 0.062736620320166941 0 1.7216291364366427e-06 0.062736620320166941 0 0.0010030939164347918 0.062968771492938488 0 0.00024273890453280772 0.066851287756317324 0 0.0010030939164347918 0.062968771492938488 0 0.0013219754973201575 0.062205504102674211 0 0.00041914983202385135 0.064727319166832886 0 0.0011084137313551619 0.060054805343734217 0 0.0010030939164347918 0.062968771492938488 0 0.0013219754973201575 0.062205504102674211 0 0.0011137271780527274 0.061501632984187586 0 0.0013219754973201575 0.062205504102674211 0 0.0012477924131985454 0.061909451950376747 0 0.0013219754973201575 0.062205504102674211 0 0.00041914983202385135 0.064727319166832886 0 0.0010494354886114719 0.062051617864021552 0 -0.0011931942978610276 0.061642905393380805 0 -0.0017886792338522477 0.061048037231128879 0 0.00041914983202385135 0.064727319166832886 0 -0.001808880917087008 0.068572100874222677 0 