<?xml version="1.0"?>
<VTKFile type="UnstructuredGrid" version="0.1" byte_order="LittleEndian">
<UnstructuredGrid>
<Piece NumberOfPoints="31898" NumberOfCells="11152">
<Points>
<DataArray type="Float64" NumberOfComponents="3" format="ascii">
-0.5 -0.5 0 -0.47620991077874902 -0.44978878706170539 0 -0.49999999999999473 -0.42132396840504388 0 -0.5 -0.5 0 -0.47160970827802529 -0.4793630013852106 0 -0.47620991077874902 -0.44978878706170539 0 -0.5 -0.5 0 -0.47160970827802529 -0.4793630013852106 0 -0.44860394795025399 -0.5 0 -0.47160970827802529 -0.4793630013852106 0 -0.44860394795025399 -0.5 0 -0.4490820238307246 -0.45820516232899983 0 -0.44860394795025399 -0.5 0 -0.4490820238307246 -0.45820516232899983 0 -0.42881687682924802 -0.47781464288736519 0 -0.4490820238307246 -0.45820516232899983 0 -0.45555437223955858 -0.42914059360647611 0 -0.4490820238307246 -0.45820516232899983 0 -0.45555437223955858 -0.42914059360647611 0 -0.43867285131603428 -0.4271457417558665 0 -0.4490820238307246 -0.45820516232899983 0 -0.43867285131603428 -0.4271457417558665 0 -0.4263356171060747 -0.44269880333887462 0 -0.47160970827802529 -0.4793630013852106 0 -0.4490820238307246 -0.45820516232899983 0 -0.47620991077874902 -0.44978878706170539 0 -0.4490820238307246 -0.45820516232899983 0 -0.47620991077874902 -0.44978878706170539 0 -0.45555437223955858 -0.42914059360647611 0 -0.47620991077874902 -0.44978878706170539 0 -0.48101336032419229 -0.41069999664450008 0 -0.45555437223955858 -0.42914059360647611 0 -0.47620991077874902 -0.44978878706170539 0 -0.49999999999999473 -0.42132396840504388 0 -0.48101336032419229 -0.41069999664450008 0 -0.49999999999999473 -0.42132396840504388 0 -0.48101336032419229 -0.41069999664450008 0 -0.5 -0.393886241813306 0 -0.49999999999999473 -0.42132396840504388 0 -0.48101336032419229 -0.41069999664450008 0 -0.5 -0.393886241813306 0 -0.47854472220918332 -0.38978458738689759 0 -0.48422759779560409 -0.37130120630367158 0 -0.5 -0.393886241813306 0 -0.5 -0.36644851522156802 0 -0.48422759779560409 -0.37130120630367158 0 -0.48101336032419229 -0.41069999664450008 0 -0.5 -0.393886241813306 0 -0.47854472220918332 -0.38978458738689759 0 -0.48101336032419229 -0.41069999664450008 0 -0.47854472220918332 -0.38978458738689759 0 -0.46202672064839212 -0.40007602488395211 0 -0.48101336032419229 -0.41069999664450008 0 -0.46202672064839212 -0.40007602488395211 0 -0.47854472220918332 -0.38978458738689759 0 -0.46725442735267431 -0.37660061361585562 0 -0.46202672064839212 -0.40007602488395211 0 -0.47854472220918332 -0.38978458738689759 0 -0.46725442735267431 -0.37660061361585562 0 -0.48422759779560409 -0.37130120630367158 0 -0.46725442735267431 -0.37660061361585562 0 -0.46202672064839212 -0.40007602488395211 0 -0.46725442735267431 -0.37660061361585562 0 -0.45645674801697989 -0.38644133236760531 0 -0.46202672064839212 -0.40007602488395211 0 -0.46725442735267431 -0.37660061361585562 0 -0.45645674801697989 -0.38644133236760531 0 -0.4540003998136638 -0.37455519391687309 0 -0.45645674801697989 -0.38644133236760531 0 -0.46202672064839212 -0.40007602488395211 0 -0.44257020456291563 -0.38918913383950271 0 -0.46202672064839212 -0.40007602488395211 0 -0.44257020456291563 -0.38918913383950271 0 -0.44727608925983742 -0.41095911152778891 0 -0.46202672064839212 -0.40007602488395211 0 -0.44257020456291563 -0.38918913383950271 0 -0.44257020456291563 -0.38918913383950271 0 -0.44727608925983742 -0.41095911152778891 0 -0.43479358559901082 -0.4041454901736512 0 -0.44257020456291563 -0.38918913383950271 0 -0.4540003998136638 -0.37455519391687309 0 -0.44172858264042247 -0.37082207246888088 0 -0.45645674801697989 -0.38644133236760531 0 -0.44257020456291563 -0.38918913383950271 0 -0.4540003998136638 -0.37455519391687309 0 -0.46202672064839212 -0.40007602488395211 0 -0.45555437223955858 -0.42914059360647611 0 -0.44727608925983742 -0.41095911152778891 0 -0.46202672064839212 -0.40007602488395211 0 -0.45555437223955858 -0.42914059360647611 0 -0.48101336032419229 -0.41069999664450008 0 -0.46202672064839212 -0.40007602488395211 0 -0.45555437223955858 -0.42914059360647611 0 -0.44727608925983742 -0.41095911152778891 0 -0.43867285131603428 -0.4271457417558665 0 -0.43676601469929588 -0.41441201227470881 0 -0.44727608925983742 -0.41095911152778891 0 -0.43676601469929588 -0.41441201227470881 0 -0.43479358559901082 -0.4041454901736512 0 -0.45555437223955858 -0.42914059360647611 0 -0.44727608925983742 -0.41095911152778891 0 -0.43867285131603428 -0.4271457417558665 0 -0.43867285131603428 -0.4271457417558665 0 -0.42681803064840879 -0.42717069814352421 0 -0.4263356171060747 -0.44269880333887462 0 -0.42681803064840879 -0.42717069814352421 0 -0.41531815884496182 -0.42985383783075998 0 -0.4263356171060747 -0.44269880333887462 0 -0.42681803064840879 -0.42717069814352421 0 -0.42624289495594048 -0.42089725947505818 0 -0.42083332353326591 -0.42146747131641099 0 -0.42681803064840879 -0.42717069814352421 0 -0.43096994786351572 -0.41951492446283251 0 -0.42624289495594048 -0.42089725947505818 0 -0.43867285131603428 -0.4271457417558665 0 -0.42681803064840879 -0.42717069814352421 0 -0.43096994786351572 -0.41951492446283251 0 -0.43867285131603428 -0.4271457417558665 0 -0.43676601469929588 -0.41441201227470881 0 -0.43096994786351572 -0.41951492446283251 0 -0.43676601469929588 -0.41441201227470881 0 -0.43096994786351572 -0.41951492446283251 0 -0.42907264086257813 -0.41311715872526122 0 -0.43676601469929588 -0.41441201227470881 0 -0.42907264086257813 -0.41311715872526122 0 -0.43479358559901082 -0.4041454901736512 0 -0.42907264086257813 -0.41311715872526122 0 -0.43479358559901082 -0.4041454901736512 0 -0.42460885511582858 -0.40417321677700252 0 -0.42907264086257813 -0.41311715872526122 0 -0.41997834854398469 -0.41180534796019508 0 -0.42907264086257813 -0.41311715872526122 0 -0.42635027777857132 -0.41543594397746519 0 -0.41997834854398469 -0.41180534796019508 0 -0.42907264086257813 -0.41311715872526122 0 -0.41997834854398469 -0.41180534796019508 0 -0.42460885511582858 -0.40417321677700252 0 -0.42635027777857132 -0.41543594397746519 0 -0.41997834854398469 -0.41180534796019508 0 -0.42635027777857132 -0.41543594397746519 0 -0.42083332353326591 -0.42146747131641099 0 -0.41997834854398469 -0.41180534796019508 0 -0.43096994786351572 -0.41951492446283251 0 -0.42624289495594048 -0.42089725947505818 0 -0.42635027777857132 -0.41543594397746519 0 -0.43096994786351572 -0.41951492446283251 0 -0.42907264086257813 -0.41311715872526122 0 -0.42635027777857132 -0.41543594397746519 0 -0.42624289495594048 -0.42089725947505818 0 -0.42635027777857132 -0.41543594397746519 0 -0.42083332353326591 -0.42146747131641099 0 -0.42083332353326591 -0.42146747131641099 0 -0.41997834854398469 -0.41180534796019508 0 -0.40992282953163789 -0.42011435591993562 0 -0.41997834854398469 -0.41180534796019508 0 -0.39756877647335259 -0.40857286797681719 0 -0.41997834854398469 -0.41180534796019508 0 -0.40992282953163789 -0.42011435591993562 0 -0.39756877647335259 -0.40857286797681719 0 -0.40992282953163789 -0.42011435591993562 0 -0.41531815884496182 -0.42985383783075998 0 -0.39591554026262499 -0.42887225451549271 0 -0.41531815884496182 -0.42985383783075998 0 -0.39591554026262499 -0.42887225451549271 0 -0.41160927495564159 -0.44339431233754628 0 -0.42083332353326591 -0.42146747131641099 0 -0.40992282953163789 -0.42011435591993562 0 -0.41531815884496182 -0.42985383783075998 0 -0.42681803064840879 -0.42717069814352421 0 -0.42083332353326591 -0.42146747131641099 0 -0.41531815884496182 -0.42985383783075998 0 -0.44257020456291563 -0.38918913383950271 0 -0.42311368847744002 -0.37830224279505142 0 -0.42594061475171041 -0.39368797999533162 0 -0.44257020456291563 -0.38918913383950271 0 -0.42311368847744002 -0.37830224279505142 0 -0.44172858264042247 -0.37082207246888088 0 -0.44257020456291563 -0.38918913383950271 0 -0.42311368847744002 -0.37830224279505142 0 -0.42311368847744002 -0.37830224279505142 0 -0.42594061475171041 -0.39368797999533162 0 -0.416587075656149 -0.38785930376960043 0 -0.44257020456291563 -0.38918913383950271 0 -0.42594061475171041 -0.39368797999533162 0 -0.43479358559901082 -0.4041454901736512 0 -0.42594061475171041 -0.39368797999533162 0 -0.43479358559901082 -0.4041454901736512 0 -0.42460885511582858 -0.40417321677700252 0 -0.41997834854398469 -0.41180534796019508 0 -0.41325908582185972 -0.39811010703057192 0 -0.39770572831670092 -0.39911486077581648 0 -0.41997834854398469 -0.41180534796019508 0 -0.39770572831670092 -0.39911486077581648 0 -0.42594061475171041 -0.39368797999533162 0 -0.42460885511582858 -0.40417321677700252 0 -0.41325908582185972 -0.39811010703057192 0 -0.41997834854398469 -0.41180534796019508 0 -0.42460885511582858 -0.40417321677700252 0 -0.41325908582185972 -0.39811010703057192 0 -0.42594061475171041 -0.39368797999533162 0 -0.41325908582185972 -0.39811010703057192 0 -0.416587075656149 -0.38785930376960043 0 -0.41325908582185972 -0.39811010703057192 0 -0.416587075656149 -0.38785930376960043 0 -0.40403491357358612 -0.38133688525744702 0 -0.42311368847744002 -0.37830224279505142 0 -0.40403491357358612 -0.38133688525744702 0 -0.40365717239196519 -0.36741535175059892 0 -0.42311368847744002 -0.37830224279505142 0 -0.416587075656149 -0.38785930376960043 0 -0.40403491357358612 -0.38133688525744702 0 -0.40403491357358612 -0.38133688525744702 0 -0.39190790742475001 -0.38540387676521748 0 -0.39770572831670092 -0.39911486077581648 0 -0.40403491357358612 -0.38133688525744702 0 -0.39190790742475001 -0.38540387676521748 0 -0.3904578797192948 -0.37473938743617019 0 -0.41325908582185972 -0.39811010703057192 0 -0.40403491357358612 -0.38133688525744702 0 -0.39770572831670092 -0.39911486077581648 0 -0.39770572831670092 -0.39911486077581648 0 -0.37543310808941849 -0.38642437359143528 0 -0.39770572831670092 -0.39911486077581648 0 -0.37515920440272033 -0.40534038799344108 0 -0.37543310808941849 -0.38642437359143528 0 -0.39770572831670092 -0.39911486077581648 0 -0.37515920440272033 -0.40534038799344108 0 -0.39756877647335259 -0.40857286797681719
[...]
<PointData Scalars="" Vectors="displacement," Tensors="">
<DataArray type="Float64" Name="displacement" NumberOfComponents="3" format="ascii">
-0.034997489589941921 -0.034998033430038676 0 -0.032632121906572435 -0.034380835931767391 0 -0.029503257940904085 -0.034995340252372206 0 -0.034997489589941921 -0.034998033430038676 0 -0.034446046930485724 -0.033728853100908389 0 -0.032632121906572435 -0.034380835931767391 0 -0.034997489589941921 -0.034998033430038676 0 -0.034446046930485724 -0.033728853100908389 0 -0.034998038004409322 -0.031405316410550804 0 -0.034446046930485724 -0.033728853100908389 0 -0.034998038004409322 -0.031405316410550804 0 -0.03466480368492058 -0.033257840243337326 0 -0.034998038004409322 -0.031405316410550804 0 -0.03466480368492058 -0.033257840243337326 0 -0.035115993934449259 -0.030757014518966654 0 -0.033452215761080477 -0.03424654230786868 0 -0.033116527688200587 -0.034348491692123798 0 -0.03466480368492058 -0.033257840243337326 0 -0.037763596149002258 -0.033630184540029175 0 -0.038003443410752756 -0.032064269931428878 0 -0.03466480368492058 -0.033257840243337326 0 -0.038003443410752756 -0.032064269931428878 0 -0.03669130733468786 -0.030878043973212508 0 -0.034446046930485724 -0.033728853100908389 0 -0.03466480368492058 -0.033257840243337326 0 -0.032632121906572435 -0.034380835931767391 0 -0.03466480368492058 -0.033257840243337326 0 -0.032632121906572435 -0.034380835931767391 0 -0.031839463439170969 -0.034992904238833895 0 -0.032632121906572435 -0.034380835931767391 0 -0.03035984167047345 -0.03463079034166603 0 -0.031839463439170969 -0.034992904238833895 0 -0.032632121906572435 -0.034380835931767391 0 -0.029503257940904085 -0.034995340252372206 0 -0.03035984167047345 -0.03463079034166603 0 -0.02949266994569353 -0.034999996682951381 0 -0.028747805817111095 -0.036321585277025489 0 -0.027572040391234138 -0.034999995278826197 0 -0.029493748848409638 -0.034999992533099003 0 -0.029906823397466122 -0.03485434031215582 0 -0.027572040391234138 -0.034999995278826197 0 -0.02728688630445093 -0.036493038043469248 0 -0.025993106073532644 -0.036097872852199467 0 -0.027572040391234138 -0.034999995278826197 0 -0.025651398305485556 -0.034999994482729078 0 -0.025993106073532644 -0.036097872852199467 0 -0.028747805817111095 -0.036321585277025489 0 -0.027572040391234138 -0.034999995278826197 0 -0.02728688630445093 -0.036493038043469248 0 -0.028747805817111095 -0.036321585277025489 0 -0.02728688630445093 -0.036493038043469248 0 -0.028007650467674901 -0.037639962955615995 0 -0.029906823397466122 -0.03485434031215582 0 -0.03062202523787692 -0.034185746508161245 0 -0.02728688630445093 -0.036493038043469248 0 -0.026365960292940444 -0.037279205075451433 0 -0.028007650467674901 -0.037639962955615995 0 -0.02728688630445093 -0.036493038043469248 0 -0.026365960292940444 -0.037279205075451433 0 -0.025993106073532644 -0.036097872852199467 0 -0.0269951683461509 -0.034889610560277361 0 -0.03062202523787692 -0.034185746508161245 0 -0.023935195096433045 -0.036976056714716876 0 -0.023832785488760083 -0.036910291594849806 0 -0.023731538544523229 -0.036954076336623204 0 -0.023935195096433045 -0.036976056714716876 0 -0.023832785488760083 -0.036910291594849806 0 -0.023894091089861326 -0.036909888390960877 0 -0.023832785488760083 -0.036910291594849806 0 -0.023731538544523229 -0.036954076336623204 0 -0.023791277308364497 -0.036801496334344132 0 -0.040026799943077271 -0.03386313743731538 0 -0.040703446358245188 -0.032356139315476345 0 -0.039228445245948089 -0.032775918587284389 0 -0.03062202523787692 -0.034185746508161245 0 -0.030592499568584865 -0.033404325622533815 0 -0.040703446358245188 -0.032356139315476345 0 -0.039228445245948089 -0.032775918587284389 0 -0.039699025898956436 -0.031810515651198551 0 -0.023791277308364497 -0.036801496334344132 0 -0.023894091089861326 -0.036909888390960877 0 -0.023910335653506355 -0.036795658691854222 0 -0.023832785488760083 -0.036910291594849806 0 -0.023791277308364497 -0.036801496334344132 0 -0.023894091089861326 -0.036909888390960877 0 -0.040026799943077271 -0.03386313743731538 0 -0.037763596149002258 -0.033630184540029175 0 -0.039228445245948089 -0.032775918587284389 0 -0.03062202523787692 -0.034185746508161245 0 -0.033116527688200587 -0.034348491692123798 0 -0.03035984167047345 -0.03463079034166603 0 -0.03020193557983003 -0.035160095052364067 0 -0.031839463439170969 -0.034992904238833895 0 -0.039228445245948089 -0.032775918587284389 0 -0.038003443410752756 -0.032064269931428878 0 -0.038984471654733656 -0.03193872763295575 0 -0.039228445245948089 -0.032775918587284389 0 -0.038984471654733656 -0.03193872763295575 0 -0.039699025898956436 -0.031810515651198551 0 -0.037763596149002258 -0.033630184540029175 0 -0.039228445245948089 -0.032775918587284389 0 -0.038003443410752756 -0.032064269931428878 0 -0.038003443410752756 -0.032064269931428878 0 -0.037972697938148808 -0.031040471444517576 0 -0.03669130733468786 -0.030878043973212508 0 -0.037972697938148808 -0.031040471444517576 0 -0.037747378972826713 -0.030088720348565932 0 -0.03669130733468786 -0.030878043973212508 0 -0.037972697938148808 -0.031040471444517576 0 -0.038477614335551108 -0.031031015172537434 0 -0.038425168346715041 -0.030565458841314987 0 -0.037972697938148808 -0.031040471444517576 0 -0.03859490441952617 -0.031450116029885081 0 -0.038477614335551108 -0.031031015172537434 0 -0.038003443410752756 -0.032064269931428878 0 -0.037972697938148808 -0.031040471444517576 0 -0.03859490441952617 -0.031450116029885081 0 -0.038003443410752756 -0.032064269931428878 0 -0.038984471654733656 -0.03193872763295575 0 -0.03859490441952617 -0.031450116029885081 0 -0.038984471654733656 -0.03193872763295575 0 -0.03859490441952617 -0.031450116029885081 0 -0.039119366060321764 -0.031354121485864674 0 -0.038984471654733656 -0.03193872763295575 0 -0.039119366060321764 -0.031354121485864674 0 -0.039699025898956436 -0.031810515651198551 0 -0.039119366060321764 -0.031354121485864674 0 -0.039699025898956436 -0.031810515651198551 0 -0.039689226660675474 -0.031139005160163036 0 -0.036740277571167469 -0.028326523926854905 0 -0.036716757290920478 -0.028149571011398911 0 -0.039119366060321764 -0.031354121485864674 0 -0.038918711827305892 -0.031070479525174222 0 -0.039285018674379453 -0.030435606875964073 0 -0.039119366060321764 -0.031354121485864674 0 -0.039243733656310592 -0.03085815168290568 0 -0.039689226660675474 -0.031139005160163036 0 -0.036722177597028727 -0.028213929913582837 0 -0.036716757290920478 -0.028149571011398911 0 -0.038918711827305892 -0.031070479525174222 0 -0.038425168346715041 -0.030565458841314987 0 -0.03922119641633677 -0.030495817025794507 0 -0.03859490441952617 -0.031450116029885081 0 -0.038477614335551108 -0.031031015172537434 0 -0.038918711827305892 -0.031070479525174222 0 -0.03859490441952617 -0.031450116029885081 0 -0.039119366060321764 -0.031354121485864674 0 -0.038918711827305892 -0.031070479525174222 0 -0.038477614335551108 -0.031031015172537434 0 -0.038918711827305892 -0.031070479525174222 0 -0.038425168346715041 -0.030565458841314987 0 -0.038425168346715041 -0.030565458841314987 0 -0.03922119641633677 -0.030495817025794507 0 -0.038533635159009705 -0.029668654160133499 0 -0.036716757290920478 -0.028149571011398911 0 -0.036969988668071295 -0.027268636387053832 0 -0.03922119641633677 -0.030495817025794507 0 -0.038533635159009705 -0.029668654160133499 0 -0.039449712725596137 -0.028678907207277112 0 -0.038533635159009705 -0.029668654160133499 0 -0.037747378972826713 -0.030088720348565932 0 -0.037839703901671018 -0.028552539631478042 0 -0.037747378972826713 -0.030088720348565932 0 -0.037839703901671018 -0.028552539631478042 0 -0.036703437842799738 -0.02978858154613289 0 -0.038425168346715041 -0.030565458841314987 0 -0.038533635159009705 -0.029668654160133499 0 -0.037747378972826713 -0.030088720348565932 0 -0.037972697938148808 -0.031040471444517576 0 -0.038425168346715041 -0.030565458841314987 0 -0.037747378972826713 -0.030088720348565932 0 -0.040703446358245188 -0.032356139315476345 0 -0.041203285837378402 -0.031067197654560445 0 -0.040333287626795486 -0.031242696122219641 0 -0.023791277308364497 -0.036801496334344132 0 -0.023845310857447996 -0.03660882838567707 0 -0.023910335653506355 -0.036795658691854222 0 -0.030592499568584865 -0.033404325622533815 0 -0.030327272435935505 -0.03217905439656446 0 -0.041203285837378402 -0.031067197654560445 0 -0.040333287626795486 -0.031242696122219641 0 -0.040637171026078493 -0.030688104059023509 0 -0.040703446358245188 -0.032356139315476345 0 -0.040333287626795486 -0.031242696122219641 0 -0.039699025898956436 -0.031810515651198551 0 -0.040333287626795486 -0.031242696122219641 0 -0.039699025898956436 -0.031810515651198551 0 -0.039689226660675474 -0.031139005160163036 0 -0.039243733656310592 -0.03085815168290568 0 -0.040053603610914777 -0.030489846968337342 0 -0.040017654511744709 -0.029640034366435874 0 -0.036716757290920478 -0.028149571011398911 0 -0.036350789398025773 -0.027178305141288678 0 -0.040333287626795486 -0.031242696122219641 0 -0.039689226660675474 -0.031139005160163036 0 -0.040053603610914777 -0.030489846968337342 0 -0.039243733656310592 -0.03085815168290568 0 -0.039689226660675474 -0.031139005160163036 0 -0.040053603610914777 -0.030489846968337342 0 -0.040333287626795486 -0.031242696122219641 0 -0.040053603610914777 -0.030489846968337342 0 -0.040637171026078493 -0.030688104059023509 0 -0.040053603610914777 -0.030489846968337342 0 -0.040637171026078493 -0.030688104059023509 0 -0.040954009536653686 -0.029966724279535274 0 -0.041203285837378402 -0.031067197654560445 0 -0.040954009536653686 -0.029966724279535274 0 -0.041744553913622057 -0.029947124648817401 0 -0.041203285837378402 -0.031067197654560445 0 -0.040637171026078493 -0.030688104059023509 0 -0.040954009536653686 -0.029966724279535274 0 -0.040954009536653686 -0.029966724279535274 0 -0.040717060265842653 -0.029369820402231288 0 -0.040017654511744709 -0.029640034366435874 0 -0.040954009536653686 -0.029966724279535274 0 -0.040717060265842653 -0.029369820402231288 0 -0.041219034125307939 -0.029306744025143282 0 -0.040053603610914777 -0.030489846968337342 0 -0.040954009536653686 -0.029966724279535274 0 -0.040017654511744709 -0.029640034366435874 0 -0.036350789398025773 -0.027178305141288678 0 -0.035400261834529496 -0.025950004633486162 0 -0.036706152719681785 -0.026805848114513489 0 -0.036471687443654595 -0.025956590972344689 0 -0.037180279045359289 -0.025966302740114515 0 -0.036706152719681785 -0.026805848114513489 0 -0.036471687443654595 -0.025956590972344689 0 -0.036350960551155352 -0.026801118146350163 0 -0.037058549061721881 -0.026025307673158454 0 -0.035400261834529496 -0.025950004633486162 0 -0.040666316999540993 -0.028585753945263057 0 -0.041219034125307939 -0.029306744025143282 0 -0.041461057352564119 -0.028621254860758737 0 -0.040717060265842653 -0.029369820402231288 0 -0.040666316999540993 -0.028585753945263057 0 -0.041219034125307939 -0.029306744025143282 0 -0.035400261834529496 -0.025950004633486162 0 -0.03306999440740515 -0.026668106110989045 0 -0.040717060265842653 -0.029369820402231288 0 -0.040017654511744709 -0.029640034366435874 0 -0.040666316999540993 -0.028585753945263057 0 -0.036231127063564045 -0.027647097802886638 0 -0.036706152719681785 -0.026805848114513489 0 -0.036350960551155352 -0.026801118146350163 0 -0.038533635159009705 -0.029668654160133499 0 -0.037839703901671018 -0.028552539631478042 0 -0.039449712725596137 -0.028678907207277112 0 -0.039698155095864981 -0.026909489587444567 0 -0.037839703901671018 -0.028552539631478042 0 -0.039449712725596137 -0.028678907207277112 0 -0.037058549061721881 -0.026025307673158454 0 -0.036969988668071295 -0.027268636387053832 0 -0.039698155095864981 -0.026909489587444567 0 -0.037839703901671018 -0.028552539631478042 0 -0.037322911479997375 -0.026883201262277879 0 -0.037839703901671018 -0.028552539631478042 0 -0.036453565622101163 -0.028322696389284793 0 -0.037322911479997375 -0.026883201262277879 0 -0.036453565622101163 -0.028322696389284793 0 -0.034962882697105575 -0.026851515212103352 0 -0.037322911479997375 -0.026883201262277879 0 -0.037839703901671018 -0.028552539631478042 0 -0.036453565622101163 -0.028322696389284793 0 -0.036703437842799738 -0.02978858154613289 0 -0.036453565622101163 -0.028322696389284793 0 -0.035592334991267217 -0.029182738226234402 0 -0.036703437842799738 -0.02978858154613289 0 -0.036057869863494435 -0.029297006770827253 0 -0.035604986741188845 -0.028161923764813877 0 -0.035589262751843188 -0.029610720459151564 0 -0.03790999269519902 -0.028216947404592907 0 -0.037638442865927199 -0.02721237504503907 0 -0.036468812616533987 -0.027442757421462276 0 -0.036610792376641818 -0.027446412515497957 0 -0.035841589921112672 -0.027142066333183838 0 -0.036610792376641818 -0.027446412515497957 0 -0.03661172173356584 -0.027455500759714983 0 -0.036610792376641818 -0.027446412515497957 0 -0.036646754000385515 -0.027007823056554005 0 -0.036453565622101163 -0.028322696389284793 0 -0.035592334991267217 -0.029182738226234402 0 -0.035277932086289161 -0.028016219851473404 0 -0.036453565622101163 -0.028322696389284793 0 -0.035277932086289161 -0.028016219851473404 0 -0.034962882697105575 -0.026851515212103352 0 -0.036646754000385515 -0.027007823056554005 0 -0.036657128629312336 -0.026347445780587671 0 -0.037638442865927199 -0.02721237504503907 0 -0.036957090052949761 -0.026848684240463019 0 -0.037366797429964869 -0.026200824700350903 0 -0.036957090052949761 -0.026848684240463019 0 -0.036468812616533987 -0.027442757421462276 0 -0.036567374260450224 -0.026185588171368995 0 -0.036468812616533987 -0.027442757421462276 0 -0.035710495474429928 -0.02606705423171508 0 -0.036567374260450224 -0.026185588171368995 0 -0.036957090052949761 -0.026848684240463019 0 -0.036567374260450224 -0.026185588171368995 0 -0.037366797429964869 -0.026200824700350903 0 -0.037638442865927199 -0.02721237504503907 0 -0.036957090052949761 -0.026848684240463019 0 -0.036468812616533987 -0.027442757421462276 0 -0.035001047223182355 -0.026666986000047695 0 -0.035841589921112672 -0.027142066333183838 0 -0.035000003138405407 -0.026666261694122843 0 -0.036468812616533987 -0.027442757421462276 0 -0.035710495474429928 -0.02606705423171508 0 -0.034999886522148721 -0.026667488618568172 0 -0.035604986741188845 -0.028161923764813877 0 -0.03499913355496781 -0.028699059379458988 0 -0.035604986741188845 -0.028161923764813877 0 -0.035589262751843188 -0.029610720459151564 0 -0.03499913355496781 -0.028699059379458988 0 -0.035589262751843188 -0.029610720459151564 0 -0.03499913355496781 -0.028699059379458988 0 -0.035115993934449259 -0.030757014518966654 0 -0.034998038004409322 -0.031405316410550804 0 -0.03499913355496781 -0.028699059379458988 0 -0.035115993934449259 -0.030757014518966654 0 -0.035589262751843188 -0.029610720459151564 0 -0.035115993934449259 -0.030757014518966654 0 -0.035532212117259057 -0.030830439482526641 0 -0.03466480368492058 -0.033257840243337326 0 -0.035115993934449259 -0.030757014518966654 0 -0.035532212117259057 -0.030830439482526641 0 -0.03466480368492058 -0.033257840243337326 0 -0.035532212117259057 -0.030830439482526641 0 -0.03669130733468786 -0.030878043973212508 0 -0.035532212117259057 -0.030830439482526641 0 -0.03669130733468786 -0.030878043973212508 0 -0.036071237104412422 -0.03008083866995849 0 -0.03669130733468786 -0.030878043973212508 0 -0.036703437842799738 -0.02978858154613289 0 -0.036071237104412422 -0.03008083866995849 0 -0.037747378972826713 -0.030088720348565932 0 -0.03669130733468786 -0.030878043973212508 0 -0.036703437842799738 -0.02978858154613289 0 -0.036019702971069954 -0.029301041676874157 0 -0.036703437842799738 -0.02978858154613289 0 -0.036051225099851571 -0.029440203451603624 0 -0.036703437842799738 -0.02978858154613289 0 -0.036051225099851571 -0.029440203451603624 0 -0.036071237104412422 -0.03008083866995849 0 -0.036610792376641818 -0.027446412515497957 0 -0.036691134852398576 -0.027605444070678994 0 -0.035589262751843188 -0.029610720459151564 0 -0.036051225099851571 -0.029440203451603624 0 -0.036071237104412422 -0.03008083866995849 0 -0.036057869863494435 -0.029297006770827253 0 -0.035589262751843188 -0.029610720459151564 0 -0.036051225099851571 -0.029440203451603624 0 -0.035589262751843188 -0.029610720459151564 0 -0.035532212117259057 -0.030830439482526641 0 -0.036071237104412422 -0.03008083866995849 0 -0.014768309197319902 -0.035738113247916779 0 -0.013954636528830359 -0.033727498846371544 0 -0.017651550869855235 -0.037831906218769328 0 -0.01755599338244497 -0.039956097925665963 0 -0.016429503924922671 -0.038340923226245348 0 -0.019245047772543333 -0.038258974729649106 0 -0.017939707992967086 -0.037826940149069087 0 -0.017831088378912684 -0.039298407994778552 0 -0.019245047772543333 -0.038258974729649106 0 -0.019175027633008827 -0.039538541693850911 0 -0.017831088378912684 -0.039298407994778552 0 -0.019245047772543333 -0.038258974729649106 0 -0.020435661277871945 -0.038808811425658306 0 -0.019175027633008827 -0.039538541693850911 0 -0.019245047772543333 -0.038258974729649106 0 -0.018745050467027173 -0.03712693816153266 0 -0.019781614117101696 -0.036997175940135636 0 -0.019245047772543333 -0.038258974729649106 0 -0.018745050467027173 -0.03712693816153266 0 -0.017939707992967086 -0.037826940149069087 0 -0.014768309197319902 -0.035738113247916779 0 -0.015053515815125358 -0.035983816236416034 0 -0.018745050467027173 -0.03712693816153266 0 -0.017939707992967086 -0.037826940149069087 0 -0.017964389162047009 -0.036291673535924378 0 -0.017651550869855235 -0.037831906218769328 0 -0.017964389162047009 -0.036291673535924378 0 -0.016179028746062439 -0.036682513011413669 0 -0.017964389162047009 -0.036291673535924378 0 -0.017968702149882415 -0.034999699225384012 0 -0.019157274749647707 -0.036028431820286658 0 -0.017964389162047009 -0.036291673535924378 0 -0.017968702149882415 -0.034999699225384012 0 -0.016806041582156078 -0.035685618197438769 0 -0.017968702149882415 -0.034999699225384012 0 -0.019157274749647707 -0.036028431820286658 0 -0.019889419870121862 -0.034999964438331019 0 -0.018745050467027173 -0.03712693816153266 0 -0.017964389162047009 -0.036291673535924378 0 -0.019157274749647707 -0.036028431820286658 0 -0.018745050467027173 -0.03712693816153266 0 -0.019157274749647707 -0.036028431820286658 0 -0.019781614117101696 -0.036997175940135636 0 -0.019781614117101696 -0.036997175940135636 0 -0.020405529826122877 -0.035921872176283717 0 -0.020846009118565826 -0.03683632320641974 0 -0.019157274749647707 -0.036028431820286658 0 -0.019781614117101696 -0.036997175940135636 0 -0.020405529826122877 -0.035921872176283717 0 -0.019889419870121862 -0.034999964438331019 0 -0.020405529826122877 -0.035921872176283717 0 -0.021810031323077586 -0.034999946181719213 0 -0.019157274749647707 -0.036028431820286658 0 -0.019889419870121862 -0.034999964438331019 0 -0.020405529826122877 -0.035921872176283717 0 -0.020405529826122877 -0.035921872176283717 0 -0.021810031323077586 -0.034999946181719213 0 -0.021386635085423624 -0.036132963746324444 0 -0.021386635085423624 -0.036132963746324444 0 -0.020846009118565826 -0.03683632320641974 0 -0.021932845752877621 -0.036797786480277837 0 -0.020405529826122877 -0.035921872176283717 0 -0.021386635085423624 -0.036132963746324444 0 -0.020846009118565826 -0.03683632320641974 0 -0.020846009118565826 -0.03683632320641974 0 -0.021378755801243442 -0.037502445654600876 0 -0.021932845752877621 -0.036797786480277837 0 -0.021378755801243442 -0.037502445654600876 0 -0.02116298565760525 -0.03839323740431716 0 -0.021855063241942602 -0.038046412110023353 0 -0.021378755801243442 -0.037502445654600876 0 -0.020454909140530608 -0.037793474260367388 0 -0.02116298565760525 -0.03839323740431716 0 -0.020846009118565826 -0.03683632320641974 0 -0.021378755801243442 -0.037502445654600876 0 -0.020454909140530608 -0.037793474260367388 0 -0.019245047772543333 -0.038258974729649106 0 -0.019781614117101696 -0.036997175940135636 0 -0.020454909140530608 -0.037793474260367388 0 -0.019781614117101696 -0.03699717594