<?xml version="1.0"?>
<VTKFile type="UnstructuredGrid" version="0.1" byte_order="LittleEndian">
<UnstructuredGrid>
<Piece NumberOfPoints="31898" NumberOfCells="11152">
<Points>
<DataArray type="Float64" NumberOfComponents="3" format="ascii">
-0.5 -0.5 0 -0.47620991077874902 -0.44978878706170539 0 -0.49999999999999473 -0.42132396840504388 0 -0.5 -0.5 0 -0.47160970827802529 -0.4793630013852106 0 -0.47620991077874902 -0.44978878706170539 0 -0.5 -0.5 0 -0.47160970827802529 -0.4793630013852106 0 -0.44860394795025399 -0.5 0 -0.47160970827802529 -0.4793630013852106 0 -0.44860394795025399 -0.5 0 -0.4490820238307246 -0.45820516232899983 0 -0.44860394795025399 -0.5 0 -0.4490820238307246 -0.45820516232899983 0 -0.42881687682924802 -0.47781464288736519 0 -0.4490820238307246 -0.45820516232899983 0 -0.45555437223955858 -0.42914059360647611 0 -0.4490820238307246 -0.45820516232899983 0 -0.45555437223955858 -0.42914059360647611 0 -0.43867285131603428 -0.4271457417558665 0 -0.4490820238307246 -0.45820516232899983 0 -0.43867285131603428 -0.4271457417558665 0 -0.4263356171060747 -0.44269880333887462 0 -0.47160970827802529 -0.4793630013852106 0 -0.4490820238307246 -0.45820516232899983 0 -0.47620991077874902 -0.44978878706170539 0 -0.4490820238307246 -0.45820516232899983 0 -0.47620991077874902 -0.44978878706170539 0 -0.45555437223955858 -0.42914059360647611 0 -0.47620991077874902 -0.44978878706170539 0 -0.48101336032419229 -0.41069999664450008 0 -0.45555437223955858 -0.42914059360647611 0 -0.47620991077874902 -0.44978878706170539 0 -0.49999999999999473 -0.42132396840504388 0 -0.48101336032419229 -0.41069999664450008 0 -0.49999999999999473 -0.42132396840504388 0 -0.48101336032419229 -0.41069999664450008 0 -0.5 -0.393886241813306 0 -0.49999999999999473 -0.42132396840504388 0 -0.48101336032419229 -0.41069999664450008 0 -0.5 -0.393886241813306 0 -0.47854472220918332 -0.38978458738689759 0 -0.48422759779560409 -0.37130120630367158 0 -0.5 -0.393886241813306 0 -0.5 -0.36644851522156802 0 -0.48422759779560409 -0.37130120630367158 0 -0.48101336032419229 -0.41069999664450008 0 -0.5 -0.393886241813306 0 -0.47854472220918332 -0.38978458738689759 0 -0.48101336032419229 -0.41069999664450008 0 -0.47854472220918332 -0.38978458738689759 0 -0.46202672064839212 -0.40007602488395211 0 -0.48101336032419229 -0.41069999664450008 0 -0.46202672064839212 -0.40007602488395211 0 -0.47854472220918332 -0.38978458738689759 0 -0.46725442735267431 -0.37660061361585562 0 -0.46202672064839212 -0.40007602488395211 0 -0.47854472220918332 -0.38978458738689759 0 -0.46725442735267431 -0.37660061361585562 0 -0.48422759779560409 -0.37130120630367158 0 -0.46725442735267431 -0.37660061361585562 0 -0.46202672064839212 -0.40007602488395211 0 -0.46725442735267431 -0.37660061361585562 0 -0.45645674801697989 -0.38644133236760531 0 -0.46202672064839212 -0.40007602488395211 0 -0.46725442735267431 -0.37660061361585562 0 -0.45645674801697989 -0.38644133236760531 0 -0.4540003998136638 -0.37455519391687309 0 -0.45645674801697989 -0.38644133236760531 0 -0.46202672064839212 -0.40007602488395211 0 -0.44257020456291563 -0.38918913383950271 0 -0.46202672064839212 -0.40007602488395211 0 -0.44257020456291563 -0.38918913383950271 0 -0.44727608925983742 -0.41095911152778891 0 -0.46202672064839212 -0.40007602488395211 0 -0.44257020456291563 -0.38918913383950271 0 -0.44257020456291563 -0.38918913383950271 0 -0.44727608925983742 -0.41095911152778891 0 -0.43479358559901082 -0.4041454901736512 0 -0.44257020456291563 -0.38918913383950271 0 -0.4540003998136638 -0.37455519391687309 0 -0.44172858264042247 -0.37082207246888088 0 -0.45645674801697989 -0.38644133236760531 0 -0.44257020456291563 -0.38918913383950271 0 -0.4540003998136638 -0.37455519391687309 0 -0.46202672064839212 -0.40007602488395211 0 -0.45555437223955858 -0.42914059360647611 0 -0.44727608925983742 -0.41095911152778891 0 -0.46202672064839212 -0.40007602488395211 0 -0.45555437223955858 -0.42914059360647611 0 -0.48101336032419229 -0.41069999664450008 0 -0.46202672064839212 -0.40007602488395211 0 -0.45555437223955858 -0.42914059360647611 0 -0.44727608925983742 -0.41095911152778891 0 -0.43867285131603428 -0.4271457417558665 0 -0.43676601469929588 -0.41441201227470881 0 -0.44727608925983742 -0.41095911152778891 0 -0.43676601469929588 -0.41441201227470881 0 -0.43479358559901082 -0.4041454901736512 0 -0.45555437223955858 -0.42914059360647611 0 -0.44727608925983742 -0.41095911152778891 0 -0.43867285131603428 -0.4271457417558665 0 -0.43867285131603428 -0.4271457417558665 0 -0.42681803064840879 -0.42717069814352421 0 -0.4263356171060747 -0.44269880333887462 0 -0.42681803064840879 -0.42717069814352421 0 -0.41531815884496182 -0.42985383783075998 0 -0.4263356171060747 -0.44269880333887462 0 -0.42681803064840879 -0.42717069814352421 0 -0.42624289495594048 -0.42089725947505818 0 -0.42083332353326591 -0.42146747131641099 0 -0.42681803064840879 -0.42717069814352421 0 -0.43096994786351572 -0.41951492446283251 0 -0.42624289495594048 -0.42089725947505818 0 -0.43867285131603428 -0.4271457417558665 0 -0.42681803064840879 -0.42717069814352421 0 -0.43096994786351572 -0.41951492446283251 0 -0.43867285131603428 -0.4271457417558665 0 -0.43676601469929588 -0.41441201227470881 0 -0.43096994786351572 -0.41951492446283251 0 -0.43676601469929588 -0.41441201227470881 0 -0.43096994786351572 -0.41951492446283251 0 -0.42907264086257813 -0.41311715872526122 0 -0.43676601469929588 -0.41441201227470881 0 -0.42907264086257813 -0.41311715872526122 0 -0.43479358559901082 -0.4041454901736512 0 -0.42907264086257813 -0.41311715872526122 0 -0.43479358559901082 -0.4041454901736512 0 -0.42460885511582858 -0.40417321677700252 0 -0.42907264086257813 -0.41311715872526122 0 -0.41997834854398469 -0.41180534796019508 0 -0.42907264086257813 -0.41311715872526122 0 -0.42635027777857132 -0.41543594397746519 0 -0.41997834854398469 -0.41180534796019508 0 -0.42907264086257813 -0.41311715872526122 0 -0.41997834854398469 -0.41180534796019508 0 -0.42460885511582858 -0.40417321677700252 0 -0.42635027777857132 -0.41543594397746519 0 -0.41997834854398469 -0.41180534796019508 0 -0.42635027777857132 -0.41543594397746519 0 -0.42083332353326591 -0.42146747131641099 0 -0.41997834854398469 -0.41180534796019508 0 -0.43096994786351572 -0.41951492446283251 0 -0.42624289495594048 -0.42089725947505818 0 -0.42635027777857132 -0.41543594397746519 0 -0.43096994786351572 -0.41951492446283251 0 -0.42907264086257813 -0.41311715872526122 0 -0.42635027777857132 -0.41543594397746519 0 -0.42624289495594048 -0.42089725947505818 0 -0.42635027777857132 -0.41543594397746519 0 -0.42083332353326591 -0.42146747131641099 0 -0.42083332353326591 -0.42146747131641099 0 -0.41997834854398469 -0.41180534796019508 0 -0.40992282953163789 -0.42011435591993562 0 -0.41997834854398469 -0.41180534796019508 0 -0.39756877647335259 -0.40857286797681719 0 -0.41997834854398469 -0.41180534796019508 0 -0.40992282953163789 -0.42011435591993562 0 -0.39756877647335259 -0.40857286797681719 0 -0.40992282953163789 -0.42011435591993562 0 -0.41531815884496182 -0.42985383783075998 0 -0.39591554026262499 -0.42887225451549271 0 -0.41531815884496182 -0.42985383783075998 0 -0.39591554026262499 -0.42887225451549271 0 -0.41160927495564159 -0.44339431233754628 0 -0.42083332353326591 -0.42146747131641099 0 -0.40992282953163789 -0.42011435591993562 0 -0.41531815884496182 -0.42985383783075998 0 -0.42681803064840879 -0.42717069814352421 0 -0.42083332353326591 -0.42146747131641099 0 -0.41531815884496182 -0.42985383783075998 0 -0.44257020456291563 -0.38918913383950271 0 -0.42311368847744002 -0.37830224279505142 0 -0.42594061475171041 -0.39368797999533162 0 -0.44257020456291563 -0.38918913383950271 0 -0.42311368847744002 -0.37830224279505142 0 -0.44172858264042247 -0.37082207246888088 0 -0.44257020456291563 -0.38918913383950271 0 -0.42311368847744002 -0.37830224279505142 0 -0.42311368847744002 -0.37830224279505142 0 -0.42594061475171041 -0.39368797999533162 0 -0.416587075656149 -0.38785930376960043 0 -0.44257020456291563 -0.38918913383950271 0 -0.42594061475171041 -0.39368797999533162 0 -0.43479358559901082 -0.4041454901736512 0 -0.42594061475171041 -0.39368797999533162 0 -0.43479358559901082 -0.4041454901736512 0 -0.42460885511582858 -0.40417321677700252 0 -0.41997834854398469 -0.41180534796019508 0 -0.41325908582185972 -0.39811010703057192 0 -0.39770572831670092 -0.39911486077581648 0 -0.41997834854398469 -0.41180534796019508 0 -0.39770572831670092 -0.39911486077581648 0 -0.42594061475171041 -0.39368797999533162 0 -0.42460885511582858 -0.40417321677700252 0 -0.41325908582185972 -0.39811010703057192 0 -0.41997834854398469 -0.41180534796019508 0 -0.42460885511582858 -0.40417321677700252 0 -0.41325908582185972 -0.39811010703057192 0 -0.42594061475171041 -0.39368797999533162 0 -0.41325908582185972 -0.39811010703057192 0 -0.416587075656149 -0.38785930376960043 0 -0.41325908582185972 -0.39811010703057192 0 -0.416587075656149 -0.38785930376960043 0 -0.40403491357358612 -0.38133688525744702 0 -0.42311368847744002 -0.37830224279505142 0 -0.40403491357358612 -0.38133688525744702 0 -0.40365717239196519 -0.36741535175059892 0 -0.42311368847744002 -0.37830224279505142 0 -0.416587075656149 -0.38785930376960043 0 -0.40403491357358612 -0.38133688525744702 0 -0.40403491357358612 -0.38133688525744702 0 -0.39190790742475001 -0.38540387676521748 0 -0.39770572831670092 -0.39911486077581648 0 -0.40403491357358612 -0.38133688525744702 0 -0.39190790742475001 -0.38540387676521748 0 -0.3904578797192948 -0.37473938743617019 0 -0.41325908582185972 -0.39811010703057192 0 -0.40403491357358612 -0.38133688525744702 0 -0.39770572831670092 -0.39911486077581648 0 -0.39770572831670092 -0.39911486077581648 0 -0.37543310808941849 -0.38642437359143528 0 -0.39770572831670092 -0.39911486077581648 0 -0.37515920440272033 -0.40534038799344108 0 -0.37543310808941849 -0.38642437359143528 0 -0.39770572831670092 -0.39911486077581648 0 -0.37515920440272033 -0.40534038799344108 0 -0.39756877647335259 -0.40857286797681719
[...]
<PointData Scalars="" Vectors="displacement," Tensors="">
<DataArray type="Float64" Name="displacement" NumberOfComponents="3" format="ascii">
-1.7027412706620257e-06 -0.034996799279831063 0 -0.00017037797430945713 -0.032723512156076807 0 3.6078610734903566e-06 -0.029500840410764506 0 -1.7027412706620257e-06 -0.034996799279831063 0 -0.00015707301029741665 -0.034201621915387455 0 -0.00017037797430945713 -0.032723512156076807 0 -1.7027412706620257e-06 -0.034996799279831063 0 -0.00015707301029741665 -0.034201621915387455 0 5.8024041931157085e-09 -0.034999148937122304 0 -0.00015707301029741665 -0.034201621915387455 0 5.8024041931157085e-09 -0.034999148937122304 0 -8.6460612101272943e-05 -0.03420421445037581 0 5.8024041931157085e-09 -0.034999148937122304 0 -8.6460612101272943e-05 -0.03420421445037581 0 -6.8092760874848734e-05 -0.034768019185759239 0 -0.00034708067155728444 -0.030732785073766384 0 -3.4441099960120948e-05 -0.030002374000096234 0 -8.6460612101272943e-05 -0.03420421445037581 0 0.00039898872343448281 -0.034171675284730404 0 0.00043080602647945209 -0.034376151985838412 0 -8.6460612101272943e-05 -0.03420421445037581 0 0.00043080602647945209 -0.034376151985838412 0 0.00021209880033403272 -0.034595223495209826 0 -0.00015707301029741665 -0.034201621915387455 0 -8.6460612101272943e-05 -0.03420421445037581 0 -0.00017037797430945713 -0.032723512156076807 0 -8.6460612101272943e-05 -0.03420421445037581 0 -0.00017037797430945713 -0.032723512156076807 0 0.00062505003538551216 -0.033382872268580437 0 -0.00017037797430945713 -0.032723512156076807 0 0.0013276371642254451 -0.031627501937191799 0 0.00062505003538551216 -0.033382872268580437 0 -0.00017037797430945713 -0.032723512156076807 0 3.6078610734903566e-06 -0.029500840410764506 0 0.0013276371642254451 -0.031627501937191799 0 1.9806902795091226e-06 -0.029489652704081565 0 0.0003009254416514582 -0.027193263107783812 0 -8.3697627597655202e-07 -0.027572047081222302 0 1.70813089081247e-06 -0.029490746415974205 0 0.00045218813474373138 -0.02874599352227444 0 -8.3697627597655202e-07 -0.027572047081222302 0 -8.0025223978557117e-05 -0.026488539364457019 0 -0.00016810789724767549 -0.02578159144585522 0 -8.3697627597655202e-07 -0.027572047081222302 0 -2.5574441735913654e-07 -0.025651173741481986 0 -0.00016810789724767549 -0.02578159144585522 0 0.0003009254416514582 -0.027193263107783812 0 -8.3697627597655202e-07 -0.027572047081222302 0 -8.0025223978557117e-05 -0.026488539364457019 0 0.0003009254416514582 -0.027193263107783812 0 -8.0025223978557117e-05 -0.026488539364457019 0 0.00013131729325366407 -0.026229309688261832 0 0.00045218813474373138 -0.02874599352227444 0 0.00073293208704693937 -0.02765627031637044 0 -8.0025223978557117e-05 -0.026488539364457019 0 -0.00020713848710562406 -0.026003653018415028 0 0.00013131729325366407 -0.026229309688261832 0 -8.0025223978557117e-05 -0.026488539364457019 0 -0.00020713848710562406 -0.026003653018415028 0 -0.00016810789724767549 -0.02578159144585522 0 0.00060381750125902743 -0.025798507219109191 0 0.00073293208704693937 -0.02765627031637044 0 0.0010841306422337161 -0.020342376797513651 0 0.00091579896078415536 -0.020507646252805229 0 0.00070036048233942168 -0.020426341844711971 0 0.0010841306422337161 -0.020342376797513651 0 0.00091579896078415536 -0.020507646252805229 0 0.0010891458865352087 -0.020533565422849055 0 0.00091579896078415536 -0.020507646252805229 0 0.00070036048233942168 -0.020426341844711971 0 0.00086522253189057143 -0.020723425685780953 0 0.00059720681267196886 -0.034230624045599185 0 0.0005575720738212475 -0.034340864096640292 0 0.00055293983794131054 -0.034296472854217532 0 0.00073293208704693937 -0.02765627031637044 0 0.00083678931921534882 -0.027257127822498266 0 0.0005575720738212475 -0.034340864096640292 0 0.00055293983794131054 -0.034296472854217532 0 0.00057410504743270793 -0.034349182912073083 0 0.00086522253189057143 -0.020723425685780953 0 0.0010891458865352087 -0.020533565422849055 0 0.0011401072276326469 -0.020729460542539387 0 0.00091579896078415536 -0.020507646252805229 0 0.00086522253189057143 -0.020723425685780953 0 0.0010891458865352087 -0.020533565422849055 0 0.00059720681267196886 -0.034230624045599185 0 0.00039898872343448281 -0.034171675284730404 0 0.00055293983794131054 -0.034296472854217532 0 0.00073293208704693937 -0.02765627031637044 0 -3.4441099960120948e-05 -0.030002374000096234 0 0.0013276371642254451 -0.031627501937191799 0 0.0020500103362652302 -0.032803936734134093 0 0.00062505003538551216 -0.033382872268580437 0 0.00055293983794131054 -0.034296472854217532 0 0.00043080602647945209 -0.034376151985838412 0 0.00055042555437421299 -0.034366572770307947 0 0.00055293983794131054 -0.034296472854217532 0 0.00055042555437421299 -0.034366572770307947 0 0.00057410504743270793 -0.034349182912073083 0 0.00039898872343448281 -0.034171675284730404 0 0.00055293983794131054 -0.034296472854217532 0 0.00043080602647945209 -0.034376151985838412 0 0.00043080602647945209 -0.034376151985838412 0 0.00041355219243559814 -0.03453021792759902 0 0.00021209880033403272 -0.034595223495209826 0 0.00041355219243559814 -0.03453021792759902 0 0.00037318796592499231 -0.034698843065142815 0 0.00021209880033403272 -0.034595223495209826 0 0.00041355219243559814 -0.03453021792759902 0 0.00049121738585699193 -0.034512109331476547 0 0.00048077668796786571 -0.034601929344607887 0 0.00041355219243559814 -0.03453021792759902 0 0.00051001267498257494 -0.034434224893265072 0 0.00049121738585699193 -0.034512109331476547 0 0.00043080602647945209 -0.034376151985838412 0 0.00041355219243559814 -0.03453021792759902 0 0.00051001267498257494 -0.034434224893265072 0 0.00043080602647945209 -0.034376151985838412 0 0.00055042555437421299 -0.034366572770307947 0 0.00051001267498257494 -0.034434224893265072 0 0.00055042555437421299 -0.034366572770307947 0 0.00051001267498257494 -0.034434224893265072 0 0.00060270944220617564 -0.034399463747264797 0 0.00055042555437421299 -0.034366572770307947 0 0.00060270944220617564 -0.034399463747264797 0 0.00057410504743270793 -0.034349182912073083 0 0.00060270944220617564 -0.034399463747264797 0 0.00057410504743270793 -0.034349182912073083 0 0.00058137540651959768 -0.034305814979178208 0 0.0015309121905497072 -0.032822526789061481 0 0.0015360561954844722 -0.032721309983238273 0 0.00060270944220617564 -0.034399463747264797 0 0.00056216574967839466 -0.034484094228874912 0 0.00066650673312602601 -0.034652775973812076 0 0.00060270944220617564 -0.034399463747264797 0 0.00065421983028937951 -0.034265962428395601 0 0.00058137540651959768 -0.034305814979178208 0 0.0015426500318631777 -0.032770731851177598 0 0.0015360561954844722 -0.032721309983238273 0 0.00056216574967839466 -0.034484094228874912 0 0.00048077668796786571 -0.034601929344607887 0 0.00062103915286274697 -0.034611188897218065 0 0.00051001267498257494 -0.034434224893265072 0 0.00049121738585699193 -0.034512109331476547 0 0.00056216574967839466 -0.034484094228874912 0 0.00051001267498257494 -0.034434224893265072 0 0.00060270944220617564 -0.034399463747264797 0 0.00056216574967839466 -0.034484094228874912 0 0.00049121738585699193 -0.034512109331476547 0 0.00056216574967839466 -0.034484094228874912 0 0.00048077668796786571 -0.034601929344607887 0 0.00048077668796786571 -0.034601929344607887 0 0.00062103915286274697 -0.034611188897218065 0 0.0004990919351942544 -0.034757501587540408 0 0.0015360561954844722 -0.032721309983238273 0 0.0012280025505916933 -0.032461237614349596 0 0.00062103915286274697 -0.034611188897218065 0 0.0004990919351942544 -0.034757501587540408 0 0.00064412437309894219 -0.034915081281656844 0 0.0004990919351942544 -0.034757501587540408 0 0.00037318796592499231 -0.034698843065142815 0 0.00038734307939331832 -0.034938356232033473 0 0.00037318796592499231 -0.034698843065142815 0 0.00038734307939331832 -0.034938356232033473 0 0.0002074949505581651 -0.034769840510095275 0 0.00048077668796786571 -0.034601929344607887 0 0.0004990919351942544 -0.034757501587540408 0 0.00037318796592499231 -0.034698843065142815 0 0.00041355219243559814 -0.03453021792759902 0 0.00048077668796786571 -0.034601929344607887 0 0.00037318796592499231 -0.034698843065142815 0 0.0005575720738212475 -0.034340864096640292 0 0.00038464513922141383 -0.034256679551406384 0 0.00052455690551999462 -0.03428973289334368 0 0.00086522253189057143 -0.020723425685780953 0 0.0010204029088068996 -0.021032303025202016 0 0.0011401072276326469 -0.020729460542539387 0 0.00083678931921534882 -0.027257127822498266 0 0.00092901145831986512 -0.026731107408045011 0 0.00038464513922141383 -0.034256679551406384 0 0.00052455690551999462 -0.03428973289334368 0 0.00046264244040610973 -0.03419468477290722 0 0.0005575720738212475 -0.034340864096640292 0 0.00052455690551999462 -0.03428973289334368 0 0.00057410504743270793 -0.034349182912073083 0 0.00052455690551999462 -0.03428973289334368 0 0.00057410504743270793 -0.034349182912073083 0 0.00058137540651959768 -0.034305814979178208 0 0.00065421983028937951 -0.034265962428395601 0 0.00055518895466561086 -0.034172089368318143 0 0.00059234989198735295 -0.033976731656165368 0 0.0015360561954844722 -0.032721309983238273 0 0.0015625558343936652 -0.031543303930018377 0 0.00052455690551999462 -0.03428973289334368 0 0.00058137540651959768 -0.034305814979178208 0 0.00055518895466561086 -0.034172089368318143 0 0.00065421983028937951 -0.034265962428395601 0 0.00058137540651959768 -0.034305814979178208 0 0.00055518895466561086 -0.034172089368318143 0 0.00052455690551999462 -0.03428973289334368 0 0.00055518895466561086 -0.034172089368318143 0 0.00046264244040610973 -0.03419468477290722 0 0.00055518895466561086 -0.034172089368318143 0 0.00046264244040610973 -0.03419468477290722 0 0.00038192551515128109 -0.034051334673451797 0 0.00038464513922141383 -0.034256679551406384 0 0.00038192551515128109 -0.034051334673451797 0 0.0002371860455131383 -0.034038442591060238 0 0.00038464513922141383 -0.034256679551406384 0 0.00046264244040610973 -0.03419468477290722 0 0.00038192551515128109 -0.034051334673451797 0 0.00038192551515128109 -0.034051334673451797 0 0.00042436685936386319 -0.033879470915599376 0 0.00059234989198735295 -0.033976731656165368 0 0.00038192551515128109 -0.034051334673451797 0 0.00042436685936386319 -0.033879470915599376 0 0.00027335517237767277 -0.033848976498595688 0 0.00055518895466561086 -0.034172089368318143 0 0.00038192551515128109 -0.034051334673451797 0 0.00059234989198735295 -0.033976731656165368 0 0.0015625558343936652 -0.031543303930018377 0 0.0013622084497366892 -0.02940351623188267 0 0.0015598893279906874 -0.031401689676626758 0 0.0018004761049975077 -0.030526801121475544 0 0.0010686374412138425 -0.03053562263835688 0 0.0015598893279906874 -0.031401689676626758 0 0.0018004761049975077 -0.030526801121475544 0 0.0019265736193161561 -0.031397044997791619 0 0.00083313412343512206 -0.031536891081493525 0 0.0013622084497366892 -0.02940351623188267 0 0.00044461236549553704 -0.033632210405487049 0 0.00027335517237767277 -0.033848976498595688 0 0.00019017348431234852 -0.033621429009746281 0 0.00042436685936386319 -0.033879470915599376 0 0.00044461236549553704 -0.033632210405487049 0 0.00027335517237767277 -0.033848976498595688 0 0.0013622084497366892 -0.02940351623188267 0 0.0010418362374818996 -0.027486784099132969 0 0.00042436685936386319 -0.033879470915599376 0 0.00059234989198735295 -0.033976731656165368 0 0.00044461236549553704 -0.033632210405487049 0 0.0020520510071142862 -0.032269223280338495 0 0.0015598893279906874 -0.031401689676626758 0 0.0019265736193161561 -0.031397044997791619 0 0.0004990919351942544 -0.034757501587540408 0 0.00038734307939331832 -0.034938356232033473 0 0.00064412437309894219 -0.034915081281656844 0 0.00067929657400435991 -0.03518432905579294 0 0.00038734307939331832 -0.034938356232033473 0 0.00064412437309894219 -0.034915081281656844 0 0.00083313412343512206 -0.031536891081493525 0 0.0012280025505916933 -0.032461237614349596 0 0.00067929657400435991 -0.03518432905579294 0 0.00038734307939331832 -0.034938356232033473 0 0.00030925981968964335 -0.035188877673179499 0 0.00038734307939331832 -0.034938356232033473 0 0.00017824246038566354 -0.034974888563244169 0 0.00030925981968964335 -0.035188877673179499 0 0.00017824246038566354 -0.034974888563244169 0 -4.0633377588782509e-05 -0.035189963427175196 0 0.00030925981968964335 -0.035188877673179499 0 0.00038734307939331832 -0.034938356232033473 0 0.00017824246038566354 -0.034974888563244169 0 0.0002074949505581651 -0.034769840510095275 0 0.00017824246038566354 -0.034974888563244169 0 5.373192939032777e-05 -0.034852796134832796 0 0.0002074949505581651 -0.034769840510095275 0 4.8794876956457654e-05 -0.034875580516934124 0 -2.1158726603894778e-05 -0.034953961247741853 0 -2.1569842078691237e-05 -0.034843022538816812 0 8.7203579035795771e-06 -0.034990738930803143 0 7.1175597533737265e-06 -0.034995681670465538 0 1.7846112584786323e-06 -0.034995659921077255 0 7.2493521814165322e-05 -0.034798797107539643 0 1.229621392715254e-05 -0.034918030535091522 0 7.2493521814165322e-05 -0.034798797107539643 0 7.2411637222207951e-05 -0.03479909602145443 0 7.2493521814165322e-05 -0.034798797107539643 0 0.00010313471494441051 -0.034623704981434841 0 0.00017824246038566354 -0.034974888563244169 0 5.373192939032777e-05 -0.034852796134832796 0 6.4496128927771678e-06 -0.03501958708690469 0 0.00017824246038566354 -0.034974888563244169 0 6.4496128927771678e-06 -0.03501958708690469 0 -4.0633377588782509e-05 -0.035189963427175196 0 0.00010313471494441051 -0.034623704981434841 0 0.00017589525421868966 -0.034290597727054263 0 7.1175597533737265e-06 -0.034995681670465538 0 3.7308311333035644e-06 -0.034997206514852122 0 5.6220543151017459e-06 -0.034999460862724527 0 3.7308311333035644e-06 -0.034997206514852122 0 1.7846112584786323e-06 -0.034995659921077255 0 1.5246633696889061e-06 -0.034999285614753788 0 1.7846112584786323e-06 -0.034995659921077255 0 6.6849618790215443e-07 -0.034999579514909403 0 1.5246633696889061e-06 -0.034999285614753788 0 3.7308311333035644e-06 -0.034997206514852122 0 1.5246633696889061e-06 -0.034999285614753788 0 5.6220543151017459e-06 -0.034999460862724527 0 7.1175597533737265e-06 -0.034995681670465538 0 3.7308311333035644e-06 -0.034997206514852122 0 1.7846112584786323e-06 -0.034995659921077255 0 -4.5348882813953657e-08 -0.034999812186561778 0 1.229621392715254e-05 -0.034918030535091522 0 -1.9495768825826481e-09 -0.034999995692156373 0 1.7846112584786323e-06 -0.034995659921077255 0 6.6849618790215443e-07 -0.034999579514909403 0 5.6782580822108452e-08 -0.034999983889266555 0 -2.1158726603894778e-05 -0.034953961247741853 0 -1.4026092077544703e-07 -0.034999886437371092 0 -2.1158726603894778e-05 -0.034953961247741853 0 -2.1569842078691237e-05 -0.034843022538816812 0 -1.4026092077544703e-07 -0.034999886437371092 0 -2.1569842078691237e-05 -0.034843022538816812 0 -1.4026092077544703e-07 -0.034999886437371092 0 -6.8092760874848734e-05 -0.034768019185759239 0 5.8024041931157085e-09 -0.034999148937122304 0 -1.4026092077544703e-07 -0.034999886437371092 0 -6.8092760874848734e-05 -0.034768019185759239 0 -2.1569842078691237e-05 -0.034843022538816812 0 -6.8092760874848734e-05 -0.034768019185759239 0 2.8906463137042127e-06 -0.034659980283924342 0 -8.6460612101272943e-05 -0.03420421445037581 0 -6.8092760874848734e-05 -0.034768019185759239 0 2.8906463137042127e-06 -0.034659980283924342 0 -8.6460612101272943e-05 -0.03420421445037581 0 2.8906463137042127e-06 -0.034659980283924342 0 0.00021209880033403272 -0.034595223495209826 0 2.8906463137042127e-06 -0.034659980283924342 0 0.00021209880033403272 -0.034595223495209826 0 8.1897430348076042e-05 -0.034747751380306315 0 0.00021209880033403272 -0.034595223495209826 0 0.0002074949505581651 -0.034769840510095275 0 8.1897430348076042e-05 -0.034747751380306315 0 0.00037318796592499231 -0.034698843065142815 0 0.00021209880033403272 -0.034595223495209826 0 0.0002074949505581651 -0.034769840510095275 0 4.9286508134862395e-05 -0.034889281015602701 0 0.0002074949505581651 -0.034769840510095275 0 5.6490597864936882e-05 -0.034856247346153904 0 0.0002074949505581651 -0.034769840510095275 0 5.6490597864936882e-05 -0.034856247346153904 0 8.1897430348076042e-05 -0.034747751380306315 0 7.2493521814165322e-05 -0.034798797107539643 0 8.2380810626938398e-05 -0.034795970386369945 0 -2.1569842078691237e-05 -0.034843022538816812 0 5.6490597864936882e-05 -0.034856247346153904 0 8.1897430348076042e-05 -0.034747751380306315 0 4.8794876956457654e-05 -0.034875580516934124 0 -2.1569842078691237e-05 -0.034843022538816812 0 5.6490597864936882e-05 -0.034856247346153904 0 -2.1569842078691237e-05 -0.034843022538816812 0 2.8906463137042127e-06 -0.034659980283924342 0 8.1897430348076042e-05 -0.034747751380306315 0 0.0013424654137934261 -0.017860262697478316 0 0.0016438943631507516 -0.017313393443225432 0 0.00049101489271276928 -0.017588697017889798 0 0.00058766754663247198 -0.017037163799249209 0 0.00032590329209441278 -0.01741078004270773 0 -0.00012634367561419524 -0.019584333144744403 0 0.00013601930352395066 -0.019544082427348571 0 6.6731540492751164e-05 -0.019667340433948806 0 -0.00012634367561419524 -0.019584333144744403 0 -7.6995047296508077e-05 -0.01961209905353865 0 6.6731540492751164e-05 -0.019667340433948806 0 -0.00012634367561419524 -0.019584333144744403 0 -7.2510794796425298e-05 -0.019516864490705239 0 -7.6995047296508077e-05 -0.01961209905353865 0 -0.00012634367561419524 -0.019584333144744403 0 -0.00011783004761399607 -0.019315807398175008 0 -0.00018424735037029646 -0.01965676435468439 0 -0.00012634367561419524 -0.019584333144744403 0 -0.00011783004761399607 -0.019315807398175008 0 0.00013601930352395066 -0.019544082427348571 0 0.0013424654137934261 -0.017860262697478316 0 0.0012390810930462686 -0.017988047426708339 0 -0.00011783004761399607 -0.019315807398175008 0 0.00013601930352395066 -0.019544082427348571 0 0.00013445708505117472 -0.018511518127216003 0 0.00049101489271276928 -0.017588697017889798 0 0.00013445708505117472 -0.018511518127216003 0 4.8378998866288317e-05 -0.017837562850686217 0 0.00013445708505117472 -0.018511518127216003 0 -4.2564919018611228e-07 -0.017968598243405055 0 -0.00012635601926790581 -0.019267758444622547 0 0.00013445708505117472 -0.018511518127216003 0 -4.2564919018611228e-07 -0.017968598243405055 0 -2.4815545686619506e-05 -0.01757014261805372 0 -4.2564919018611228e-07 -0.017968598243405055 0 -0.00012635601926790581 -0.019267758444622547 0 -3.6610117261565038e-07 -0.019889470427021209 0 -0.00011783004761399607 -0.019315807398175008 0 0.00013445708505117472 -0.018511518127216003 0 -0.00012635601926790581 -0.019267758444622547 0 -0.00011783004761399607 -0.019315807398175008 0 -0.00012635601926790581 -0.019267758444622547 0 -0.00018424735037029646 -0.01965676435468439 0 -0.00018424735037029646 -0.01965676435468439 0 -7.7583490138594932e-05 -0.02026947126624774 0 -2.449238994864455e-05 -0.020143372975600836 0 -0.00012635601926790581 -0.019267758444622547 0 -0.00018424735037029646 -0.01965676435468439 0 -7.7583490138594932e-05 -0.02026947126624774 0 -3.6610117261565038e-07 -0.019889470427021209 0 -7.7583490138594932e-05 -0.02026947126624774 0 4.5833674595840323e-07 -0.021809980250426693 0 -0.00012635601926790581 -0.019267758444622547 0 -3.6610117261565038e-07 -0.019889470427021209 0 -7.7583490138594932e-05 -0.02026947126624774 0 -7.7583490138594932e-05 -0.02026947126624774 0 4.5833674595840323e-07 -0.021809980250426693 0 0.00014696350058753308 -0.021044159490667357 0 0.00014696350058753308 -0.021044159490667357 0 -2.449238994864455e-05 -0.020143372975600836 0 0.00054916578578557734 -0.020376372060347321 0 -7.7583490138594932e-05 -0.02026947126624774 0 0.00014696350058753308 -0.021044159490667357 0 -2.449238994864455e-05 -0.020143372975600836 0 -2.449238994864455e-05 -0.020143372975600836 0 0.00025736262981932014 -0.019907990436389182 0 0.00054916578578557734 -0.020376372060347321 0 0.00025736262981932014 -0.019907990436389182 0 0.00018305482657833268 -0.019583266215457196 0