<?xml version="1.0"?>
<VTKFile type="UnstructuredGrid" version="0.1" byte_order="LittleEndian">
<UnstructuredGrid>
<Piece NumberOfPoints="31898" NumberOfCells="11152">
<Points>
<DataArray type="Float64" NumberOfComponents="3" format="ascii">
-0.5 -0.5 0 -0.47620991077874902 -0.44978878706170539 0 -0.49999999999999473 -0.42132396840504388 0 -0.5 -0.5 0 -0.47160970827802529 -0.4793630013852106 0 -0.47620991077874902 -0.44978878706170539 0 -0.5 -0.5 0 -0.47160970827802529 -0.4793630013852106 0 -0.44860394795025399 -0.5 0 -0.47160970827802529 -0.4793630013852106 0 -0.44860394795025399 -0.5 0 -0.4490820238307246 -0.45820516232899983 0 -0.44860394795025399 -0.5 0 -0.4490820238307246 -0.45820516232899983 0 -0.42881687682924802 -0.47781464288736519 0 -0.4490820238307246 -0.45820516232899983 0 -0.45555437223955858 -0.42914059360647611 0 -0.4490820238307246 -0.45820516232899983 0 -0.45555437223955858 -0.42914059360647611 0 -0.43867285131603428 -0.4271457417558665 0 -0.4490820238307246 -0.45820516232899983 0 -0.43867285131603428 -0.4271457417558665 0 -0.4263356171060747 -0.44269880333887462 0 -0.47160970827802529 -0.4793630013852106 0 -0.4490820238307246 -0.45820516232899983 0 -0.47620991077874902 -0.44978878706170539 0 -0.4490820238307246 -0.45820516232899983 0 -0.47620991077874902 -0.44978878706170539 0 -0.45555437223955858 -0.42914059360647611 0 -0.47620991077874902 -0.44978878706170539 0 -0.48101336032419229 -0.41069999664450008 0 -0.45555437223955858 -0.42914059360647611 0 -0.47620991077874902 -0.44978878706170539 0 -0.49999999999999473 -0.42132396840504388 0 -0.48101336032419229 -0.41069999664450008 0 -0.49999999999999473 -0.42132396840504388 0 -0.48101336032419229 -0.41069999664450008 0 -0.5 -0.393886241813306 0 -0.49999999999999473 -0.42132396840504388 0 -0.48101336032419229 -0.41069999664450008 0 -0.5 -0.393886241813306 0 -0.47854472220918332 -0.38978458738689759 0 -0.48422759779560409 -0.37130120630367158 0 -0.5 -0.393886241813306 0 -0.5 -0.36644851522156802 0 -0.48422759779560409 -0.37130120630367158 0 -0.48101336032419229 -0.41069999664450008 0 -0.5 -0.393886241813306 0 -0.47854472220918332 -0.38978458738689759 0 -0.48101336032419229 -0.41069999664450008 0 -0.47854472220918332 -0.38978458738689759 0 -0.46202672064839212 -0.40007602488395211 0 -0.48101336032419229 -0.41069999664450008 0 -0.46202672064839212 -0.40007602488395211 0 -0.47854472220918332 -0.38978458738689759 0 -0.46725442735267431 -0.37660061361585562 0 -0.46202672064839212 -0.40007602488395211 0 -0.47854472220918332 -0.38978458738689759 0 -0.46725442735267431 -0.37660061361585562 0 -0.48422759779560409 -0.37130120630367158 0 -0.46725442735267431 -0.37660061361585562 0 -0.46202672064839212 -0.40007602488395211 0 -0.46725442735267431 -0.37660061361585562 0 -0.45645674801697989 -0.38644133236760531 0 -0.46202672064839212 -0.40007602488395211 0 -0.46725442735267431 -0.37660061361585562 0 -0.45645674801697989 -0.38644133236760531 0 -0.4540003998136638 -0.37455519391687309 0 -0.45645674801697989 -0.38644133236760531 0 -0.46202672064839212 -0.40007602488395211 0 -0.44257020456291563 -0.38918913383950271 0 -0.46202672064839212 -0.40007602488395211 0 -0.44257020456291563 -0.38918913383950271 0 -0.44727608925983742 -0.41095911152778891 0 -0.46202672064839212 -0.40007602488395211 0 -0.44257020456291563 -0.38918913383950271 0 -0.44257020456291563 -0.38918913383950271 0 -0.44727608925983742 -0.41095911152778891 0 -0.43479358559901082 -0.4041454901736512 0 -0.44257020456291563 -0.38918913383950271 0 -0.4540003998136638 -0.37455519391687309 0 -0.44172858264042247 -0.37082207246888088 0 -0.45645674801697989 -0.38644133236760531 0 -0.44257020456291563 -0.38918913383950271 0 -0.4540003998136638 -0.37455519391687309 0 -0.46202672064839212 -0.40007602488395211 0 -0.45555437223955858 -0.42914059360647611 0 -0.44727608925983742 -0.41095911152778891 0 -0.46202672064839212 -0.40007602488395211 0 -0.45555437223955858 -0.42914059360647611 0 -0.48101336032419229 -0.41069999664450008 0 -0.46202672064839212 -0.40007602488395211 0 -0.45555437223955858 -0.42914059360647611 0 -0.44727608925983742 -0.41095911152778891 0 -0.43867285131603428 -0.4271457417558665 0 -0.43676601469929588 -0.41441201227470881 0 -0.44727608925983742 -0.41095911152778891 0 -0.43676601469929588 -0.41441201227470881 0 -0.43479358559901082 -0.4041454901736512 0 -0.45555437223955858 -0.42914059360647611 0 -0.44727608925983742 -0.41095911152778891 0 -0.43867285131603428 -0.4271457417558665 0 -0.43867285131603428 -0.4271457417558665 0 -0.42681803064840879 -0.42717069814352421 0 -0.4263356171060747 -0.44269880333887462 0 -0.42681803064840879 -0.42717069814352421 0 -0.41531815884496182 -0.42985383783075998 0 -0.4263356171060747 -0.44269880333887462 0 -0.42681803064840879 -0.42717069814352421 0 -0.42624289495594048 -0.42089725947505818 0 -0.42083332353326591 -0.42146747131641099 0 -0.42681803064840879 -0.42717069814352421 0 -0.43096994786351572 -0.41951492446283251 0 -0.42624289495594048 -0.42089725947505818 0 -0.43867285131603428 -0.4271457417558665 0 -0.42681803064840879 -0.42717069814352421 0 -0.43096994786351572 -0.41951492446283251 0 -0.43867285131603428 -0.4271457417558665 0 -0.43676601469929588 -0.41441201227470881 0 -0.43096994786351572 -0.41951492446283251 0 -0.43676601469929588 -0.41441201227470881 0 -0.43096994786351572 -0.41951492446283251 0 -0.42907264086257813 -0.41311715872526122 0 -0.43676601469929588 -0.41441201227470881 0 -0.42907264086257813 -0.41311715872526122 0 -0.43479358559901082 -0.4041454901736512 0 -0.42907264086257813 -0.41311715872526122 0 -0.43479358559901082 -0.4041454901736512 0 -0.42460885511582858 -0.40417321677700252 0 -0.42907264086257813 -0.41311715872526122 0 -0.41997834854398469 -0.41180534796019508 0 -0.42907264086257813 -0.41311715872526122 0 -0.42635027777857132 -0.41543594397746519 0 -0.41997834854398469 -0.41180534796019508 0 -0.42907264086257813 -0.41311715872526122 0 -0.41997834854398469 -0.41180534796019508 0 -0.42460885511582858 -0.40417321677700252 0 -0.42635027777857132 -0.41543594397746519 0 -0.41997834854398469 -0.41180534796019508 0 -0.42635027777857132 -0.41543594397746519 0 -0.42083332353326591 -0.42146747131641099 0 -0.41997834854398469 -0.41180534796019508 0 -0.43096994786351572 -0.41951492446283251 0 -0.42624289495594048 -0.42089725947505818 0 -0.42635027777857132 -0.41543594397746519 0 -0.43096994786351572 -0.41951492446283251 0 -0.42907264086257813 -0.41311715872526122 0 -0.42635027777857132 -0.41543594397746519 0 -0.42624289495594048 -0.42089725947505818 0 -0.42635027777857132 -0.41543594397746519 0 -0.42083332353326591 -0.42146747131641099 0 -0.42083332353326591 -0.42146747131641099 0 -0.41997834854398469 -0.41180534796019508 0 -0.40992282953163789 -0.42011435591993562 0 -0.41997834854398469 -0.41180534796019508 0 -0.39756877647335259 -0.40857286797681719 0 -0.41997834854398469 -0.41180534796019508 0 -0.40992282953163789 -0.42011435591993562 0 -0.39756877647335259 -0.40857286797681719 0 -0.40992282953163789 -0.42011435591993562 0 -0.41531815884496182 -0.42985383783075998 0 -0.39591554026262499 -0.42887225451549271 0 -0.41531815884496182 -0.42985383783075998 0 -0.39591554026262499 -0.42887225451549271 0 -0.41160927495564159 -0.44339431233754628 0 -0.42083332353326591 -0.42146747131641099 0 -0.40992282953163789 -0.42011435591993562 0 -0.41531815884496182 -0.42985383783075998 0 -0.42681803064840879 -0.42717069814352421 0 -0.42083332353326591 -0.42146747131641099 0 -0.41531815884496182 -0.42985383783075998 0 -0.44257020456291563 -0.38918913383950271 0 -0.42311368847744002 -0.37830224279505142 0 -0.42594061475171041 -0.39368797999533162 0 -0.44257020456291563 -0.38918913383950271 0 -0.42311368847744002 -0.37830224279505142 0 -0.44172858264042247 -0.37082207246888088 0 -0.44257020456291563 -0.38918913383950271 0 -0.42311368847744002 -0.37830224279505142 0 -0.42311368847744002 -0.37830224279505142 0 -0.42594061475171041 -0.39368797999533162 0 -0.416587075656149 -0.38785930376960043 0 -0.44257020456291563 -0.38918913383950271 0 -0.42594061475171041 -0.39368797999533162 0 -0.43479358559901082 -0.4041454901736512 0 -0.42594061475171041 -0.39368797999533162 0 -0.43479358559901082 -0.4041454901736512 0 -0.42460885511582858 -0.40417321677700252 0 -0.41997834854398469 -0.41180534796019508 0 -0.41325908582185972 -0.39811010703057192 0 -0.39770572831670092 -0.39911486077581648 0 -0.41997834854398469 -0.41180534796019508 0 -0.39770572831670092 -0.39911486077581648 0 -0.42594061475171041 -0.39368797999533162 0 -0.42460885511582858 -0.40417321677700252 0 -0.41325908582185972 -0.39811010703057192 0 -0.41997834854398469 -0.41180534796019508 0 -0.42460885511582858 -0.40417321677700252 0 -0.41325908582185972 -0.39811010703057192 0 -0.42594061475171041 -0.39368797999533162 0 -0.41325908582185972 -0.39811010703057192 0 -0.416587075656149 -0.38785930376960043 0 -0.41325908582185972 -0.39811010703057192 0 -0.416587075656149 -0.38785930376960043 0 -0.40403491357358612 -0.38133688525744702 0 -0.42311368847744002 -0.37830224279505142 0 -0.40403491357358612 -0.38133688525744702 0 -0.40365717239196519 -0.36741535175059892 0 -0.42311368847744002 -0.37830224279505142 0 -0.416587075656149 -0.38785930376960043 0 -0.40403491357358612 -0.38133688525744702 0 -0.40403491357358612 -0.38133688525744702 0 -0.39190790742475001 -0.38540387676521748 0 -0.39770572831670092 -0.39911486077581648 0 -0.40403491357358612 -0.38133688525744702 0 -0.39190790742475001 -0.38540387676521748 0 -0.3904578797192948 -0.37473938743617019 0 -0.41325908582185972 -0.39811010703057192 0 -0.40403491357358612 -0.38133688525744702 0 -0.39770572831670092 -0.39911486077581648 0 -0.39770572831670092 -0.39911486077581648 0 -0.37543310808941849 -0.38642437359143528 0 -0.39770572831670092 -0.39911486077581648 0 -0.37515920440272033 -0.40534038799344108 0 -0.37543310808941849 -0.38642437359143528 0 -0.39770572831670092 -0.39911486077581648 0 -0.37515920440272033 -0.40534038799344108 0 -0.39756877647335259 -0.40857286797681719
[...]
<PointData Scalars="" Vectors="displacement," Tensors="">
<DataArray type="Float64" Name="displacement" NumberOfComponents="3" format="ascii">
-0.034997125163414772 -2.6984189845736491e-07 0 -0.034117149752050088 -0.00017977050722370761 0 -0.034997661911549308 -7.4435807581922939e-07 0 -0.034997125163414772 -2.6984189845736491e-07 0 -0.033471308887125947 -0.00012019371519769124 0 -0.034117149752050088 -0.00017977050722370761 0 -0.034997125163414772 -2.6984189845736491e-07 0 -0.033471308887125947 -0.00012019371519769124 0 -0.031404213612740824 -2.6823602017872076e-07 0 -0.033471308887125947 -0.00012019371519769124 0 -0.031404213612740824 -2.6823602017872076e-07 0 -0.03285341884806442 7.3809771258876477e-05 0 -0.031404213612740824 -2.6823602017872076e-07 0 -0.03285341884806442 7.3809771258876477e-05 0 -0.031213752152139888 -6.7494174889138193e-05 0 -0.033291212219727868 0.00023311458814803551 0 -0.033409984730309733 0.00023465489591770655 0 -0.03285341884806442 7.3809771258876477e-05 0 -0.032281521691512827 0.00032332200526906141 0 -0.032228808368689257 0.00010336920541421807 0 -0.03285341884806442 7.3809771258876477e-05 0 -0.032228808368689257 0.00010336920541421807 0 -0.032267780614280164 1.2653755233844178e-05 0 -0.033471308887125947 -0.00012019371519769124 0 -0.03285341884806442 7.3809771258876477e-05 0 -0.034117149752050088 -0.00017977050722370761 0 -0.03285341884806442 7.3809771258876477e-05 0 -0.034117149752050088 -0.00017977050722370761 0 -0.034444526382634268 0.00026598524347923433 0 -0.034117149752050088 -0.00017977050722370761 0 -0.034884195094621144 -3.0649893120555428e-05 0 -0.034444526382634268 0.00026598524347923433 0 -0.034117149752050088 -0.00017977050722370761 0 -0.034997661911549308 -7.4435807581922939e-07 0 -0.034884195094621144 -3.0649893120555428e-05 0 -0.034999998963949085 1.0571789381585293e-10 0 -0.034998877843373327 -4.3566541109557286e-07 0 -0.034999998831477988 -5.3607584785578169e-10 0 -0.034998202702444872 6.8052518543477245e-07 0 -0.034378457362380863 0.00014053054641546367 0 -0.034999998831477988 -5.3607584785578169e-10 0 -0.034998669585811777 -7.8416924206037351e-07 0 -0.034999470014561877 -1.2331050163950086e-06 0 -0.034999998831477988 -5.3607584785578169e-10 0 -0.034999997336624608 -1.8292736007813425e-09 0 -0.034999470014561877 -1.2331050163950086e-06 0 -0.034998877843373327 -4.3566541109557286e-07 0 -0.034999998831477988 -5.3607584785578169e-10 0 -0.034998669585811777 -7.8416924206037351e-07 0 -0.034998877843373327 -4.3566541109557286e-07 0 -0.034998669585811777 -7.8416924206037351e-07 0 -0.034997231441681348 -7.002070281439908e-07 0 -0.034378457362380863 0.00014053054641546367 0 -0.033594584802257806 0.00022114485812108024 0 -0.034998669585811777 -7.8416924206037351e-07 0 -0.034998329697309552 -9.495175590689878e-07 0 -0.034997231441681348 -7.002070281439908e-07 0 -0.034998669585811777 -7.8416924206037351e-07 0 -0.034998329697309552 -9.495175590689878e-07 0 -0.034999470014561877 -1.2331050163950086e-06 0 -0.034084328362597956 0.00011188991972137798 0 -0.033594584802257806 0.00022114485812108024 0 -0.033423714766224383 0.00015041436942161846 0 -0.033212200446390623 0.0003951082070006585 0 -0.03291358663133661 0.0002737717665454807 0 -0.033423714766224383 0.00015041436942161846 0 -0.033212200446390623 0.0003951082070006585 0 -0.033477272570899969 0.00045322645351023321 0 -0.033212200446390623 0.0003951082070006585 0 -0.03291358663133661 0.0002737717665454807 0 -0.033155779803482929 0.00070002664123817581 0 -0.031995686310765874 0.00037609390882698489 0 -0.031886290573875771 0.00019580768484307173 0 -0.0321023913924234 0.0002283226739261989 0 -0.033594584802257806 0.00022114485812108024 0 -0.032702571275074512 0.00052140680977185436 0 -0.031886290573875771 0.00019580768484307173 0 -0.0321023913924234 0.0002283226739261989 0 -0.032042653408661706 0.00011740440881643184 0 -0.033155779803482929 0.00070002664123817581 0 -0.033477272570899969 0.00045322645351023321 0 -0.033558181084445679 0.00071910410964883995 0 -0.033212200446390623 0.0003951082070006585 0 -0.033155779803482929 0.00070002664123817581 0 -0.033477272570899969 0.00045322645351023321 0 -0.031995686310765874 0.00037609390882698489 0 -0.032281521691512827 0.00032332200526906141 0 -0.0321023913924234 0.0002283226739261989 0 -0.033594584802257806 0.00022114485812108024 0 -0.033409984730309733 0.00023465489591770655 0 -0.034884195094621144 -3.0649893120555428e-05 0 -0.035006695616503464 0.00023803017109237193 0 -0.034444526382634268 0.00026598524347923433 0 -0.0321023913924234 0.0002283226739261989 0 -0.032228808368689257 0.00010336920541421807 0 -0.032147940004593763 0.00012694932438828932 0 -0.0321023913924234 0.0002283226739261989 0 -0.032147940004593763 0.00012694932438828932 0 -0.032042653408661706 0.00011740440881643184 0 -0.032281521691512827 0.00032332200526906141 0 -0.0321023913924234 0.0002283226739261989 0 -0.032228808368689257 0.00010336920541421807 0 -0.032228808368689257 0.00010336920541421807 0 -0.032229238564139014 6.8809303634349324e-05 0 -0.032267780614280164 1.2653755233844178e-05 0 -0.032229238564139014 6.8809303634349324e-05 0 -0.032234042400400467 0.00012280977377225139 0 -0.032267780614280164 1.2653755233844178e-05 0 -0.032229238564139014 6.8809303634349324e-05 0 -0.032210048958612125 7.4045816309549253e-05 0 -0.032219588092644552 9.084329241124444e-05 0 -0.032229238564139014 6.8809303634349324e-05 0 -0.03219730182851363 8.3977300905471817e-05 0 -0.032210048958612125 7.4045816309549253e-05 0 -0.032228808368689257 0.00010336920541421807 0 -0.032229238564139014 6.8809303634349324e-05 0 -0.03219730182851363 8.3977300905471817e-05 0 -0.032228808368689257 0.00010336920541421807 0 -0.032147940004593763 0.00012694932438828932 0 -0.03219730182851363 8.3977300905471817e-05 0 -0.032147940004593763 0.00012694932438828932 0 -0.03219730182851363 8.3977300905471817e-05 0 -0.032156096155262805 7.2142727100867147e-05 0 -0.032147940004593763 0.00012694932438828932 0 -0.032156096155262805 7.2142727100867147e-05 0 -0.032042653408661706 0.00011740440881643184 0 -0.032156096155262805 7.2142727100867147e-05 0 -0.032042653408661706 0.00011740440881643184 0 -0.032042781964565427 1.1111915314212715e-05 0 -0.02781988868500955 0.0011029837415958289 0 -0.027747823731549322 0.0011423952324478566 0 -0.032156096155262805 7.2142727100867147e-05 0 -0.032192010158012735 6.1710092158829969e-05 0 -0.032164789911510436 1.4468508735219547e-05 0 -0.032156096155262805 7.2142727100867147e-05 0 -0.032132584678116971 -4.1674737994844483e-05 0 -0.032042781964565427 1.1111915314212715e-05 0 -0.027816658941669285 0.0011663614445922277 0 -0.027747823731549322 0.0011423952324478566 0 -0.032192010158012735 6.1710092158829969e-05 0 -0.032219588092644552 9.084329241124444e-05 0 -0.032236716137792033 9.6169563564762166e-05 0 -0.03219730182851363 8.3977300905471817e-05 0 -0.032210048958612125 7.4045816309549253e-05 0 -0.032192010158012735 6.1710092158829969e-05 0 -0.03219730182851363 8.3977300905471817e-05 0 -0.032156096155262805 7.2142727100867147e-05 0 -0.032192010158012735 6.1710092158829969e-05 0 -0.032210048958612125 7.4045816309549253e-05 0 -0.032192010158012735 6.1710092158829969e-05 0 -0.032219588092644552 9.084329241124444e-05 0 -0.032219588092644552 9.084329241124444e-05 0 -0.032236716137792033 9.6169563564762166e-05 0 -0.032229348028139725 0.00013245980232511558 0 -0.027747823731549322 0.0011423952324478566 0 -0.027198364965430329 0.00092359412089369243 0 -0.032236716137792033 9.6169563564762166e-05 0 -0.032229348028139725 0.00013245980232511558 0 -0.032253353118337234 0.00017379677169329457 0 -0.032229348028139725 0.00013245980232511558 0 -0.032234042400400467 0.00012280977377225139 0 -0.032210338574349705 0.00018402170574348685 0 -0.032234042400400467 0.00012280977377225139 0 -0.032210338574349705 0.00018402170574348685 0 -0.032200570654416526 0.00019406134024514186 0 -0.032219588092644552 9.084329241124444e-05 0 -0.032229348028139725 0.00013245980232511558 0 -0.032234042400400467 0.00012280977377225139 0 -0.032229238564139014 6.8809303634349324e-05 0 -0.032219588092644552 9.084329241124444e-05 0 -0.032234042400400467 0.00012280977377225139 0 -0.031886290573875771 0.00019580768484307173 0 -0.031746179488660299 -5.892479290987576e-06 0 -0.031924336480154289 2.4077921844800459e-05 0 -0.033155779803482929 0.00070002664123817581 0 -0.033395497395713868 0.0011140722859168794 0 -0.033558181084445679 0.00071910410964883995 0 -0.032702571275074512 0.00052140680977185436 0 -0.031908684633243124 0.00094389101531188379 0 -0.031746179488660299 -5.892479290987576e-06 0 -0.031924336480154289 2.4077921844800459e-05 0 -0.031851994012824375 -7.9517437866135932e-05 0 -0.031886290573875771 0.00019580768484307173 0 -0.031924336480154289 2.4077921844800459e-05 0 -0.032042653408661706 0.00011740440881643184 0 -0.031924336480154289 2.4077921844800459e-05 0 -0.032042653408661706 0.00011740440881643184 0 -0.032042781964565427 1.1111915314212715e-05 0 -0.032132584678116971 -4.1674737994844483e-05 0 -0.0319706126754917 -0.00011798582498223981 0 -0.031980042680571592 -0.00029966766525658966 0 -0.027747823731549322 0.0011423952324478566 0 -0.027334967476358864 0.0012719223097430335 0 -0.031924336480154289 2.4077921844800459e-05 0 -0.032042781964565427 1.1111915314212715e-05 0 -0.0319706126754917 -0.00011798582498223981 0 -0.032132584678116971 -4.1674737994844483e-05 0 -0.032042781964565427 1.1111915314212715e-05 0 -0.0319706126754917 -0.00011798582498223981 0 -0.031924336480154289 2.4077921844800459e-05 0 -0.0319706126754917 -0.00011798582498223981 0 -0.031851994012824375 -7.9517437866135932e-05 0 -0.0319706126754917 -0.00011798582498223981 0 -0.031851994012824375 -7.9517437866135932e-05 0 -0.031767172237750066 -0.00021979953990295097 0 -0.031746179488660299 -5.892479290987576e-06 0 -0.031767172237750066 -0.00021979953990295097 0 -0.031613444245852329 -0.00022218110667186587 0 -0.031746179488660299 -5.892479290987576e-06 0 -0.031851994012824375 -7.9517437866135932e-05 0 -0.031767172237750066 -0.00021979953990295097 0 -0.031767172237750066 -0.00021979953990295097 0 -0.031809571021827097 -0.00037416119883483046 0 -0.031980042680571592 -0.00029966766525658966 0 -0.031767172237750066 -0.00021979953990295097 0 -0.031809571021827097 -0.00037416119883483046 0 -0.031670863631768346 -0.00039337872342171809 0 -0.0319706126754917 -0.00011798582498223981 0 -0.031767172237750066 -0.00021979953990295097 0 -0.031980042680571592 -0.00029966766525658966 0 -0.027334967476358864 0.0012719223097430335 0 -0.026203432598751991 0.0014025064046528496 0 -0.026828148264158306 0.0011160951964150419 0 -0.026884183787800411 0.00090833728935269464 0 -0.026710073435006407 0.00091112083381558436 0 -0.026828148264158306 0.0011160951964150419 0 -0.026884183787800411 0.00090833728935269464 0 -0.026915410615720711 0.0011147555299282918 0 -0.026125418531015136 0.00072026693220238246 0 -0.026203432598751991 0.0014025064046528496 0 -0.031818085421392077 -0.00058619975653277146 0 -0.031670863631768346 -0.00039337872342171809 0 -0.031592785476838643 -0.00058700843143342043 0 -0.031809571021827097 -0.00037416119883483046 0 -0.031818085421392077 -0.00058619975653277146 0 -0.031670863631768346 -0.00039337872342171809 0 -0.026203432598751991 0.0014025064046528496 0 -0.027744756253332361 0.0013875019983855086 0 -0.031809571021827097 -0.00037416119883483046 0 -0.031980042680571592 -0.00029966766525658966 0 -0.031818085421392077 -0.00058619975653277146 0 -0.026947144958126404 0.0013213040169714999 0 -0.026828148264158306 0.0011160951964150419 0 -0.026915410615720711 0.0011147555299282918 0 -0.032229348028139725 0.00013245980232511558 0 -0.032210338574349705 0.00018402170574348685 0 -0.032253353118337234 0.00017379677169329457 0 -0.032248659325852184 0.00022392904640195955 0 -0.032210338574349705 0.00018402170574348685 0 -0.032253353118337234 0.00017379677169329457 0 -0.026125418531015136 0.00072026693220238246 0 -0.027198364965430329 0.00092359412089369243 0 -0.032248659325852184 0.00022392904640195955 0 -0.032210338574349705 0.00018402170574348685 0 -0.032194597489299648 0.00022468617862996153 0 -0.032210338574349705 0.00018402170574348685 0 -0.032185313918420194 0.00019794782435618224 0 -0.032194597489299648 0.00022468617862996153 0 -0.032185313918420194 0.00019794782435618224 0 -0.032147839109019381 0.00022824156578906044 0 -0.032194597489299648 0.00022468617862996153 0 -0.032210338574349705 0.00018402170574348685 0 -0.032185313918420194 0.00019794782435618224 0 -0.032200570654416526 0.00019406134024514186 0 -0.032185313918420194 0.00019794782435618224 0 -0.032173861800969206 0.00019084155807579862 0 -0.032200570654416526 0.00019406134024514186 0 -0.031700360966994828 0.00063241910328891253 0 -0.029708083385701543 0.00074041368561016574 0 -0.031075723679902693 0.00021912679941755964 0 -0.023716185829619676 0.0017041527082232485 0 -0.023937773754257652 0.0008718019620208309 0 -0.024912154942056799 0.0010697818040641487 0 -0.02796626112433671 -0.0005964341798040593 0 -0.02735151908271426 -0.00019881869670740053 0 -0.02796626112433671 -0.0005964341798040593 0 -0.027971625942515177 -0.00059498076375943216 0 -0.02796626112433671 -0.0005964341798040593 0 -0.027429015417558426 0.00012543177800502614 0 -0.032185313918420194 0.00019794782435618224 0 -0.032173861800969206 0.00019084155807579862 0 -0.032159832612200442 0.00020516863189715744 0 -0.032185313918420194 0.00019794782435618224 0 -0.032159832612200442 0.00020516863189715744 0 -0.032147839109019381 0.00022824156578906044 0 -0.027429015417558426 0.00012543177800502614 0 -0.026850524775876915 0.00073482007143821056 0 -0.023937773754257652 0.0008718019620208309 0 -0.024503764594864492 0.00056786860520012842 0 -0.02416116711652044 2.4655222773837213e-05 0 -0.024503764594864492 0.00056786860520012842 0 -0.024912154942056799 0.0010697818040641487 0 -0.024828307091586718 7.845498571533046e-06 0 -0.024912154942056799 0.0010697818040641487 0 -0.025527904627719561 -0.00012727275778732253 0 -0.024828307091586718 7.845498571533046e-06 0 -0.024503764594864492 0.00056786860520012842 0 -0.024828307091586718 7.845498571533046e-06 0 -0.02416116711652044 2.4655222773837213e-05 0 -0.023937773754257652 0.0008718019620208309 0 -0.024503764594864492 0.00056786860520012842 0 -0.024912154942056799 0.0010697818040641487 0 -0.026667769272149925 -1.7478425865975885e-07 0 -0.02735151908271426 -0.00019881869670740053 0 -0.026663352107960551 1.8138698063636902e-06 0 -0.024912154942056799 0.0010697818040641487 0 -0.025527904627719561 -0.00012727275778732253 0 -0.026669739666625562 2.8363211021010607e-06 0 -0.029708083385701543 0.00074041368561016574 0 -0.028698740124871985 -4.9849834234211353e-07 0 -0.029708083385701543 0.00074041368561016574 0 -0.031075723679902693 0.00021912679941755964 0 -0.028698740124871985 -4.9849834234211353e-07 0 -0.031075723679902693 0.00021912679941755964 0 -0.028698740124871985 -4.9849834234211353e-07 0 -0.031213752152139888 -6.7494174889138193e-05 0 -0.031404213612740824 -2.6823602017872076e-07 0 -0.028698740124871985 -4.9849834234211353e-07 0 -0.031213752152139888 -6.7494174889138193e-05 0 -0.031075723679902693 0.00021912679941755964 0 -0.031213752152139888 -6.7494174889138193e-05 0 -0.031948677408671015 2.6612140428148299e-05 0 -0.03285341884806442 7.3809771258876477e-05 0 -0.031213752152139888 -6.7494174889138193e-05 0 -0.031948677408671015 2.6612140428148299e-05 0 -0.03285341884806442 7.3809771258876477e-05 0 -0.031948677408671015 2.6612140428148299e-05 0 -0.032267780614280164 1.2653755233844178e-05 0 -0.031948677408671015 2.6612140428148299e-05 0 -0.032267780614280164 1.2653755233844178e-05 0 -0.031961207350745022 0.00014894198457757342 0 -0.032267780614280164 1.2653755233844178e-05 0 -0.032200570654416526 0.00019406134024514186 0 -0.031961207350745022 0.00014894198457757342 0 -0.032234042400400467 0.00012280977377225139 0 -0.032267780614280164 1.2653755233844178e-05 0 -0.032200570654416526 0.00019406134024514186 0 -0.031740934349941553 0.00060466107409692482 0 -0.032200570654416526 0.00019406134024514186 0 -0.03176143320552402 0.00050026113149491543 0 -0.032200570654416526 0.00019406134024514186 0 -0.03176143320552402 0.00050026113149491543 0 -0.031961207350745022 0.00014894198457757342 0 -0.02796626112433671 -0.0005964341798040593 0 -0.028544932752816506 -0.00075185312376918742 0 -0.031075723679902693 0.00021912679941755964 0 -0.03176143320552402 0.00050026113149491543 0 -0.031961207350745022 0.00014894198457757342 0 -0.031700360966994828 0.00063241910328891253 0 -0.031075723679902693 0.00021912679941755964 0 -0.03176143320552402 0.00050026113149491543 0 -0.031075723679902693 0.00021912679941755964 0 -0.031948677408671015 2.6612140428148299e-05 0 -0.031961207350745022 0.00014894198457757342 0 -0.031593744682923863 0.00078797544389907798 0 -0.030642894308306301 0.0016697448424219327 0 -0.034789919988283603 -0.00033157870102881444 0 -0.034835797823626578 -0.0014130858060420384 0 -0.034257425965540649 -0.00053982528433014489 0 -0.034941354367457711 0.00010585291214103035 0 -0.034965497385969734 8.1229312181332615e-05 0 -0.034972229089677752 0.00013887603998227562 0 -0.034941354367457711 0.00010585291214103035 0 -0.034936645297639388 0.00015433011394459052 0 -0.034972229089677752 0.00013887603998227562 0 -0.034941354367457711 0.00010585291214103035 0 -0.03490963694190715 0.00014997583369516629 0 -0.034936645297639388 0.00015433011394459052 0 -0.034941354367457711 0.00010585291214103035 0 -0.034945297286941263 5.694100657792673e-05 0 -0.034948369660983664 5.3377164013991442e-05 0 -0.034941354367457711 0.00010585291214103035 0 -0.034945297286941263 5.694100657792673e-05 0 -0.034965497385969734 8.1229312181332615e-05 0 -0.031593744682923863 0.00078797544389907798 0 -0.031897631305830371 0.00061291835613636601 0 -0.034945297286941263 5.694100657792673e-05 0 -0.034965497385969734 8.1229312181332615e-05 0 -0.034900457219809604 5.2202180199449227e-05 0 -0.034789919988283603 -0.00033157870102881444 0 -0.034900457219809604 5.2202180199449227e-05 0 -0.034321057845493559 4.0366059579108627e-05 0 -0.034900457219809604 5.2202180199449227e-05 0 -0.034999907989408857 1.0791528254262467e-07 0 -0.034962219659000052 3.3675035541501178e-05 0 -0.034900457219809604 5.2202180199449227e-05 0 -0.034999907989408857 1.0791528254262467e-07 0 -0.034737473016614055 6.3688460955624044e-05 0 -0.034999907989408857 1.0791528254262467e-07 0 -0.034962219659000052 3.3675035541501178e-05 0 -0.034999935783913985 -4.2271112022333127e-09 0 -0.034945297286941263 5.694100657792673e-05 0 -0.034900457219809604 5.2202180199449227e-05 0 -0.034962219659000052 3.3675035541501178e-05 0 -0.034945297286941263 5.694100657792673e-05 0 -0.034962219659000052 3.3675035541501178e-05 0 -0.034948369660983664 5.3377164013991442e-05 0 -0.034948369660983664 5.3377164013991442e-05 0 -0.034965724029914609 9.8789187634577383e-06 0 -0.034933588369325773 4.0804259509946583e-05 0 -0.034962219659000052 3.3675035541501178e-05 0 -0.034948369660983664 5.3377164013991442e-05 0 -0.034965724029914609 9.8789187634577383e-06 0 -0.034999935783913985 -4.2271112022333127e-09 0 -0.034965724029914609 9.8789187634577383e-06 0 -0.034999928942521061 9.2457840590072031e-09 0 -0.034962219659000052 3.3675035541501178e-05 0 -0.034999935783913985 -4.2271112022333127e-09 0 -0.034965724029914609 9.8789187634577383e-06 0 -0.034965724029914609 9.8789187634577383e-06 0 -0.034999928942521061 9.2457840590072031e-09 0 -0.034949086694622516 -8.9826086788633304e-06 0 -0.034949086694622516 -8.9826086788633304e-06 0 -0.034933588369325773 4.0804259509946583e-05 0 -0.034848958272531622 3.5074809345328451e-05 0 -0.034965724029914609 9.8789187634577383e-06 0 -0.034949086694622516 -8.9826086788633304e-06 0 -0.034933588369325773 4.0804259509946583e-05 0 -0.034933588369325773 4.0804259509946583e-05 0 -0.034874258838500274 9.4345659492806413e-05 0 -0.034848958272531622 3.5074809345328451e-05 0 -0.034874258838500274 9.4345659492806413e-05 0 -0.034870107103636076 0.0001443947