<?xml version="1.0"?>
<VTKFile type="UnstructuredGrid" version="0.1" byte_order="LittleEndian">
<UnstructuredGrid>
<Piece NumberOfPoints="30618" NumberOfCells="10744">
<Points>
<DataArray type="Float64" NumberOfComponents="3" format="ascii">
-0.49427958746526202 -0.49999999999999512 0 -0.4943900888896422 -0.47349089190363358 0 -0.49427958746526202 -0.49999999999999512 0 -0.5 -0.5 0 -0.4943900888896422 -0.47349089190363358 0 -0.5 -0.5 0 -0.4943900888896422 -0.47349089190363358 0 -0.5 -0.44150235328842258 0 -0.49427958746526202 -0.49999999999999512 0 -0.4943900888896422 -0.47349089190363358 0 -0.48436842240857858 -0.48714093788813112 0 -0.49427958746526202 -0.49999999999999512 0 -0.47650045540741742 -0.5 0 -0.48436842240857858 -0.48714093788813112 0 -0.4943900888896422 -0.47349089190363358 0 -0.47066899942757451 -0.47576530412887819 0 -0.48436842240857858 -0.48714093788813112 0 -0.47066899942757451 -0.47576530412887819 0 -0.47650045540741742 -0.5 0 -0.48436842240857858 -0.48714093788813112 0 -0.47066899942757451 -0.47576530412887819 0 -0.45872132334957288 -0.49999999999999928 0 -0.45242967983978871 -0.4846708604340636 0 -0.47066899942757451 -0.47576530412887819 0 -0.47650045540741742 -0.5 0 -0.45872132334957288 -0.49999999999999928 0 -0.47066899942757451 -0.47576530412887819 0 -0.45872132334957288 -0.49999999999999928 0 -0.47066899942757451 -0.47576530412887819 0 -0.45242967983978871 -0.4846708604340636 0 -0.45249717469141032 -0.46588444847215849 0 -0.43763952177061649 -0.47770500498713542 0 -0.45242967983978871 -0.4846708604340636 0 -0.45249717469141032 -0.46588444847215849 0 -0.43763952177061649 -0.47770500498713542 0 -0.44291044788006362 -0.49999999999999939 0 -0.45242967983978871 -0.4846708604340636 0 -0.43763952177061649 -0.47770500498713542 0 -0.44291044788006362 -0.49999999999999939 0 -0.45872132334957288 -0.49999999999999928 0 -0.44291044788006362 -0.49999999999999939 0 -0.45242967983978871 -0.4846708604340636 0 -0.44838221886832419 -0.4464230337388379 0 -0.4323685956611692 -0.45541000997427139 0 -0.435988539966085 -0.44148905847597392 0 -0.44838221886832419 -0.4464230337388379 0 -0.44213238819953832 -0.43491600865963681 0 -0.435988539966085 -0.44148905847597392 0 -0.44838221886832419 -0.4464230337388379 0 -0.45249717469141032 -0.46588444847215849 0 -0.45755175660874181 -0.45423607616472811 0 -0.44838221886832419 -0.4464230337388379 0 -0.45249717469141032 -0.46588444847215849 0 -0.4323685956611692 -0.45541000997427139 0 -0.43763952177061649 -0.47770500498713542 0 -0.45249717469141032 -0.46588444847215849 0 -0.4323685956611692 -0.45541000997427139 0 -0.47066899942757451 -0.47576530412887819 0 -0.45249717469141032 -0.46588444847215849 0 -0.4675747862741928 -0.45726336772241771 0 -0.45249717469141032 -0.46588444847215849 0 -0.45755175660874181 -0.45423607616472811 0 -0.4675747862741928 -0.45726336772241771 0 -0.44838221886832419 -0.4464230337388379 0 -0.46897642374787268 -0.44262015471777721 0 -0.45660235518767722 -0.42786105997071933 0 -0.44838221886832419 -0.4464230337388379 0 -0.45755175660874181 -0.45423607616472811 0 -0.46897642374787268 -0.44262015471777721 0 -0.45755175660874181 -0.45423607616472811 0 -0.4675747862741928 -0.45726336772241771 0 -0.46897642374787268 -0.44262015471777721 0 -0.4943900888896422 -0.47349089190363358 0 -0.5 -0.44150235328842258 0 -0.49450059031402238 -0.44698178380727199 0 -0.46897642374787268 -0.44262015471777721 0 -0.48473746643246862 -0.43972512984246093 0 -0.48043585850414389 -0.43127077967876992 0 -0.46897642374787268 -0.44262015471777721 0 -0.4826166755055763 -0.45153060825775743 0 -0.48473746643246862 -0.43972512984246093 0 -0.4675747862741928 -0.45726336772241771 0 -0.46897642374787268 -0.44262015471777721 0 -0.4826166755055763 -0.45153060825775743 0 -0.47066899942757451 -0.47576530412887819 0 -0.4826166755055763 -0.45153060825775743 0 -0.4943900888896422 -0.47349089190363358 0 -0.47066899942757451 -0.47576530412887819 0 -0.4826166755055763 -0.45153060825775743 0 -0.47066899942757451 -0.47576530412887819 0 -0.4675747862741928 -0.45726336772241771 0 -0.4826166755055763 -0.45153060825775743 0 -0.4943900888896422 -0.47349089190363358 0 -0.49450059031402238 -0.44698178380727199 0 -0.4943900888896422 -0.47349089190363358 0 -0.4826166755055763 -0.45153060825775743 0 -0.49450059031402238 -0.44698178380727199 0 -0.4826166755055763 -0.45153060825775743 0 -0.48473746643246862 -0.43972512984246093 0 -0.49450059031402238 -0.44698178380727199 0 -0.5 -0.44150235328842258 0 -0.49461109173840262 -0.42047267571091063 0 -0.5 -0.39656953661894012 0 -0.49450059031402238 -0.44698178380727199 0 -0.49461109173840262 -0.42047267571091063 0 -0.48473746643246862 -0.43972512984246093 0 -0.49461109173840262 -0.42047267571091063 0 -0.48043585850414389 -0.43127077967876992 0 -0.5 -0.44150235328842258 0 -0.49450059031402238 -0.44698178380727199 0 -0.49461109173840262 -0.42047267571091063 0 -0.48473746643246862 -0.43972512984246093 0 -0.49450059031402238 -0.44698178380727199 0 -0.49461109173840262 -0.42047267571091063 0 -0.49461109173840262 -0.42047267571091063 0 -0.4947215931627828 -0.39396356761454909 0 -0.49461109173840262 -0.42047267571091063 0 -0.48393842445605872 -0.40713040098299402 0 -0.4947215931627828 -0.39396356761454909 0 -0.49461109173840262 -0.42047267571091063 0 -0.48393842445605872 -0.40713040098299402 0 -0.47214510592166908 -0.41939033492402211 0 -0.48393842445605872 -0.40713040098299402 0 -0.47214510592166908 -0.41939033492402211 0 -0.47427590700138023 -0.39469502568249409 0 -0.46897642374787268 -0.44262015471777721 0 -0.47214510592166908 -0.41939033492402211 0 -0.48043585850414389 -0.43127077967876992 0 -0.49461109173840262 -0.42047267571091063 0 -0.47214510592166908 -0.41939033492402211 0 -0.48043585850414389 -0.43127077967876992 0 -0.5 -0.39656953661894012 0 -0.4947215931627828 -0.39396356761454909 0 -0.48030453056746109 -0.36861144308094029 0 -0.49461109173840262 -0.42047267571091063 0 -0.5 -0.39656953661894012 0 -0.4947215931627828 -0.39396356761454909 0 -0.48393842445605872 -0.40713040098299402 0 -0.4947215931627828 -0.39396356761454909 0 -0.47427590700138023 -0.39469502568249409 0 -0.47427590700138023 -0.39469502568249409 0 -0.48030453056746109 -0.36861144308094029 0 -0.4947215931627828 -0.39396356761454909 0 -0.47427590700138023 -0.39469502568249409 0 -0.48030453056746109 -0.36861144308094029 0 -0.47427590700138023 -0.39469502568249409 0 -0.46334377193483078 -0.37842983215876019 0 -0.48030453056746109 -0.36861144308094029 0 -0.46334377193483078 -0.37842983215876019 0 -0.45726543839001688 -0.40541672899881109 0 -0.44416021803808919 -0.38243724496113263 0 -0.47427590700138023 -0.39469502568249409 0 -0.46334377193483078 -0.37842983215876019 0 -0.45726543839001688 -0.40541672899881109 0 -0.45726543839001688 -0.40541672899881109 0 -0.43814282409564848 -0.40387353522152758 0 -0.44416021803808919 -0.38243724496113263 0 -0.43814282409564848 -0.40387353522152758 0 -0.44416021803808919 -0.38243724496113263 0 -0.4329908326547659 -0.40007252460533121 0 -0.43814282409564848 -0.40387353522152758 0 -0.44416021803808919 -0.38243724496113263 0 -0.46897642374787268 -0.44262015471777721 0 -0.47214510592166908 -0.41939033492402211 0 -0.45660235518767722 -0.42786105997071933 0 -0.47214510592166908 -0.41939033492402211 0 -0.47427590700138023 -0.39469502568249409 0 -0.45726543839001688 -0.40541672899881109 0 -0.47214510592166908 -0.41939033492402211 0 -0.45726543839001688 -0.40541672899881109 0 -0.45660235518767722 -0.42786105997071933 0 -0.45726543839001688 -0.40541672899881109 0 -0.45660235518767722 -0.42786105997071933 0 -0.44309263043645408 -0.41812298423377797 0 -0.45726543839001688 -0.40541672899881109 0 -0.43814282409564848 -0.40387353522152758 0 -0.44309263043645408 -0.41812298423377797 0 -0.43814282409564848 -0.40387353522152758 0 -0.44309263043645408 -0.41812298423377797 0 -0.43209373842114163 -0.42530092927673752 0 -0.44838221886832419 -0.4464230337388379 0 -0.45660235518767722 -0.42786105997071933 0 -0.44213238819953832 -0.43491600865963681 0 -0.45660235518767722 -0.42786105997071933 0 -0.44213238819953832 -0.43491600865963681 0 -0.43132710435572019 -0.42815377149591122 0 -0.45660235518767722 -0.42786105997071933 0 -0.44309263043645408 -0.41812298423377797 0 -0.43132710435572019 -0.42815377149591122 0 -0.45660235518767722 -0.42786105997071933 0 -0.43132710435572019 -0.42815377149591122 0 -0.44213238819953832 -0.43491600865963681 0 -0.42986244815509678 -0.43337144475258638 0 -0.435988539966085 -0.44148905847597392 0 -0.44213238819953832 -0.43491600865963681 0 -0.42986244815509678 -0.43337144475258638 0 -0.43132710435572019 -0.42815377149591122 0 -0.42986244815509678 -0.43337144475258638 0 -0.43132710435572019 -0.42815377149591122 0 -0.42986244815509678 -0.43337144475258638 0 -0.42494843276815808 -0.42822764260015772 0 -0.42026026496879931 -0.43681168621285732 0 -0.42986244815509678 -0.43337144475258638 0 -0.42494843276815808 -0.42822764260015772 0 -0.43132710435572019 -0.42815377149591122 0 -0.42494843276815808 -0.42822764260015772 0 -0.43209373842114163 -0.42530092927673752 0 -0.42214799869492048 -0.41876725226122891 0 -0.42494843276815808 -0.42822764260015772 0 -0.43209373842114163 -0.42530092927673752 0 -0.42494843276815808 -0.42822764260015772 0 -0.43209373842114163 -0.42530092927673752 0 -0.43132710435572019 -0.42815377149591122 0 -0.42494843276815808 -0.42822764260015772 0 -0.43132710435572019 -0.42815377149591122 0 -0.44309263043645408 -0.41812298423377797 0 -0.43209373842114163 -0.42530092927673752 0 -0.43132710435572019 -0.42815377149591122 0 -0.43209373842114163 -0.42530092927673752 0 -0.43132710435572019 -0.42815377149591122 0 -0.43814282409564848 -0.40387353522152758 0 -0.43209373842114163 -0.42530092927673752 0 -0.43814282409564848 -0.40387353522152758 0 -0.43209373842114163 -0.42530092927673752 0 -0.42736227186559528 -0.41250939947999687 0 -0.43814282409564848 -0.40387353522152758 0 -0.42736227186559528 -0.41250939947999687 0 -0.42798743510346321 -0.40461924019690898 0
[...]
<PointData Scalars="" Vectors="displacement," Tensors="">
<DataArray type="Float64" Name="displacement" NumberOfComponents="3" format="ascii">
-0.0049999471307881852 -0.0049427919456135399 0 -0.004922181957852839 -0.0049241845939734475 0 -0.0049998820868816223 -0.0049434270706795961 0 -0.005000075546171239 -0.0049995837756040846 0 -0.0047406626411785596 -0.005051444721870268 0 -0.005000075546171239 -0.0049995837756040846 0 -0.0047406626411785596 -0.005051444721870268 0 -0.0044149249938256682 -0.0050002171825819291 0 -0.005000015342796464 -0.0049426450051338212 0 -0.0051313232950511425 -0.0048032793555188597 0 -0.0050797361921284378 -0.0048172633815973184 0 -0.005000015342796464 -0.0049426450051338212 0 -0.0049999755400669662 -0.0047650097330466283 0 -0.0050797361921284378 -0.0048172633815973184 0 -0.0051313232950511425 -0.0048032793555188597 0 -0.0051353413739149934 -0.0047651728769419217 0 -0.0050797361921284378 -0.0048172633815973184 0 -0.0051353413739149934 -0.0047651728769419217 0 -0.0049999755400669662 -0.0047650097330466283 0 -0.0050797361921284378 -0.0048172633815973184 0 -0.0050449149456280144 -0.0047299117989640128 0 -0.0049999081423534797 -0.0045870441032608436 0 -0.0050305050106910741 -0.0045981840395233533 0 -0.0051353413739149934 -0.0047651728769419217 0 -0.0049999755400669662 -0.0047650097330466283 0 -0.0049999925582460509 -0.0045873119571382915 0 -0.0050882312501224162 -0.0047420417254583919 0 -0.0050000147614888959 -0.0045872657087263858 0 -0.0050449149456280144 -0.0047299117989640128 0 -0.0050305050106910741 -0.0045981840395233533 0 -0.0050533927505667575 -0.0046874013192108061 0 -0.0050228268512354547 -0.0045656498005784262 0 -0.0050305050106910741 -0.0045981840395233533 0 -0.0050533927505667575 -0.0046874013192108061 0 -0.0050228268512354547 -0.0045656498005784262 0 -0.0049999712288937119 -0.0044295144593315466 0 -0.0050305050106910741 -0.0045981840395233533 0 -0.0050626001674236283 -0.0044749706152494755 0 -0.0049999814159455858 -0.0044291367562935124 0 -0.0049999081423534797 -0.0045870441032608436 0 -0.0049999712288937119 -0.0044295144593315466 0 -0.0050305050106910741 -0.0045981840395233533 0 -0.0051036373926824554 -0.0047566143132101489 0 -0.0051273389827725963 -0.0045019846993690832 0 -0.0051779876475076484 -0.0046117458136457129 0 -0.0051036373926824554 -0.0047566143132101489 0 -0.0051486877755696483 -0.0047357361356024511 0 -0.0051779876475076484 -0.0046117458136457129 0 -0.0051036373926824554 -0.0047566143132101489 0 -0.0050533927505667575 -0.0046874013192108061 0 -0.0050713569625458789 -0.0047634896500402665 0 -0.0051036373926824554 -0.0047566143132101489 0 -0.0050533927505667575 -0.0046874013192108061 0 -0.0051273389827725963 -0.0045019846993690832 0 -0.0050228268512354547 -0.0045656498005784262 0 -0.0050533927505667575 -0.0046874013192108061 0 -0.0051273389827725963 -0.0045019846993690832 0 -0.0050449149456280144 -0.0047299117989640128 0 -0.0050533927505667575 -0.0046874013192108061 0 -0.0050643116543205042 -0.0047806126404844537 0 -0.0050533927505667575 -0.0046874013192108061 0 -0.0050713569625458789 -0.0047634896500402665 0 -0.0050643116543205042 -0.0047806126404844537 0 -0.0051036373926824554 -0.0047566143132101489 0 -0.0050336122179448781 -0.0048641096687354465 0 -0.004957859660383466 -0.0050175838615696654 0 -0.0051036373926824554 -0.0047566143132101489 0 -0.0050713569625458789 -0.0047634896500402665 0 -0.0050336122179448781 -0.0048641096687354465 0 -0.0050713569625458789 -0.0047634896500402665 0 -0.0050643116543205042 -0.0047806126404844537 0 -0.0050336122179448781 -0.0048641096687354465 0 -0.0047406626411785596 -0.005051444721870268 0 -0.0044149249938256682 -0.0050002171825819291 0 -0.0044711753229770739 -0.0050549483610973335 0 -0.0050336122179448781 -0.0048641096687354465 0 -0.0049543417651494509 -0.004780326026152441 0 -0.0048460067545888254 -0.0048239438941215301 0 -0.0050336122179448781 -0.0048641096687354465 0 -0.0050657836522705873 -0.0047869848825028054 0 -0.0049543417651494509 -0.004780326026152441 0 -0.0050643116543205042 -0.0047806126404844537 0 -0.0050336122179448781 -0.0048641096687354465 0 -0.0050657836522705873 -0.0047869848825028054 0 -0.0050882312501224162 -0.0047420417254583919 0 -0.0050700985932804052 -0.0047814593997537493 0 -0.0051313232950511425 -0.0048032793555188597 0 -0.0051353413739149934 -0.0047651728769419217 0 -0.0050657836522705873 -0.0047869848825028054 0 -0.0050449149456280144 -0.0047299117989640128 0 -0.0050643116543205042 -0.0047806126404844537 0 -0.0050657836522705873 -0.0047869848825028054 0 -0.004922181957852839 -0.0049241845939734475 0 -0.004749344962615443 -0.0048784642549491797 0 -0.0051313232950511425 -0.0048032793555188597 0 -0.0050657836522705873 -0.0047869848825028054 0 -0.0050382853467380653 -0.0046993884454869387 0 -0.0050657836522705873 -0.0047869848825028054 0 -0.0049543417651494509 -0.004780326026152441 0 -0.0050382853467380653 -0.0046993884454869387 0 -0.0044149249938256682 -0.0050002171825819291 0 -0.0042010231359942583 -0.0050532646148145292 0 -0.0039660646919423524 -0.0049994999906529157 0 -0.004749344962615443 -0.0048784642549491797 0 -0.0044253428553497559 -0.0048753550780135562 0 -0.0049543417651494509 -0.004780326026152441 0 -0.0046510906817137368 -0.0046648389667189065 0 -0.0048460067545888254 -0.0048239438941215301 0 -0.0044149249938256682 -0.0050002171825819291 0 -0.0044711753229770739 -0.0050549483610973335 0 -0.0042010231359942583 -0.0050532646148145292 0 -0.0049543417651494509 -0.004780326026152441 0 -0.0050382853467380653 -0.0046993884454869387 0 -0.0046510906817137368 -0.0046648389667189065 0 -0.0044253428553497559 -0.0048753550780135562 0 -0.0040173988680199495 -0.0049636676132175138 0 -0.0046510906817137368 -0.0046648389667189065 0 -0.0043378769041986865 -0.004922369660194454 0 -0.0039676075187378042 -0.004990826354292174 0 -0.0046510906817137368 -0.0046648389667189065 0 -0.0043378769041986865 -0.004922369660194454 0 -0.0046723022222339905 -0.0049561548759106426 0 -0.0043378769041986865 -0.004922369660194454 0 -0.0046723022222339905 -0.0049561548759106426 0 -0.0041194499571858712 -0.0050545974359660481 0 -0.0050336122179448781 -0.0048641096687354465 0 -0.0046723022222339905 -0.0049561548759106426 0 -0.0048460067545888254 -0.0048239438941215301 0 -0.0046510906817137368 -0.0046648389667189065 0 -0.0046723022222339905 -0.0049561548759106426 0 -0.0048460067545888254 -0.0048239438941215301 0 -0.0039660646919423524 -0.0049994999906529157 0 -0.0039676075187378042 -0.004990826354292174 0 -0.0037357280647784879 -0.0051208432081898845 0 -0.0042010231359942583 -0.0050532646148145292 0 -0.0039660646919423524 -0.0049994999906529157 0 -0.0039676075187378042 -0.004990826354292174 0 -0.0043378769041986865 -0.004922369660194454 0 -0.0039676075187378042 -0.004990826354292174 0 -0.0041194499571858712 -0.0050545974359660481 0 -0.0040858685526064869 -0.0050611450758366811 0 -0.0037847849677542242 -0.0050330423717076314 0 -0.0039676075187378042 -0.004990826354292174 0 -0.0041194499571858712 -0.0050545974359660481 0 -0.0037357280647784879 -0.0051208432081898845 0 -0.0041194499571858712 -0.0050545974359660481 0 -0.0039351160933909987 -0.0051626540254858617 0 -0.0038149919661255834 -0.0049633907981293836 0 -0.0039351160933909987 -0.0051626540254858617 0 -0.0043697955354173651 -0.0051956000913722326 0 -0.0039948016258711094 -0.0054270060348021463 0 -0.0041194499571858712 -0.0050545974359660481 0 -0.0039351160933909987 -0.0051626540254858617 0 -0.0043697955354173651 -0.0051956000913722326 0 -0.0043697955354173651 -0.0051956000913722326 0 -0.0043532681179054532 -0.0055350430839285914 0 -0.0039948016258711094 -0.0054270060348021463 0 -0.00414664595430469 -0.0044160108168718668 0 -0.004134441559260087 -0.0044020991307356519 0 -0.00415621163362603 -0.0044002676673561151 0 -0.0042035847920362827 -0.0049961160331530308 0 -0.0041333024392228249 -0.0049111965688083186 0 -0.0050336122179448781 -0.0048641096687354465 0 -0.0046723022222339905 -0.0049561548759106426 0 -0.004957859660383466 -0.0050175838615696654 0 -0.0046723022222339905 -0.0049561548759106426 0 -0.0041194499571858712 -0.0050545974359660481 0 -0.0043697955354173651 -0.0051956000913722326 0 -0.0046723022222339905 -0.0049561548759106426 0 -0.0043697955354173651 -0.0051956000913722326 0 -0.004957859660383466 -0.0050175838615696654 0 -0.0043697955354173651 -0.0051956000913722326 0 -0.004957859660383466 -0.0050175838615696654 0 -0.0046809858606104062 -0.0054258769163543713 0 -0.0043697955354173651 -0.0051956000913722326 0 -0.0043532681179054532 -0.0055350430839285914 0 -0.0046809858606104062 -0.0054258769163543713 0 -0.0043532681179054532 -0.0055350430839285914 0 -0.0046809858606104062 -0.0054258769163543713 0 -0.0048669165290207046 -0.0057130586941313549 0 -0.0051036373926824554 -0.0047566143132101489 0 -0.004957859660383466 -0.0050175838615696654 0 -0.0051486877755696483 -0.0047357361356024511 0 -0.004957859660383466 -0.0050175838615696654 0 -0.0051486877755696483 -0.0047357361356024511 0 -0.0053678521388015434 -0.0045506486799549743 0 -0.004957859660383466 -0.0050175838615696654 0 -0.0046809858606104062 -0.0054258769163543713 0 -0.0049439830596617147 -0.0057359699308882723 0 -0.0050377829334599796 -0.0051322335510237387 0 -0.0049602027226711724 -0.0048117836235665162 0 -0.0051486877755696483 -0.0047357361356024511 0 -0.0053019635803790632 -0.0045192813625428291 0 -0.0051779876475076484 -0.0046117458136457129 0 -0.0051486877755696483 -0.0047357361356024511 0 -0.0053019635803790632 -0.0045192813625428291 0 -0.0053678521388015434 -0.0045506486799549743 0 -0.0051601546542354593 -0.0047731299457492542 0 -0.0049602027226711724 -0.0048117836235665162 0 -0.0053019635803790632 -0.0045192813625428291 0 -0.0054015560679335608 -0.0044354907045731657 0 -0.0053231254035202092 -0.004368031694857318 0 -0.0053019635803790632 -0.0045192813625428291 0 -0.0054015560679335608 -0.0044354907045731657 0 -0.0053980281589356841 -0.0045485231119446233 0 -0.0039501934208042702 -0.0043269884291460368 0 -0.0039772927169219189 -0.0043855027418003342 0 -0.0040248571238342256 -0.0043032219454410582 0 -0.0049521699012351119 -0.0043489241632999765 0 -0.0046532840172616059 -0.0047206434481857082 0 -0.0048342895810053205 -0.004469139234065932 0 -0.0049601411314185509 -0.0047807588842310334 0 -0.004836585674786429 -0.004747304307091145 0 -0.0049521699012351119 -0.0043489241632999765 0 -0.0049602027226711724 -0.0048117836235665162 0 -0.0046809858606104062 -0.0054258769163543713 0 -0.0048669165290207046 -0.0057130586941313549 0 -0.0049439830596617147 -0.0057359699308882723 0 -0.0046532840172616059 -0.0047206434481857082 0 -0.0049602027226711724 -0.0048117836235665162 0 -0.0042035847920362827 -0.0049961160331530308 0 -0.0046532840172616059 -0.0047206434481857082 0 -0.00414664595430469 -0.0044160108168718668 0 -0.0039772927169219189 -0.0043855027418003342 0 -0.0040752427180350366 -0.0043462721752464363 0 -0.00414664595430469 -0.0044160108168718668 0 -0.0040752427180350366 -0.0043462721752464363 0 -0.0041302953169669674 -0.0043556521924068333 0 -0.0040752427180350366 -0.0043462721752464363 0 -0.0040248571238342256 -0.0043032219454410582 0 -0.0040917115456266129 -0.0042564800925267527 0 -0.0040752427180350366 -0.0043462721752464363 0 -0.0040917115456266129 -0.0042564800925267527 0 -0.0041302953169669674 -0.0043556521924068333 0 -0.0039772927169219189 -0.0043855027418003342 0 -0.0040752427180350366 -0.0043462721752464363 0 -0.0040248571238342256 -0.0043032219454410582 0 -0.0040917115456266129 -0.0042564800925267527 0 -0.0040150716771520135 -0.0042272880392066085 0 -0.004070241010614168 -0.0041185371463077058 0 -0.0040917115456266129 -0.0042564800925267527 0 -0.0041571135365693962 -0.0041518418848683625 0 -0.004070241010614168 -0.0041185371463077058 0 -0.0040248571238342256 -0.0043032219454410582 0 -0.0040917115456266129 -0.0042564800925267527 0 -0.0040150716771520135 -0.0042272880392066085 0 -0.0054015560679335608 -0.0044354907045731657 0 -0.0053231254035202092 -0.004368031694857318 0 -0.0053893469742192527 -0.0041490229702962405 0 -0.0049521699012351119 -0.0043489241632999765 0 -0.0054564135853901758 -0.004044987796502651 0 -0.0054872808603768251 -0.0041052558606671403 0 -0.0054334367581109506 -0.0039349738583208662 0 -0.0054964729697968935 -0.0039196990646262345 0 -0.0049521699012351119 -0.0043489241632999765 0 -0.0046956010806871078 -0.003986561637180237 0 -0.0039501934208042702 -0.0043269884291460368 0 -0.0040150716771520135 -0.0042272880392066085 0 -0.0039386751678098459 -0.0041271643997489909 0 -0.0039501934208042702 -0.0043269884291460368 0 -0.0040248571238342256 -0.0043032219454410582 0 -0.0040150716771520135 -0.0042272880392066085 0 -0.0043898128643361208 -0.0042804935532682947 0 -0.0036829998955550678 -0.004612427270628619 0 -0.00415621163362603 -0.0044002676673561151 0 -0.0042371965024437745 -0.004269717655469598 0 -0.004353492504790688 -0.0042792482692859402 0 -0.0041311701673282467 -0.0044139813707077119 0 -0.00415621163362603 -0.0044002676673561151 0 -0.0041213928118355994 -0.0044384166023322125 0 -0.004134441559260087 -0.0044020991307356519 0 -0.0041311701673282467 -0.0044139813707077119 0 -0.00415621163362603 -0.0044002676673561151 0 -0.0041311701673282467 -0.0044139813707077119 0 -0.0041213928118355994 -0.0044384166023322125 0 -0.0041090639955695309 -0.0044163040559215749 0 -0.004134441559260087 -0.0044020991307356519 0 -0.0041311701673282467 -0.0044139813707077119 0 -0.0041090639955695309 -0.0044163040559215749 0 -0.00415621163362603 -0.0044002676673561151 0 -0.0041566574927379531 -0.004302396697398775 0 -0.0042371965024437745 -0.004269717655469598 0 -0.00414664595430469 -0.0044160108168718668 0 -0.00415621163362603 -0.0044002676673561151 0 -0.0041302953169669674 -0.0043556521924068333 0 -0.00415621163362603 -0.0044002676673561151 0 -0.0041302953169669674 -0.0043556521924068333 0 -0.0041566574927379531 -0.004302396697398775 0 -0.0040917115456266129 -0.0042564800925267527 0 -0.0041302953169669674 -0.0043556521924068333 0 -0.0041566574927379531 -0.004302396697398775 0 -0.0042110247227502302 -0.0041688560837591267 0 -0.0042371965024437745 -0.004269717655469598 0 -0.0042908622334545538 -0.004124338286497482 0 -0.0040917115456266129 -0.0042564800925267527 0 -0.0041566574927379531 -0.004302396697398775 0 -0.0041705031436556888 -0.0042300516686763047 0 -0.0040917115456266129 -0.0042564800925267527 0 -0.0041705031436556888 -0.0042300516686763047 0 -0.0041571135365693962 -0.0041518418848683625 0 -0.0041705031436556888 -0.0042300516686763047 0 -0.0042110247227502302 -0.0041688560837591267 0 -0.0041571135365693962 -0.0041518418848683625 0 -0.0041705031436556888 -0.0042300516686763047 0 -0.0042110247227502302 -0.0041688560837591267 0 -0.0042371965024437745 -0.004269717655469598 0 -0.0041566574927379531 -0.004302396697398775 0 -0.0041705031436556888 -0.0042300516686763047 0 -0.0042371965024437745 -0.004269717655469598 0 -0.0042399297799959601 -0.0042629263250534262 0 -0.0039732286468236698 -0.0039969351649089329 0 -0.0042371965024437745 -0.004269717655469598 0 -0.0043141662812589705 -0.0042046020264971153 0 -0.004275703147909227 -0.0041315772932963256 0 -0.0042371965024437745 -0.004269717655469598 0 -0.0043153121064877214 -0.0042535520827523205 0 -0.004353492504790688 -0.0042792482692859402 0 -0.0042371965024437745 -0.004269717655469598 0 -0.0043147229951555057 -0.004225608766023849 0 -0.0043153121064877214 -0.0042535520827523205 0 -0.0042371965024437745 -0.004269717655469598 0 -0.0043147229951555057 -0.004225608766023849 0 -0.0043141662812589705 -0.0042046020264971153 0 -0.0036914762640089275 -0.0042335709878066792 0 -0.0037748684496686008 -0.0041125860769902637 0 -0.0043147229951555057 -0.004225608766023849 0 -0.0043310430398758272 -0.0042374047710679874 0 -0.0043137598765752155 -0.0042045596786753001 0 -0.0033395282022804351 -0.0039483809288431582 0 -0.0033216838347089883 -0.0039134682903865618 0 -0.0034513242741765491 -0.0038384592225682869 0 -0.0038076931158022792 -0.0041360067525327976 0 -0.0037748684496686008 -0.0041125860769902637 0 -0.0036914762640089275 -0.0042335709878066792 0 -0.0036829998955550678 -0.004612427270628619 0 -0.0043310721154006509 -0.0042380803276168598 0 -0.0043153121064877214 -0.0042535520827523205 0 -0.004353492504790688 -0.0042792482692859402 0 -0.0043147229951555057 -0.004225608766023849 0 -0.0043310430398758272 -0.0042374047710679874 0 -0.0043153121064877214 -0.0042535520827523205 0 -0.0036914762640089275 -0.0042335709878066792 0 -0.0037973650633265901 -0.0041784010550568003 0 -0.0036756093035876332 -0.0041141380763238785 0 -0.0036700410180370993 -0.0035878881898794577 0 -0.0035498918559297137 -0.0038689239396110953 0 -0.0038166803662908334 -0.0036803296370104201 0 -0.0038003960257116569 -0.0037202028811097092 0 -0.0037622500635902849 -0.0036412586975068388 0 -0.0033216838347089883 -0.0039134682903865618 0 -0.0033193665494402618 -0.0037456569712025103 0 -0.0034513242741765491 -0.0038384592225682869 0 -0.0037748684496686008 -0.0041125860769902637 0 -0.0033602054651391596 -0.0034609514450890237 0 -0.0037748684496686008 -0.0041125860769902637 0 -0.0039732286468236698 -0.0039969351649089329 0 -0.0033602054651391596 -0.0034609514450890237 0 -0.0039732286468236698 -0.0039969351649089329 0 -0.0042908622334545538 -0.004124338286497482 0 -0.0042030772395597387 -0.0040691558859279201 0 -0.0042061006496446384 -0.0039535510001679599 0 -0.0039732286468236698 -0.0039969351649089329 0 -0.0039088873598762614 -0.0036170948462383545 0 -0.0042110247227502302 -0.0041688560837591267 0 -0.0042030772395597387 -0.0040691558859279201 0 -0.0041571135365693962 -0.0041518418848683625 0 -0.0042110247227502302 -0.0041688560837591267 0 -0.0042908622334545538 -0.004124338286497482 0 -0.0042030772395597387 -0.0040691558859279201 0 -0.0042030772395597387 -0.0040691558859279201 0 -0.0041571135365693962 -0.0041518418848683625 0 -0.0041471870832660157 -0.0040820548742118174 0 -0.0041571135365693962 -0.0041518418848683625 0 -0.0041471870832660157 -0.0040820548742118174 0 -0.004070241010614168 -0.0041185371463077058 0 -0.0041471870832660157 -0.0040820548742118174 0 -0.0041704098851439407 -0.0040032867243876107 0 -0.0041162673840400878 -0.004023153691593181 0 -0.0042030772395597387 -0.0040691558859279201 0 -0.0041471870832660157 -0.0040820548742118174 0 -0.0041704098851439407 -0.0040032867243876107 0 -0.0041382685588210915 -0.0039351031980790893 0 -0.0041714808336448025 -0.0039360754828066322 0 -0.0041162673840400878 -0.004023153691593181 0 -0.0041714808336448025 -0.0039360754828066322 0 -0.0042274727925174912 -0.003917500248910839 0 -0.0041162673840400878 -0.004023153691593181 0 -0.0041704098851439407 -0.0040032867243876107 0 -0.0041897008029916144 -0.0039429986370087969 0 -0.0041162673840400878 -0.004023153691593181 0 -0.0039469404805499483 -0.0035629380690446605 0 -0.0040645390720715803 -0.0039675891695204321 0 -0.0039469404805499483 -0.0035629380690446605 0 -0.0039312676616512152 -0.0031254638331957899 0 -0.0041897073556571348 -0.0038726479194094408 0 -0.0042268847420336023 -0.0039166023321738387 0 -0.0041975133609406228 -0.0038233123492306675 0 -0.0041382685588210915 -0.0039351031980790893 0 -0.0041714808336448025 -0.0039360754828066322 0 -0.0041692395989625574 -0.0038995122793202427 0 -0.0041382685588210915 -0.0039351031980790893 0 -0.0041424307436127017 -0.0038706142714677021 0 -0.0041692395989625574 -0.0038995122793202427 0 -0.0041424307436127017 -0.0038706142714677021 0 -0.0041692395989625574 -0.0038995122793202427 0 -0.0041897073556571348 -0.0038726479194094408 0 -0.0041692395989625574 -0.0038995122793202427 0 -0.0041897073556571348 -0.0038726479194094408 0 -0.0042059357367820755 -0.0039017700262534262 0 -0.0041897073556571348 -0.0038726479194094408 0 -0.0042059357367820755 -0.0039017700262534262 0 -0.0042268847420336023 -0.0039166023321738387 0 -0.0040068577242683449 -0.0036122404778670711 0 -0.0039469404805499483 -0.0035629380690446605 0 -0.0041714808336448025 -0.0039360754828066322 0 -0.0042059357367820755 -0.0039017700