<?xml version="1.0"?>
<VTKFile type="UnstructuredGrid" version="0.1" byte_order="LittleEndian">
<UnstructuredGrid>
<Piece NumberOfPoints="30618" NumberOfCells="10744">
<Points>
<DataArray type="Float64" NumberOfComponents="3" format="ascii">
-0.49427958746526202 -0.49999999999999512 0 -0.4943900888896422 -0.47349089190363358 0 -0.49427958746526202 -0.49999999999999512 0 -0.5 -0.5 0 -0.4943900888896422 -0.47349089190363358 0 -0.5 -0.5 0 -0.4943900888896422 -0.47349089190363358 0 -0.5 -0.44150235328842258 0 -0.49427958746526202 -0.49999999999999512 0 -0.4943900888896422 -0.47349089190363358 0 -0.48436842240857858 -0.48714093788813112 0 -0.49427958746526202 -0.49999999999999512 0 -0.47650045540741742 -0.5 0 -0.48436842240857858 -0.48714093788813112 0 -0.4943900888896422 -0.47349089190363358 0 -0.47066899942757451 -0.47576530412887819 0 -0.48436842240857858 -0.48714093788813112 0 -0.47066899942757451 -0.47576530412887819 0 -0.47650045540741742 -0.5 0 -0.48436842240857858 -0.48714093788813112 0 -0.47066899942757451 -0.47576530412887819 0 -0.45872132334957288 -0.49999999999999928 0 -0.45242967983978871 -0.4846708604340636 0 -0.47066899942757451 -0.47576530412887819 0 -0.47650045540741742 -0.5 0 -0.45872132334957288 -0.49999999999999928 0 -0.47066899942757451 -0.47576530412887819 0 -0.45872132334957288 -0.49999999999999928 0 -0.47066899942757451 -0.47576530412887819 0 -0.45242967983978871 -0.4846708604340636 0 -0.45249717469141032 -0.46588444847215849 0 -0.43763952177061649 -0.47770500498713542 0 -0.45242967983978871 -0.4846708604340636 0 -0.45249717469141032 -0.46588444847215849 0 -0.43763952177061649 -0.47770500498713542 0 -0.44291044788006362 -0.49999999999999939 0 -0.45242967983978871 -0.4846708604340636 0 -0.43763952177061649 -0.47770500498713542 0 -0.44291044788006362 -0.49999999999999939 0 -0.45872132334957288 -0.49999999999999928 0 -0.44291044788006362 -0.49999999999999939 0 -0.45242967983978871 -0.4846708604340636 0 -0.44838221886832419 -0.4464230337388379 0 -0.4323685956611692 -0.45541000997427139 0 -0.435988539966085 -0.44148905847597392 0 -0.44838221886832419 -0.4464230337388379 0 -0.44213238819953832 -0.43491600865963681 0 -0.435988539966085 -0.44148905847597392 0 -0.44838221886832419 -0.4464230337388379 0 -0.45249717469141032 -0.46588444847215849 0 -0.45755175660874181 -0.45423607616472811 0 -0.44838221886832419 -0.4464230337388379 0 -0.45249717469141032 -0.46588444847215849 0 -0.4323685956611692 -0.45541000997427139 0 -0.43763952177061649 -0.47770500498713542 0 -0.45249717469141032 -0.46588444847215849 0 -0.4323685956611692 -0.45541000997427139 0 -0.47066899942757451 -0.47576530412887819 0 -0.45249717469141032 -0.46588444847215849 0 -0.4675747862741928 -0.45726336772241771 0 -0.45249717469141032 -0.46588444847215849 0 -0.45755175660874181 -0.45423607616472811 0 -0.4675747862741928 -0.45726336772241771 0 -0.44838221886832419 -0.4464230337388379 0 -0.46897642374787268 -0.44262015471777721 0 -0.45660235518767722 -0.42786105997071933 0 -0.44838221886832419 -0.4464230337388379 0 -0.45755175660874181 -0.45423607616472811 0 -0.46897642374787268 -0.44262015471777721 0 -0.45755175660874181 -0.45423607616472811 0 -0.4675747862741928 -0.45726336772241771 0 -0.46897642374787268 -0.44262015471777721 0 -0.4943900888896422 -0.47349089190363358 0 -0.5 -0.44150235328842258 0 -0.49450059031402238 -0.44698178380727199 0 -0.46897642374787268 -0.44262015471777721 0 -0.48473746643246862 -0.43972512984246093 0 -0.48043585850414389 -0.43127077967876992 0 -0.46897642374787268 -0.44262015471777721 0 -0.4826166755055763 -0.45153060825775743 0 -0.48473746643246862 -0.43972512984246093 0 -0.4675747862741928 -0.45726336772241771 0 -0.46897642374787268 -0.44262015471777721 0 -0.4826166755055763 -0.45153060825775743 0 -0.47066899942757451 -0.47576530412887819 0 -0.4826166755055763 -0.45153060825775743 0 -0.4943900888896422 -0.47349089190363358 0 -0.47066899942757451 -0.47576530412887819 0 -0.4826166755055763 -0.45153060825775743 0 -0.47066899942757451 -0.47576530412887819 0 -0.4675747862741928 -0.45726336772241771 0 -0.4826166755055763 -0.45153060825775743 0 -0.4943900888896422 -0.47349089190363358 0 -0.49450059031402238 -0.44698178380727199 0 -0.4943900888896422 -0.47349089190363358 0 -0.4826166755055763 -0.45153060825775743 0 -0.49450059031402238 -0.44698178380727199 0 -0.4826166755055763 -0.45153060825775743 0 -0.48473746643246862 -0.43972512984246093 0 -0.49450059031402238 -0.44698178380727199 0 -0.5 -0.44150235328842258 0 -0.49461109173840262 -0.42047267571091063 0 -0.5 -0.39656953661894012 0 -0.49450059031402238 -0.44698178380727199 0 -0.49461109173840262 -0.42047267571091063 0 -0.48473746643246862 -0.43972512984246093 0 -0.49461109173840262 -0.42047267571091063 0 -0.48043585850414389 -0.43127077967876992 0 -0.5 -0.44150235328842258 0 -0.49450059031402238 -0.44698178380727199 0 -0.49461109173840262 -0.42047267571091063 0 -0.48473746643246862 -0.43972512984246093 0 -0.49450059031402238 -0.44698178380727199 0 -0.49461109173840262 -0.42047267571091063 0 -0.49461109173840262 -0.42047267571091063 0 -0.4947215931627828 -0.39396356761454909 0 -0.49461109173840262 -0.42047267571091063 0 -0.48393842445605872 -0.40713040098299402 0 -0.4947215931627828 -0.39396356761454909 0 -0.49461109173840262 -0.42047267571091063 0 -0.48393842445605872 -0.40713040098299402 0 -0.47214510592166908 -0.41939033492402211 0 -0.48393842445605872 -0.40713040098299402 0 -0.47214510592166908 -0.41939033492402211 0 -0.47427590700138023 -0.39469502568249409 0 -0.46897642374787268 -0.44262015471777721 0 -0.47214510592166908 -0.41939033492402211 0 -0.48043585850414389 -0.43127077967876992 0 -0.49461109173840262 -0.42047267571091063 0 -0.47214510592166908 -0.41939033492402211 0 -0.48043585850414389 -0.43127077967876992 0 -0.5 -0.39656953661894012 0 -0.4947215931627828 -0.39396356761454909 0 -0.48030453056746109 -0.36861144308094029 0 -0.49461109173840262 -0.42047267571091063 0 -0.5 -0.39656953661894012 0 -0.4947215931627828 -0.39396356761454909 0 -0.48393842445605872 -0.40713040098299402 0 -0.4947215931627828 -0.39396356761454909 0 -0.47427590700138023 -0.39469502568249409 0 -0.47427590700138023 -0.39469502568249409 0 -0.48030453056746109 -0.36861144308094029 0 -0.4947215931627828 -0.39396356761454909 0 -0.47427590700138023 -0.39469502568249409 0 -0.48030453056746109 -0.36861144308094029 0 -0.47427590700138023 -0.39469502568249409 0 -0.46334377193483078 -0.37842983215876019 0 -0.48030453056746109 -0.36861144308094029 0 -0.46334377193483078 -0.37842983215876019 0 -0.45726543839001688 -0.40541672899881109 0 -0.44416021803808919 -0.38243724496113263 0 -0.47427590700138023 -0.39469502568249409 0 -0.46334377193483078 -0.37842983215876019 0 -0.45726543839001688 -0.40541672899881109 0 -0.45726543839001688 -0.40541672899881109 0 -0.43814282409564848 -0.40387353522152758 0 -0.44416021803808919 -0.38243724496113263 0 -0.43814282409564848 -0.40387353522152758 0 -0.44416021803808919 -0.38243724496113263 0 -0.4329908326547659 -0.40007252460533121 0 -0.43814282409564848 -0.40387353522152758 0 -0.44416021803808919 -0.38243724496113263 0 -0.46897642374787268 -0.44262015471777721 0 -0.47214510592166908 -0.41939033492402211 0 -0.45660235518767722 -0.42786105997071933 0 -0.47214510592166908 -0.41939033492402211 0 -0.47427590700138023 -0.39469502568249409 0 -0.45726543839001688 -0.40541672899881109 0 -0.47214510592166908 -0.41939033492402211 0 -0.45726543839001688 -0.40541672899881109 0 -0.45660235518767722 -0.42786105997071933 0 -0.45726543839001688 -0.40541672899881109 0 -0.45660235518767722 -0.42786105997071933 0 -0.44309263043645408 -0.41812298423377797 0 -0.45726543839001688 -0.40541672899881109 0 -0.43814282409564848 -0.40387353522152758 0 -0.44309263043645408 -0.41812298423377797 0 -0.43814282409564848 -0.40387353522152758 0 -0.44309263043645408 -0.41812298423377797 0 -0.43209373842114163 -0.42530092927673752 0 -0.44838221886832419 -0.4464230337388379 0 -0.45660235518767722 -0.42786105997071933 0 -0.44213238819953832 -0.43491600865963681 0 -0.45660235518767722 -0.42786105997071933 0 -0.44213238819953832 -0.43491600865963681 0 -0.43132710435572019 -0.42815377149591122 0 -0.45660235518767722 -0.42786105997071933 0 -0.44309263043645408 -0.41812298423377797 0 -0.43132710435572019 -0.42815377149591122 0 -0.45660235518767722 -0.42786105997071933 0 -0.43132710435572019 -0.42815377149591122 0 -0.44213238819953832 -0.43491600865963681 0 -0.42986244815509678 -0.43337144475258638 0 -0.435988539966085 -0.44148905847597392 0 -0.44213238819953832 -0.43491600865963681 0 -0.42986244815509678 -0.43337144475258638 0 -0.43132710435572019 -0.42815377149591122 0 -0.42986244815509678 -0.43337144475258638 0 -0.43132710435572019 -0.42815377149591122 0 -0.42986244815509678 -0.43337144475258638 0 -0.42494843276815808 -0.42822764260015772 0 -0.42026026496879931 -0.43681168621285732 0 -0.42986244815509678 -0.43337144475258638 0 -0.42494843276815808 -0.42822764260015772 0 -0.43132710435572019 -0.42815377149591122 0 -0.42494843276815808 -0.42822764260015772 0 -0.43209373842114163 -0.42530092927673752 0 -0.42214799869492048 -0.41876725226122891 0 -0.42494843276815808 -0.42822764260015772 0 -0.43209373842114163 -0.42530092927673752 0 -0.42494843276815808 -0.42822764260015772 0 -0.43209373842114163 -0.42530092927673752 0 -0.43132710435572019 -0.42815377149591122 0 -0.42494843276815808 -0.42822764260015772 0 -0.43132710435572019 -0.42815377149591122 0 -0.44309263043645408 -0.41812298423377797 0 -0.43209373842114163 -0.42530092927673752 0 -0.43132710435572019 -0.42815377149591122 0 -0.43209373842114163 -0.42530092927673752 0 -0.43132710435572019 -0.42815377149591122 0 -0.43814282409564848 -0.40387353522152758 0 -0.43209373842114163 -0.42530092927673752 0 -0.43814282409564848 -0.40387353522152758 0 -0.43209373842114163 -0.42530092927673752 0 -0.42736227186559528 -0.41250939947999687 0 -0.43814282409564848 -0.40387353522152758 0 -0.42736227186559528 -0.41250939947999687 0 -0.42798743510346321 -0.40461924019690898 0
[...]
<PointData Scalars="" Vectors="displacement," Tensors="">
<DataArray type="Float64" Name="displacement" NumberOfComponents="3" format="ascii">
-1.9733329021535556e-08 -0.0049999214831406187 0 -1.4025044737758681e-05 -0.0047877690258673897 0 3.2552697169095201e-11 -0.0049999225894475051 0 -1.3191563222245532e-10 -0.0049999876159839245 0 -3.2726559814449463e-08 -0.0047354188972126019 0 -1.3191563222245532e-10 -0.0049999876159839245 0 -3.2726559814449463e-08 -0.0047354188972126019 0 -8.5564600582093708e-10 -0.0044149830409101441 0 -1.3531003401045689e-08 -0.0049999301759870675 0 -1.6701337063446122e-05 -0.0048433390915519998 0 -1.0472151007189313e-05 -0.0049334030583513041 0 -1.3531003401045689e-08 -0.0049999301759870675 0 -1.5903934963826628e-08 -0.0049998876940700451 0 -1.0472151007189313e-05 -0.0049334030583513041 0 -1.6701337063446122e-05 -0.0048433390915519998 0 -1.2973636387146104e-05 -0.0049010002426663037 0 -1.0472151007189313e-05 -0.0049334030583513041 0 -1.2973636387146104e-05 -0.0049010002426663037 0 -1.5903934963826628e-08 -0.0049998876940700451 0 -1.0472151007189313e-05 -0.0049334030583513041 0 -6.6264104564579259e-05 -0.004800822078656143 0 -9.2807563815158061e-08 -0.0049998771409075701 0 -4.418328419922504e-05 -0.0049072124837188343 0 -1.2973636387146104e-05 -0.0049010002426663037 0 -1.5903934963826628e-08 -0.0049998876940700451 0 5.4530497635229747e-09 -0.0050000103993435695 0 -3.8008662584905981e-05 -0.0048457345317721983 0 1.1268883127456684e-09 -0.0049999393536757199 0 -6.6264104564579259e-05 -0.004800822078656143 0 -4.418328419922504e-05 -0.0049072124837188343 0 -6.4608292063979882e-05 -0.0048125156487634352 0 -6.5187457716003999e-05 -0.0048699859991832573 0 -4.418328419922504e-05 -0.0049072124837188343 0 -6.4608292063979882e-05 -0.0048125156487634352 0 -6.5187457716003999e-05 -0.0048699859991832573 0 -1.8144161847386824e-09 -0.0049998244842538141 0 -4.418328419922504e-05 -0.0049072124837188343 0 -4.4031753116532718e-05 -0.0049207648114550319 0 -2.6765613991065409e-08 -0.0049999614950855514 0 -9.2807563815158061e-08 -0.0049998771409075701 0 -1.8144161847386824e-09 -0.0049998244842538141 0 -4.418328419922504e-05 -0.0049072124837188343 0 -3.7593993589577507e-05 -0.0047547097668708691 0 -4.3284556904335365e-05 -0.0048775555923520871 0 -1.1339253919020153e-05 -0.0048248960838807092 0 -3.7593993589577507e-05 -0.0047547097668708691 0 2.8647203287249593e-06 -0.0047603509330316485 0 -1.1339253919020153e-05 -0.0048248960838807092 0 -3.7593993589577507e-05 -0.0047547097668708691 0 -6.4608292063979882e-05 -0.0048125156487634352 0 -5.1923254397255239e-05 -0.004743430788947991 0 -3.7593993589577507e-05 -0.0047547097668708691 0 -6.4608292063979882e-05 -0.0048125156487634352 0 -4.3284556904335365e-05 -0.0048775555923520871 0 -6.5187457716003999e-05 -0.0048699859991832573 0 -6.4608292063979882e-05 -0.0048125156487634352 0 -4.3284556904335365e-05 -0.0048775555923520871 0 -6.6264104564579259e-05 -0.004800822078656143 0 -6.4608292063979882e-05 -0.0048125156487634352 0 -5.2183316498160062e-05 -0.0047230595191111637 0 -6.4608292063979882e-05 -0.0048125156487634352 0 -5.1923254397255239e-05 -0.004743430788947991 0 -5.2183316498160062e-05 -0.0047230595191111637 0 -3.7593993589577507e-05 -0.0047547097668708691 0 -4.6567952270577432e-05 -0.0046297910876190451 0 -1.3705562838476457e-05 -0.004593136336477727 0 -3.7593993589577507e-05 -0.0047547097668708691 0 -5.1923254397255239e-05 -0.004743430788947991 0 -4.6567952270577432e-05 -0.0046297910876190451 0 -5.1923254397255239e-05 -0.004743430788947991 0 -5.2183316498160062e-05 -0.0047230595191111637 0 -4.6567952270577432e-05 -0.0046297910876190451 0 -3.2726559814449463e-08 -0.0047354188972126019 0 -8.5564600582093708e-10 -0.0044149830409101441 0 1.3582530146426188e-07 -0.0044702031740567394 0 -4.6567952270577432e-05 -0.0046297910876190451 0 -5.4450693623916118e-05 -0.0045841589617557355 0 -5.4666767472569107e-05 -0.0045227624520964771 0 -4.6567952270577432e-05 -0.0046297910876190451 0 -4.3523113687262271e-05 -0.0046773117418104698 0 -5.4450693623916118e-05 -0.0045841589617557355 0 -5.2183316498160062e-05 -0.0047230595191111637 0 -4.6567952270577432e-05 -0.0046297910876190451 0 -4.3523113687262271e-05 -0.0046773117418104698 0 -3.8008662584905981e-05 -0.0048457345317721983 0 -4.2586704404092335e-05 -0.0047078375821588995 0 -1.6701337063446122e-05 -0.0048433390915519998 0 -1.2973636387146104e-05 -0.0049010002426663037 0 -4.3523113687262271e-05 -0.0046773117418104698 0 -6.6264104564579259e-05 -0.004800822078656143 0 -5.2183316498160062e-05 -0.0047230595191111637 0 -4.3523113687262271e-05 -0.0046773117418104698 0 -1.4025044737758681e-05 -0.0047877690258673897 0 -2.7052839726063764e-05 -0.0045565804388347786 0 -1.6701337063446122e-05 -0.0048433390915519998 0 -4.3523113687262271e-05 -0.0046773117418104698 0 -4.9983806410402178e-05 -0.0046461110881983753 0 -4.3523113687262271e-05 -0.0046773117418104698 0 -5.4450693623916118e-05 -0.0045841589617557355 0 -4.9983806410402178e-05 -0.0046461110881983753 0 -8.5564600582093708e-10 -0.0044149830409101441 0 -2.8672896379605706e-06 -0.0042051823851218563 0 -3.9174886275942498e-08 -0.0039658865757323178 0 -2.7052839726063764e-05 -0.0045565804388347786 0 -2.646465717312048e-05 -0.0042842718777621087 0 -5.4450693623916118e-05 -0.0045841589617557355 0 -6.1616718959547334e-05 -0.0043825174564419847 0 -5.4666767472569107e-05 -0.0045227624520964771 0 -8.5564600582093708e-10 -0.0044149830409101441 0 1.3582530146426188e-07 -0.0044702031740567394 0 -2.8672896379605706e-06 -0.0042051823851218563 0 -5.4450693623916118e-05 -0.0045841589617557355 0 -4.9983806410402178e-05 -0.0046461110881983753 0 -6.1616718959547334e-05 -0.0043825174564419847 0 -2.646465717312048e-05 -0.0042842718777621087 0 1.0612757659014386e-05 -0.0040478838223322704 0 -6.1616718959547334e-05 -0.0043825174564419847 0 -3.2668298917325977e-05 -0.0042729537514091288 0 2.7969904815985022e-06 -0.0039927156918014217 0 -6.1616718959547334e-05 -0.0043825174564419847 0 -3.2668298917325977e-05 -0.0042729537514091288 0 -4.4604461640914313e-05 -0.0044590678455635685 0 -3.2668298917325977e-05 -0.0042729537514091288 0 -4.4604461640914313e-05 -0.0044590678455635685 0 2.8009786657747842e-05 -0.004253402613422161 0 -4.6567952270577432e-05 -0.0046297910876190451 0 -4.4604461640914313e-05 -0.0044590678455635685 0 -5.4666767472569107e-05 -0.0045227624520964771 0 -6.1616718959547334e-05 -0.0043825174564419847 0 -4.4604461640914313e-05 -0.0044590678455635685 0 -5.4666767472569107e-05 -0.0045227624520964771 0 -3.9174886275942498e-08 -0.0039658865757323178 0 2.7969904815985022e-06 -0.0039927156918014217 0 3.2485053744855678e-05 -0.0038486312984350396 0 -2.8672896379605706e-06 -0.0042051823851218563 0 -3.9174886275942498e-08 -0.0039658865757323178 0 2.7969904815985022e-06 -0.0039927156918014217 0 -3.2668298917325977e-05 -0.0042729537514091288 0 2.7969904815985022e-06 -0.0039927156918014217 0 2.8009786657747842e-05 -0.004253402613422161 0 1.1779756669970522e-05 -0.0042096655336635235 0 0.00014235818654462717 -0.0040779949929804597 0 2.7969904815985022e-06 -0.0039927156918014217 0 2.8009786657747842e-05 -0.004253402613422161 0 3.2485053744855678e-05 -0.0038486312984350396 0 2.8009786657747842e-05 -0.004253402613422161 0 0.00018847666417175777 -0.0043689354662483247 0 0.00028154576216489745 -0.0041955951817180554 0 0.00018847666417175777 -0.0043689354662483247 0 -1.2315792466882812e-05 -0.0044759052403921615 0 0.00015111578947164965 -0.0045376576620477053 0 2.8009786657747842e-05 -0.004253402613422161 0 0.00018847666417175777 -0.0043689354662483247 0 -1.2315792466882812e-05 -0.0044759052403921615 0 -1.2315792466882812e-05 -0.0044759052403921615 0 5.5116630699324222e-06 -0.0045727702370998592 0 0.00015111578947164965 -0.0045376576620477053 0 -0.00011936109354287214 -0.0039664273657486733 0 -1.5902098846800795e-05 -0.0039314248809605911 0 -9.9658052749835045e-05 -0.0039921895282880957 0 -6.8079411221965534e-05 -0.0042494853050590135 0 7.6400838980213861e-05 -0.0042890334397458884 0 -4.6567952270577432e-05 -0.0046297910876190451 0 -4.4604461640914313e-05 -0.0044590678455635685 0 -1.3705562838476457e-05 -0.004593136336477727 0 -4.4604461640914313e-05 -0.0044590678455635685 0 2.8009786657747842e-05 -0.004253402613422161 0 -1.2315792466882812e-05 -0.0044759052403921615 0 -4.4604461640914313e-05 -0.0044590678455635685 0 -1.2315792466882812e-05 -0.0044759052403921615 0 -1.3705562838476457e-05 -0.004593136336477727 0 -1.2315792466882812e-05 -0.0044759052403921615 0 -1.3705562838476457e-05 -0.004593136336477727 0 -2.4536686490907306e-05 -0.0045580088184352524 0 -1.2315792466882812e-05 -0.0044759052403921615 0 5.5116630699324222e-06 -0.0045727702370998592 0 -2.4536686490907306e-05 -0.0045580088184352524 0 5.5116630699324222e-06 -0.0045727702370998592 0 -2.4536686490907306e-05 -0.0045580088184352524 0 -2.4478908576131735e-05 -0.004553967424954947 0 -3.7593993589577507e-05 -0.0047547097668708691 0 -1.3705562838476457e-05 -0.004593136336477727 0 2.8647203287249593e-06 -0.0047603509330316485 0 -1.3705562838476457e-05 -0.004593136336477727 0 2.8647203287249593e-06 -0.0047603509330316485 0 8.6796045331681606e-05 -0.0048616665183732581 0 -1.3705562838476457e-05 -0.004593136336477727 0 -2.4536686490907306e-05 -0.0045580088184352524 0 -2.2256295609296971e-05 -0.0045518908951482631 0 3.6248051650650212e-06 -0.0046389412457255681 0 -8.1413298335438261e-06 -0.0046308832575333988 0 2.8647203287249593e-06 -0.0047603509330316485 0 3.6549310523958203e-05 -0.0048707041275568791 0 -1.1339253919020153e-05 -0.0048248960838807092 0 2.8647203287249593e-06 -0.0047603509330316485 0 3.6549310523958203e-05 -0.0048707041275568791 0 8.6796045331681606e-05 -0.0048616665183732581 0 2.6303754891754321e-06 -0.0046900380628183821 0 -8.1413298335438261e-06 -0.0046308832575333988 0 3.6549310523958203e-05 -0.0048707041275568791 0 5.5643907429574829e-05 -0.004892641534139687 0 2.2828945797165401e-05 -0.004911082557081321 0 3.6549310523958203e-05 -0.0048707041275568791 0 5.5643907429574829e-05 -0.004892641534139687 0 5.7308894540252833e-05 -0.0048646024184344902 0 -0.00025652294792502192 -0.004043649307301697 0 -0.00023987344951717466 -0.0040034413812019918 0 -0.00020407413917518862 -0.0040576010918184314 0 -3.0329198027493147e-05 -0.004556067649872487 0 -2.2349072393433146e-05 -0.0044808048229438993 0 -5.2210705920888554e-05 -0.004558521557575578 0 -4.5688938450377365e-05 -0.004542977342550652 0 -5.1919644398934863e-05 -0.0045447043162883255 0 -3.0329198027493147e-05 -0.004556067649872487 0 -8.1413298335438261e-06 -0.0046308832575333988 0 -2.4536686490907306e-05 -0.0045580088184352524 0 -2.4478908576131735e-05 -0.004553967424954947 0 -2.2256295609296971e-05 -0.0045518908951482631 0 -2.2349072393433146e-05 -0.0044808048229438993 0 -8.1413298335438261e-06 -0.0046308832575333988 0 -6.8079411221965534e-05 -0.0042494853050590135 0 -2.2349072393433146e-05 -0.0044808048229438993 0 -0.00011936109354287214 -0.0039664273657486733 0 -0.00023987344951717466 -0.0040034413812019918 0 -0.00016866810278509905 -0.0040271014890275103 0 -0.00011936109354287214 -0.0039664273657486733 0 -0.00016866810278509905 -0.0040271014890275103 0 -0.00012495455022799488 -0.0040215126178190681 0 -0.00016866810278509905 -0.0040271014890275103 0 -0.00020407413917518862 -0.0040576010918184314 0 -0.00015544556004907386 -0.0040879028604123534 0 -0.00016866810278509905 -0.0040271014890275103 0 -0.00015544556004907386 -0.0040879028604123534 0 -0.00012495455022799488 -0.0040215126178190681 0 -0.00023987344951717466 -0.0040034413812019918 0 -0.00016866810278509905 -0.0040271014890275103 0 -0.00020407413917518862 -0.0040576010918184314 0 -0.00015544556004907386 -0.0040879028604123534 0 -0.00020981455762029909 -0.0041081036354805702 0 -0.00017152614873924192 -0.0041788322927891865 0 -0.00015544556004907386 -0.0040879028604123534 0 -0.00011048117410398465 -0.0041558178946136991 0 -0.00017152614873924192 -0.0041788322927891865 0 -0.00020407413917518862 -0.0040576010918184314 0 -0.00015544556004907386 -0.0040879028604123534 0 -0.00020981455762029909 -0.0041081036354805702 0 5.5643907429574829e-05 -0.004892641534139687 0 2.2828945797165401e-05 -0.004911082557081321 0 1.7362283868226747e-05 -0.0049637180860308923 0 -3.0329198027493147e-05 -0.004556067649872487 0 1.3666216369435949e-05 -0.0049352003737617575 0 5.4934218257030023e-05 -0.0047081398012755026 0 1.1429770229305756e-05 -0.0048250646322665867 0 5.306919932395898e-05 -0.0048344160548236068 0 -3.0329198027493147e-05 -0.004556067649872487 0 -0.00011032850620130741 -0.0044635485724170568 0 -0.00025652294792502192 -0.004043649307301697 0 -0.00020981455762029909 -0.0041081036354805702 0 -0.00026047529203631215 -0.0041740110306025865 0 -0.00025652294792502192 -0.004043649307301697 0 -0.00020407413917518862 -0.0040576010918184314 0 -0.00020981455762029909 -0.0041081036354805702 0 -3.2244964429609439e-06 -0.004132958292504106 0 -0.00013453308392924563 -0.0036244605830565045 0 -9.9658052749835045e-05 -0.0039921895282880957 0 -5.1675262028485433e-05 -0.0040743462830150241 0 2.0441665878890587e-05 -0.0040663400647103689 0 -1.4596240954155038e-05 -0.003986088293401446 0 -9.9658052749835045e-05 -0.0039921895282880957 0 9.1883803281773761e-06 -0.0040456134706499843 0 -1.5902098846800795e-05 -0.0039314248809605911 0 -1.4596240954155038e-05 -0.003986088293401446 0 -9.9658052749835045e-05 -0.0039921895282880957 0 -1.4596240954155038e-05 -0.003986088293401446 0 9.1883803281773761e-06 -0.0040456134706499843 0 4.7836836867658438e-05 -0.0039741561742315454 0 -1.5902098846800795e-05 -0.0039314248809605911 0 -1.4596240954155038e-05 -0.003986088293401446 0 4.7836836867658438e-05 -0.0039741561742315454 0 -9.9658052749835045e-05 -0.0039921895282880957 0 -0.00010662440775752058 -0.004056052989971093 0 -5.1675262028485433e-05 -0.0040743462830150241 0 -0.00011936109354287214 -0.0039664273657486733 0 -9.9658052749835045e-05 -0.0039921895282880957 0 -0.00012495455022799488 -0.0040215126178190681 0 -9.9658052749835045e-05 -0.0039921895282880957 0 -0.00012495455022799488 -0.0040215126178190681 0 -0.00010662440775752058 -0.004056052989971093 0 -0.00015544556004907386 -0.0040879028604123534 0 -0.00012495455022799488 -0.0040215126178190681 0 -0.00010662440775752058 -0.004056052989971093 0 -7.2667153772299799e-05 -0.0041438034328826834 0 -5.1675262028485433e-05 -0.0040743462830150241 0 -1.8845129059949691e-05 -0.0041729561592035187 0 -0.00015544556004907386 -0.0040879028604123534 0 -0.00010662440775752058 -0.004056052989971093 0 -9.9408199827229438e-05 -0.0041034436738820908 0 -0.00015544556004907386 -0.0040879028604123534 0 -9.9408199827229438e-05 -0.0041034436738820908 0 -0.00011048117410398465 -0.0041558178946136991 0 -9.9408199827229438e-05 -0.0041034436738820908 0 -7.2667153772299799e-05 -0.0041438034328826834 0 -0.00011048117410398465 -0.0041558178946136991 0 -9.9408199827229438e-05 -0.0041034436738820908 0 -7.2667153772299799e-05 -0.0041438034328826834 0 -5.1675262028485433e-05 -0.0040743462830150241 0 -0.00010662440775752058 -0.004056052989971093 0 -9.9408199827229438e-05 -0.0041034436738820908 0 -5.1675262028485433e-05 -0.0040743462830150241 0 -3.4994267504461769e-05 -0.0041248751327746238 0 -0.0001168527169287224 -0.0040554804665081665 0 -5.1675262028485433e-05 -0.0040743462830150241 0 -4.6144413479377895e-06 -0.0041091107210990867 0 -2.5727845001456098e-05 -0.0041491957168152405 0 -5.1675262028485433e-05 -0.0040743462830150241 0 -3.5257133804527914e-06 -0.00408187341782315 0 2.0441665878890587e-05 -0.0040663400647103689 0 -5.1675262028485433e-05 -0.0040743462830150241 0 -4.1286080274938763e-06 -0.004097251527351518 0 -3.5257133804527914e-06 -0.00408187341782315 0 -5.1675262028485433e-05 -0.0040743462830150241 0 -4.1286080274938763e-06 -0.004097251527351518 0 -4.6144413479377895e-06 -0.0041091107210990867 0 -0.00015339167363665428 -0.003795833550814779 0 -0.00015862856320498112 -0.0039162666828155704 0 -4.1286080274938763e-06 -0.004097251527351518 0 4.8261316169188154e-06 -0.0040907363143022442 0 -4.6912737064046145e-06 -0.0041079119211321216 0 -0.00027433567477000182 -0.0037661269960063987 0 -0.00026406883840287258 -0.0037457955257530506 0 -0.00034268803372089702 -0.0037010933433125094 0 -0.00014945390445482556 -0.0039560795457795504 0 -0.00015862856320498112 -0.0039162666828155704 0 -0.00015339167363665428 -0.003795833550814779 0 -0.00013453308392924563 -0.0036244605830565045 0 6.492472142250056e-06 -0.0040909811656747643 0 -3.5257133804527914e-06 -0.00408187341782315 0 2.0441665878890587e-05 -0.0040663400647103689 0 -4.1286080274938763e-06 -0.004097251527351518 0 4.8261316169188154e-06 -0.0040907363143022442 0 -3.5257133804527914e-06 -0.00408187341782315 0 -0.00015339167363665428 -0.003795833550814779 0 -0.00010094412497993584 -0.0038560718824062032 0 -0.00022083420797915321 -0.0039698284057092439 0 -0.00022168527824309434 -0.0038218456831062841 0 -0.00018644011682431171 -0.0039010098996031172 0 -0.00017784619236862464 -0.003970113824553579 0 -0.00018980749305554201 -0.0039420630469539711 0 -0.00021940822156567191 -0.0039990040736271881 0 -0.00026406883840287258 -0.0037457955257530506 0 -0.00026426858853418255 -0.0036487040779656678 0 -0.00034268803372089702 -0.0037010933433125094 0 -0.00015862856320498112 -0.0039162666828155704 0 -0.00031251070161668511 -0.0037491842407870613 0 -0.00015862856320498112 -0.0039162666828155704 0 -0.0001168527169287224 -0.0040554804665081665 0 -0.00031251070161668511 -0.0037491842407870613 0 -0.0001168527169287224 -0.0040554804665081665 0 -1.8845129059949691e-05 -0.0041729561592035187 0 -7.9439524627059415e-05 -0.004210071052704328 0 -7.792727868581874e-05 -0.0042863127143501984 0 -0.0001168527169287224 -0.0040554804665081665 0 -0.00021131705608513118 -0.0040725513781476727 0 -7.2667153772299799e-05 -0.0041438034328826834 0 -7.9439524627059415e-05 -0.004210071052704328 0 -0.00011048117410398465 -0.0041558178946136991 0 -7.2667153772299799e-05 -0.0041438034328826834 0 -1.8845129059949691e-05 -0.0041729561592035187 0 -7.9439524627059415e-05 -0.004210071052704328 0 -7.9439524627059415e-05 -0.004210071052704328 0 -0.00011048117410398465 -0.0041558178946136991 0 -0.00011835810010191674 -0.0042020524732189583 0 -0.00011048117410398465 -0.0041558178946136991 0 -0.00011835810010191674 -0.0042020524732189583 0 -0.00017152614873924192 -0.0041788322927891865 0 -0.00011835810010191674 -0.0042020524732189583 0 -0.00010259633495120911 -0.0042539023880670285 0 -0.0001411759166703109 -0.0042414579248597735 0 -7.9439524627059415e-05 -0.004210071052704328 0 -0.00011835810010191674 -0.0042020524732189583 0 -0.00010259633495120911 -0.0042539023880670285 0 -0.00013397874297224545 -0.0042872893869646198 0 -0.00011865448137462185 -0.0042855283415379544 0 -0.0001411759166703109 -0.0042414579248597735 0 -0.00011865448137462185 -0.0042855283415379544 0 -9.3881123897690912e-05 -0.0042943552451970794 0 -0.0001411759166703109 -0.0042414579248597735 0 -0.00010259633495120911 -0.0042539023880670285 0 -8.8758246470442708e-05 -0.0042933518754074383 0 -0.0001411759166703109 -0.0042414579248597735 0 -0.00019273487071169951 -0.0041088718265234825 0 -9.1219502162509026e-05 -0.0042791539153245366 0 -0.00019273487071169951 -0.0041088718265234825 0 -0.00028419583311881146 -0.0040957162928950564 0 -0.00011184320174904555 -0.0043126461557762294 0 -9.4550948056731598e-05 -0.0042939948476663006 0 -0.00010959315993431855 -0.0043327733132078137 0 -0.00013397874297224545 -0.0042872893869646198 0 -0.00011865448137462185 -0.0042855283415379544 0 -0.0001204310559871944 -0.0043017505626440399 0 -0.00013397874297224545 -0.0042872893869646198 0 -0.00013263084372319532 -0.0043142925794910098 0 -0.0001204310559871944 -0.0043017505626440399 0 -0.00013263084372319532 -0.0043142925794910098 0 -0.0001204310559871944 -0.0043017505626440399 0 -0.00011184320174904555 -0.0043126461557762294 0 -0.0001204310559871944 -0.0043017505626440399 0 -0.00011184320174904555 -0.0043126461557762294 0 -0.00010395684896637