<?xml version="1.0"?>
<VTKFile type="UnstructuredGrid" version="0.1" byte_order="LittleEndian">
<UnstructuredGrid>
<Piece NumberOfPoints="30881" NumberOfCells="10862">
<Points>
<DataArray type="Float64" NumberOfComponents="3" format="ascii">
-0.49999999999999828 -0.48677703703187492 0 -0.5 -0.5 0 -0.48129281494584059 -0.49338851851593718 0 -0.5 -0.5 0 -0.48129281494584059 -0.49338851851593718 0 -0.46258562989168328 -0.5 0 -0.49999999999999828 -0.48677703703187492 0 -0.48129281494584059 -0.49338851851593718 0 -0.49999999999999828 -0.48677703703187492 0 -0.4824545428279598 -0.47451624516148783 0 -0.48129281494584059 -0.49338851851593718 0 -0.49999999999999828 -0.48677703703187492 0 -0.4824545428279598 -0.47451624516148783 0 -0.5 -0.46599539173150673 0 -0.4824545428279598 -0.47451624516148783 0 -0.46853075243710779 -0.48354990242643758 0 -0.46411508256092049 -0.46598235294430129 0 -0.4824545428279598 -0.47451624516148783 0 -0.48129281494584059 -0.49338851851593718 0 -0.46853075243710779 -0.48354990242643758 0 -0.48129281494584059 -0.49338851851593718 0 -0.46258562989168328 -0.5 0 -0.48129281494584059 -0.49338851851593718 0 -0.46258562989168328 -0.5 0 -0.46853075243710779 -0.48354990242643758 0 -0.46258562989168328 -0.5 0 -0.46853075243710779 -0.48354990242643758 0 -0.45147378687733691 -0.48362213557840178 0 -0.46853075243710779 -0.48354990242643758 0 -0.45147378687733691 -0.48362213557840178 0 -0.46411508256092049 -0.46598235294430129 0 -0.4457251648104853 -0.47020164095208389 0 -0.45147378687733691 -0.48362213557840178 0 -0.46411508256092049 -0.46598235294430129 0 -0.4457251648104853 -0.47020164095208389 0 -0.45147378687733691 -0.48362213557840178 0 -0.43513446131126993 -0.48199891714758791 0 -0.45147378687733691 -0.48362213557840178 0 -0.43275163025255442 -0.5 0 -0.43513446131126993 -0.48199891714758791 0 -0.46258562989168328 -0.5 0 -0.45147378687733691 -0.48362213557840178 0 -0.43275163025255442 -0.5 0 -0.4467190029717853 -0.45478934699519452 0 -0.4422915115958943 -0.43555510214664611 0 -0.43246707723660932 -0.44794326854796312 0 -0.4457251648104853 -0.47020164095208389 0 -0.4467190029717853 -0.45478934699519452 0 -0.46411508256092049 -0.46598235294430129 0 -0.4457251648104853 -0.47020164095208389 0 -0.4467190029717853 -0.45478934699519452 0 -0.43016578207734568 -0.46313500011938619 0 -0.4467190029717853 -0.45478934699519452 0 -0.46411508256092049 -0.46598235294430129 0 -0.47114575579794699 -0.4403844242888923 0 -0.4467190029717853 -0.45478934699519452 0 -0.47114575579794699 -0.4403844242888923 0 -0.4422915115958943 -0.43555510214664611 0 -0.47114575579794699 -0.4403844242888923 0 -0.4422915115958943 -0.43555510214664611 0 -0.46411508256092049 -0.46598235294430129 0 -0.47114575579794699 -0.4403844242888923 0 -0.48354307623736548 -0.45841843211146538 0 -0.4824545428279598 -0.47451624516148783 0 -0.46411508256092049 -0.46598235294430129 0 -0.48354307623736548 -0.45841843211146538 0 -0.4824545428279598 -0.47451624516148783 0 -0.48354307623736548 -0.45841843211146538 0 -0.5 -0.46599539173150673 0 -0.48354307623736548 -0.45841843211146538 0 -0.5 -0.46599539173150673 0 -0.49999999999999972 -0.44521374643113848 0 -0.47114575579794699 -0.4403844242888923 0 -0.49999999999999972 -0.44521374643113848 0 -0.47114575579794699 -0.4403844242888923 0 -0.49999999999999972 -0.44521374643113848 0 -0.48704432221743971 -0.42935617662229603 0 -0.47114575579794699 -0.4403844242888923 0 -0.48354307623736548 -0.45841843211146538 0 -0.49999999999999972 -0.44521374643113848 0 -0.49999999999999972 -0.44521374643113848 0 -0.48704432221743971 -0.42935617662229603 0 -0.5 -0.41591957503128979 0 -0.48704432221743971 -0.42935617662229603 0 -0.5 -0.41591957503128979 0 -0.47703153307181151 -0.41590696073786332 0 -0.5 -0.41591957503128979 0 -0.47703153307181151 -0.41590696073786332 0 -0.48817838912021821 -0.4022119694541284 0 -0.47114575579794699 -0.4403844242888923 0 -0.48704432221743971 -0.42935617662229603 0 -0.47703153307181151 -0.41590696073786332 0 -0.5 -0.38662540363144121 0 -0.47568202340906118 -0.39039593841591919 0 -0.4947615751445838 -0.37332156409002909 0 -0.47568202340906118 -0.39039593841591919 0 -0.4947615751445838 -0.37332156409002909 0 -0.5 -0.38662540363144121 0 -0.48817838912021821 -0.4022119694541284 0 -0.47568202340906118 -0.39039593841591919 0 -0.5 -0.41591957503128979 0 -0.5 -0.38662540363144121 0 -0.48817838912021821 -0.4022119694541284 0 -0.47703153307181151 -0.41590696073786332 0 -0.48817838912021821 -0.4022119694541284 0 -0.47568202340906118 -0.39039593841591919 0 -0.47703153307181151 -0.41590696073786332 0 -0.47568202340906118 -0.39039593841591919 0 -0.45660247167353862 -0.40747031274180939 0 -0.47568202340906118 -0.39039593841591919 0 -0.48030931097003587 -0.37191064435083931 0 -0.46669490250066459 -0.37481721741951951 0 -0.47568202340906118 -0.39039593841591919 0 -0.4947615751445838 -0.37332156409002909 0 -0.48030931097003587 -0.37191064435083931 0 -0.45332061783919553 -0.38729481725706361 0 -0.46669490250066459 -0.37481721741951951 0 -0.45095991715087752 -0.36968037302039969 0 -0.47568202340906118 -0.39039593841591919 0 -0.45332061783919553 -0.38729481725706361 0 -0.46669490250066459 -0.37481721741951951 0 -0.47568202340906118 -0.39039593841591919 0 -0.45660247167353862 -0.40747031274180939 0 -0.47568202340906118 -0.39039593841591919 0 -0.45332061783919553 -0.38729481725706361 0 -0.45660247167353862 -0.40747031274180939 0 -0.44332653075004852 -0.401690115615219 0 -0.44646247228389868 -0.41654464256061052 0 -0.42870657106664078 -0.39987574649354879 0 -0.45332061783919553 -0.38729481725706361 0 -0.44332653075004852 -0.401690115615219 0 -0.43479631603355468 -0.39077639303142497 0 -0.45332061783919553 -0.38729481725706361 0 -0.44332653075004852 -0.401690115615219 0 -0.45660247167353862 -0.40747031274180939 0 -0.45332061783919553 -0.38729481725706361 0 -0.43421362475025049 -0.37527491429266319 0 -0.43479631603355468 -0.39077639303142497 0 -0.45332061783919553 -0.38729481725706361 0 -0.43421362475025049 -0.37527491429266319 0 -0.45095991715087752 -0.36968037302039969 0 -0.47114575579794699 -0.4403844242888923 0 -0.45663439814062529 -0.42533932462455271 0 -0.4422915115958943 -0.43555510214664611 0 -0.47114575579794699 -0.4403844242888923 0 -0.47703153307181151 -0.41590696073786332 0 -0.45663439814062529 -0.42533932462455271 0 -0.45663439814062529 -0.42533932462455271 0 -0.45660247167353862 -0.40747031274180939 0 -0.44646247228389868 -0.41654464256061052 0 -0.47703153307181151 -0.41590696073786332 0 -0.45663439814062529 -0.42533932462455271 0 -0.45660247167353862 -0.40747031274180939 0 -0.44332653075004852 -0.401690115615219 0 -0.45660247167353862 -0.40747031274180939 0 -0.44646247228389868 -0.41654464256061052 0 -0.45660247167353862 -0.40747031274180939 0 -0.44646247228389868 -0.41654464256061052 0 -0.44646247228389868 -0.41654464256061052 0 -0.4375229199380159 -0.42454468706769971 0 -0.45663439814062529 -0.42533932462455271 0 -0.4375229199380159 -0.42454468706769971 0 -0.4422915115958943 -0.43555510214664611 0 -0.45663439814062529 -0.42533932462455271 0 -0.44646247228389868 -0.41654464256061052 0 -0.4375229199380159 -0.42454468706769971 0 -0.4375229199380159 -0.42454468706769971 0 -0.4422915115958943 -0.43555510214664611 0 -0.43077617074680319 -0.43406335077952207 0 -0.43077617074680319 -0.43406335077952207 0 -0.42550232634077589 -0.42345940056268039 0 -0.41950844772475421 -0.43888456563633732 0 -0.4375229199380159 -0.42454468706769971 0 -0.43077617074680319 -0.43406335077952207 0 -0.42550232634077589 -0.42345940056268039 0 -0.44646247228389868 -0.41654464256061052 0 -0.41657232816672918 -0.41306671883907142 0 -0.42870657106664078 -0.39987574649354879 0 -0.44646247228389868 -0.41654464256061052 0 -0.4375229199380159 -0.42454468706769971 0 -0.42550232634077589 -0.42345940056268039 0 -0.44646247228389868 -0.41654464256061052 0 -0.42550232634077589 -0.42345940056268039 0 -0.41657232816672918 -0.41306671883907142 0 -0.44646247228389868 -0.41654464256061052 0 -0.41657232816672918 -0.41306671883907142 0 -0.42550232634077589 -0.42345940056268039 0 -0.41657232816672918 -0.41306671883907142 0 -0.41333489101611293 -0.42699700567040988 0 -0.41657232816672918 -0.41306671883907142 0 -0.41333489101611293 -0.42699700567040988 0 -0.39893236021425188 -0.42931692235905211 0 -0.41333489101611293 -0.42699700567040988 0 -0.39893236021425188 -0.42931692235905211 0 -0.41950844772475421 -0.43888456563633732 0 -0.42550232634077589 -0.42345940056268039 0 -0.41333489101611293 -0.42699700567040988 0 -0.41950844772475421 -0.43888456563633732 0 -0.43421362475025049 -0.37527491429266319 0 -0.42478231784314502 -0.38643128255249681 0 -0.41656514696884139 -0.37636588688318029 0 -0.43421362475025049 -0.37527491429266319 0 -0.42478231784314502 -0.38643128255249681 0 -0.43479631603355468 -0.39077639303142497 0 -0.42478231784314502 -0.38643128255249681 0 -0.43479631603355468 -0.39077639303142497 0 -0.42870657106664078 -0.39987574649354879 0 -0.44332653075004852 -0.401690115615219 0 -0.43479631603355468 -0.39077639303142497 0 -0.42870657106664078 -0.39987574649354879 0 -0.41657232816672918 -0.41306671883907142 0 -0.40962993039643741 -0.3898634720616666 0 -0.3946356370269814 -0.39577424904278191 0 -0.42478231784314502 -0.38643128255249681 0 -0.42870657106664078 -0.39987574649354879 0 -0.40962993039643741 -0.3898634720616666 0 -0.41657232816672918 -0.41306671883907142 0 -0.42870657106664078 -0.39987574649354879 0 -0.40962993039643741 -0.3898634720616666 0 -0.42478231784314502 -0.38643128255249681 0 -0.40962993039643741 -0.3898634720616666 0 -0.41656514696884139 -0.37636588688318029 0 -0.40962993039643741 -0.3898634720616666 0 -0.41656514696884139 -0.37636588688318029 0 -0.40465459864295228 -0.37650109000307358 0 -0.39431275766669582 -0.38061373190328529 0 -0.40465459864295228 -0.37650109000307358 0 -0.3968495855878465 -0.36923685638487008 0 -0.40962993039643741 -0.3898634720616666 0 -0.39431275766669582 -0.38061373190328529 0 -0.40465459864295228 -0.376501090003
[...]
<PointData Scalars="" Vectors="displacement," Tensors="">
<DataArray type="Float64" Name="displacement" NumberOfComponents="3" format="ascii">
2.0862629889170891e-07 -0.014604615954228156 0 -1.39128595360896e-07 -0.014999162836693026 0 6.7783078224843226e-08 -0.01498807704924472 0 -1.39128595360896e-07 -0.014999162836693026 0 6.7783078224843226e-08 -0.01498807704924472 0 6.9022060986528964e-08 -0.015000368643100323 0 4.76321605660886e-08 -0.01460361957739835 0 -1.5709517771781699e-06 -0.014791405717164769 0 -5.9549330264342431e-08 -0.014602393797934141 0 -8.063364437557403e-05 -0.014377329103231131 0 -7.6290297367323504e-05 -0.014522830767042055 0 -5.9549330264342431e-08 -0.014602393797934141 0 -8.063364437557403e-05 -0.014377329103231131 0 -4.4011944768914659e-07 -0.013980007910779184 0 -8.063364437557403e-05 -0.014377329103231131 0 -4.8903787402048575e-05 -0.014675113700902869 0 -6.7943944961644317e-05 -0.014570702482974195 0 -8.063364437557403e-05 -0.014377329103231131 0 -7.6290297367323504e-05 -0.014522830767042055 0 -4.8903787402048575e-05 -0.014675113700902869 0 -1.5709517771781699e-06 -0.014791405717164769 0 -7.0932277068571779e-08 -0.014999646699547609 0 -7.6290297367323504e-05 -0.014522830767042055 0 -5.1371107479241255e-07 -0.014998986304527728 0 -4.8903787402048575e-05 -0.014675113700902869 0 -5.1371107479241255e-07 -0.014998986304527728 0 -4.8903787402048575e-05 -0.014675113700902869 0 -4.872376473640168e-05 -0.014808870941067488 0 -4.8903787402048575e-05 -0.014675113700902869 0 -4.872376473640168e-05 -0.014808870941067488 0 -6.7943944961644317e-05 -0.014570702482974195 0 -7.5908485089018235e-05 -0.014693800357030743 0 -4.872376473640168e-05 -0.014808870941067488 0 -6.7943944961644317e-05 -0.014570702482974195 0 -7.5908485089018235e-05 -0.014693800357030743 0 -4.872376473640168e-05 -0.014808870941067488 0 -3.7926940366316712e-05 -0.014816865559100211 0 -4.872376473640168e-05 -0.014808870941067488 0 1.3090725085564254e-07 -0.014999787379169342 0 -3.7926940366316712e-05 -0.014816865559100211 0 -5.1371107479241255e-07 -0.014998986304527728 0 -4.872376473640168e-05 -0.014808870941067488 0 1.3090725085564254e-07 -0.014999787379169342 0 -9.5003147155981883e-05 -0.01455383830753381 0 -0.00030412245943642037 -0.014306895864785884 0 -0.00020554905730949793 -0.01450011424101017 0 -7.5908485089018235e-05 -0.014693800357030743 0 -9.5003147155981883e-05 -0.01455383830753381 0 -6.7943944961644317e-05 -0.014570702482974195 0 -7.5908485089018235e-05 -0.014693800357030743 0 -9.5003147155981883e-05 -0.01455383830753381 0 -0.00011966980839232077 -0.014640884995427178 0 -9.5003147155981883e-05 -0.01455383830753381 0 -6.7943944961644317e-05 -0.014570702482974195 0 0.00011170426535321276 -0.01446995611149334 0 -9.5003147155981883e-05 -0.01455383830753381 0 0.00011170426535321276 -0.01446995611149334 0 -0.00030412245943642037 -0.014306895864785884 0 -6.4650189977806665e-05 -0.013713517942616025 0 -9.378089817653674e-05 -0.013946346888622344 0 -6.7943944961644317e-05 -0.014570702482974195 0 0.00011170426535321276 -0.01446995611149334 0 -7.4661767177956263e-05 -0.014159912591474286 0 -8.063364437557403e-05 -0.014377329103231131 0 -6.7943944961644317e-05 -0.014570702482974195 0 -7.4661767177956263e-05 -0.014159912591474286 0 -8.063364437557403e-05 -0.014377329103231131 0 -7.4661767177956263e-05 -0.014159912591474286 0 -4.4011944768914659e-07 -0.013980007910779184 0 -7.4661767177956263e-05 -0.014159912591474286 0 -4.4011944768914659e-07 -0.013980007910779184 0 8.3059271672002298e-07 -0.013357840684382744 0 -6.4650189977806665e-05 -0.013713517942616025 0 -1.6114121528062221e-07 -0.013356780962933556 0 -0.0003541175520745209 -0.012942870018537299 0 -9.9772945174346196e-08 -0.013354959151815516 0 -0.00014478330856664999 -0.01287604067724505 0 0.00011170426535321276 -0.01446995611149334 0 -7.4661767177956263e-05 -0.014159912591474286 0 8.3059271672002298e-07 -0.013357840684382744 0 -9.9772945174346196e-08 -0.013354959151815516 0 -0.00014478330856664999 -0.01287604067724505 0 -3.7437587191680363e-07 -0.012478107552250595 0 -0.00014478330856664999 -0.01287604067724505 0 -3.7437587191680363e-07 -0.012478107552250595 0 -1.4096422704744898e-05 -0.012777956719060551 0 -3.7437587191680363e-07 -0.012478107552250595 0 -1.4096422704744898e-05 -0.012777956719060551 0 3.5036758574359911e-05 -0.01231342195321501 0 -0.0003541175520745209 -0.012942870018537299 0 -0.00014478330856664999 -0.01287604067724505 0 -1.4096422704744898e-05 -0.012777956719060551 0 6.5683021960086351e-07 -0.01159870842550904 0 0.00028097172740333752 -0.012496831918113543 0 0.0001013583206624311 -0.011134875081464225 0 -1.6072131440916766e-05 -0.011799782726591759 0 -8.0362805268681117e-06 -0.011695496186136542 0 6.5683021960086351e-07 -0.01159870842550904 0 3.5036758574359911e-05 -0.01231342195321501 0 0.00028097172740333752 -0.012496831918113543 0 -3.7437587191680363e-07 -0.012478107552250595 0 6.5683021960086351e-07 -0.01159870842550904 0 3.5036758574359911e-05 -0.01231342195321501 0 -1.4096422704744898e-05 -0.012777956719060551 0 3.5036758574359911e-05 -0.01231342195321501 0 0.00028097172740333752 -0.012496831918113543 0 -1.4096422704744898e-05 -0.012777956719060551 0 0.00028097172740333752 -0.012496831918113543 0 0.00027286067142334139 -0.013360642908878066 0 0.00010116827645162408 -0.010212588129425172 0 5.2735731594747452e-05 -0.010438761573521577 0 7.2082992374925648e-05 -0.010249094567609548 0 0.00010116827645162408 -0.010212588129425172 0 0.0001013583206624311 -0.011134875081464225 0 5.2735731594747452e-05 -0.010438761573521577 0 -8.8249407980880241e-05 -0.010374310010848681 0 7.2082992374925648e-05 -0.010249094567609548 0 0.00010133890262663579 -0.010364314145101463 0 0.00010116827645162408 -0.010212588129425172 0 -8.8249407980880241e-05 -0.010374310010848681 0 7.2082992374925648e-05 -0.010249094567609548 0 -1.6072131440916766e-05 -0.011799782726591759 0 -0.00012184203231976637 -0.01215184746172257 0 0.00010116827645162408 -0.010212588129425172 0 -8.8249407980880241e-05 -0.010374310010848681 0 -0.00048488881563844876 -0.010322721302457764 0 -0.00044142801381471516 -0.010579537905449124 0 -0.00078486614922715326 -0.010507222312992856 0 -0.00048364823909083685 -0.010924663431675001 0 -8.8249407980880241e-05 -0.010374310010848681 0 -0.00044142801381471516 -0.010579537905449124 0 -0.00022958231456503595 -0.010753659459860334 0 -8.8249407980880241e-05 -0.010374310010848681 0 -0.00044142801381471516 -0.010579537905449124 0 -0.00048488881563844876 -0.010322721302457764 0 -8.8249407980880241e-05 -0.010374310010848681 0 7.465022126456865e-05 -0.010712079012122597 0 -0.00022958231456503595 -0.010753659459860334 0 -8.8249407980880241e-05 -0.010374310010848681 0 7.465022126456865e-05 -0.010712079012122597 0 0.00010133890262663579 -0.010364314145101463 0 -0.0003541175520745209 -0.012942870018537299 0 -6.1374096637943388e-05 -0.013515545414019541 0 -0.00030412245943642037 -0.014306895864785884 0 -0.0003541175520745209 -0.012942870018537299 0 -1.4096422704744898e-05 -0.012777956719060551 0 -6.1374096637943388e-05 -0.013515545414019541 0 -6.1374096637943388e-05 -0.013515545414019541 0 0.00027286067142334139 -0.013360642908878066 0 0.00016871299678313968 -0.01387554220485613 0 -1.4096422704744898e-05 -0.012777956719060551 0 -6.1374096637943388e-05 -0.013515545414019541 0 0.00027286067142334139 -0.013360642908878066 0 -0.00044142801381471516 -0.010579537905449124 0 -0.00048488881563844876 -0.010322721302457764 0 -0.00078486614922715326 -0.010507222312992856 0 -0.00012184203231976637 -0.01215184746172257 0 -0.00018533796052556259 -0.012407350403107196 0 -0.00018533796052556259 -0.012407350403107196 0 -0.00031507649161605637 -0.012662646355843217 0 -6.1374096637943388e-05 -0.013515545414019541 0 -0.00014043133563938735 -0.014368478470792753 0 -0.00030412245943642037 -0.014306895864785884 0 -6.1374096637943388e-05 -0.013515545414019541 0 0.00016871299678313968 -0.01387554220485613 0 -0.00014043133563938735 -0.014368478470792753 0 -0.00014043133563938735 -0.014368478470792753 0 -0.00030412245943642037 -0.014306895864785884 0 -0.00024650387167659865 -0.014445397167748278 0 -0.00024650387167659865 -0.014445397167748278 0 -0.00023500027979392798 -0.014438578355348277 0 -0.00024943691684111596 -0.014493158201403837 0 -0.00014043133563938735 -0.014368478470792753 0 -0.00024650387167659865 -0.014445397167748278 0 -0.00023500027979392798 -0.014438578355348277 0 -0.00078486614922715326 -0.010507222312992856 0 -0.00092172351793536143 -0.011272781852778515 0 -0.00048364823909083685 -0.010924663431675001 0 -0.00010107259283537339 -0.014343894080103182 0 -0.00014043133563938735 -0.014368478470792753 0 -0.00023500027979392798 -0.014438578355348277 0 -0.00010107259283537339 -0.014343894080103182 0 -0.00023500027979392798 -0.014438578355348277 0 -0.00031217561984852102 -0.014466189693554466 0 -0.00018533796052556259 -0.012407350403107196 0 -0.00045234822876762337 -0.012852564096510498 0 -0.00023500027979392798 -0.014438578355348277 0 -0.00031217561984852102 -0.014466189693554466 0 -0.00028924214815600661 -0.014451346121453741 0 -0.00031217561984852102 -0.014466189693554466 0 -0.00028924214815600661 -0.014451346121453741 0 -0.00033771820331988278 -0.014388934721910643 0 -0.00028924214815600661 -0.014451346121453741 0 -0.00033771820331988278 -0.014388934721910643 0 -0.00024943691684111596 -0.014493158201403837 0 -0.00023500027979392798 -0.014438578355348277 0 -0.00028924214815600661 -0.014451346121453741 0 -0.00024943691684111596 -0.014493158201403837 0 7.465022126456865e-05 -0.010712079012122597 0 -0.00014644116593548573 -0.011009234835404589 0 0.00010902344932693929 -0.011219625255682975 0 7.465022126456865e-05 -0.010712079012122597 0 -0.00014644116593548573 -0.011009234835404589 0 -0.00022958231456503595 -0.010753659459860334 0 -0.00014644116593548573 -0.011009234835404589 0 -0.00022958231456503595 -0.010753659459860334 0 -0.00048364823909083685 -0.010924663431675001 0 -0.00044142801381471516 -0.010579537905449124 0 -0.00022958231456503595 -0.010753659459860334 0 -0.00048364823909083685 -0.010924663431675001 0 -0.00092172351793536143 -0.011272781852778515 0 -0.00024976460969980955 -0.011502604432548025 0 -0.00044814760489717302 -0.012082027679915857 0 -0.00014644116593548573 -0.011009234835404589 0 -0.00048364823909083685 -0.010924663431675001 0 -0.00024976460969980955 -0.011502604432548025 0 -0.00092172351793536143 -0.011272781852778515 0 -0.00048364823909083685 -0.010924663431675001 0 -0.00024976460969980955 -0.011502604432548025 0 -0.00014644116593548573 -0.011009234835404589 0 -0.00024976460969980955 -0.011502604432548025 0 0.00010902344932693929 -0.011219625255682975 0 -0.00024976460969980955 -0.011502604432548025 0 0.00010902344932693929 -0.011219625255682975 0 0.00015744586302487699 -0.011674284959889576 0 5.6396893610381764e-05 -0.012094549794178372 0 0.00015744586302487699 -0.011674284959889576 0 0.00043864986296870105 -0.011993950606365456 0 -0.00024976460969980955 -0.011502604432548025 0 5.6396893610381764e-05 -0.012094549794178372 0 0.00015744586302487699 -0.011674284959889576 0 -0.00024976460969980955 -0.011502604432548025 0 5.6396893610381764e-05 -0.012094549794178372 0 -0.00044814760489717302 -0.012082027679915857 0 -0.00044814760489717302 -0.012082027679915857 0 -0.00098598216628273676 -0.012391757589483368 0 -0.00043248998138070265 -0.012942783901496054 0 -0.00044814760489717302 -0.012082027679915857 0 9.6566101082307614e-05 -0.012893451400311574 0 -0.00043248998138070265 -0.012942783901496054 0 5.6396893610381764e-05 -0.012094549794178372 0 -0.00044814760489717302 -0.012082027679915857 0 9.6566101082307614e-05 -0.012893451400311574 0 5.6396893610381764e-05 -0.012094549794178372 0 9.6566101082307614e-05 -0.012893451400311574 0 0.00043079815557232291 -0.012459911982519788 0 -0.00031217561984852102 -0.014466189693554466 0 -0.00033771820331988278 -0.014388934721910643 0 -0.000566868217441935 -0.014282315908091207 0 -0.00092172351793536143 -0.011272781852778515 0 -0.00044814760489717302 -0.012082027679915857 0 -0.00098598216628273676 -0.012391757589483368 0 -0.00045234822876762337 -0.012852564096510498 0 -0.00058904505915656057 -0.013249408756542158 0 -0.000566868217441935 -0.014282315908091207 0 -0.00041039961412192376 -0.0142045986389074 0 -0.00052906272969889469 -0.013930950742805466 0 -0.00041039961412192376 -0.0142045986389074 0 -0.00027147241625559432 -0.014256649677798501 0 -0.00039930177188770042 -0.014040214055372749 0 -0.00033771820331988278 -0.014388934721910643 0 -0.00041039961412192376 -0.0142045986389074 0 -0.00027147241625559432 -0.014256649677798501 0 -0.00033771820331988278 -0.014388934721910643 0 -0.000566868217441935 -0.014282315908091207 0 -0.00041039961412192376 -0.0142045986389074 0 -0.00027147241625559432 -0.014256649677798501 0 -0.0002125533893797861 -0.014471428276676393 0 -0.0001292307635816846 -0.014362136952342017 0 -0.00033771820331988278 -0.014388934721910643 0 -0.00027147241625559432 -0.014256649677798501 0 -0.0002125533893797861 -0.014471428276676393 0 -0.0002125533893797861 -0.014471428276676393 0 -0.0001292307635816846 -0.014362136952342017 0 -8.530374260957902e-05 -0.014540484959854711 0 -0.00027147241625559432 -0.014256649677798501 0 -0.0001292307635816846 -0.014362136952342017 0 -0.00014912538990710658 -0.014171698963596897 0 -0.0001292307635816846 -0.014362136952342017 0 7.3537113497860669e-06 -0.01426336484481279 0 -0.00014912538990710658 -0.014171698963596897 0 7.3537113497860669e-06 -0.01426336484481279 0 0.00019495016390369847 -0.014421077210662245 0 -1.8515840094762447e-05 -0.014444832486801916 0 -0.0001292307635816846 -0.014362136952342017 0 7.3537113497860669e-06 -0.01426336484481279 0 -1.8515840094762447e-05 -0.014444832486801916 0 4.4042415922207133e-06 -0.014760264529247726 0 -4.67529532430425e-05 -0.014880810042581944 0 8.6645663233058542e-06 -0.015014358222427903 0 -6.4670416756288295e-10 -0.014999737560060598 0 1.5885723269983571e-08 -0.01500017384488922 0 8.6645663233058542e-06 -0.015014358222427903 0 -3.3346161562619915e-06 -0.014998680228455234 0 1.5885723269983571e-08 -0.01500017384488922 0 7.3537113497860669e-06 -0.01426336484481279 0 0.00019495016390369847 -0.014421077210662245 0 0.00021386164235452927 -0.014148679714570421 0 4.4042415922207133e-06 -0.014760264529247726 0 1.4494083427159907e-05 -0.014771121001977595 0 0.00019495016390369847 -0.014421077210662245 0 -1.8515840094762447e-05 -0.014444832486801916 0 -1.5487470993443631e-07 -0.014626875800727374 0 8.6645663233058542e-06 -0.015014358222427903 0 -6.4670416756288295e-10 -0.014999737560060598 0 4.7720830893712758e-05 -0.014885416898217851 0 0.00019495016390369847 -0.014421077210662245 0 -1.5487470993443631e-07 -0.014626875800727374 0 4.7720830893712758e-05 -0.014885416898217851 0 -0.0001292307635816846 -0.014362136952342017 0 -1.8515840094762447e-05 -0.014444832486801916 0 -8.530374260957902e-05 -0.014540484959854711 0 -1.8515840094762447e-05 -0.014444832486801916 0 -1.5487470993443631e-07 -0.014626875800727374 0 -8.530374260957902e-05 -0.014540484959854711 0 -8.530374260957902e-05 -0.014540484959854711 0 -5.7605280648889587e-05 -0.014726565459443498 0 -0.00014091330203994446 -0.014594416888920205 0 -1.5487470993443631e-07 -0.014626875800727374 0 -5.7605280648889587e-05 -0.014726565459443498 0 4.7720830893712758e-05 -0.014885416898217851 0 -1.5487470993443631e-07 -0.014626875800727374 0 -8.530374260957902e-05 -0.014540484959854711 0 -5.7605280648889587e-05 -0.014726565459443498 0 -5.7605280648889587e-05 -0.014726565459443498 0 4.7720830893712758e-05 -0.014885416898217851 0 -6.1366847619879167e-06 -0.014861674609737325 0 -6.4670416756288295e-10 -0.014999737560060598 0 4.7720830893712758e-05 -0.014885416898217851 0 1.3090725085564254e-07 -0.014999787379169342 0 4.7720830893712758e-05 -0.014885416898217851 0 -6.1366847619879167e-06 -0.014861674609737325 0 1.3090725085564254e-07 -0.014999787379169342 0 -6.1366847619879167e-06 -0.014861674609737325 0 1.3090725085564254e-07 -0.014999787379169342 0 -3.7926940366316712e-05 -0.014816865559100211 0 -7.5908485089018235e-05 -0.014693800357030743 0 -3.7926940366316712e-05 -0.014816865559100211 0 -0.00011966980839232077 -0.014640884995427178 0 -5.7605280648889587e-05 -0.014726565459443498 0 -3.7926940366316712e-05 -0.014816865559100211 0 -0.00011966980839232077 -0.014640884995427178 0 -5.7605280648889587e-05 -0.014726565459443498 0 -6.1366847619879167e-06 -0.014861674609737325 0 -3.7926940366316712e-05 -0.014816865559100211 0 -9.5003147155981883e-05 -0.01455383830753381 0 -0.00011966980839232077 -0.014640884995427178 0 -0.00020554905730949793 -0.01450011424101017 0 -0.00011966980839232077 -0.014640884995427178 0 -0.00019469584221360579 -0.014547156294227516 0 -0.00014091330203994446 -0.014594416888920205 0 -0.00011966980839232077 -0.014640884995427178 0 -0.00020554905730949793 -0.01450011424101017 0 -0.00019469584221360579 -0.014547156294227516 0 -0.00030412245943642037 -0.014306895864785884 0 -0.00024650387167659865 -0.014445397167748278 0 -0.00020554905730949793 -0.01450011424101017 0 -0.00024650387167659865 -0.014445397167748278 0 -0.00020554905730949793 -0.01450011424101017 0 -0.00024943691684111596 -0.014493158201403837 0 -0.00020554905730949793 -0.01450011424101017 0 -0.00019469584221360579 -0.014547156294227516 0 -0.00024943691684111596 -0.014493158201403837 0 -0.00033771820331988278 -0.014388934721910643 0 -0.0002125533893797861 -0.014471428276676393 0 -0.00024943691684111596 -0.014493158201403837 0 -0.0002125533893797861 -0.014471428276676393 0 -0.00019469584221360579 -0.014547156294227516 0 -0.00024943691684111596 -0.014493158201403837 0 -0.0002125533893797861 -0.014471428276676393 0 -0.00019469584221360579 -0.014547156294227516 0 -0.00014091330203994446 -0.014594416888920205 0 -0.0002125533893797861 -0.014471428276676393 0 -8.530374260957902e-05 -0.014540484959854711 0 -0.00014091330203994446 -0.014594416888920205 0 -5.7605280648889587e-05 -0.014726565459443498 0 -0.00011966980839232077 -0.014640884995427178 0 -0.00014091330203994446 -0.014594416888920205 0 -4.9104115780949006e-05 -0.0085892729403081007 0 -6.9692148116470067e-05 -0.0088340806437259469 0 7.0246479305117844e-05 -0.0087747921872889066 0 -4.9104115780949006e-05 -0.0085892729403081007 0 -0.00014768418234143579 -0.0088074383154099298 0 -6.9692148116470067e-05 -0.0088340806437259469 0 -4.9104115780949006e-05 -0.0085892729403081007 0 7.0246479305117844e-05 -0.0087747921872889066 0 7.9637524526102331e-05 -0.0085165251262994193 0 -4.9104115780949006e-05 -0.0085892729403081007 0 -0.00014768418234143579 -0.0088074383154099298 0 -0.00014944094991121461 -0.0085910318253376132 0 -0.00014768418234143579 -0.0088074383154099298 0 -0.00014944094991121461 -0.0085910318253376132 0 -0.00018381156616965297 -0.0089043887549234303 0 -0.00014944094991121461 -0.0085910318253376132 0 -4.6760532013105736e-05 -0.0079826005883508969 0 2.1706811132522516e-05 -0.0082615526258717209 0 -4.9104115780949006e-05 -0.0085892729403081007 0 -0.00014944094991121461 -0.0085910318253376132 0 2.1706811132522516e-05 -0.0082615526258717209 0 -4.9104115780949006e-05 -0.0085892729403081007 0 2.1706811132522516e-05 -0.0082615526258717209 0 7.9637524526102331e-05 -0.0085165251262994193 0 -4.6760532013105736e-05 -0.0079826005883508969 0 -1.5836166093254737e-07 -0.0080836940878491227 0 -1.1702802386854794e-07 -0.0072045322975850768 0 -4.6760532013105736e-05 -0.0079826005883508969 0 -1.5836166093254737e-07 -0.0080836940878491227 0 -0.00010060622210533658 -0.0085571432843797035 0 -0.00014944094991121461 -0.0085910318253376132 0 -4.6760532013105736e-05 -0.0079826005883508969 0 -0.00010060622210533658 -0.0085571432843797035 0 -0.00014944094991121461 -0.0085910318253376132 0 -0.00010060622210533658 -0.0085571432843797035 0 -0.00014045927062774179 -0.0090066223964191776 0 -0.00010060622210533658 -0.0085571432843797035 0 -2.397662719945006e-07 -0.0089623765593103803 0 -0.00014045927062774179 -0.0090066223964191776 0 -1