<?xml version="1.0"?>
<VTKFile type="UnstructuredGrid" version="0.1" byte_order="LittleEndian">
<UnstructuredGrid>
<Piece NumberOfPoints="30881" NumberOfCells="10862">
<Points>
<DataArray type="Float64" NumberOfComponents="3" format="ascii">
-0.49999999999999828 -0.48677703703187492 0 -0.5 -0.5 0 -0.48129281494584059 -0.49338851851593718 0 -0.5 -0.5 0 -0.48129281494584059 -0.49338851851593718 0 -0.46258562989168328 -0.5 0 -0.49999999999999828 -0.48677703703187492 0 -0.48129281494584059 -0.49338851851593718 0 -0.49999999999999828 -0.48677703703187492 0 -0.4824545428279598 -0.47451624516148783 0 -0.48129281494584059 -0.49338851851593718 0 -0.49999999999999828 -0.48677703703187492 0 -0.4824545428279598 -0.47451624516148783 0 -0.5 -0.46599539173150673 0 -0.4824545428279598 -0.47451624516148783 0 -0.46853075243710779 -0.48354990242643758 0 -0.46411508256092049 -0.46598235294430129 0 -0.4824545428279598 -0.47451624516148783 0 -0.48129281494584059 -0.49338851851593718 0 -0.46853075243710779 -0.48354990242643758 0 -0.48129281494584059 -0.49338851851593718 0 -0.46258562989168328 -0.5 0 -0.48129281494584059 -0.49338851851593718 0 -0.46258562989168328 -0.5 0 -0.46853075243710779 -0.48354990242643758 0 -0.46258562989168328 -0.5 0 -0.46853075243710779 -0.48354990242643758 0 -0.45147378687733691 -0.48362213557840178 0 -0.46853075243710779 -0.48354990242643758 0 -0.45147378687733691 -0.48362213557840178 0 -0.46411508256092049 -0.46598235294430129 0 -0.4457251648104853 -0.47020164095208389 0 -0.45147378687733691 -0.48362213557840178 0 -0.46411508256092049 -0.46598235294430129 0 -0.4457251648104853 -0.47020164095208389 0 -0.45147378687733691 -0.48362213557840178 0 -0.43513446131126993 -0.48199891714758791 0 -0.45147378687733691 -0.48362213557840178 0 -0.43275163025255442 -0.5 0 -0.43513446131126993 -0.48199891714758791 0 -0.46258562989168328 -0.5 0 -0.45147378687733691 -0.48362213557840178 0 -0.43275163025255442 -0.5 0 -0.4467190029717853 -0.45478934699519452 0 -0.4422915115958943 -0.43555510214664611 0 -0.43246707723660932 -0.44794326854796312 0 -0.4457251648104853 -0.47020164095208389 0 -0.4467190029717853 -0.45478934699519452 0 -0.46411508256092049 -0.46598235294430129 0 -0.4457251648104853 -0.47020164095208389 0 -0.4467190029717853 -0.45478934699519452 0 -0.43016578207734568 -0.46313500011938619 0 -0.4467190029717853 -0.45478934699519452 0 -0.46411508256092049 -0.46598235294430129 0 -0.47114575579794699 -0.4403844242888923 0 -0.4467190029717853 -0.45478934699519452 0 -0.47114575579794699 -0.4403844242888923 0 -0.4422915115958943 -0.43555510214664611 0 -0.47114575579794699 -0.4403844242888923 0 -0.4422915115958943 -0.43555510214664611 0 -0.46411508256092049 -0.46598235294430129 0 -0.47114575579794699 -0.4403844242888923 0 -0.48354307623736548 -0.45841843211146538 0 -0.4824545428279598 -0.47451624516148783 0 -0.46411508256092049 -0.46598235294430129 0 -0.48354307623736548 -0.45841843211146538 0 -0.4824545428279598 -0.47451624516148783 0 -0.48354307623736548 -0.45841843211146538 0 -0.5 -0.46599539173150673 0 -0.48354307623736548 -0.45841843211146538 0 -0.5 -0.46599539173150673 0 -0.49999999999999972 -0.44521374643113848 0 -0.47114575579794699 -0.4403844242888923 0 -0.49999999999999972 -0.44521374643113848 0 -0.47114575579794699 -0.4403844242888923 0 -0.49999999999999972 -0.44521374643113848 0 -0.48704432221743971 -0.42935617662229603 0 -0.47114575579794699 -0.4403844242888923 0 -0.48354307623736548 -0.45841843211146538 0 -0.49999999999999972 -0.44521374643113848 0 -0.49999999999999972 -0.44521374643113848 0 -0.48704432221743971 -0.42935617662229603 0 -0.5 -0.41591957503128979 0 -0.48704432221743971 -0.42935617662229603 0 -0.5 -0.41591957503128979 0 -0.47703153307181151 -0.41590696073786332 0 -0.5 -0.41591957503128979 0 -0.47703153307181151 -0.41590696073786332 0 -0.48817838912021821 -0.4022119694541284 0 -0.47114575579794699 -0.4403844242888923 0 -0.48704432221743971 -0.42935617662229603 0 -0.47703153307181151 -0.41590696073786332 0 -0.5 -0.38662540363144121 0 -0.47568202340906118 -0.39039593841591919 0 -0.4947615751445838 -0.37332156409002909 0 -0.47568202340906118 -0.39039593841591919 0 -0.4947615751445838 -0.37332156409002909 0 -0.5 -0.38662540363144121 0 -0.48817838912021821 -0.4022119694541284 0 -0.47568202340906118 -0.39039593841591919 0 -0.5 -0.41591957503128979 0 -0.5 -0.38662540363144121 0 -0.48817838912021821 -0.4022119694541284 0 -0.47703153307181151 -0.41590696073786332 0 -0.48817838912021821 -0.4022119694541284 0 -0.47568202340906118 -0.39039593841591919 0 -0.47703153307181151 -0.41590696073786332 0 -0.47568202340906118 -0.39039593841591919 0 -0.45660247167353862 -0.40747031274180939 0 -0.47568202340906118 -0.39039593841591919 0 -0.48030931097003587 -0.37191064435083931 0 -0.46669490250066459 -0.37481721741951951 0 -0.47568202340906118 -0.39039593841591919 0 -0.4947615751445838 -0.37332156409002909 0 -0.48030931097003587 -0.37191064435083931 0 -0.45332061783919553 -0.38729481725706361 0 -0.46669490250066459 -0.37481721741951951 0 -0.45095991715087752 -0.36968037302039969 0 -0.47568202340906118 -0.39039593841591919 0 -0.45332061783919553 -0.38729481725706361 0 -0.46669490250066459 -0.37481721741951951 0 -0.47568202340906118 -0.39039593841591919 0 -0.45660247167353862 -0.40747031274180939 0 -0.47568202340906118 -0.39039593841591919 0 -0.45332061783919553 -0.38729481725706361 0 -0.45660247167353862 -0.40747031274180939 0 -0.44332653075004852 -0.401690115615219 0 -0.44646247228389868 -0.41654464256061052 0 -0.42870657106664078 -0.39987574649354879 0 -0.45332061783919553 -0.38729481725706361 0 -0.44332653075004852 -0.401690115615219 0 -0.43479631603355468 -0.39077639303142497 0 -0.45332061783919553 -0.38729481725706361 0 -0.44332653075004852 -0.401690115615219 0 -0.45660247167353862 -0.40747031274180939 0 -0.45332061783919553 -0.38729481725706361 0 -0.43421362475025049 -0.37527491429266319 0 -0.43479631603355468 -0.39077639303142497 0 -0.45332061783919553 -0.38729481725706361 0 -0.43421362475025049 -0.37527491429266319 0 -0.45095991715087752 -0.36968037302039969 0 -0.47114575579794699 -0.4403844242888923 0 -0.45663439814062529 -0.42533932462455271 0 -0.4422915115958943 -0.43555510214664611 0 -0.47114575579794699 -0.4403844242888923 0 -0.47703153307181151 -0.41590696073786332 0 -0.45663439814062529 -0.42533932462455271 0 -0.45663439814062529 -0.42533932462455271 0 -0.45660247167353862 -0.40747031274180939 0 -0.44646247228389868 -0.41654464256061052 0 -0.47703153307181151 -0.41590696073786332 0 -0.45663439814062529 -0.42533932462455271 0 -0.45660247167353862 -0.40747031274180939 0 -0.44332653075004852 -0.401690115615219 0 -0.45660247167353862 -0.40747031274180939 0 -0.44646247228389868 -0.41654464256061052 0 -0.45660247167353862 -0.40747031274180939 0 -0.44646247228389868 -0.41654464256061052 0 -0.44646247228389868 -0.41654464256061052 0 -0.4375229199380159 -0.42454468706769971 0 -0.45663439814062529 -0.42533932462455271 0 -0.4375229199380159 -0.42454468706769971 0 -0.4422915115958943 -0.43555510214664611 0 -0.45663439814062529 -0.42533932462455271 0 -0.44646247228389868 -0.41654464256061052 0 -0.4375229199380159 -0.42454468706769971 0 -0.4375229199380159 -0.42454468706769971 0 -0.4422915115958943 -0.43555510214664611 0 -0.43077617074680319 -0.43406335077952207 0 -0.43077617074680319 -0.43406335077952207 0 -0.42550232634077589 -0.42345940056268039 0 -0.41950844772475421 -0.43888456563633732 0 -0.4375229199380159 -0.42454468706769971 0 -0.43077617074680319 -0.43406335077952207 0 -0.42550232634077589 -0.42345940056268039 0 -0.44646247228389868 -0.41654464256061052 0 -0.41657232816672918 -0.41306671883907142 0 -0.42870657106664078 -0.39987574649354879 0 -0.44646247228389868 -0.41654464256061052 0 -0.4375229199380159 -0.42454468706769971 0 -0.42550232634077589 -0.42345940056268039 0 -0.44646247228389868 -0.41654464256061052 0 -0.42550232634077589 -0.42345940056268039 0 -0.41657232816672918 -0.41306671883907142 0 -0.44646247228389868 -0.41654464256061052 0 -0.41657232816672918 -0.41306671883907142 0 -0.42550232634077589 -0.42345940056268039 0 -0.41657232816672918 -0.41306671883907142 0 -0.41333489101611293 -0.42699700567040988 0 -0.41657232816672918 -0.41306671883907142 0 -0.41333489101611293 -0.42699700567040988 0 -0.39893236021425188 -0.42931692235905211 0 -0.41333489101611293 -0.42699700567040988 0 -0.39893236021425188 -0.42931692235905211 0 -0.41950844772475421 -0.43888456563633732 0 -0.42550232634077589 -0.42345940056268039 0 -0.41333489101611293 -0.42699700567040988 0 -0.41950844772475421 -0.43888456563633732 0 -0.43421362475025049 -0.37527491429266319 0 -0.42478231784314502 -0.38643128255249681 0 -0.41656514696884139 -0.37636588688318029 0 -0.43421362475025049 -0.37527491429266319 0 -0.42478231784314502 -0.38643128255249681 0 -0.43479631603355468 -0.39077639303142497 0 -0.42478231784314502 -0.38643128255249681 0 -0.43479631603355468 -0.39077639303142497 0 -0.42870657106664078 -0.39987574649354879 0 -0.44332653075004852 -0.401690115615219 0 -0.43479631603355468 -0.39077639303142497 0 -0.42870657106664078 -0.39987574649354879 0 -0.41657232816672918 -0.41306671883907142 0 -0.40962993039643741 -0.3898634720616666 0 -0.3946356370269814 -0.39577424904278191 0 -0.42478231784314502 -0.38643128255249681 0 -0.42870657106664078 -0.39987574649354879 0 -0.40962993039643741 -0.3898634720616666 0 -0.41657232816672918 -0.41306671883907142 0 -0.42870657106664078 -0.39987574649354879 0 -0.40962993039643741 -0.3898634720616666 0 -0.42478231784314502 -0.38643128255249681 0 -0.40962993039643741 -0.3898634720616666 0 -0.41656514696884139 -0.37636588688318029 0 -0.40962993039643741 -0.3898634720616666 0 -0.41656514696884139 -0.37636588688318029 0 -0.40465459864295228 -0.37650109000307358 0 -0.39431275766669582 -0.38061373190328529 0 -0.40465459864295228 -0.37650109000307358 0 -0.3968495855878465 -0.36923685638487008 0 -0.40962993039643741 -0.3898634720616666 0 -0.39431275766669582 -0.38061373190328529 0 -0.40465459864295228 -0.376501090003
[...]
<PointData Scalars="" Vectors="displacement," Tensors="">
<DataArray type="Float64" Name="displacement" NumberOfComponents="3" format="ascii">
-0.024341104678393018 -0.024999585674321811 0 -0.024998684182846481 -0.024999899800422543 0 -0.025197437399993774 -0.02417454772244618 0 -0.024998684182846481 -0.024999899800422543 0 -0.025197437399993774 -0.02417454772244618 0 -0.02500037487949831 -0.023129896591074599 0 -0.024339877082625774 -0.024998279738179221 0 -0.024655460468195729 -0.024046477459805937 0 -0.024336840930820839 -0.024998939717180292 0 -0.023829251509928383 -0.024196076556772965 0 -0.0239522189914546 -0.023865836192446258 0 -0.024336840930820839 -0.024998939717180292 0 -0.023829251509928383 -0.024196076556772965 0 -0.023299994539309116 -0.024999148166677296 0 -0.023829251509928383 -0.024196076556772965 0 -0.024123463107794885 -0.023411988004873662 0 -0.023742312598134144 -0.023387924208134556 0 -0.023829251509928383 -0.024196076556772965 0 -0.0239522189914546 -0.023865836192446258 0 -0.024123463107794885 -0.023411988004873662 0 -0.024655460468195729 -0.024046477459805937 0 -0.024998896452125302 -0.023130941574682002 0 -0.0239522189914546 -0.023865836192446258 0 -0.024996597878170226 -0.023128669921119588 0 -0.024123463107794885 -0.023411988004873662 0 -0.024996597878170226 -0.023128669921119588 0 -0.024123463107794885 -0.023411988004873662 0 -0.024382783481595442 -0.022803426089796672 0 -0.024123463107794885 -0.023411988004873662 0 -0.024382783481595442 -0.022803426089796672 0 -0.023742312598134144 -0.023387924208134556 0 -0.023973249059587681 -0.02276944866427974 0 -0.024382783481595442 -0.022803426089796672 0 -0.023742312598134144 -0.023387924208134556 0 -0.023973249059587681 -0.02276944866427974 0 -0.024382783481595442 -0.022803426089796672 0 -0.024401434532142843 -0.022174996911053745 0 -0.024382783481595442 -0.022803426089796672 0 -0.024999519083645116 -0.021638906807726947 0 -0.024401434532142843 -0.022174996911053745 0 -0.024996597878170226 -0.023128669921119588 0 -0.024382783481595442 -0.022803426089796672 0 -0.024999519083645116 -0.021638906807726947 0 -0.023534827037398596 -0.023025285385724292 0 -0.022677241463497547 -0.02338131361978759 0 -0.02317780267505308 -0.022885796044895691 0 -0.023973249059587681 -0.02276944866427974 0 -0.023534827037398596 -0.023025285385724292 0 -0.023742312598134144 -0.023387924208134556 0 -0.023973249059587681 -0.02276944866427974 0 -0.023534827037398596 -0.023025285385724292 0 -0.023689701522596085 -0.022510962221015913 0 -0.023534827037398596 -0.023025285385724292 0 -0.023742312598134144 -0.023387924208134556 0 -0.023603369254586882 -0.023636810930307117 0 -0.023534827037398596 -0.023025285385724292 0 -0.023603369254586882 -0.023636810930307117 0 -0.022677241463497547 -0.02338131361978759 0 -0.022451186663428716 -0.024386859454777504 0 -0.022511121141493434 -0.024166591775741524 0 -0.023742312598134144 -0.023387924208134556 0 -0.023603369254586882 -0.023636810930307117 0 -0.023325105013738082 -0.024335770002815151 0 -0.023829251509928383 -0.024196076556772965 0 -0.023742312598134144 -0.023387924208134556 0 -0.023325105013738082 -0.024335770002815151 0 -0.023829251509928383 -0.024196076556772965 0 -0.023325105013738082 -0.024335770002815151 0 -0.023299994539309116 -0.024999148166677296 0 -0.023325105013738082 -0.024335770002815151 0 -0.023299994539309116 -0.024999148166677296 0 -0.022263905447969294 -0.024999172294900587 0 -0.022451186663428716 -0.024386859454777504 0 -0.022261022589149533 -0.024999048562663981 0 -0.021565160236516466 -0.02513318429931467 0 -0.022259227989594756 -0.024999830525242104 0 -0.021500031140428179 -0.025173095886306226 0 -0.023603369254586882 -0.023636810930307117 0 -0.023325105013738082 -0.024335770002815151 0 -0.022263905447969294 -0.024999172294900587 0 -0.022259227989594756 -0.024999830525242104 0 -0.021500031140428179 -0.025173095886306226 0 -0.020796973959127388 -0.024999508448873681 0 -0.021500031140428179 -0.025173095886306226 0 -0.020796973959127388 -0.024999508448873681 0 -0.0214024926243334 -0.02517334177602076 0 -0.020796973959127388 -0.024999508448873681 0 -0.0214024926243334 -0.02517334177602076 0 -0.020473868378904397 -0.025171018209859692 0 -0.021565160236516466 -0.02513318429931467 0 -0.021500031140428179 -0.025173095886306226 0 -0.0214024926243334 -0.02517334177602076 0 -0.019332171471312203 -0.024999620340446071 0 -0.020262865922772762 -0.025471550558833548 0 -0.018788738722438424 -0.025205784655761555 0 -0.020209433341240358 -0.025032935148076769 0 -0.019796116751055245 -0.024904378647695055 0 -0.019332171471312203 -0.024999620340446071 0 -0.020473868378904397 -0.025171018209859692 0 -0.020262865922772762 -0.025471550558833548 0 -0.020796973959127388 -0.024999508448873681 0 -0.019332171471312203 -0.024999620340446071 0 -0.020473868378904397 -0.025171018209859692 0 -0.0214024926243334 -0.02517334177602076 0 -0.020473868378904397 -0.025171018209859692 0 -0.020262865922772762 -0.025471550558833548 0 -0.0214024926243334 -0.02517334177602076 0 -0.020262865922772762 -0.025471550558833548 0 -0.021734138024939637 -0.024895373786572902 0 -0.019734516300768837 -0.026041225883057278 0 -0.018927039464414323 -0.025805405385970474 0 -0.01926529433384333 -0.026265387389751638 0 -0.019734516300768837 -0.026041225883057278 0 -0.018788738722438424 -0.025205784655761555 0 -0.018927039464414323 -0.025805405385970474 0 -0.019743365117393476 -0.026560741931595199 0 -0.01926529433384333 -0.026265387389751638 0 -0.019418857570853893 -0.026554521133093218 0 -0.019734516300768837 -0.026041225883057278 0 -0.019743365117393476 -0.026560741931595199 0 -0.01926529433384333 -0.026265387389751638 0 -0.020209433341240358 -0.025032935148076769 0 -0.020920985118106555 -0.024959030890574021 0 -0.019734516300768837 -0.026041225883057278 0 -0.019743365117393476 -0.026560741931595199 0 -0.019928789695024929 -0.026554738473659516 0 -0.019877032522745173 -0.026630487870655094 0 -0.01977091951881018 -0.026668861477785976 0 -0.019863360687490977 -0.026512300125869758 0 -0.019743365117393476 -0.026560741931595199 0 -0.019877032522745173 -0.026630487870655094 0 -0.019978818410172128 -0.026616395845954606 0 -0.019743365117393476 -0.026560741931595199 0 -0.019877032522745173 -0.026630487870655094 0 -0.019928789695024929 -0.026554738473659516 0 -0.019743365117393476 -0.026560741931595199 0 -0.020005494142641075 -0.026686057186407819 0 -0.019978818410172128 -0.026616395845954606 0 -0.019743365117393476 -0.026560741931595199 0 -0.020005494142641075 -0.026686057186407819 0 -0.019418857570853893 -0.026554521133093218 0 -0.021565160236516466 -0.02513318429931467 0 -0.022140738441216317 -0.024459327638964672 0 -0.022677241463497547 -0.02338131361978759 0 -0.021565160236516466 -0.02513318429931467 0 -0.0214024926243334 -0.02517334177602076 0 -0.022140738441216317 -0.024459327638964672 0 -0.022140738441216317 -0.024459327638964672 0 -0.021734138024939637 -0.024895373786572902 0 -0.022339043357096005 -0.024162202077911712 0 -0.0214024926243334 -0.02517334177602076 0 -0.022140738441216317 -0.024459327638964672 0 -0.021734138024939637 -0.024895373786572902 0 -0.019877032522745173 -0.026630487870655094 0 -0.019928789695024929 -0.026554738473659516 0 -0.01977091951881018 -0.026668861477785976 0 -0.020920985118106555 -0.024959030890574021 0 -0.021392250623568494 -0.024832315584283823 0 -0.021392250623568494 -0.024832315584283823 0 -0.02139961976417969 -0.024688290881961797 0 -0.022140738441216317 -0.024459327638964672 0 -0.022724401403846239 -0.023384912783868301 0 -0.022677241463497547 -0.02338131361978759 0 -0.022140738441216317 -0.024459327638964672 0 -0.022339043357096005 -0.024162202077911712 0 -0.022724401403846239 -0.023384912783868301 0 -0.022724401403846239 -0.023384912783868301 0 -0.022677241463497547 -0.02338131361978759 0 -0.022809986808986969 -0.023028704477169044 0 -0.022809986808986969 -0.023028704477169044 0 -0.022813475009769078 -0.022922520178650509 0 -0.022929889241624382 -0.022691457962356096 0 -0.022724401403846239 -0.023384912783868301 0 -0.022809986808986969 -0.023028704477169044 0 -0.022813475009769078 -0.022922520178650509 0 -0.01977091951881018 -0.026668861477785976 0 -0.019448617011073779 -0.026195584641098311 0 -0.019863360687490977 -0.026512300125869758 0 -0.023030079130124712 -0.023655976757630426 0 -0.022724401403846239 -0.023384912783868301 0 -0.022813475009769078 -0.022922520178650509 0 -0.023030079130124712 -0.023655976757630426 0 -0.022813475009769078 -0.022922520178650509 0 -0.022961690007225012 -0.022642524427926233 0 -0.021392250623568494 -0.024832315584283823 0 -0.02122041752205394 -0.024357169736773349 0 -0.022813475009769078 -0.022922520178650509 0 -0.022961690007225012 -0.022642524427926233 0 -0.022801253061295112 -0.022638413246796232 0 -0.022961690007225012 -0.022642524427926233 0 -0.022801253061295112 -0.022638413246796232 0 -0.022669893706894928 -0.02245063203959894 0 -0.022801253061295112 -0.022638413246796232 0 -0.022669893706894928 -0.02245063203959894 0 -0.022929889241624382 -0.022691457962356096 0 -0.022813475009769078 -0.022922520178650509 0 -0.022801253061295112 -0.022638413246796232 0 -0.022929889241624382 -0.022691457962356096 0 -0.020005494142641075 -0.026686057186407819 0 -0.020193292238497567 -0.02648771849285949 0 -0.020563772423476356 -0.026421573666807092 0 -0.020005494142641075 -0.026686057186407819 0 -0.020193292238497567 -0.02648771849285949 0 -0.019978818410172128 -0.026616395845954606 0 -0.020193292238497567 -0.02648771849285949 0 -0.019978818410172128 -0.026616395845954606 0 -0.019863360687490977 -0.026512300125869758 0 -0.019877032522745173 -0.026630487870655094 0 -0.019978818410172128 -0.026616395845954606 0 -0.019863360687490977 -0.026512300125869758 0 -0.019448617011073779 -0.026195584641098311 0 -0.020339926593505277 -0.025914728203066568 0 -0.020272469046679068 -0.024891521197227116 0 -0.020193292238497567 -0.02648771849285949 0 -0.019863360687490977 -0.026512300125869758 0 -0.020339926593505277 -0.025914728203066568 0 -0.019448617011073779 -0.026195584641098311 0 -0.019863360687490977 -0.026512300125869758 0 -0.020339926593505277 -0.025914728203066568 0 -0.020193292238497567 -0.02648771849285949 0 -0.020339926593505277 -0.025914728203066568 0 -0.020563772423476356 -0.026421573666807092 0 -0.020339926593505277 -0.025914728203066568 0 -0.020563772423476356 -0.026421573666807092 0 -0.020981111813819571 -0.025755966684198325 0 -0.021054767307660999 -0.024933748102238116 0 -0.020981111813819571 -0.025755966684198325 0 -0.021716240914237666 -0.025197864149130101 0 -0.020339926593505277 -0.025914728203066568 0 -0.021054767307660999 -0.024933748102238116 0 -0.020981111813819571 -0.025755966684198325 0 -0.020339926593505277 -0.025914728203066568 0 -0.021054767307660999 -0.024933748102238116 0 -0.020272469046679068 -0.024891521197227116 0 -0.020272469046679068 -0.024891521197227116 0 -0.019539622476628007 -0.024273896272945787 0 -0.020632180982073197 -0.023325315801629089 0 -0.020272469046679068 -0.024891521197227116 0 -0.02141995707078841 -0.023328857014220966 0 -0.020632180982073197 -0.023325315801629089 0 -0.021054767307660999 -0.024933748102238116 0 -0.020272469046679068 -0.024891521197227116 0 -0.02141995707078841 -0.023328857014220966 0 -0.021054767307660999 -0.024933748102238116 0 -0.02141995707078841 -0.023328857014220966 0 -0.02196674730559697 -0.02420109978825255 0 -0.022961690007225012 -0.022642524427926233 0 -0.022669893706894928 -0.02245063203959894 0 -0.022344580563919449 -0.022335173936419844 0 -0.019448617011073779 -0.026195584641098311 0 -0.020272469046679068 -0.024891521197227116 0 -0.019539622476628007 -0.024273896272945787 0 -0.02122041752205394 -0.024357169736773349 0 -0.021098637435777855 -0.023731197645918078 0 -0.022344580563919449 -0.022335173936419844 0 -0.022407196716586864 -0.022423207894556391 0 -0.021829077792986314 -0.022456289865110814 0 -0.022407196716586864 -0.022423207894556391 0 -0.022830211524259438 -0.022512533203924691 0 -0.022351892987428516 -0.022548944681384683 0 -0.022669893706894928 -0.02245063203959894 0 -0.022407196716586864 -0.022423207894556391 0 -0.022830211524259438 -0.022512533203924691 0 -0.022669893706894928 -0.02245063203959894 0 -0.022344580563919449 -0.022335173936419844 0 -0.022407196716586864 -0.022423207894556391 0 -0.022830211524259438 -0.022512533203924691 0 -0.023129493535143358 -0.022448788360373319 0 -0.023425185446989252 -0.022519205444708767 0 -0.022669893706894928 -0.02245063203959894 0 -0.022830211524259438 -0.022512533203924691 0 -0.023129493535143358 -0.022448788360373319 0 -0.023129493535143358 -0.022448788360373319 0 -0.023425185446989252 -0.022519205444708767 0 -0.023741629872381147 -0.022272204249206548 0 -0.022830211524259438 -0.022512533203924691 0 -0.023425185446989252 -0.022519205444708767 0 -0.023263350233648315 -0.022759241431702517 0 -0.023425185446989252 -0.022519205444708767 0 -0.023859972590953824 -0.022735782528493863 0 -0.023263350233648315 -0.022759241431702517 0 -0.023859972590953824 -0.022735782528493863 0 -0.024512645987029773 -0.022512629251774077 0 -0.023921524901916996 -0.022421500264691162 0 -0.023425185446989252 -0.022519205444708767 0 -0.023859972590953824 -0.022735782528493863 0 -0.023921524901916996 -0.022421500264691162 0 -0.024773669481789565 -0.020352563554104308 0 -0.024642100023585002 -0.019123570926703051 0 -0.025383093390014714 -0.019569555191106248 0 -0.024999227352457968 -0.020147324795485727 0 -0.025000449522820399 -0.018653352606275576 0 -0.025383093390014714 -0.019569555191106248 0 -0.025281277268192355 -0.018529567364689008 0 -0.025000449522820399 -0.018653352606275576 0 -0.023859972590953824 -0.022735782528493863 0 -0.024512645987029773 -0.022512629251774077 0 -0.024363825952926143 -0.023010346632760435 0 -0.024773669481789565 -0.020352563554104308 0 -0.024807329709252177 -0.02059559094578705 0 -0.024512645987029773 -0.022512629251774077 0 -0.023921524901916996 -0.022421500264691162 0 -0.024194861931503962 -0.022024382181149091 0 -0.025383093390014714 -0.019569555191106248 0 -0.024999227352457968 -0.020147324795485727 0 -0.02493910948604924 -0.021186514582638462 0 -0.024512645987029773 -0.022512629251774077 0 -0.024194861931503962 -0.022024382181149091 0 -0.02493910948604924 -0.021186514582638462 0 -0.023425185446989252 -0.022519205444708767 0 -0.023921524901916996 -0.022421500264691162 0 -0.023741629872381147 -0.022272204249206548 0 -0.023921524901916996 -0.022421500264691162 0 -0.024194861931503962 -0.022024382181149091 0 -0.023741629872381147 -0.022272204249206548 0 -0.023741629872381147 -0.022272204249206548 0 -0.024098841173933443 -0.021958684410959283 0 -0.02354389773901305 -0.022325182139494484 0 -0.024194861931503962 -0.022024382181149091 0 -0.024098841173933443 -0.021958684410959283 0 -0.02493910948604924 -0.021186514582638462 0 -0.024194861931503962 -0.022024382181149091 0 -0.023741629872381147 -0.022272204249206548 0 -0.024098841173933443 -0.021958684410959283 0 -0.024098841173933443 -0.021958684410959283 0 -0.02493910948604924 -0.021186514582638462 0 -0.024652295665202439 -0.021721607777308947 0 -0.024999227352457968 -0.020147324795485727 0 -0.02493910948604924 -0.021186514582638462 0 -0.024999519083645116 -0.021638906807726947 0 -0.02493910948604924 -0.021186514582638462 0 -0.024652295665202439 -0.021721607777308947 0 -0.024999519083645116 -0.021638906807726947 0 -0.024652295665202439 -0.021721607777308947 0 -0.024999519083645116 -0.021638906807726947 0 -0.024401434532142843 -0.022174996911053745 0 -0.023973249059587681 -0.02276944866427974 0 -0.024401434532142843 -0.022174996911053745 0 -0.023689701522596085 -0.022510962221015913 0 -0.024098841173933443 -0.021958684410959283 0 -0.024401434532142843 -0.022174996911053745 0 -0.023689701522596085 -0.022510962221015913 0 -0.024098841173933443 -0.021958684410959283 0 -0.024652295665202439 -0.021721607777308947 0 -0.024401434532142843 -0.022174996911053745 0 -0.023534827037398596 -0.023025285385724292 0 -0.023689701522596085 -0.022510962221015913 0 -0.02317780267505308 -0.022885796044895691 0 -0.023689701522596085 -0.022510962221015913 0 -0.023259387849679014 -0.022562368108988283 0 -0.02354389773901305 -0.022325182139494484 0 -0.023689701522596085 -0.022510962221015913 0 -0.02317780267505308 -0.022885796044895691 0 -0.023259387849679014 -0.022562368108988283 0 -0.022677241463497547 -0.02338131361978759 0 -0.022809986808986969 -0.023028704477169044 0 -0.02317780267505308 -0.022885796044895691 0 -0.022809986808986969 -0.023028704477169044 0 -0.02317780267505308 -0.022885796044895691 0 -0.022929889241624382 -0.022691457962356096 0 -0.02317780267505308 -0.022885796044895691 0 -0.023259387849679014 -0.022562368108988283 0 -0.022929889241624382 -0.022691457962356096 0 -0.022669893706894928 -0.02245063203959894 0 -0.023129493535143358 -0.022448788360373319 0 -0.022929889241624382 -0.022691457962356096 0 -0.023129493535143358 -0.022448788360373319 0 -0.023259387849679014 -0.022562368108988283 0 -0.022929889241624382 -0.022691457962356096 0 -0.023129493535143358 -0.022448788360373319 0 -0.023259387849679014 -0.022562368108988283 0 -0.02354389773901305 -0.022325182139494484 0 -0.023129493535143358 -0.022448788360373319 0 -0.023741629872381147 -0.022272204249206548 0 -0.02354389773901305 -0.022325182139494484 0 -0.024098841173933443 -0.021958684410959283 0 -0.023689701522596085 -0.022510962221015913 0 -0.02354389773901305 -0.022325182139494484 0 -0.012751466600238293 -0.027564579277024034 0 -0.013021711956372419 -0.02866729259040288 0 -0.012228830755845237 -0.028337186655238884 0 -0.012751466600238293 -0.027564579277024034 0 -0.013728658582191014 -0.028239510545185247 0 -0.013021711956372419 -0.02866729259040288 0 -0.012751466600238293 -0.027564579277024034 0 -0.012228830755845237 -0.028337186655238884 0 -0.012213683975177331 -0.027511561162777903 0 -0.012751466600238293 -0.027564579277024034 0 -0.013728658582191014 -0.028239510545185247 0 -0.013581932195157105 -0.026900910218925038 0 -0.013728658582191014 -0.028239510545185247 0 -0.013581932195157105 -0.026900910218925038 0 -0.014746909160216037 -0.027672742643663508 0 -0.013581932195157105 -0.026900910218925038 0 -0.012695899887424675 -0.025903176515847934 0 -0.012282432587115833 -0.02688043537529778 0 -0.012751466600238293 -0.027564579277024034 0 -0.013581932195157105 -0.026900910218925038 0 -0.012282432587115833 -0.02688043537529778 0 -0.012751466600238293 -0.027564579277024034 0 -0.012282432587115833 -0.02688043537529778 0 -0.012213683975177331 -0.027511561162777903 0 -0.012695899887424675 -0.025903176515847934 0 -0.013472511681171369 -0.025000008957313011 0 -0.012007186494738181 -0.024999684160031344 0 -0.012695899887424675 -0.025903176515847934 0 -0.013472511681171369 -0.025000008957313011 0 -0.014056809882674094 -0.025825984656883003 0 -0.013581932195157105 -0.026900910218925038 0 -0.012695899887424675 -0.025903176515847934 0 -0.014056809882674094 -0.025825984656883003 0 -0.013581932195157105 -0.026900910218925038 0 -0.014056809882674094 -0.025825984656883003 0 -0.015024297572522209 -0.026451740591089821 0 -0.014056809882674094 -0.025825984656883003 0 -0.014937235353047586 -0.024999860991810421 0 -0.015024297572522209 -0.026451740591089821 0 -0.013472511681171369 -0.025000008957313011 0 -0.014056809882674094 -0.025825984656883003 0 -0.014937235353047586 -0.024999860991810421 0 -0.014937235353047586 -0.024999860991810421 0 -0.015024297572522209 -0.026451740591089821 0 -0.016380775610193674 -0.025999901843323032 0 -0.015024297572522209 -0.026451740591089821 0 -0.014746909160216037 -0.027672742643663508 0 -0.016484737898392027 -0.02748179707984293 0 -0.013581932195157105 -0.026900910218925038 0 -0.015024297572522209 -0.026451740591089821 0 -0.014746909160216037 -0.027672742643663508 0 -0.013728658582191014 -0.028239510545185247 0 -0.014746909160216037 -0.027672742643663508 0 -0.014599958295223783 -0.028534033719961584 0 -0.014746909160216037 -0.027672742643663508 0 -0.016484737898392027 -0.027481797