<?xml version="1.0"?>
<VTKFile type="UnstructuredGrid" version="0.1" byte_order="LittleEndian">
<UnstructuredGrid>
<Piece NumberOfPoints="31336" NumberOfCells="11017">
<Points>
<DataArray type="Float64" NumberOfComponents="3" format="ascii">
-0.5 -0.5 0 -0.48406303824982921 -0.488260177752672 0 -0.49999999999999839 -0.46794757331073372 0 -0.49791959733231589 -0.49999999999999228 0 -0.48406303824982921 -0.488260177752672 0 -0.47574325170732329 -0.5 0 -0.49791959733231589 -0.49999999999999228 0 -0.5 -0.5 0 -0.48406303824982921 -0.488260177752672 0 -0.49791959733231589 -0.49999999999999228 0 -0.48406303824982921 -0.488260177752672 0 -0.48137197345170601 -0.47738906514602758 0 -0.47268190624911438 -0.47032467196129618 0 -0.49999999999999839 -0.46794757331073372 0 -0.48137197345170601 -0.47738906514602758 0 -0.48406303824982921 -0.488260177752672 0 -0.49999999999999839 -0.46794757331073372 0 -0.47268190624911438 -0.47032467196129618 0 -0.49999999999999839 -0.46794757331073372 0 -0.47020647916734071 -0.47652035550535382 0 -0.48406303824982921 -0.488260177752672 0 -0.46650898415904801 -0.48577472181084741 0 -0.48137197345170601 -0.47738906514602758 0 -0.47020647916734071 -0.47652035550535382 0 -0.48406303824982921 -0.488260177752672 0 -0.47020647916734071 -0.47652035550535382 0 -0.48406303824982921 -0.488260177752672 0 -0.48137197345170601 -0.47738906514602758 0 -0.47020647916734071 -0.47652035550535382 0 -0.47268190624911438 -0.47032467196129618 0 -0.47020647916734071 -0.47652035550535382 0 -0.47268190624911438 -0.47032467196129618 0 -0.46380535359665859 -0.47109706997428358 0 -0.47020647916734071 -0.47652035550535382 0 -0.47268190624911438 -0.47032467196129618 0 -0.48406303824982921 -0.488260177752672 0 -0.46905308514982391 -0.49339941732558579 0 -0.46650898415904801 -0.48577472181084741 0 -0.48406303824982921 -0.488260177752672 0 -0.46905308514982391 -0.49339941732558579 0 -0.47574325170732329 -0.5 0 -0.46905308514982391 -0.49339941732558579 0 -0.47574325170732329 -0.5 0 -0.45356690608233058 -0.50000000000000078 0 -0.46905308514982391 -0.49339941732558579 0 -0.45356690608233058 -0.50000000000000078 0 -0.46154043651056498 -0.49145524388208489 0 -0.45356690608233058 -0.50000000000000078 0 -0.46154043651056498 -0.49145524388208489 0 -0.45008522191715511 -0.4912529204891124 0 -0.46154043651056498 -0.49145524388208489 0 -0.45008522191715511 -0.4912529204891124 0 -0.46154043651056498 -0.49145524388208489 0 -0.45598540213176331 -0.48158329009591572 0 -0.45008522191715511 -0.4912529204891124 0 -0.46154043651056498 -0.49145524388208489 0 -0.46650898415904801 -0.48577472181084741 0 -0.45598540213176331 -0.48158329009591572 0 -0.46905308514982391 -0.49339941732558579 0 -0.46154043651056498 -0.49145524388208489 0 -0.46650898415904801 -0.48577472181084741 0 -0.47020647916734071 -0.47652035550535382 0 -0.46650898415904801 -0.48577472181084741 0 -0.46412655476370213 -0.4787438593466008 0 -0.46412655476370213 -0.4787438593466008 0 -0.46380535359665859 -0.47109706997428358 0 -0.45598540213176331 -0.48158329009591572 0 -0.47020647916734071 -0.47652035550535382 0 -0.46650898415904801 -0.48577472181084741 0 -0.46650898415904801 -0.48577472181084741 0 -0.46412655476370213 -0.4787438593466008 0 -0.45598540213176331 -0.48158329009591572 0 -0.46380535359665859 -0.47109706997428358 0 -0.45598540213176331 -0.48158329009591572 0 -0.44279026576966052 -0.47292570916743321 0 -0.46380535359665859 -0.47109706997428358 0 -0.44279026576966052 -0.47292570916743321 0 -0.47268190624911438 -0.47032467196129618 0 -0.46380535359665859 -0.47109706997428358 0 -0.47020647916734071 -0.47652035550535382 0 -0.46380535359665859 -0.47109706997428358 0 -0.47020647916734071 -0.47652035550535382 0 -0.46412655476370213 -0.4787438593466008 0 -0.46380535359665859 -0.47109706997428358 0 -0.44279026576966052 -0.47292570916743321 0 -0.45008522191715511 -0.4912529204891124 0 -0.45598540213176331 -0.48158329009591572 0 -0.44279026576966052 -0.47292570916743321 0 -0.45008522191715511 -0.4912529204891124 0 -0.45356690608233058 -0.50000000000000078 0 -0.45008522191715511 -0.4912529204891124 0 -0.43254039405896721 -0.5 0 -0.44279026576966052 -0.47292570916743321 0 -0.45008522191715511 -0.4912529204891124 0 -0.4314879059704344 -0.49092445243363803 0 -0.45008522191715511 -0.4912529204891124 0 -0.4314879059704344 -0.49092445243363803 0 -0.45008522191715511 -0.4912529204891124 0 -0.43254039405896721 -0.5 0 -0.4314879059704344 -0.49092445243363803 0 -0.45356690608233058 -0.50000000000000078 0 -0.45008522191715511 -0.4912529204891124 0 -0.4481770300823823 -0.4396558994993755 0 -0.44740213898841219 -0.4571996209294672 0 -0.43099892438016479 -0.44330217188465187 0 -0.44740213898841219 -0.4571996209294672 0 -0.43689459507491363 -0.45811394052604221 0 -0.43099892438016479 -0.44330217188465187 0 -0.44740213898841219 -0.4571996209294672 0 -0.43099892438016479 -0.44330217188465187 0 -0.46380535359665859 -0.47109706997428358 0 -0.44279026576966052 -0.47292570916743321 0 -0.44740213898841219 -0.4571996209294672 0 -0.44279026576966052 -0.47292570916743321 0 -0.44740213898841219 -0.4571996209294672 0 -0.43689459507491363 -0.45811394052604221 0 -0.44279026576966052 -0.47292570916743321 0 -0.43689459507491363 -0.45811394052604221 0 -0.47268190624911438 -0.47032467196129618 0 -0.46380535359665859 -0.47109706997428358 0 -0.46685764922026463 -0.45478290316460002 0 -0.46380535359665859 -0.47109706997428358 0 -0.44740213898841219 -0.4571996209294672 0 -0.46380535359665859 -0.47109706997428358 0 -0.44740213898841219 -0.4571996209294672 0 -0.46685764922026463 -0.45478290316460002 0 -0.4481770300823823 -0.4396558994993755 0 -0.46685764922026463 -0.45478290316460002 0 -0.47095899545819958 -0.42960750318798141 0 -0.4481770300823823 -0.4396558994993755 0 -0.44740213898841219 -0.4571996209294672 0 -0.46685764922026463 -0.45478290316460002 0 -0.46685764922026463 -0.45478290316460002 0 -0.4817879374994104 -0.44753341772288191 0 -0.47095899545819958 -0.42960750318798141 0 -0.47268190624911438 -0.47032467196129618 0 -0.4817879374994104 -0.44753341772288191 0 -0.47268190624911438 -0.47032467196129618 0 -0.46685764922026463 -0.45478290316460002 0 -0.4817879374994104 -0.44753341772288191 0 -0.4817879374994104 -0.44753341772288191 0 -0.49999999999999839 -0.46794757331073372 0 -0.5 -0.44594868528917331 0 -0.47268190624911438 -0.47032467196129618 0 -0.4817879374994104 -0.44753341772288191 0 -0.49999999999999839 -0.46794757331073372 0 -0.4817879374994104 -0.44753341772288191 0 -0.5 -0.44594868528917331 0 -0.49089396874970598 -0.42474216348446753 0 -0.4817879374994104 -0.44753341772288191 0 -0.49089396874970598 -0.42474216348446753 0 -0.5 -0.44594868528917331 0 -0.49089396874970598 -0.42474216348446753 0 -0.5 -0.42394979726761312 0 -0.49089396874970598 -0.42474216348446753 0 -0.5 -0.42394979726761312 0 -0.50000000000000089 -0.4019509092460527 0 -0.49089396874970598 -0.42474216348446753 0 -0.50000000000000089 -0.4019509092460527 0 -0.49089396874970598 -0.42474216348446753 0 -0.48706428208760322 -0.40999730651633981 0 -0.50000000000000089 -0.4019509092460527 0 -0.49089396874970598 -0.42474216348446753 0 -0.48706428208760322 -0.40999730651633981 0 -0.47095899545819958 -0.42960750318798141 0 -0.48706428208760322 -0.40999730651633981 0 -0.47191957110388938 -0.40834956983828402 0 -0.47095899545819958 -0.42960750318798141 0 -0.4817879374994104 -0.44753341772288191 0 -0.49089396874970598 -0.42474216348446753 0 -0.47095899545819958 -0.42960750318798141 0 -0.5 -0.37568906657004569 0 -0.48583628735925299 -0.37960671214745489 0 -0.49382661274363687 -0.39450787758664713 0 -0.48583628735925299 -0.37960671214745489 0 -0.49382661274363687 -0.39450787758664713 0 -0.47798571564617498 -0.39002281221069418 0 -0.5 -0.37568906657004569 0 -0.49382661274363687 -0.39450787758664713 0 -0.50000000000000089 -0.4019509092460527 0 -0.48706428208760322 -0.40999730651633981 0 -0.49382661274363687 -0.39450787758664713 0 -0.50000000000000089 -0.4019509092460527 0 -0.47191957110388938 -0.40834956983828402 0 -0.49382661274363687 -0.39450787758664713 0 -0.48706428208760322 -0.40999730651633981 0 -0.47191957110388938 -0.40834956983828402 0 -0.49382661274363687 -0.39450787758664713 0 -0.47191957110388938 -0.40834956983828402 0 -0.49382661274363687 -0.39450787758664713 0 -0.47798571564617498 -0.39002281221069418 0 -0.47191957110388938 -0.40834956983828402 0 -0.47798571564617498 -0.39002281221069418 0 -0.46232391230917158 -0.38919508961274729 0 -0.47798571564617498 -0.39002281221069418 0 -0.47202019965601361 -0.3752839670407136 0 -0.46232391230917158 -0.38919508961274729 0 -0.48583628735925299 -0.37960671214745489 0 -0.47798571564617498 -0.39002281221069418 0 -0.47202019965601361 -0.3752839670407136 0 -0.46232391230917158 -0.38919508961274729 0 -0.44374699910085602 -0.38742659975694399 0 -0.45388640445344219 -0.37246978923304602 0 -0.47202019965601361 -0.3752839670407136 0 -0.46232391230917158 -0.38919508961274729 0 -0.45388640445344219 -0.37246978923304602 0 -0.47191957110388938 -0.40834956983828402 0 -0.46232391230917158 -0.38919508961274729 0 -0.44773163690291062 -0.39947583229557287 0 -0.46232391230917158 -0.38919508961274729 0 -0.44773163690291062 -0.39947583229557287 0 -0.44374699910085602 -0.38742659975694399 0 -0.44773163690291062 -0.39947583229557287 0 -0.43798735645825049 -0.40078538447655471 0 -0.44066245312404573 -0.39509432345749951 0 -0.44773163690291062 -0.39947583229557287 0 -0.43798735645825049 -0.40078538447655471 0 -0.43687714955835238 -0.41013338510841768 0 -0.44773163690291062 -0.39947583229557287 0 -0.44066245312404573 -0.39509432345749951 0 -0.44374699910085602 -0.38742659975694399 0 -0.44066245312404573 -0.39509432345749951 0 -0.44374699910085602 -0.38742659975694399 0 -0.43318382003416578 -0.39268947730092618 0 -0.44374699910085602 -0.38742659975694399 0 -0.45388640445344219 -0.37246978923304602 0 -0.4370595403563417 -0.3735943461158322 0 -0.4481770300823823 -0.4396558994993755 0 -0.47095899545819958 -0.42960750318798141 0 -0.450012
[...]
<PointData Scalars="" Vectors="displacement," Tensors="">
<DataArray type="Float64" Name="displacement" NumberOfComponents="3" format="ascii">
-0.035001163486206029 -0.03499529949054242 0 -0.034203293575120829 -0.035855027515528978 0 -0.03275613439674837 -0.035002032190015964 0 -0.034999998560433253 -0.03485434788807442 0 -0.035779356042459833 -0.033869458051065587 0 -0.034999951859003717 -0.033301987483717051 0 -0.03499789433726333 -0.034861698232492057 0 -0.035001163486206029 -0.03499529949054242 0 -0.034203293575120829 -0.035855027515528978 0 -0.034999995749946534 -0.03485437809647457 0 -0.034977079494281693 -0.034885302944489799 0 -0.033462413859406154 -0.036064791802417812 0 -0.033045844116938831 -0.036591541724361028 0 -0.03275613439674837 -0.035002032190015964 0 -0.033462413859406154 -0.036064791802417812 0 -0.034203293575120829 -0.035855027515528978 0 -0.03275613439674837 -0.035002032190015964 0 -0.03296349643988563 -0.035975324067828003 0 -0.032756459576234423 -0.035001523452664503 0 -0.036529667087062762 -0.032909417740820714 0 -0.035779356042459833 -0.033869458051065587 0 -0.035896380368000164 -0.032647235744136069 0 -0.033462413859406154 -0.036064791802417812 0 -0.033415206423267806 -0.03675987224030898 0 -0.034203293575120829 -0.035855027515528978 0 -0.034633548849605865 -0.034381349863140599 0 -0.034977079494281693 -0.034885302944489799 0 -0.033462413859406154 -0.036064791802417812 0 -0.033415206423267806 -0.03675987224030898 0 -0.033045844116938831 -0.036591541724361028 0 -0.033274844827468911 -0.035009273640574469 0 -0.033454068506566889 -0.035083928626874032 0 -0.033431103150111136 -0.034820933782495428 0 -0.034633548849605865 -0.034381349863140599 0 -0.03296349643988563 -0.035975324067828003 0 -0.035779356042459833 -0.033869458051065587 0 -0.035435977259388129 -0.032838006885903444 0 -0.035896380368000164 -0.032647235744136069 0 -0.035779356042459833 -0.033869458051065587 0 -0.035435977259388129 -0.032838006885903444 0 -0.034999951859003717 -0.033301987483717051 0 -0.035435977259388129 -0.032838006885903444 0 -0.034999951859003717 -0.033301987483717051 0 -0.03499996549922272 -0.031749828054571522 0 -0.035435977259388129 -0.032838006885903444 0 -0.03499996549922272 -0.031749828054571522 0 -0.035574392965110044 -0.032341690465722141 0 -0.03499996549922272 -0.031749828054571522 0 -0.035574392965110044 -0.032341690465722141 0 -0.035600214377435317 -0.031513415611231783 0 -0.035130318324372856 -0.03235070827579619 0 -0.034119197060808626 -0.030651968593888503 0 -0.035574392965110044 -0.032341690465722141 0 -0.036040966310908015 -0.032118458120720735 0 -0.035585335904536185 -0.031836837978298727 0 -0.035574392965110044 -0.032341690465722141 0 -0.035896380368000164 -0.032647235744136069 0 -0.036040966310908015 -0.032118458120720735 0 -0.035435977259388129 -0.032838006885903444 0 -0.035574392965110044 -0.032341690465722141 0 -0.035896380368000164 -0.032647235744136069 0 -0.036277801902117567 -0.032792086462253622 0 -0.035896380368000164 -0.032647235744136069 0 -0.036183774443677645 -0.032520266569426512 0 -0.036183774443677645 -0.032520266569426512 0 -0.036526908743341503 -0.032503128106906552 0 -0.036040966310908015 -0.032118458120720735 0 -0.034633548849605865 -0.034381349863140599 0 -0.035811848843700554 -0.033514627113368681 0 -0.035896380368000164 -0.032647235744136069 0 -0.036183774443677645 -0.032520266569426512 0 -0.036040966310908015 -0.032118458120720735 0 -0.036526908743341503 -0.032503128106906552 0 -0.036040966310908015 -0.032118458120720735 0 -0.036419370527432715 -0.031502045603360972 0 -0.03331496885762681 -0.034500708041610297 0 -0.03291633295561975 -0.030526406826569673 0 -0.03296349643988563 -0.035975324067828003 0 -0.03331496885762681 -0.034500708041610297 0 -0.034633548849605865 -0.034381349863140599 0 -0.03331496885762681 -0.034500708041610297 0 -0.036277801902117567 -0.032792086462253622 0 -0.036183774443677645 -0.032520266569426512 0 -0.036526908743341503 -0.032503128106906552 0 -0.03291633295561975 -0.030526406826569673 0 -0.034119197060808626 -0.030651968593888503 0 -0.036040966310908015 -0.032118458120720735 0 -0.036419370527432715 -0.031502045603360972 0 -0.035585335904536185 -0.031836837978298727 0 -0.034999988421321064 -0.03174966821901197 0 -0.035602991788326585 -0.031501043892839017 0 -0.034999991008553166 -0.030277814822510563 0 -0.031646380197790001 -0.028594778354665819 0 -0.030904205436536214 -0.028908097016867234 0 -0.030897333916029678 -0.028115700594555631 0 -0.034119197060808626 -0.030651968593888503 0 -0.033262943073195946 -0.029133638133593497 0 -0.035602991788326585 -0.031501043892839017 0 -0.034999991008553166 -0.030277814822510563 0 -0.035623986150845575 -0.03020039899337754 0 -0.035000039870970841 -0.031748584611587208 0 -0.034119197060808626 -0.030651968593888503 0 -0.030053607061276695 -0.037467559341384675 0 -0.030868047763879837 -0.037491411701873929 0 -0.030226359362087497 -0.038213332477398776 0 -0.032193666437027965 -0.033369516161460347 0 -0.032196181573218026 -0.033421372142976392 0 -0.032094146068470698 -0.033454654063244431 0 -0.031138850905808032 -0.035941815229204768 0 -0.031526135041467028 -0.033500170764273238 0 -0.032275622054864977 -0.033299560258705133 0 -0.03227968432248797 -0.033382036737965533 0 -0.032193666437027965 -0.033369516161460347 0 -0.03227968432248797 -0.033382036737965533 0 -0.032193666437027965 -0.033369516161460347 0 -0.032196181573218026 -0.033421372142976392 0 -0.03291633295561975 -0.030526406826569673 0 -0.032291817781714797 -0.030861274064540443 0 -0.031495797121689248 -0.036325502976275827 0 -0.031529757324062289 -0.036733771100144315 0 -0.03076230903373247 -0.036605383782468026 0 -0.03331496885762681 -0.034500708041610297 0 -0.031138850905808032 -0.035941815229204768 0 -0.031529757324062289 -0.036733771100144315 0 -0.030868047763879837 -0.037491411701873929 0 -0.03076230903373247 -0.036605383782468026 0 -0.030053607061276695 -0.037467559341384675 0 -0.03076230903373247 -0.036605383782468026 0 -0.029571479224246758 -0.03644446566158438 0 -0.030053607061276695 -0.037467559341384675 0 -0.030868047763879837 -0.037491411701873929 0 -0.03076230903373247 -0.036605383782468026 0 -0.03076230903373247 -0.036605383782468026 0 -0.030425108457728309 -0.035916720850835575 0 -0.029571479224246758 -0.03644446566158438 0 -0.03296349643988563 -0.035975324067828003 0 -0.030749184506892777 -0.036133066735235371 0 -0.031495797121689248 -0.036325502976275827 0 -0.03076230903373247 -0.036605383782468026 0 -0.030425108457728309 -0.035916720850835575 0 -0.031327253816042559 -0.036262862260117053 0 -0.032756295671075096 -0.034999991051020175 0 -0.031216418179554024 -0.03499999363035694 0 -0.032910210036445439 -0.036883857097108889 0 -0.031327253816042559 -0.036262862260117053 0 -0.032756295671075096 -0.034999991051020175 0 -0.031327253816042559 -0.036262862260117053 0 -0.031216418179554024 -0.03499999363035694 0 -0.029732462097218706 -0.035634747599611022 0 -0.030749184506892777 -0.036133066735235371 0 -0.029550335342224648 -0.035556936311464851 0 -0.031216418179554024 -0.03499999363035694 0 -0.029732462097218706 -0.035634747599611022 0 -0.029676484475709971 -0.034999996945675335 0 -0.029732462097218706 -0.035634747599611022 0 -0.029676484475709971 -0.034999996945675335 0 -0.028136566198992543 -0.034999999213566307 0 -0.029550335342224648 -0.035556936311464851 0 -0.028136816928121765 -0.035000106497426499 0 -0.029325976336927198 -0.035483092789267819 0 -0.028566064910365355 -0.035686671707906147 0 -0.028136267566565804 -0.03499990218534154 0 -0.029325976336927198 -0.035483092789267819 0 -0.028566064910365355 -0.035686671707906147 0 -0.029571479224246758 -0.03644446566158438 0 -0.028566064910365355 -0.035686671707906147 0 -0.028519375100432891 -0.036435524708747447 0 -0.029571479224246758 -0.03644446566158438 0 -0.030425108457728309 -0.035916720850835575 0 -0.029325976336927198 -0.035483092789267819 0 -0.029571479224246758 -0.03644446566158438 0 -0.026298200912750647 -0.034999902635738635 0 -0.026519146347358732 -0.035892453651271153 0 -0.027599768163075192 -0.035385681752503083 0 -0.026519146347358732 -0.035892453651271153 0 -0.027599768163075192 -0.035385681752503083 0 -0.027200401973967954 -0.036393771145824184 0 -0.026298200912750647 -0.034999902635738635 0 -0.027599768163075192 -0.035385681752503083 0 -0.028136267566565804 -0.03499990218534154 0 -0.028566064910365355 -0.035686671707906147 0 -0.027599768163075192 -0.035385681752503083 0 -0.028136267566565804 -0.03499990218534154 0 -0.028339868295523579 -0.036457090488002324 0 -0.027663554962452135 -0.035487613309565236 0 -0.028566064910365355 -0.035686671707906147 0 -0.028519375100432891 -0.036435524708747447 0 -0.027599768163075192 -0.035385681752503083 0 -0.028292149666207026 -0.036781311345212724 0 -0.027599768163075192 -0.035385681752503083 0 -0.027200401973967954 -0.036393771145824184 0 -0.028292149666207026 -0.036781311345212724 0 -0.027200401973967954 -0.036393771145824184 0 -0.027106099099368383 -0.037363496274212739 0 -0.027200401973967954 -0.036393771145824184 0 -0.026183701626156949 -0.036750715524135016 0 -0.027106099099368383 -0.037363496274212739 0 -0.026519146347358732 -0.035892453651271153 0 -0.027200401973967954 -0.036393771145824184 0 -0.026183701626156949 -0.036750715524135016 0 -0.027106099099368383 -0.037363496274212739 0 -0.026977768482619978 -0.038510462884994788 0 -0.02597807606622772 -0.037909608054325521 0 -0.026183701626156949 -0.036750715524135016 0 -0.027106099099368383 -0.037363496274212739 0 -0.02597807606622772 -0.037909608054325521 0 -0.028292149666207026 -0.036781311345212724 0 -0.027106099099368383 -0.037363496274212739 0 -0.027729861839188411 -0.03824525166227212 0 -0.027106099099368383 -0.037363496274212739 0 -0.027729861839188411 -0.03824525166227212 0 -0.026977768482619978 -0.038510462884994788 0 -0.027729861839188411 -0.03824525166227212 0 -0.027800621093300008 -0.038816500886181958 0 -0.027458630270316232 -0.038674371483092607 0 -0.027729861839188411 -0.03824525166227212 0 -0.027800621093300008 -0.038816500886181958 0 -0.028352138663836856 -0.038856959714921036 0 -0.027729861839188411 -0.03824525166227212 0 -0.027458630270316232 -0.038674371483092607 0 -0.026977768482619978 -0.038510462884994788 0 -0.027458630270316232 -0.038674371483092607 0 -0.026977768482619978 -0.038510462884994788 0 -0.027323668790105147 -0.039115979067691084 0 -0.026977768482619978 -0.038510462884994788 0 -0.02597807606622772 -0.037909608054325521 0 -0.026068439223760755 -0.03897509619319238 0 -0.030053607061276695 -0.037467559341384675 0 -0.029571479224246758 -0.03644446566158438 0 -0.029243143112009016 -0.03740430210925564 0 -0.028339868295523579 -0.036457090488002324 0 -0.029258146896649122 -0.038343456876786156 0 -0.028519375100432891 -0.036435524708747447 0 -0.029571479224246758 -0.03644446566158438 0 -0.029243143112009016 -0.03740430210925564 0 -0.028292149666207026 -0.036781311345212724 0 -0.027729861839188411 -0.03824525166227212 0 -0.029061970068279874 -0.038096955630610607 0 -0.027729861839188411 -0.03824525166227212 0 -0.029061970068279874 -0.038096955630610607 0 -0.028352138663836856 -0.038856959714921036 0 -0.029061970068279874 -0.038096955630610607 0 -0.029018509034021988 -0.038994744396950602 0 -0.028352138663836856 -0.038856959714921036 0 -0.030053607061276695 -0.037467559341384675 0 -0.029243143112009016 -0.03740430210925564 0 -0.029900680428269339 -0.038341929594221912 0 -0.029258146896649122 -0.038343456876786156 0 -0.03018862485413204 -0.035620318414198125 0 -0.028759869363528617 -0.031020281419555009 0 -0.028945731671842657 -0.030937674306375351 0 -0.02883291100797862 -0.030883663948752731 0 -0.029818057700421487 -0.039303987617313844 0 -0.029018509034021988 -0.038994744396950602 0 -0.028836968643668581 -0.039708484602078264 0 -0.029061970068279874 -0.038096955630610607 0 -0.029818057700421487 -0.039303987617313844 0 -0.029018509034021988 -0.038994744396950602 0 -0.03018862485413204 -0.035620318414198125 0 -0.028851791793523048 -0.033250487026518748 0 -0.028759869363528617 -0.031020281419555009 0 -0.02883291100797862 -0.030883663948752731 0 -0.028741200109832245 -0.030982001117331084 0 -0.03018862485413204 -0.035620318414198125 0 -0.031152360170569882 -0.031231807223160823 0 -0.029018509034021988 -0.038994744396950602 0 -0.028352138663836856 -0.038856959714921036 0 -0.028836968643668581 -0.039708484602078264 0 -0.028352138663836856 -0.038856959714921036 0 -0.028836968643668581 -0.039708484602078264 0 -0.027235947635432241 -0.039249434525314549 0 -0.02891132015329316 -0.030922618043259131 0 -0.028961627931448408 -0.03089980394435865 0 -0.029194091814618316 -0.031052076790099893 0 -0.028851791793523048 -0.033250487026518748 0 -0.029217516691945968 -0.032604617847391118 0 -0.028916227363309774 -0.030911408940526207 0 -0.028936401377215672 -0.030850495609358538 0 -0.028961627931448408 -0.03089980394435865 0 -0.028916227363309774 -0.030911408940526207 0 -0.028936401377215672 -0.030850495609358538 0 -0.02889584094454576 -0.030858521573507856 0 -0.028936401377215672 -0.030850495609358538 0 -0.02889584094454576 -0.030858521573507856 0 -0.028898870909723141 -0.03080711593346749 0 -0.028961627931448408 -0.03089980394435865 0 -0.029013996737556391 -0.030838344938042328 0 -0.029105846814092343 -0.030881595787965749 0 -0.028936401377215672 -0.030850495609358538 0 -0.028961627931448408 -0.03089980394435865 0 -0.029013996737556391 -0.030838344938042328 0 -0.029013996737556391 -0.030838344938042328 0 -0.02902716054368213 -0.030750268044926411 0 -0.02894179910734904 -0.030774695553135424 0 -0.028936401377215672 -0.030850495609358538 0 -0.029013996737556391 -0.030838344938042328 0 -0.02894179910734904 -0.030774695553135424 0 -0.02902716054368213 -0.030750268044926411 0 -0.02894179910734904 -0.030774695553135424 0 -0.028886574794844952 -0.030703162334038699 0 -0.028936401377215672 -0.030850495609358538 0 -0.028898870909723141 -0.03080711593346749 0 -0.02894179910734904 -0.030774695553135424 0 -0.028898870909723141 -0.03080711593346749 0 -0.02894179910734904 -0.030774695553135424 0 -0.028886574794844952 -0.030703162334038699 0 -0.034702373867083768 -0.026113704604258606 0 -0.033082158046596748 -0.027573771178551306 0 -0.033075707012677626 -0.026771576905862848 0 -0.030697488111400488 -0.026046325609385357 0 -0.031152360170569882 -0.031231807223160823 0 -0.028898870909723141 -0.03080711593346749 0 -0.02883291100797862 -0.030883663948752731 0 -0.028886574794844952 -0.030703162334038699 0 -0.02883291100797862 -0.030883663948752731 0 -0.028886574794844952 -0.030703162334038699 0 -0.028741200109832245 -0.030982001117331084 0 -0.034702373867083768 -0.026113704604258606 0 -0.033082158046596748 -0.027573771178551306 0 -0.033236040919275608 -0.027827191800435375 0 -0.028851791793523048 -0.033250487026518748 0 -0.028501747274130098 -0.031678348495327871 0 -0.028916227363309774 -0.030911408940526207 0 -0.02889584094454576 -0.030858521573507856 0 -0.02883291100797862 -0.030883663948752731 0 -0.02889584094454576 -0.030858521573507856 0 -0.028898870909723141 -0.03080711593346749 0 -0.02883291100797862 -0.030883663948752731 0 -0.028077603353325927 -0.036062906517962144 0 -0.026558593419977572 -0.037650082358546735 0 -0.026506690056709924 -0.036040194468390491 0 -0.027280452594923493 -0.035725812537945892 0 -0.027187225476027827 -0.036296230237568457 0 -0.026506690056709924 -0.036040194468390491 0 -0.02691099613917497 -0.035382155766681044 0 -0.027280452594923493 -0.035725812537945892 0 -0.026977768482619978 -0.038510462884994788 0 -0.027227250954104359 -0.039269414999232338 0 -0.026068439223760755 -0.03897509619319238 0 -0.028077603353325927 -0.036062906517962144 0 -0.028319848046581036 -0.032679414828131768 0 -0.026977768482619978 -0.038510462884994788 0 -0.027227250954104359 -0.039269414999232338 0 -0.027323668790105147 -0.039115979067691084 0 -0.027800621093300008 -0.038816500886181958 0 -0.028352138663836856 -0.038856959714921036 0 -0.027235947635432241 -0.039249434525314549 0 -0.028851791793523048 -0.033250487026518748 0 -0.028077603353325927 -0.036062906517962144 0 -0.028961627931448408 -0.03089980394435865 0 -0.029194091814618316 -0.031052076790099893 0 -0.029105846814092343 -0.030881595787965749 0 -0.027800621093300008 -0.038816500886181958 0 -0.027235947635432241 -0.039249434525314549 0 -0.027323668790105147 -0.039115979067691084 0 -0.027800621093300008 -0.038816500886181958 0 -0.027458630270316232 -0.038674371483092607 0 -0.027323668790105147 -0.039115979067691084 0 -0.028077603353325927 -0.036062906517962144 0 -0.027713808796787531 -0.036773465033311623 0 -0.029194091814618316 -0.031052076790099893 0 -0.029105846814092343 -0.030881595787965749 0 -0.029283774242284531 -0.030854709697864493 0 -0.029105846814092343 -0.030881595787965749 0 -0.029172232045030555 -0.030761799042669329 0 -0.029283774242284531 -0.030854709697864493 0 -0.02902716054368213 -0.030750268044926411 0 -0.029105846814092343 -0.030881595787965749 0 -0.029172232045030555 -0.030761799042669329 0 -0.029013996737556391 -0.030838344938042328 0 -0.02902716054368213 -0.030750268044926411 0 -0.029105846814092343 -0.030881595787965749 0 -0.028319848046581036 -0.032679414828131768 0 -0.027832797657596674 -0.033263421851423773 0 -0.029172232045030555 -0.030761799042669329 0 -0.029236910407388489 -0.030506847911474445 0 -0.029461899047873455 -0.030552735218006288 0 -0.029172232045030555 -0.030761799042669329 0 -0.029283774242284531 -0.030854709697864493 0 -0.029321477319798318 -0.030733413109684651 0 -0.029468174625762022 -0.030530274060405694 0 -0.028758865063402816 -0.031283817048015271 0 -0.029172232045030555 -0.030761799042669329 0 -0.029236910407388489 -0.030506847911474445 0 -0.02907981904601872 -0.030624214863838192 0 -0.029236910407388489 -0.030506847911474445 0 -0.02907981904601872 -0.030624214863838192 0 -0.029055722397504254 -0.030434715232495534 0 -0.02902716054368213 -0.030750268044926411 0 -0.029172232045030555 -0.030761799042669329 0 -0.02907981904601872 -0.030624214863838192 0 -0.02966147634947373 -0.026341958498083892 0 -0.029643475830306056 -0.023984535435621956 0 -0.029055722397504254 -0.030434715232495534 0 -0.029275913734895301 -0.030290054626346926 0 -0.029243711897477632 -0.030232462698641244 0 -0.029236910407388489 -0.030506847911474445 0 -0.029055722397504254 -0.030434715232495534 0 -0.029275913734895301 -0.030290054626346926 0 -0.029275913734895301 -0.030290054626346926 0 -0.029162410739577756 -0.030111172396656019 0 -0.029184122451936315 -0.030220991398768302 0 -0.029236910407388489 -0.030506847911474445 0 -0.029275913734895301 -0.030290054626346926 0 -0.029461899047873455 -0.030552735218006288 0 -0.029292896217060025 -0.030039758365665789 0 -0.028758865063402816 -0.031283817048015271 0 -0.029275913734895301 -0.030290054626346926 0 -0.029159028576337915 -0.030276023780822617 0 -0.029184122451936315 -0.030220991398768302 0 -0.034702373867083768 -0.026113704604258606 0 -0.033681281366325533 -0.024824711448833137 0 -0.033214035717277116 -0.025790083697587542 0 -0.034702373867083768 -0.026113704604258606 0 -0.033214035717277116 -0.025790083697587542 0 -0.033075707012677626 -0.026771576905862848 0 -0.02966147634947373 -0.026341958498083892 0 -0.030697488111400488 -0.026046325609385357 0 -0.02902716054368213 -0.030750268044926411 0 -0.02907981904601872 -0.030624214863838192 0 -0.028886574794844952 -0.030703162334038699 0 -0.02907981904601872 -0.030624214863838192 0 -0.029055722397504254 -0.030434715232495534 0 -0.028886574794844952 -0.030703162334038699 0 -0.030697488111400488 -0.026046325609385357 0 -0.032405504203028769 -0.022157180299777854 0 -0.030668126323049067 -0.021529250625213193 0 -0.029923168264950766 -0.022505700623234932 0 -0.029933923496705015 -0.021066533898474845 0 -0.030668126323049067 -0.021529250625213193 0 -0.029933923496705015 -0.021066533898474845 0 -0.030588103918725063 -0.020540573597449072 0 -0.034654245590516712 -0.023786134707454443 0 -0.033681281366325533 -0.024824711448833137 0