<?xml version="1.0"?>
<VTKFile type="UnstructuredGrid" version="0.1" byte_order="LittleEndian">
<UnstructuredGrid>
<Piece NumberOfPoints="31336" NumberOfCells="11017">
<Points>
<DataArray type="Float64" NumberOfComponents="3" format="ascii">
-0.5 -0.5 0 -0.48406303824982921 -0.488260177752672 0 -0.49999999999999839 -0.46794757331073372 0 -0.49791959733231589 -0.49999999999999228 0 -0.48406303824982921 -0.488260177752672 0 -0.47574325170732329 -0.5 0 -0.49791959733231589 -0.49999999999999228 0 -0.5 -0.5 0 -0.48406303824982921 -0.488260177752672 0 -0.49791959733231589 -0.49999999999999228 0 -0.48406303824982921 -0.488260177752672 0 -0.48137197345170601 -0.47738906514602758 0 -0.47268190624911438 -0.47032467196129618 0 -0.49999999999999839 -0.46794757331073372 0 -0.48137197345170601 -0.47738906514602758 0 -0.48406303824982921 -0.488260177752672 0 -0.49999999999999839 -0.46794757331073372 0 -0.47268190624911438 -0.47032467196129618 0 -0.49999999999999839 -0.46794757331073372 0 -0.47020647916734071 -0.47652035550535382 0 -0.48406303824982921 -0.488260177752672 0 -0.46650898415904801 -0.48577472181084741 0 -0.48137197345170601 -0.47738906514602758 0 -0.47020647916734071 -0.47652035550535382 0 -0.48406303824982921 -0.488260177752672 0 -0.47020647916734071 -0.47652035550535382 0 -0.48406303824982921 -0.488260177752672 0 -0.48137197345170601 -0.47738906514602758 0 -0.47020647916734071 -0.47652035550535382 0 -0.47268190624911438 -0.47032467196129618 0 -0.47020647916734071 -0.47652035550535382 0 -0.47268190624911438 -0.47032467196129618 0 -0.46380535359665859 -0.47109706997428358 0 -0.47020647916734071 -0.47652035550535382 0 -0.47268190624911438 -0.47032467196129618 0 -0.48406303824982921 -0.488260177752672 0 -0.46905308514982391 -0.49339941732558579 0 -0.46650898415904801 -0.48577472181084741 0 -0.48406303824982921 -0.488260177752672 0 -0.46905308514982391 -0.49339941732558579 0 -0.47574325170732329 -0.5 0 -0.46905308514982391 -0.49339941732558579 0 -0.47574325170732329 -0.5 0 -0.45356690608233058 -0.50000000000000078 0 -0.46905308514982391 -0.49339941732558579 0 -0.45356690608233058 -0.50000000000000078 0 -0.46154043651056498 -0.49145524388208489 0 -0.45356690608233058 -0.50000000000000078 0 -0.46154043651056498 -0.49145524388208489 0 -0.45008522191715511 -0.4912529204891124 0 -0.46154043651056498 -0.49145524388208489 0 -0.45008522191715511 -0.4912529204891124 0 -0.46154043651056498 -0.49145524388208489 0 -0.45598540213176331 -0.48158329009591572 0 -0.45008522191715511 -0.4912529204891124 0 -0.46154043651056498 -0.49145524388208489 0 -0.46650898415904801 -0.48577472181084741 0 -0.45598540213176331 -0.48158329009591572 0 -0.46905308514982391 -0.49339941732558579 0 -0.46154043651056498 -0.49145524388208489 0 -0.46650898415904801 -0.48577472181084741 0 -0.47020647916734071 -0.47652035550535382 0 -0.46650898415904801 -0.48577472181084741 0 -0.46412655476370213 -0.4787438593466008 0 -0.46412655476370213 -0.4787438593466008 0 -0.46380535359665859 -0.47109706997428358 0 -0.45598540213176331 -0.48158329009591572 0 -0.47020647916734071 -0.47652035550535382 0 -0.46650898415904801 -0.48577472181084741 0 -0.46650898415904801 -0.48577472181084741 0 -0.46412655476370213 -0.4787438593466008 0 -0.45598540213176331 -0.48158329009591572 0 -0.46380535359665859 -0.47109706997428358 0 -0.45598540213176331 -0.48158329009591572 0 -0.44279026576966052 -0.47292570916743321 0 -0.46380535359665859 -0.47109706997428358 0 -0.44279026576966052 -0.47292570916743321 0 -0.47268190624911438 -0.47032467196129618 0 -0.46380535359665859 -0.47109706997428358 0 -0.47020647916734071 -0.47652035550535382 0 -0.46380535359665859 -0.47109706997428358 0 -0.47020647916734071 -0.47652035550535382 0 -0.46412655476370213 -0.4787438593466008 0 -0.46380535359665859 -0.47109706997428358 0 -0.44279026576966052 -0.47292570916743321 0 -0.45008522191715511 -0.4912529204891124 0 -0.45598540213176331 -0.48158329009591572 0 -0.44279026576966052 -0.47292570916743321 0 -0.45008522191715511 -0.4912529204891124 0 -0.45356690608233058 -0.50000000000000078 0 -0.45008522191715511 -0.4912529204891124 0 -0.43254039405896721 -0.5 0 -0.44279026576966052 -0.47292570916743321 0 -0.45008522191715511 -0.4912529204891124 0 -0.4314879059704344 -0.49092445243363803 0 -0.45008522191715511 -0.4912529204891124 0 -0.4314879059704344 -0.49092445243363803 0 -0.45008522191715511 -0.4912529204891124 0 -0.43254039405896721 -0.5 0 -0.4314879059704344 -0.49092445243363803 0 -0.45356690608233058 -0.50000000000000078 0 -0.45008522191715511 -0.4912529204891124 0 -0.4481770300823823 -0.4396558994993755 0 -0.44740213898841219 -0.4571996209294672 0 -0.43099892438016479 -0.44330217188465187 0 -0.44740213898841219 -0.4571996209294672 0 -0.43689459507491363 -0.45811394052604221 0 -0.43099892438016479 -0.44330217188465187 0 -0.44740213898841219 -0.4571996209294672 0 -0.43099892438016479 -0.44330217188465187 0 -0.46380535359665859 -0.47109706997428358 0 -0.44279026576966052 -0.47292570916743321 0 -0.44740213898841219 -0.4571996209294672 0 -0.44279026576966052 -0.47292570916743321 0 -0.44740213898841219 -0.4571996209294672 0 -0.43689459507491363 -0.45811394052604221 0 -0.44279026576966052 -0.47292570916743321 0 -0.43689459507491363 -0.45811394052604221 0 -0.47268190624911438 -0.47032467196129618 0 -0.46380535359665859 -0.47109706997428358 0 -0.46685764922026463 -0.45478290316460002 0 -0.46380535359665859 -0.47109706997428358 0 -0.44740213898841219 -0.4571996209294672 0 -0.46380535359665859 -0.47109706997428358 0 -0.44740213898841219 -0.4571996209294672 0 -0.46685764922026463 -0.45478290316460002 0 -0.4481770300823823 -0.4396558994993755 0 -0.46685764922026463 -0.45478290316460002 0 -0.47095899545819958 -0.42960750318798141 0 -0.4481770300823823 -0.4396558994993755 0 -0.44740213898841219 -0.4571996209294672 0 -0.46685764922026463 -0.45478290316460002 0 -0.46685764922026463 -0.45478290316460002 0 -0.4817879374994104 -0.44753341772288191 0 -0.47095899545819958 -0.42960750318798141 0 -0.47268190624911438 -0.47032467196129618 0 -0.4817879374994104 -0.44753341772288191 0 -0.47268190624911438 -0.47032467196129618 0 -0.46685764922026463 -0.45478290316460002 0 -0.4817879374994104 -0.44753341772288191 0 -0.4817879374994104 -0.44753341772288191 0 -0.49999999999999839 -0.46794757331073372 0 -0.5 -0.44594868528917331 0 -0.47268190624911438 -0.47032467196129618 0 -0.4817879374994104 -0.44753341772288191 0 -0.49999999999999839 -0.46794757331073372 0 -0.4817879374994104 -0.44753341772288191 0 -0.5 -0.44594868528917331 0 -0.49089396874970598 -0.42474216348446753 0 -0.4817879374994104 -0.44753341772288191 0 -0.49089396874970598 -0.42474216348446753 0 -0.5 -0.44594868528917331 0 -0.49089396874970598 -0.42474216348446753 0 -0.5 -0.42394979726761312 0 -0.49089396874970598 -0.42474216348446753 0 -0.5 -0.42394979726761312 0 -0.50000000000000089 -0.4019509092460527 0 -0.49089396874970598 -0.42474216348446753 0 -0.50000000000000089 -0.4019509092460527 0 -0.49089396874970598 -0.42474216348446753 0 -0.48706428208760322 -0.40999730651633981 0 -0.50000000000000089 -0.4019509092460527 0 -0.49089396874970598 -0.42474216348446753 0 -0.48706428208760322 -0.40999730651633981 0 -0.47095899545819958 -0.42960750318798141 0 -0.48706428208760322 -0.40999730651633981 0 -0.47191957110388938 -0.40834956983828402 0 -0.47095899545819958 -0.42960750318798141 0 -0.4817879374994104 -0.44753341772288191 0 -0.49089396874970598 -0.42474216348446753 0 -0.47095899545819958 -0.42960750318798141 0 -0.5 -0.37568906657004569 0 -0.48583628735925299 -0.37960671214745489 0 -0.49382661274363687 -0.39450787758664713 0 -0.48583628735925299 -0.37960671214745489 0 -0.49382661274363687 -0.39450787758664713 0 -0.47798571564617498 -0.39002281221069418 0 -0.5 -0.37568906657004569 0 -0.49382661274363687 -0.39450787758664713 0 -0.50000000000000089 -0.4019509092460527 0 -0.48706428208760322 -0.40999730651633981 0 -0.49382661274363687 -0.39450787758664713 0 -0.50000000000000089 -0.4019509092460527 0 -0.47191957110388938 -0.40834956983828402 0 -0.49382661274363687 -0.39450787758664713 0 -0.48706428208760322 -0.40999730651633981 0 -0.47191957110388938 -0.40834956983828402 0 -0.49382661274363687 -0.39450787758664713 0 -0.47191957110388938 -0.40834956983828402 0 -0.49382661274363687 -0.39450787758664713 0 -0.47798571564617498 -0.39002281221069418 0 -0.47191957110388938 -0.40834956983828402 0 -0.47798571564617498 -0.39002281221069418 0 -0.46232391230917158 -0.38919508961274729 0 -0.47798571564617498 -0.39002281221069418 0 -0.47202019965601361 -0.3752839670407136 0 -0.46232391230917158 -0.38919508961274729 0 -0.48583628735925299 -0.37960671214745489 0 -0.47798571564617498 -0.39002281221069418 0 -0.47202019965601361 -0.3752839670407136 0 -0.46232391230917158 -0.38919508961274729 0 -0.44374699910085602 -0.38742659975694399 0 -0.45388640445344219 -0.37246978923304602 0 -0.47202019965601361 -0.3752839670407136 0 -0.46232391230917158 -0.38919508961274729 0 -0.45388640445344219 -0.37246978923304602 0 -0.47191957110388938 -0.40834956983828402 0 -0.46232391230917158 -0.38919508961274729 0 -0.44773163690291062 -0.39947583229557287 0 -0.46232391230917158 -0.38919508961274729 0 -0.44773163690291062 -0.39947583229557287 0 -0.44374699910085602 -0.38742659975694399 0 -0.44773163690291062 -0.39947583229557287 0 -0.43798735645825049 -0.40078538447655471 0 -0.44066245312404573 -0.39509432345749951 0 -0.44773163690291062 -0.39947583229557287 0 -0.43798735645825049 -0.40078538447655471 0 -0.43687714955835238 -0.41013338510841768 0 -0.44773163690291062 -0.39947583229557287 0 -0.44066245312404573 -0.39509432345749951 0 -0.44374699910085602 -0.38742659975694399 0 -0.44066245312404573 -0.39509432345749951 0 -0.44374699910085602 -0.38742659975694399 0 -0.43318382003416578 -0.39268947730092618 0 -0.44374699910085602 -0.38742659975694399 0 -0.45388640445344219 -0.37246978923304602 0 -0.4370595403563417 -0.3735943461158322 0 -0.4481770300823823 -0.4396558994993755 0 -0.47095899545819958 -0.42960750318798141 0 -0.450012
[...]
<PointData Scalars="" Vectors="displacement," Tensors="">
<DataArray type="Float64" Name="displacement" NumberOfComponents="3" format="ascii">
2.0038559072109837e-08 -0.035000080505731619 0 -0.00015296461027486486 -0.033917701090496126 0 1.1751504915088465e-07 -0.03275844809869051 0 -6.2107025083364466e-09 -0.035000017550533905 0 -1.1807526193983019e-05 -0.035003337277257421 0 -2.6139132407610887e-10 -0.034999986497166201 0 -1.4885337045415941e-07 -0.034997691687186513 0 2.0038559072109837e-08 -0.035000080505731619 0 -0.00015296461027486486 -0.033917701090496126 0 -1.2455034761153648e-07 -0.034999603923032474 0 -5.2622138599730927e-05 -0.034581931620340123 0 1.5285177630531578e-05 -0.033807322078208482 0 0.00032985842133854596 -0.034138977449667256 0 1.1751504915088465e-07 -0.03275844809869051 0 1.5285177630531578e-05 -0.033807322078208482 0 -0.00015296461027486486 -0.033917701090496126 0 1.1751504915088465e-07 -0.03275844809869051 0 0.00064736620360231418 -0.031534772896091523 0 -1.1305248889190483e-07 -0.032758302179496782 0 -4.0847635835366377e-05 -0.034984379382270843 0 -1.1807526193983019e-05 -0.035003337277257421 0 -3.3271125823762292e-05 -0.034985761449804524 0 1.5285177630531578e-05 -0.033807322078208482 0 6.2241987252954154e-05 -0.034144892211426831 0 -0.00015296461027486486 -0.033917701090496126 0 0.00017974329423744141 -0.033590923502378037 0 -5.2622138599730927e-05 -0.034581931620340123 0 1.5285177630531578e-05 -0.033807322078208482 0 6.2241987252954154e-05 -0.034144892211426831 0 0.00032985842133854596 -0.034138977449667256 0 0.00038785093508584629 -0.032377311229619184 0 0.00014549940178885801 -0.032471977572725255 0 0.00017377889579792548 -0.032122238514944855 0 0.00017974329423744141 -0.033590923502378037 0 0.00064736620360231418 -0.031534772896091523 0 -1.1807526193983019e-05 -0.035003337277257421 0 -9.6639010689584012e-07 -0.034987692413956412 0 -3.3271125823762292e-05 -0.034985761449804524 0 -1.1807526193983019e-05 -0.035003337277257421 0 -9.6639010689584012e-07 -0.034987692413956412 0 -2.6139132407610887e-10 -0.034999986497166201 0 -9.6639010689584012e-07 -0.034987692413956412 0 -2.6139132407610887e-10 -0.034999986497166201 0 4.1419083886177157e-09 -0.034999914106170676 0 -9.6639010689584012e-07 -0.034987692413956412 0 4.1419083886177157e-09 -0.034999914106170676 0 9.4567765225175117e-06 -0.034966145911000036 0 4.1419083886177157e-09 -0.034999914106170676 0 9.4567765225175117e-06 -0.034966145911000036 0 1.8128497882081791e-05 -0.035001986228484279 0 5.3782323572759286e-05 -0.035017189593390279 0 0.00013355433701187398 -0.034451408630594441 0 9.4567765225175117e-06 -0.034966145911000036 0 -0.0001082257608766453 -0.034847315232768482 0 2.7642211454070444e-05 -0.034765937001214074 0 9.4567765225175117e-06 -0.034966145911000036 0 -3.3271125823762292e-05 -0.034985761449804524 0 -0.0001082257608766453 -0.034847315232768482 0 -9.6639010689584012e-07 -0.034987692413956412 0 9.4567765225175117e-06 -0.034966145911000036 0 -3.3271125823762292e-05 -0.034985761449804524 0 -0.00017168034744141687 -0.035030755729308596 0 -3.3271125823762292e-05 -0.034985761449804524 0 -0.00014098688059506996 -0.034949514109941661 0 -0.00014098688059506996 -0.034949514109941661 0 -0.00024777464913484671 -0.034938600680649905 0 -0.0001082257608766453 -0.034847315232768482 0 0.00017974329423744141 -0.033590923502378037 0 -0.00029929992506969863 -0.034563453521451945 0 -3.3271125823762292e-05 -0.034985761449804524 0 -0.00014098688059506996 -0.034949514109941661 0 -0.0001082257608766453 -0.034847315232768482 0 -0.00024777464913484671 -0.034938600680649905 0 -0.0001082257608766453 -0.034847315232768482 0 -0.00023405473291190134 -0.034642916764639861 0 0.00013925879363599212 -0.031428102145385724 0 -0.00042197590657864478 -0.032718005896990893 0 0.00064736620360231418 -0.031534772896091523 0 0.00013925879363599212 -0.031428102145385724 0 0.00017974329423744141 -0.033590923502378037 0 0.00013925879363599212 -0.031428102145385724 0 -0.00017168034744141687 -0.035030755729308596 0 -0.00014098688059506996 -0.034949514109941661 0 -0.00024777464913484671 -0.034938600680649905 0 -0.00042197590657864478 -0.032718005896990893 0 0.00013355433701187398 -0.034451408630594441 0 -0.0001082257608766453 -0.034847315232768482 0 -0.00023405473291190134 -0.034642916764639861 0 2.7642211454070444e-05 -0.034765937001214074 0 5.548299089142221e-10 -0.034999995479327986 0 6.1352449580849724e-07 -0.034997272442976901 0 9.4252345742462763e-10 -0.034999990434881327 0 -0.00040216679828279975 -0.032830735767344674 0 3.1817563093451306e-05 -0.033017039965252598 0 1.7113664304011644e-05 -0.03256263733425796 0 0.00013355433701187398 -0.034451408630594441 0 5.7805931158847681e-06 -0.033694250222767549 0 6.1352449580849724e-07 -0.034997272442976901 0 9.4252345742462763e-10 -0.034999990434881327 0 -1.5824180388620335e-07 -0.034995646495302575 0 1.6644711785874168e-07 -0.034999615366569412 0 0.00013355433701187398 -0.034451408630594441 0 0.00065976155565235261 -0.027195060744366714 0 0.00079818551832965294 -0.027207909845520486 0 0.00068968950177362434 -0.027065780217762379 0 -0.00015404566310524547 -0.030668773391343072 0 -0.00013001405728442822 -0.030402828242049026 0 -0.00049978078473858457 -0.030240951153383128 0 0.00018890827037748914 -0.028577950845761209 0 0.00019530478312578816 -0.029163527696844545 0 0.00019787353787710581 -0.031093566113218622 0 0.00024260188290780126 -0.030563465007545955 0 -0.00015404566310524547 -0.030668773391343072 0 0.00024260188290780126 -0.030563465007545955 0 -0.00015404566310524547 -0.030668773391343072 0 -0.00013001405728442822 -0.030402828242049026 0 -0.00042197590657864478 -0.032718005896990893 0 -0.00026804972512056106 -0.031293086799028209 0 0.00089730948979660757 -0.027442408821302479 0 0.00090700207796531331 -0.027369390025079515 0 0.00077708264094231551 -0.02737024151525488 0 0.00013925879363599212 -0.031428102145385724 0 0.00018890827037748914 -0.028577950845761209 0 0.00090700207796531331 -0.027369390025079515 0 0.00079818551832965294 -0.027207909845520486 0 0.00077708264094231551 -0.02737024151525488 0 0.00065976155565235261 -0.027195060744366714 0 0.00077708264094231551 -0.02737024151525488 0 0.00058454003172980242 -0.027369554614065556 0 0.00065976155565235261 -0.027195060744366714 0 0.00079818551832965294 -0.027207909845520486 0 0.00077708264094231551 -0.02737024151525488 0 0.00077708264094231551 -0.02737024151525488 0 0.00072045700106954872 -0.027477799678367717 0 0.00058454003172980242 -0.027369554614065556 0 0.00064736620360231418 -0.031534772896091523 0 0.00033714652262729536 -0.029132544491619349 0 0.00089730948979660757 -0.027442408821302479 0 0.00077708264094231551 -0.02737024151525488 0 0.00072045700106954872 -0.027477799678367717 0 -0.00019927443383621 -0.03137861759895326 0 1.0396654675734906e-06 -0.03275320384905258 0 -7.7069272717955062e-07 -0.031217254094924186 0 0.00045439922079631761 -0.03128616677264031 0 -0.00019927443383621 -0.03137861759895326 0 1.0396654675734906e-06 -0.03275320384905258 0 -0.00019927443383621 -0.03137861759895326 0 -7.7069272717955062e-07 -0.031217254094924186 0 4.1636915525749265e-06 -0.030127799578601691 0 0.00033714652262729536 -0.029132544491619349 0 0.0001502669377870413 -0.028893818736290804 0 -7.7069272717955062e-07 -0.031217254094924186 0 4.1636915525749265e-06 -0.030127799578601691 0 1.5164812737607487e-07 -0.029676798397947322 0 4.1636915525749265e-06 -0.030127799578601691 0 1.5164812737607487e-07 -0.029676798397947322 0 2.2192393193597007e-07 -0.028137333622417465 0 0.0001502669377870413 -0.028893818736290804 0 -1.6868200765724685e-07 -0.028136959221965435 0 0.00059653133275689753 -0.027533390829406791 0 0.00029235758481423283 -0.027431871507024717 0 2.6211315041883604e-06 -0.028132840736671431 0 0.00059653133275689753 -0.027533390829406791 0 0.00029235758481423283 -0.027431871507024717 0 0.00058454003172980242 -0.027369554614065556 0 0.00029235758481423283 -0.027431871507024717 0 0.00033457381424307694 -0.027380367212402619 0 0.00058454003172980242 -0.027369554614065556 0 0.00072045700106954872 -0.027477799678367717 0 0.00059653133275689753 -0.027533390829406791 0 0.00058454003172980242 -0.027369554614065556 0 -5.9167677697551378e-07 -0.02629816556697822 0 3.1327781552952998e-05 -0.025591759308553456 0 0.0001809926767522135 -0.027137155659137518 0 3.1327781552952998e-05 -0.025591759308553456 0 0.0001809926767522135 -0.027137155659137518 0 0.00033478351503006396 -0.025323115944100846 0 -5.9167677697551378e-07 -0.02629816556697822 0 0.0001809926767522135 -0.027137155659137518 0 2.6211315041883604e-06 -0.028132840736671431 0 0.00029235758481423283 -0.027431871507024717 0 0.0001809926767522135 -0.027137155659137518 0 2.6211315041883604e-06 -0.028132840736671431 0 0.00085806413828961724 -0.026207806861404712 0 0.00024940791688200998 -0.027066178028757951 0 0.00029235758481423283 -0.027431871507024717 0 0.00033457381424307694 -0.027380367212402619 0 0.0001809926767522135 -0.027137155659137518 0 0.0015397413884564465 -0.024840330334896816 0 0.0001809926767522135 -0.027137155659137518 0 0.00033478351503006396 -0.025323115944100846 0 0.0015397413884564465 -0.024840330334896816 0 0.00033478351503006396 -0.025323115944100846 0 0.00049259977380635626 -0.024333732575135013 0 0.00033478351503006396 -0.025323115944100846 0 2.8901404085878744e-05 -0.024567397237078736 0 0.00049259977380635626 -0.024333732575135013 0 3.1327781552952998e-05 -0.025591759308553456 0 0.00033478351503006396 -0.025323115944100846 0 2.8901404085878744e-05 -0.024567397237078736 0 0.00049259977380635626 -0.024333732575135013 0 0.00049933488829637161 -0.023636381304863192 0 1.8433802270584003e-05 -0.023855924168250071 0 2.8901404085878744e-05 -0.024567397237078736 0 0.00049259977380635626 -0.024333732575135013 0 1.8433802270584003e-05 -0.023855924168250071 0 0.0015397413884564465 -0.024840330334896816 0 0.00049259977380635626 -0.024333732575135013 0 0.00099252308186130239 -0.023784760807211581 0 0.00049259977380635626 -0.024333732575135013 0 0.00099252308186130239 -0.023784760807211581 0 0.00049933488829637161 -0.023636381304863192 0 0.00099252308186130239 -0.023784760807211581 0 0.0010371025684589353 -0.023447211861953636 0 0.00081119318114222349 -0.023535161164205308 0 0.00099252308186130239 -0.023784760807211581 0 0.0010371025684589353 -0.023447211861953636 0 0.0014036927035463399 -0.023415527085571309 0 0.00099252308186130239 -0.023784760807211581 0 0.00081119318114222349 -0.023535161164205308 0 0.00049933488829637161 -0.023636381304863192 0 0.00081119318114222349 -0.023535161164205308 0 0.00049933488829637161 -0.023636381304863192 0 0.00071507480656079906 -0.023275980675654142 0 0.00049933488829637161 -0.023636381304863192 0 1.8433802270584003e-05 -0.023855924168250071 0 8.9369127152374693e-05 -0.023490029440365559 0 0.00065976155565235261 -0.027195060744366714 0 0.00058454003172980242 -0.027369554614065556 0 0.00051990570804020825 -0.027185240671545666 0 0.00085806413828961724 -0.026207806861404712 0 0.0013726511569254432 -0.025273137596783242 0 0.00033457381424307694 -0.027380367212402619 0 0.00058454003172980242 -0.027369554614065556 0 0.00051990570804020825 -0.027185240671545666 0 0.0015397413884564465 -0.024840330334896816 0 0.00099252308186130239 -0.023784760807211581 0 0.0019070671072006773 -0.023918878530932653 0 0.00099252308186130239 -0.023784760807211581 0 0.0019070671072006773 -0.023918878530932653 0 0.0014036927035463399 -0.023415527085571309 0 0.0019070671072006773 -0.023918878530932653 0 0.0018508806219221735 -0.023325680278602171 0 0.0014036927035463399 -0.023415527085571309 0 0.00065976155565235261 -0.027195060744366714 0 0.00051990570804020825 -0.027185240671545666 0 0.00063493548054896259 -0.027038758547456153 0 0.0013726511569254432 -0.025273137596783242 0 0.00087156685647293538 -0.026414766493961114 0 0.00066168183508608178 -0.026912336246884796 0 0.00063474191917375607 -0.026891502631296138 0 0.00064755894668467651 -0.026892225246228762 0 0.0023543175862213708 -0.023128115970812626 0 0.0018508806219221735 -0.023325680278602171 0 0.0017243209377413766 -0.022851218456790626 0 0.0019070671072006773 -0.023918878530932653 0 0.0023543175862213708 -0.023128115970812626 0 0.0018508806219221735 -0.023325680278602171 0 0.00087156685647293538 -0.026414766493961114 0 0.0010404279553485171 -0.025836008178291448 0 0.00066168183508608178 -0.026912336246884796 0 0.00064755894668467651 -0.026892225246228762 0 0.00066484288933446449 -0.026907766131811749 0 0.00087156685647293538 -0.026414766493961114 0 -1.6078426353375823e-06 -0.029160621950024942 0 0.0018508806219221735 -0.023325680278602171 0 0.0014036927035463399 -0.023415527085571309 0 0.0017243209377413766 -0.022851218456790626 0 0.0014036927035463399 -0.023415527085571309 0 0.0017243209377413766 -0.022851218456790626 0 0.0006588355969742556 -0.023184925814217917 0 0.00063294858305676664 -0.026861933835934052 0 0.00063405565094413736 -0.026862980101885727 0 0.00063785220208989815 -0.026834903174565765 0 0.0010404279553485171 -0.025836008178291448 0 0.0009548823733756867 -0.0260600497554246 0 0.00063557976359949087 -0.026874424242896267 0 0.00063388959788513366 -0.026871577308995687 0 0.00063405565094413736 -0.026862980101885727 0 0.00063557976359949087 -0.026874424242896267 0 0.00063388959788513366 -0.026871577308995687 0 0.00063762809379988409 -0.026879076308044078 0 0.00063388959788513366 -0.026871577308995687 0 0.00063762809379988409 -0.026879076308044078 0 0.00063566423932283778 -0.026878236442784562 0 0.00063405565094413736 -0.026862980101885727 0 0.00063430875144501124 -0.026864205539846499 0 0.00063622003697121564 -0.026854852276586332 0 0.00063388959788513366 -0.026871577308995687 0 0.00063405565094413736 -0.026862980101885727 0 0.00063430875144501124 -0.026864205539846499 0 0.00063430875144501124 -0.026864205539846499 0 0.00063337027652581772 -0.026867764503614559 0 0.00063319049144561397 -0.026873126041850322 0 0.00063388959788513366 -0.026871577308995687 0 0.00063430875144501124 -0.026864205539846499 0 0.00063319049144561397 -0.026873126041850322 0 0.00063337027652581772 -0.026867764503614559 0 0.00063319049144561397 -0.026873126041850322 0 0.00063254699737549968 -0.026876667102629995 0 0.00063388959788513366 -0.026871577308995687 0 0.00063566423932283778 -0.026878236442784562 0 0.00063319049144561397 -0.026873126041850322 0 0.00063566423932283778 -0.026878236442784562 0 0.00063319049144561397 -0.026873126041850322 0 0.00063254699737549968 -0.026876667102629995 0 -0.00033894521348547447 -0.032235395534536963 0 -0.00041686807482970714 -0.03218169276689007 0 -0.00041374707721843359 -0.032218608310710425 0 -0.00013676046704005516 -0.030076318375339306 0 -1.6078426353375823e-06 -0.029160621950024942 0 0.00063566423932283778 -0.026878236442784562 0 0.00064755894668467651 -0.026892225246228762 0 0.00063254699737549968 -0.026876667102629995 0 0.00064755894668467651 -0.026892225246228762 0 0.00063254699737549968 -0.026876667102629995 0 0.00066484288933446449 -0.026907766131811749 0 -0.00033894521348547447 -0.032235395534536963 0 -0.00041686807482970714 -0.03218169276689007 0 -0.000409251662899335 -0.032166313351489076 0 0.0010404279553485171 -0.025836008178291448 0 0.00046429265965025612 -0.026600701100695488 0 0.00063557976359949087 -0.026874424242896267 0 0.00063762809379988409 -0.026879076308044078 0 0.00064755894668467651 -0.026892225246228762 0 0.00063762809379988409 -0.026879076308044078 0 0.00063566423932283778 -0.026878236442784562 0 0.00064755894668467651 -0.026892225246228762 0 0.00070338229791828987 -0.024358142236653925 0 0.00029461522316167937 -0.023650201291544385 0 8.4331229153763228e-05 -0.023979217849318477 0 0.00058538756366891453 -0.024178594936026795 0 0.00052642535323899054 -0.023813894105988609 0 8.4331229153763228e-05 -0.023979217849318477 0 0.00034602087156745498 -0.024397052898313142 0 0.00058538756366891453 -0.024178594936026795 0 0.00049933488829637161 -0.023636381304863192 0 0.00065468682599508789 -0.023201554220682572 0 8.9369127152374693e-05 -0.023490029440365559 0 0.00070338229791828987 -0.024358142236653925 0 0.00056130496887836143 -0.025805398621138904 0 0.00049933488829637161 -0.023636381304863192 0 0.00065468682599508789 -0.023201554220682572 0 0.00071507480656079906 -0.023275980675654142 0 0.0010371025684589353 -0.023447211861953636 0 0.0014036927035463399 -0.023415527085571309 0 0.0006588355969742556 -0.023184925814217917 0 0.0010404279553485171 -0.025836008178291448 0 0.00070338229791828987 -0.024358142236653925 0 0.00063405565094413736 -0.026862980101885727 0 0.00063785220208989815 -0.026834903174565765 0 0.00063622003697121564 -0.026854852276586332 0 0.0010371025684589353 -0.023447211861953636 0 0.0006588355969742556 -0.023184925814217917 0 0.00071507480656079906 -0.023275980675654142 0 0.0010371025684589353 -0.023447211861953636 0 0.00081119318114222349 -0.023535161164205308 0 0.00071507480656079906 -0.023275980675654142 0 0.00070338229791828987 -0.024358142236653925 0 0.00060933447570995624 -0.024128273209151965 0 0.00063785220208989815 -0.026834903174565765 0 0.00063622003697121564 -0.026854852276586332 0 0.00063085752071604154 -0.026847286648106705 0 0.00063622003697121564 -0.026854852276586332 0 0.00063724014230169481 -0.026856825329284607 0 0.00063085752071604154 -0.026847286648106705 0 0.00063337027652581772 -0.026867764503614559 0 0.00063622003697121564 -0.026854852276586332 0 0.00063724014230169481 -0.026856825329284607 0 0.00063430875144501124 -0.026864205539846499 0 0.00063337027652581772 -0.026867764503614559 0 0.00063622003697121564 -0.026854852276586332 0 0.00056130496887836143 -0.025805398621138904 0 0.00058907511994566017 -0.025395998833595345 0 0.00063724014230169481 -0.026856825329284607 0 0.00063500957287895051 -0.026872800020961853 0 0.00064037150325512349 -0.026869683932342733 0 0.00063724014230169481 -0.026856825329284607 0 0.00063085752071604154 -0.026847286648106705 0 0.00061830259795449879 -0.026815596101078813 0 0.00069545497578502534 -0.026976871895220189 0 0.00056644900084495292 -0.02641152960038912 0 0.00063724014230169481 -0.026856825329284607 0 0.00063500957287895051 -0.026872800020961853 0 0.00063299920295119868 -0.026871440234676046 0 0.00063500957287895051 -0.026872800020961853 0 0.00063299920295119868 -0.026871440234676046 0 0.00063130383891907011 -0.026882448393389016 0 0.00063337027652581772 -0.026867764503614559 0 0.00063724014230169481 -0.026856825329284607 0 0.00063299920295119868 -0.026871440234676046 0 0.00016174304721811611 -0.028507826917783495 0 0.00016423701379568922 -0.02930524264687822 0 0.00063130383891907011 -0.026882448393389016 0 0.00062996969540273829 -0.02687342719307596 0 0.00062929279388998288 -0.026881525056704055 0 0.00063500957287895051 -0.026872800020961853 0 0.00063130383891907011 -0.026882448393389016 0 0.00062996969540273829 -0.02687342719307596 0 0.00062996969540273829 -0.02687342719307596 0 0.00062291603916115983 -0.026841909322948453 0 0.00062750063341669932 -0.026858075688845032 0 0.00063500957287895051 -0.026872800020961853 0 0.00062996969540273829 -0.02687342719307596 0 0.00064037150325512349 -0.026869683932342733 0 0.00059599304568144437 -0.027009348158909402 0 0.00056644900084495292 -0.02641152960038912 0 0.00062996969540273829 -0.02687342719307596 0 0.00062775726009894851 -0.026859718493182826 0 0.00062750063341669932 -0.026858075688845032 0 -0.00033894521348547447 -0.032235395534536963 0 -0.00038427245664373764 -0.032304458173685477 0 -0.00040561062820866926 -0.032262655390805313 0 -0.00033894521348547447 -0.032235395534536963 0 -0.00040561062820866926 -0.032262655390805313 0 -0.00041374707721843359 -0.032218608310710425 0 0.00016174304721811611 -0.028507826917783495 0 -0.00013676046704005516 -0.030076318375339306 0 0.00063337027652581772 -0.026867764503614559 0 0.00063299920295119868 -0.026871440234676046 0 0.00063254699737549968 -0.026876667102629995 0 0.00063299920295119868 -0.026871440234676046 0 0.00063130383891907011 -0.0268824