<?xml version="1.0"?>
<VTKFile type="UnstructuredGrid" version="0.1" byte_order="LittleEndian">
<UnstructuredGrid>
<Piece NumberOfPoints="31336" NumberOfCells="11017">
<Points>
<DataArray type="Float64" NumberOfComponents="3" format="ascii">
-0.5 -0.5 0 -0.48406303824982921 -0.488260177752672 0 -0.49999999999999839 -0.46794757331073372 0 -0.49791959733231589 -0.49999999999999228 0 -0.48406303824982921 -0.488260177752672 0 -0.47574325170732329 -0.5 0 -0.49791959733231589 -0.49999999999999228 0 -0.5 -0.5 0 -0.48406303824982921 -0.488260177752672 0 -0.49791959733231589 -0.49999999999999228 0 -0.48406303824982921 -0.488260177752672 0 -0.48137197345170601 -0.47738906514602758 0 -0.47268190624911438 -0.47032467196129618 0 -0.49999999999999839 -0.46794757331073372 0 -0.48137197345170601 -0.47738906514602758 0 -0.48406303824982921 -0.488260177752672 0 -0.49999999999999839 -0.46794757331073372 0 -0.47268190624911438 -0.47032467196129618 0 -0.49999999999999839 -0.46794757331073372 0 -0.47020647916734071 -0.47652035550535382 0 -0.48406303824982921 -0.488260177752672 0 -0.46650898415904801 -0.48577472181084741 0 -0.48137197345170601 -0.47738906514602758 0 -0.47020647916734071 -0.47652035550535382 0 -0.48406303824982921 -0.488260177752672 0 -0.47020647916734071 -0.47652035550535382 0 -0.48406303824982921 -0.488260177752672 0 -0.48137197345170601 -0.47738906514602758 0 -0.47020647916734071 -0.47652035550535382 0 -0.47268190624911438 -0.47032467196129618 0 -0.47020647916734071 -0.47652035550535382 0 -0.47268190624911438 -0.47032467196129618 0 -0.46380535359665859 -0.47109706997428358 0 -0.47020647916734071 -0.47652035550535382 0 -0.47268190624911438 -0.47032467196129618 0 -0.48406303824982921 -0.488260177752672 0 -0.46905308514982391 -0.49339941732558579 0 -0.46650898415904801 -0.48577472181084741 0 -0.48406303824982921 -0.488260177752672 0 -0.46905308514982391 -0.49339941732558579 0 -0.47574325170732329 -0.5 0 -0.46905308514982391 -0.49339941732558579 0 -0.47574325170732329 -0.5 0 -0.45356690608233058 -0.50000000000000078 0 -0.46905308514982391 -0.49339941732558579 0 -0.45356690608233058 -0.50000000000000078 0 -0.46154043651056498 -0.49145524388208489 0 -0.45356690608233058 -0.50000000000000078 0 -0.46154043651056498 -0.49145524388208489 0 -0.45008522191715511 -0.4912529204891124 0 -0.46154043651056498 -0.49145524388208489 0 -0.45008522191715511 -0.4912529204891124 0 -0.46154043651056498 -0.49145524388208489 0 -0.45598540213176331 -0.48158329009591572 0 -0.45008522191715511 -0.4912529204891124 0 -0.46154043651056498 -0.49145524388208489 0 -0.46650898415904801 -0.48577472181084741 0 -0.45598540213176331 -0.48158329009591572 0 -0.46905308514982391 -0.49339941732558579 0 -0.46154043651056498 -0.49145524388208489 0 -0.46650898415904801 -0.48577472181084741 0 -0.47020647916734071 -0.47652035550535382 0 -0.46650898415904801 -0.48577472181084741 0 -0.46412655476370213 -0.4787438593466008 0 -0.46412655476370213 -0.4787438593466008 0 -0.46380535359665859 -0.47109706997428358 0 -0.45598540213176331 -0.48158329009591572 0 -0.47020647916734071 -0.47652035550535382 0 -0.46650898415904801 -0.48577472181084741 0 -0.46650898415904801 -0.48577472181084741 0 -0.46412655476370213 -0.4787438593466008 0 -0.45598540213176331 -0.48158329009591572 0 -0.46380535359665859 -0.47109706997428358 0 -0.45598540213176331 -0.48158329009591572 0 -0.44279026576966052 -0.47292570916743321 0 -0.46380535359665859 -0.47109706997428358 0 -0.44279026576966052 -0.47292570916743321 0 -0.47268190624911438 -0.47032467196129618 0 -0.46380535359665859 -0.47109706997428358 0 -0.47020647916734071 -0.47652035550535382 0 -0.46380535359665859 -0.47109706997428358 0 -0.47020647916734071 -0.47652035550535382 0 -0.46412655476370213 -0.4787438593466008 0 -0.46380535359665859 -0.47109706997428358 0 -0.44279026576966052 -0.47292570916743321 0 -0.45008522191715511 -0.4912529204891124 0 -0.45598540213176331 -0.48158329009591572 0 -0.44279026576966052 -0.47292570916743321 0 -0.45008522191715511 -0.4912529204891124 0 -0.45356690608233058 -0.50000000000000078 0 -0.45008522191715511 -0.4912529204891124 0 -0.43254039405896721 -0.5 0 -0.44279026576966052 -0.47292570916743321 0 -0.45008522191715511 -0.4912529204891124 0 -0.4314879059704344 -0.49092445243363803 0 -0.45008522191715511 -0.4912529204891124 0 -0.4314879059704344 -0.49092445243363803 0 -0.45008522191715511 -0.4912529204891124 0 -0.43254039405896721 -0.5 0 -0.4314879059704344 -0.49092445243363803 0 -0.45356690608233058 -0.50000000000000078 0 -0.45008522191715511 -0.4912529204891124 0 -0.4481770300823823 -0.4396558994993755 0 -0.44740213898841219 -0.4571996209294672 0 -0.43099892438016479 -0.44330217188465187 0 -0.44740213898841219 -0.4571996209294672 0 -0.43689459507491363 -0.45811394052604221 0 -0.43099892438016479 -0.44330217188465187 0 -0.44740213898841219 -0.4571996209294672 0 -0.43099892438016479 -0.44330217188465187 0 -0.46380535359665859 -0.47109706997428358 0 -0.44279026576966052 -0.47292570916743321 0 -0.44740213898841219 -0.4571996209294672 0 -0.44279026576966052 -0.47292570916743321 0 -0.44740213898841219 -0.4571996209294672 0 -0.43689459507491363 -0.45811394052604221 0 -0.44279026576966052 -0.47292570916743321 0 -0.43689459507491363 -0.45811394052604221 0 -0.47268190624911438 -0.47032467196129618 0 -0.46380535359665859 -0.47109706997428358 0 -0.46685764922026463 -0.45478290316460002 0 -0.46380535359665859 -0.47109706997428358 0 -0.44740213898841219 -0.4571996209294672 0 -0.46380535359665859 -0.47109706997428358 0 -0.44740213898841219 -0.4571996209294672 0 -0.46685764922026463 -0.45478290316460002 0 -0.4481770300823823 -0.4396558994993755 0 -0.46685764922026463 -0.45478290316460002 0 -0.47095899545819958 -0.42960750318798141 0 -0.4481770300823823 -0.4396558994993755 0 -0.44740213898841219 -0.4571996209294672 0 -0.46685764922026463 -0.45478290316460002 0 -0.46685764922026463 -0.45478290316460002 0 -0.4817879374994104 -0.44753341772288191 0 -0.47095899545819958 -0.42960750318798141 0 -0.47268190624911438 -0.47032467196129618 0 -0.4817879374994104 -0.44753341772288191 0 -0.47268190624911438 -0.47032467196129618 0 -0.46685764922026463 -0.45478290316460002 0 -0.4817879374994104 -0.44753341772288191 0 -0.4817879374994104 -0.44753341772288191 0 -0.49999999999999839 -0.46794757331073372 0 -0.5 -0.44594868528917331 0 -0.47268190624911438 -0.47032467196129618 0 -0.4817879374994104 -0.44753341772288191 0 -0.49999999999999839 -0.46794757331073372 0 -0.4817879374994104 -0.44753341772288191 0 -0.5 -0.44594868528917331 0 -0.49089396874970598 -0.42474216348446753 0 -0.4817879374994104 -0.44753341772288191 0 -0.49089396874970598 -0.42474216348446753 0 -0.5 -0.44594868528917331 0 -0.49089396874970598 -0.42474216348446753 0 -0.5 -0.42394979726761312 0 -0.49089396874970598 -0.42474216348446753 0 -0.5 -0.42394979726761312 0 -0.50000000000000089 -0.4019509092460527 0 -0.49089396874970598 -0.42474216348446753 0 -0.50000000000000089 -0.4019509092460527 0 -0.49089396874970598 -0.42474216348446753 0 -0.48706428208760322 -0.40999730651633981 0 -0.50000000000000089 -0.4019509092460527 0 -0.49089396874970598 -0.42474216348446753 0 -0.48706428208760322 -0.40999730651633981 0 -0.47095899545819958 -0.42960750318798141 0 -0.48706428208760322 -0.40999730651633981 0 -0.47191957110388938 -0.40834956983828402 0 -0.47095899545819958 -0.42960750318798141 0 -0.4817879374994104 -0.44753341772288191 0 -0.49089396874970598 -0.42474216348446753 0 -0.47095899545819958 -0.42960750318798141 0 -0.5 -0.37568906657004569 0 -0.48583628735925299 -0.37960671214745489 0 -0.49382661274363687 -0.39450787758664713 0 -0.48583628735925299 -0.37960671214745489 0 -0.49382661274363687 -0.39450787758664713 0 -0.47798571564617498 -0.39002281221069418 0 -0.5 -0.37568906657004569 0 -0.49382661274363687 -0.39450787758664713 0 -0.50000000000000089 -0.4019509092460527 0 -0.48706428208760322 -0.40999730651633981 0 -0.49382661274363687 -0.39450787758664713 0 -0.50000000000000089 -0.4019509092460527 0 -0.47191957110388938 -0.40834956983828402 0 -0.49382661274363687 -0.39450787758664713 0 -0.48706428208760322 -0.40999730651633981 0 -0.47191957110388938 -0.40834956983828402 0 -0.49382661274363687 -0.39450787758664713 0 -0.47191957110388938 -0.40834956983828402 0 -0.49382661274363687 -0.39450787758664713 0 -0.47798571564617498 -0.39002281221069418 0 -0.47191957110388938 -0.40834956983828402 0 -0.47798571564617498 -0.39002281221069418 0 -0.46232391230917158 -0.38919508961274729 0 -0.47798571564617498 -0.39002281221069418 0 -0.47202019965601361 -0.3752839670407136 0 -0.46232391230917158 -0.38919508961274729 0 -0.48583628735925299 -0.37960671214745489 0 -0.47798571564617498 -0.39002281221069418 0 -0.47202019965601361 -0.3752839670407136 0 -0.46232391230917158 -0.38919508961274729 0 -0.44374699910085602 -0.38742659975694399 0 -0.45388640445344219 -0.37246978923304602 0 -0.47202019965601361 -0.3752839670407136 0 -0.46232391230917158 -0.38919508961274729 0 -0.45388640445344219 -0.37246978923304602 0 -0.47191957110388938 -0.40834956983828402 0 -0.46232391230917158 -0.38919508961274729 0 -0.44773163690291062 -0.39947583229557287 0 -0.46232391230917158 -0.38919508961274729 0 -0.44773163690291062 -0.39947583229557287 0 -0.44374699910085602 -0.38742659975694399 0 -0.44773163690291062 -0.39947583229557287 0 -0.43798735645825049 -0.40078538447655471 0 -0.44066245312404573 -0.39509432345749951 0 -0.44773163690291062 -0.39947583229557287 0 -0.43798735645825049 -0.40078538447655471 0 -0.43687714955835238 -0.41013338510841768 0 -0.44773163690291062 -0.39947583229557287 0 -0.44066245312404573 -0.39509432345749951 0 -0.44374699910085602 -0.38742659975694399 0 -0.44066245312404573 -0.39509432345749951 0 -0.44374699910085602 -0.38742659975694399 0 -0.43318382003416578 -0.39268947730092618 0 -0.44374699910085602 -0.38742659975694399 0 -0.45388640445344219 -0.37246978923304602 0 -0.4370595403563417 -0.3735943461158322 0 -0.4481770300823823 -0.4396558994993755 0 -0.47095899545819958 -0.42960750318798141 0 -0.450012
[...]
<PointData Scalars="" Vectors="displacement," Tensors="">
<DataArray type="Float64" Name="displacement" NumberOfComponents="3" format="ascii">
-0.034997831046220659 -7.4443443219254159e-07 0 -0.034951440248666421 8.5300687526520477e-06 0 -0.035001006978984749 3.6202089603038194e-07 0 -0.034852916118010918 9.1051245243957089e-07 0 -0.033294039735571178 3.1746884349839992e-05 0 -0.033301855186601732 -8.6996272058836053e-07 0 -0.034857675080068644 1.1240488300351265e-06 0 -0.034997831046220659 -7.4443443219254159e-07 0 -0.034951440248666421 8.5300687526520477e-06 0 -0.034853873732783335 -9.6005773551605223e-08 0 -0.034146522541244756 -6.6045383161281141e-05 0 -0.034969135882187967 1.6115305394528135e-05 0 -0.034971135965567564 2.6527556152759054e-05 0 -0.035001006978984749 3.6202089603038194e-07 0 -0.034969135882187967 1.6115305394528135e-05 0 -0.034951440248666421 8.5300687526520477e-06 0 -0.035001006978984749 3.6202089603038194e-07 0 -0.034123356548988931 0.00010525732268876195 0 -0.035000477274869497 -2.2211040078071481e-07 0 -0.032834928963416388 -8.9393197830480651e-05 0 -0.033294039735571178 3.1746884349839992e-05 0 -0.032890839720634099 -0.00012769593968010704 0 -0.034969135882187967 1.6115305394528135e-05 0 -0.034963961986719562 3.0633759012026519e-05 0 -0.034951440248666421 8.5300687526520477e-06 0 -0.033570890940211755 0.00019823923205282589 0 -0.034146522541244756 -6.6045383161281141e-05 0 -0.034969135882187967 1.6115305394528135e-05 0 -0.034963961986719562 3.0633759012026519e-05 0 -0.034971135965567564 2.6527556152759054e-05 0 -0.033311751876111143 0.00031696847254527807 0 -0.033318556328519967 0.00031421211262165779 0 -0.033314405784948202 0.0003234360709266436 0 -0.033570890940211755 0.00019823923205282589 0 -0.034123356548988931 0.00010525732268876195 0 -0.033294039735571178 3.1746884349839992e-05 0 -0.03293117929457224 -9.7507298419899929e-05 0 -0.032890839720634099 -0.00012769593968010704 0 -0.033294039735571178 3.1746884349839992e-05 0 -0.03293117929457224 -9.7507298419899929e-05 0 -0.033301855186601732 -8.6996272058836053e-07 0 -0.03293117929457224 -9.7507298419899929e-05 0 -0.033301855186601732 -8.6996272058836053e-07 0 -0.031751406957312635 8.7612880797993703e-07 0 -0.03293117929457224 -9.7507298419899929e-05 0 -0.031751406957312635 8.7612880797993703e-07 0 -0.032664183720521461 -6.1636187521083735e-05 0 -0.031751406957312635 8.7612880797993703e-07 0 -0.032664183720521461 -6.1636187521083735e-05 0 -0.03240875910005421 0.00035844210587378098 0 -0.031901859639649158 -0.00016853978910538671 0 -0.030258076965070747 0.0013618370074815725 0 -0.032664183720521461 -6.1636187521083735e-05 0 -0.032922442967987825 0.00010584746684754259 0 -0.03266566449640964 0.00025694751545335897 0 -0.032664183720521461 -6.1636187521083735e-05 0 -0.032890839720634099 -0.00012769593968010704 0 -0.032922442967987825 0.00010584746684754259 0 -0.03293117929457224 -9.7507298419899929e-05 0 -0.032664183720521461 -6.1636187521083735e-05 0 -0.032890839720634099 -0.00012769593968010704 0 -0.033043819504988574 -0.00018267487699710148 0 -0.032890839720634099 -0.00012769593968010704 0 -0.033000931205776948 -7.1736206655964184e-05 0 -0.033000931205776948 -7.1736206655964184e-05 0 -0.033156630999796891 -6.4821606982467836e-05 0 -0.032922442967987825 0.00010584746684754259 0 -0.033570890940211755 0.00019823923205282589 0 -0.032949730736863136 9.1511918543295094e-05 0 -0.032890839720634099 -0.00012769593968010704 0 -0.033000931205776948 -7.1736206655964184e-05 0 -0.032922442967987825 0.00010584746684754259 0 -0.033156630999796891 -6.4821606982467836e-05 0 -0.032922442967987825 0.00010584746684754259 0 -0.033100218055755783 0.00042837084766875389 0 -0.032471873384569423 0.00047628664905186176 0 -0.028598033551179482 0.0023522025527581286 0 -0.034123356548988931 0.00010525732268876195 0 -0.032471873384569423 0.00047628664905186176 0 -0.033570890940211755 0.00019823923205282589 0 -0.032471873384569423 0.00047628664905186176 0 -0.033043819504988574 -0.00018267487699710148 0 -0.033000931205776948 -7.1736206655964184e-05 0 -0.033156630999796891 -6.4821606982467836e-05 0 -0.028598033551179482 0.0023522025527581286 0 -0.030258076965070747 0.0013618370074815725 0 -0.032922442967987825 0.00010584746684754259 0 -0.033100218055755783 0.00042837084766875389 0 -0.03266566449640964 0.00025694751545335897 0 -0.031748263895569187 5.8799508396914384e-07 0 -0.031126394244147402 8.8116471630738212e-06 0 -0.030277693231490734 -5.5865199868001328e-07 0 -0.02556232804921876 0.0036893829834398445 0 -0.026656679320996187 0.004096707533283425 0 -0.026613742803788011 0.0030314134983662104 0 -0.030258076965070747 0.0013618370074815725 0 -0.028410038556791441 0.0015032796664088204 0 -0.031126394244147402 8.8116471630738212e-06 0 -0.030277693231490734 -5.5865199868001328e-07 0 -0.030203880025525435 4.7186058587186125e-06 0 -0.03174925610807397 1.3466367188654876e-06 0 -0.030258076965070747 0.0013618370074815725 0 -0.034136670920617361 0.00091086226321982627 0 -0.033755798284705173 0.00092825625477551354 0 -0.034033949690379935 0.0012765568261497093 0 -0.029886699095706962 0.0015892588313994721 0 -0.029887328254105526 0.0014568718259304753 0 -0.029689589694480996 0.0013814950067586344 0 -0.032071575411909602 0.0014240542285078623 0 -0.029225618552198396 0.0017110860554321898 0 -0.030075684442143934 0.0017771891485744461 0 -0.030074954675875974 0.0015331693423760158 0 -0.029886699095706962 0.0015892588313994721 0 -0.030074954675875974 0.0015331693423760158 0 -0.029886699095706962 0.0015892588313994721 0 -0.029887328254105526 0.0014568718259304753 0 -0.028598033551179482 0.0023522025527581286 0 -0.026699804563870843 0.0023645076322411315 0 -0.033485067792597564 0.00038223508765505637 0 -0.033465360230284631 0.00057600867665799898 0 -0.03382347479862563 0.00051219362728199878 0 -0.032471873384569423 0.00047628664905186176 0 -0.032071575411909602 0.0014240542285078623 0 -0.033465360230284631 0.00057600867665799898 0 -0.033755798284705173 0.00092825625477551354 0 -0.03382347479862563 0.00051219362728199878 0 -0.034136670920617361 0.00091086226321982627 0 -0.03382347479862563 0.00051219362728199878 0 -0.03438383102573471 0.00042759941587062859 0 -0.034136670920617361 0.00091086226321982627 0 -0.033755798284705173 0.00092825625477551354 0 -0.03382347479862563 0.00051219362728199878 0 -0.03382347479862563 0.00051219362728199878 0 -0.033993946098033488 0.00019228190669001805 0 -0.03438383102573471 0.00042759941587062859 0 -0.034123356548988931 0.00010525732268876195 0 -0.03451360863256276 0.00010560736581506897 0 -0.033485067792597564 0.00038223508765505637 0 -0.03382347479862563 0.00051219362728199878 0 -0.033993946098033488 0.00019228190669001805 0 -0.034996351193076335 4.1533320840769458e-06 0 -0.03499997570638342 -7.7385735904882241e-10 0 -0.035000000992202331 2.7843336690324473e-09 0 -0.034985155210691329 9.5807490706139133e-06 0 -0.034996351193076335 4.1533320840769458e-06 0 -0.03499997570638342 -7.7385735904882241e-10 0 -0.034996351193076335 4.1533320840769458e-06 0 -0.035000000992202331 2.7843336690324473e-09 0 -0.034999371350171254 7.242468039033053e-07 0 -0.03451360863256276 0.00010560736581506897 0 -0.034744960814519096 2.5100878086894869e-05 0 -0.035000000992202331 2.7843336690324473e-09 0 -0.034999371350171254 7.242468039033053e-07 0 -0.034999997324662822 7.3314562924504391e-10 0 -0.034999371350171254 7.242468039033053e-07 0 -0.034999997324662822 7.3314562924504391e-10 0 -0.035000000639813046 -4.7241481008906496e-10 0 -0.034744960814519096 2.5100878086894869e-05 0 -0.034999922766622817 -4.1743219203752633e-09 0 -0.034508162092923129 3.3738196544355323e-05 0 -0.034809561944241001 0.00013409687481539327 0 -0.034999633382895273 -1.6250036955489477e-07 0 -0.034508162092923129 3.3738196544355323e-05 0 -0.034809561944241001 0.00013409687481539327 0 -0.03438383102573471 0.00042759941587062859 0 -0.034809561944241001 0.00013409687481539327 0 -0.03483279127133157 0.00040093720625084423 0 -0.03438383102573471 0.00042759941587062859 0 -0.033993946098033488 0.00019228190669001805 0 -0.034508162092923129 3.3738196544355323e-05 0 -0.03438383102573471 0.00042759941587062859 0 -0.035000015032164607 5.9417673071579407e-08 0 -0.034958710468103484 1.4036996294551881e-05 0 -0.034988754606816372 1.0232683348993749e-05 0 -0.034958710468103484 1.4036996294551881e-05 0 -0.034988754606816372 1.0232683348993749e-05 0 -0.03491246999355526 2.2265525207501599e-05 0 -0.035000015032164607 5.9417673071579407e-08 0 -0.034988754606816372 1.0232683348993749e-05 0 -0.034999633382895273 -1.6250036955489477e-07 0 -0.034809561944241001 0.00013409687481539327 0 -0.034988754606816372 1.0232683348993749e-05 0 -0.034999633382895273 -1.6250036955489477e-07 0 -0.034721334423509553 0.0002691549424992282 0 -0.034989945582548136 4.1238894952942653e-06 0 -0.034809561944241001 0.00013409687481539327 0 -0.03483279127133157 0.00040093720625084423 0 -0.034988754606816372 1.0232683348993749e-05 0 -0.03476356975337979 2.0277763593893359e-05 0 -0.034988754606816372 1.0232683348993749e-05 0 -0.03491246999355526 2.2265525207501599e-05 0 -0.03476356975337979 2.0277763593893359e-05 0 -0.03491246999355526 2.2265525207501599e-05 0 -0.034869773128760113 8.170419130025514e-05 0 -0.03491246999355526 2.2265525207501599e-05 0 -0.034935448971973204 4.4465739349680236e-05 0 -0.034869773128760113 8.170419130025514e-05 0 -0.034958710468103484 1.4036996294551881e-05 0 -0.03491246999355526 2.2265525207501599e-05 0 -0.034935448971973204 4.4465739349680236e-05 0 -0.034869773128760113 8.170419130025514e-05 0 -0.03484376207056563 0.00018353635968616549 0 -0.034917358732156005 0.00010840276917704691 0 -0.034935448971973204 4.4465739349680236e-05 0 -0.034869773128760113 8.170419130025514e-05 0 -0.034917358732156005 0.00010840276917704691 0 -0.03476356975337979 2.0277763593893359e-05 0 -0.034869773128760113 8.170419130025514e-05 0 -0.03476802634265292 0.00016880424638804136 0 -0.034869773128760113 8.170419130025514e-05 0 -0.03476802634265292 0.00016880424638804136 0 -0.03484376207056563 0.00018353635968616549 0 -0.03476802634265292 0.00016880424638804136 0 -0.034734840813515418 0.00024557558625156898 0 -0.034787558411192028 0.0002166963875400704 0 -0.03476802634265292 0.00016880424638804136 0 -0.034734840813515418 0.00024557558625156898 0 -0.034646447158087977 0.00026677071255254008 0 -0.03476802634265292 0.00016880424638804136 0 -0.034787558411192028 0.0002166963875400704 0 -0.03484376207056563 0.00018353635968616549 0 -0.034787558411192028 0.0002166963875400704 0 -0.03484376207056563 0.00018353635968616549 0 -0.03480203336273327 0.00027572716926080592 0 -0.03484376207056563 0.00018353635968616549 0 -0.034917358732156005 0.00010840276917704691 0 -0.034908738846353413 0.00020086365520992594 0 -0.034136670920617361 0.00091086226321982627 0 -0.03438383102573471 0.00042759941587062859 0 -0.034525188543231805 0.00086962651466381512 0 -0.034721334423509553 0.0002691549424992282 0 -0.03497816053738987 0.00037132633830152492 0 -0.03483279127133157 0.00040093720625084423 0 -0.03438383102573471 0.00042759941587062859 0 -0.034525188543231805 0.00086962651466381512 0 -0.03476356975337979 2.0277763593893359e-05 0 -0.03476802634265292 0.00016880424638804136 0 -0.034554612855291107 0.00014970141599930935 0 -0.03476802634265292 0.00016880424638804136 0 -0.034554612855291107 0.00014970141599930935 0 -0.034646447158087977 0.00026677071255254008 0 -0.034554612855291107 0.00014970141599930935 0 -0.034520692545559374 0.00030326721432964341 0 -0.034646447158087977 0.00026677071255254008 0 -0.034136670920617361 0.00091086226321982627 0 -0.034525188543231805 0.00086962651466381512 0 -0.034189331296223868 0.001339312206782059 0 -0.03497816053738987 0.00037132633830152492 0 -0.031220753109606918 0.00083161423276505175 0 -0.028603380076857168 0.00096791371067185149 0 -0.028719205332409719 0.0010064647724320069 0 -0.028641355668265506 0.0010327247958244058 0 -0.034335982148844944 0.00036804352834638723 0 -0.034520692545559374 0.00030326721432964341 0 -0.034540407521636278 0.00043997208126800367 0 -0.034554612855291107 0.00014970141599930935 0 -0.034335982148844944 0.00036804352834638723 0 -0.034520692545559374 0.00030326721432964341 0 -0.031220753109606918 0.00083161423276505175 0 -0.030807626367551105 0.0008969272991299072 0 -0.028603380076857168 0.00096791371067185149 0 -0.028641355668265506 0.0010327247958244058 0 -0.028590416053521431 0.00098740694040204001 0 -0.031220753109606918 0.00083161423276505175 0 -0.027542922830102377 0.0018286364412734338 0 -0.034520692545559374 0.00030326721432964341 0 -0.034646447158087977 0.00026677071255254008 0 -0.034540407521636278 0.00043997208126800367 0 -0.034646447158087977 0.00026677071255254008 0 -0.034540407521636278 0.00043997208126800367 0 -0.034813423406154557 0.00029855539150249307 0 -0.02868349130679199 0.00098573962076741167 0 -0.028727026088981367 0.0010023326091270605 0 -0.028960211775693689 0.00085910769752271213 0 -0.030807626367551105 0.0008969272991299072 0 -0.029667570446901149 0.00064596893135153736 0 -0.028695637936113596 0.0010009015759064048 0 -0.028705732126255757 0.0010372416616791049 0 -0.028727026088981367 0.0010023326091270605 0 -0.028695637936113596 0.0010009015759064048 0 -0.028705732126255757 0.0010372416616791049 0 -0.028678822572312558 0.0010369944794197089 0 -0.028705732126255757 0.0010372416616791049 0 -0.028678822572312558 0.0010369944794197089 0 -0.028677046154462073 0.0010658432373524176 0 -0.028727026088981367 0.0010023326091270605 0 -0.02876430700831388 0.0010420949242597895 0 -0.028844938826193611 0.0010083867990250167 0 -0.028705732126255757 0.0010372416616791049 0 -0.028727026088981367 0.0010023326091270605 0 -0.02876430700831388 0.0010420949242597895 0 -0.02876430700831388 0.0010420949242597895 0 -0.02876593883554189 0.0011017897318629094 0 -0.028705081063803799 0.0010832101831862444 0 -0.028705732126255757 0.0010372416616791049 0 -0.02876430700831388 0.0010420949242597895 0 -0.028705081063803799 0.0010832101831862444 0 -0.02876593883554189 0.0011017897318629094 0 -0.028705081063803799 0.0010832101831862444 0 -0.028662448650033642 0.001120003965814275 0 -0.028705732126255757 0.0010372416616791049 0 -0.028677046154462073 0.0010658432373524176 0 -0.028705081063803799 0.0010832101831862444 0 -0.028677046154462073 0.0010658432373524176 0 -0.028705081063803799 0.0010832101831862444 0 -0.028662448650033642 0.001120003965814275 0 -0.023079406985571739 0.0024740130775964798 0 -0.023223465671641734 0.0026769676548768994 0 -0.023259847079014458 0.0025381351956340896 0 -0.024177700060149299 0.0025751624946239904 0 -0.027542922830102377 0.0018286364412734338 0 -0.028677046154462073 0.0010658432373524176 0 -0.028641355668265506 0.0010327247958244058 0 -0.028662448650033642 0.001120003965814275 0 -0.028641355668265506 0.0010327247958244058 0 -0.028662448650033642 0.001120003965814275 0 -0.028590416053521431 0.00098740694040204001 0 -0.023079406985571739 0.0024740130775964798 0 -0.023223465671641734 0.0026769676548768994 0 -0.023210567114920939 0.0027041398297865909 0 -0.030807626367551105 0.0008969272991299072 0 -0.028543723532218148 0.0013110858204171774 0 -0.028695637936113596 0.0010009015759064048 0 -0.028678822572312558 0.0010369944794197089 0 -0.028641355668265506 0.0010327247958244058 0 -0.028678822572312558 0.0010369944794197089 0 -0.028677046154462073 0.0010658432373524176 0 -0.028641355668265506 0.0010327247958244058 0 -0.032270024161232334 6.4548833295627358e-05 0 -0.033960253821345543 -0.00017816023390080862 0 -0.03206186975969303 -0.00023594579758604679 0 -0.032756405636349663 4.251479949664002e-05 0 -0.032682735998849494 -0.00045732160376554218 0 -0.03206186975969303 -0.00023594579758604679 0 -0.032420311186952246 0.00033351783328766595 0 -0.032756405636349663 4.251479949664002e-05 0 -0.03484376207056563 0.00018353635968616549 0 -0.034809779083864123 0.00028788831919665102 0 -0.034908738846353413 0.00020086365520992594 0 -0.032270024161232334 6.4548833295627358e-05 0 -0.03062880616261341 0.00062770950169779686 0 -0.03484376207056563 0.00018353635968616549 0 -0.034809779083864123 0.00028788831919665102 0 -0.03480203336273327 0.00027572716926080592 0 -0.034734840813515418 0.00024557558625156898 0 -0.034646447158087977 0.00026677071255254008 0 -0.034813423406154557 0.00029855539150249307 0 -0.030807626367551105 0.0008969272991299072 0 -0.032270024161232334 6.4548833295627358e-05 0 -0.028727026088981367 0.0010023326091270605 0 -0.028960211775693689 0.00085910769752271213 0 -0.028844938826193611 0.0010083867990250167 0 -0.034734840813515418 0.00024557558625156898 0 -0.034813423406154557 0.00029855539150249307 0 -0.03480203336273327 0.00027572716926080592 0 -0.034734840813515418 0.00024557558625156898 0 -0.034787558411192028 0.0002166963875400704 0 -0.03480203336273327 0.00027572716926080592 0 -0.032270024161232334 6.4548833295627358e-05 0 -0.032615871290600118 0.00032369144527769636 0 -0.028960211775693689 0.00085910769752271213 0 -0.028844938826193611 0.0010083867990250167 0 -0.029071112908912448 0.0010271138140065163 0 -0.028844938826193611 0.0010083867990250167 0 -0.028876848782118356 0.0011184767477491313 0 -0.029071112908912448 0.0010271138140065163 0 -0.02876593883554189 0.0011017897318629094 0 -0.028844938826193611 0.0010083867990250167 0 -0.028876848782118356 0.0011184767477491313 0 -0.02876430700831388 0.0010420949242597895 0 -0.02876593883554189 0.0011017897318629094 0 -0.028844938826193611 0.0010083867990250167 0 -0.03062880616261341 0.00062770950169779686 0 -0.031219739965940359 0.00077710541662845097 0 -0.028876848782118356 0.0011184767477491313 0 -0.028869767738515285 0.001220140027181602 0 -0.028957199756771568 0.0012047052363966932 0 -0.028876848782118356 0.0011184767477491313 0 -0.029071112908912448 0.0010271138140065163 0 -0.029193157806263855 0.001302927689100581 0 -0.02870872532079434 0.0010966618599536977 0 -0.029560810776625254 0.0012102578610225011 0 -0.028876848782118356 0.0011184767477491313 0 -0.028869767738515285 0.001220140027181602 0 -0.028794955666954912 0.0011692821559707493 0 -0.028869767738515285 0.001220140027181602 0 -0.028794955666954912 0.0011692821559707493 0 -0.028762047653906823 0.0012531466984228848 0 -0.02876593883554189 0.0011017897318629094 0 -0.028876848782118356 0.0011184767477491313 0 -0.028794955666954912 0.0011692821559707493 0 -0.025253577860992062 0.0024241979703954978 0 -0.024068905694943053 0.0024998334823990048 0 -0.028762047653906823 0.0012531466984228848 0 -0.028874369197300756 0.0013112927699512637 0 -0.028826435160246983 0.0013500832660932412 0 -0.028869767738515285 0.001220140027181602 0 -0.028762047653906823 0.0012531466984228848 0 -0.028874369197300756 0.0013112927699512637 0 -0.028874369197300756 0.0013112927699512637 0 -0.028931027789644979 0.001225341186498621 0 -0.028919791233130772 0.0012786337192575619 0 -0.028869767738515285 0.001220140027181602 0 -0.028874369197300756 0.0013112927699512637 0 -0.028957199756771568 0.0012047052363966932 0 -0.028755316590655364 0.0013720262057342872 0 -0.029560810776625254 0.0012102578610225011 0 -0.028874369197300756 0.0013112927699512637 0 -0.028932886656765942 0.0013063332478110295 0 -0.028919791233130772 0.0012786337192575619 0 -0.023079406985571739 0.0024740130775964798 0 -0.023142989189544255 0.0023906407733657888 0 -0.023216083249908339 0.0024580195237701445 0 -0.023079406985571739 0.0024740130775964798 0 -0.023216083249908339 0.0024580195237701445 0 -0.023259847079014458 0.0025381351956340896 0 -0.025253577860992062 0.0024241979703954978 0 -0.024177700060149299 0.0025751624946239904 0 -0.02876593883554189 0.0011017897318629094 0 -0.028794955666954912 0.0011692821559707493 0 -0.028662448650033642 0.001120003965814275 0 -0.028794955666954912 0.0011692821559707493 0 -0.028762047653906823 0.0012531466984228848 0 -0.028662448650033642 0.001120003965814275 0 -0.024177700060149299 0.0025751624946239904 0 -0.022065551783052136 0.0030051895474852231 0 -0.021278770689772138 0.0035104204300808344 0