<?xml version="1.0"?>
<VTKFile type="UnstructuredGrid" version="0.1" byte_order="LittleEndian">
<UnstructuredGrid>
<Piece NumberOfPoints="30691" NumberOfCells="10767">
<Points>
<DataArray type="Float64" NumberOfComponents="3" format="ascii">
-0.5 -0.5 0 -0.48216281592077442 -0.48571285339996462 0 -0.45842443978151959 -0.49999999999999828 0 -0.5 -0.5 0 -0.49999999999999939 -0.47531105474748753 0 -0.48216281592077442 -0.48571285339996462 0 -0.49999999999999939 -0.47531105474748753 0 -0.48555318342068449 -0.47235179649674369 0 -0.49183024482098381 -0.45900765100713559 0 -0.49999999999999939 -0.47531105474748753 0 -0.48555318342068449 -0.47235179649674369 0 -0.48216281592077442 -0.48571285339996462 0 -0.48555318342068449 -0.47235179649674369 0 -0.48216281592077442 -0.48571285339996462 0 -0.46683645640166949 -0.48090141575559331 0 -0.48555318342068449 -0.47235179649674369 0 -0.46683645640166949 -0.48090141575559331 0 -0.47524847302182011 -0.46180283151118862 0 -0.46683645640166949 -0.48090141575559331 0 -0.47524847302182011 -0.46180283151118862 0 -0.48216281592077442 -0.48571285339996462 0 -0.45842443978151959 -0.49999999999999828 0 -0.46683645640166949 -0.48090141575559331 0 -0.45842443978151959 -0.49999999999999828 0 -0.46683645640166949 -0.48090141575559331 0 -0.44820925517279397 -0.4848885738413693 0 -0.45842443978151959 -0.49999999999999828 0 -0.46683645640166949 -0.48090141575559331 0 -0.46683645640166949 -0.48090141575559331 0 -0.46278695247462098 -0.46442931189317871 0 -0.47524847302182011 -0.46180283151118862 0 -0.46683645640166949 -0.48090141575559331 0 -0.451106912343755 -0.46930691124995388 0 -0.44820925517279397 -0.4848885738413693 0 -0.46683645640166949 -0.48090141575559331 0 -0.451106912343755 -0.46930691124995388 0 -0.46278695247462098 -0.46442931189317871 0 -0.43804332625156411 -0.47448879739108052 0 -0.44820925517279397 -0.4848885738413693 0 -0.43074504090164661 -0.48735373791573111 0 -0.451106912343755 -0.46930691124995388 0 -0.43804332625156411 -0.47448879739108052 0 -0.44820925517279397 -0.4848885738413693 0 -0.43912616964890278 -0.50000000000000122 0 -0.44820925517279397 -0.4848885738413693 0 -0.43074504090164661 -0.48735373791573111 0 -0.45842443978151959 -0.49999999999999828 0 -0.43912616964890278 -0.50000000000000122 0 -0.44820925517279397 -0.4848885738413693 0 -0.44908769035877971 -0.44262669619498929 0 -0.43192885632488731 -0.45305132985212798 0 -0.44908769035877971 -0.44262669619498929 0 -0.43779151068523348 -0.4561872881168878 0 -0.43192885632488731 -0.45305132985212798 0 -0.44908769035877971 -0.44262669619498929 0 -0.43192885632488731 -0.45305132985212798 0 -0.43564143060283461 -0.4420933588212243 0 -0.44908769035877971 -0.44262669619498929 0 -0.45223104190628582 -0.45594097656917498 0 -0.45321910921607472 -0.43766710040231482 0 -0.44908769035877971 -0.44262669619498929 0 -0.43779151068523348 -0.4561872881168878 0 -0.45223104190628582 -0.45594097656917498 0 -0.44908769035877971 -0.44262669619498929 0 -0.45321910921607472 -0.43766710040231482 0 -0.44191668621251567 -0.43620765238810433 0 -0.44908769035877971 -0.44262669619498929 0 -0.45321910921607472 -0.43766710040231482 0 -0.44908769035877971 -0.44262669619498929 0 -0.44191668621251567 -0.43620765238810433 0 -0.43564143060283461 -0.4420933588212243 0 -0.44908769035877971 -0.44262669619498929 0 -0.43779151068523348 -0.4561872881168878 0 -0.451106912343755 -0.46930691124995388 0 -0.43804332625156411 -0.47448879739108052 0 -0.43779151068523348 -0.4561872881168878 0 -0.451106912343755 -0.46930691124995388 0 -0.43779151068523348 -0.4561872881168878 0 -0.45223104190628582 -0.45594097656917498 0 -0.45223104190628582 -0.45594097656917498 0 -0.46278695247462098 -0.46442931189317871 0 -0.4642332923775962 -0.45390774962625369 0 -0.451106912343755 -0.46930691124995388 0 -0.45223104190628582 -0.45594097656917498 0 -0.46278695247462098 -0.46442931189317871 0 -0.46278695247462098 -0.46442931189317871 0 -0.4642332923775962 -0.45390774962625369 0 -0.47524847302182011 -0.46180283151118862 0 -0.4642332923775962 -0.45390774962625369 0 -0.46813588861297351 -0.43813231181786999 0 -0.45321910921607472 -0.43766710040231482 0 -0.45223104190628582 -0.45594097656917498 0 -0.4642332923775962 -0.45390774962625369 0 -0.45321910921607472 -0.43766710040231482 0 -0.4642332923775962 -0.45390774962625369 0 -0.45321910921607472 -0.43766710040231482 0 -0.4642332923775962 -0.45390774962625369 0 -0.46813588861297351 -0.43813231181786999 0 -0.48366048964196928 -0.44270424726678309 0 -0.48366048964196928 -0.44270424726678309 0 -0.47524847302182011 -0.46180283151118862 0 -0.4642332923775962 -0.45390774962625369 0 -0.48366048964196928 -0.44270424726678309 0 -0.47524847302182011 -0.46180283151118862 0 -0.48555318342068449 -0.47235179649674369 0 -0.47524847302182011 -0.46180283151118862 0 -0.49183024482098381 -0.45900765100713559 0 -0.48366048964196928 -0.44270424726678309 0 -0.47524847302182011 -0.46180283151118862 0 -0.49183024482098381 -0.45900765100713559 0 -0.49999999999999939 -0.47531105474748753 0 -0.49183024482098381 -0.45900765100713559 0 -0.49999999999999939 -0.47531105474748753 0 -0.49183024482098381 -0.45900765100713559 0 -0.5 -0.45207641522247571 0 -0.48366048964196928 -0.44270424726678309 0 -0.49183024482098381 -0.45900765100713559 0 -0.5 -0.45207641522247571 0 -0.48366048964196928 -0.44270424726678309 0 -0.5 -0.45207641522247571 0 -0.5 -0.42884177569746379 0 -0.48366048964196928 -0.44270424726678309 0 -0.49183024482098381 -0.45900765100713559 0 -0.48366048964196928 -0.44270424726678309 0 -0.49183024482098398 -0.42415569171961759 0 -0.48366048964196928 -0.44270424726678309 0 -0.5 -0.42884177569746379 0 -0.49183024482098398 -0.42415569171961759 0 -0.49183024482098398 -0.42415569171961759 0 -0.4999999999999985 -0.40560713617245198 0 -0.49183024482098398 -0.42415569171961759 0 -0.4885645101329445 -0.41164381937589722 0 -0.4999999999999985 -0.40560713617245198 0 -0.5 -0.42884177569746379 0 -0.49183024482098398 -0.42415569171961759 0 -0.4999999999999985 -0.40560713617245198 0 -0.4885645101329445 -0.41164381937589722 0 -0.4706503991032579 -0.41674156489706388 0 -0.48532519955163222 -0.39912507984046403 0 -0.4706503991032579 -0.41674156489706388 0 -0.48532519955163222 -0.39912507984046403 0 -0.49183024482098398 -0.42415569171961759 0 -0.4885645101329445 -0.41164381937589722 0 -0.4706503991032579 -0.41674156489706388 0 -0.48366048964196928 -0.44270424726678309 0 -0.49183024482098398 -0.42415569171961759 0 -0.4706503991032579 -0.41674156489706388 0 -0.48366048964196928 -0.44270424726678309 0 -0.4706503991032579 -0.41674156489706388 0 -0.46813588861297351 -0.43813231181786999 0 -0.48366048964196928 -0.44270424726678309 0 -0.4706503991032579 -0.41674156489706388 0 -0.50000000000000344 -0.38150859478386118 0 -0.48532519955163222 -0.39912507984046403 0 -0.50000000000000344 -0.38150859478386118 0 -0.48532519955163222 -0.39912507984046403 0 -0.47508586372172279 -0.38369353400062273 0 -0.50000000000000344 -0.38150859478386118 0 -0.47508586372172279 -0.38369353400062273 0 -0.48689276114568553 -0.36919331198829658 0 -0.50000000000000344 -0.38150859478386118 0 -0.4999999999999985 -0.40560713617245198 0 -0.48532519955163222 -0.39912507984046403 0 -0.4885645101329445 -0.41164381937589722 0 -0.4999999999999985 -0.40560713617245198 0 -0.48532519955163222 -0.39912507984046403 0 -0.4706503991032579 -0.41674156489706388 0 -0.48532519955163222 -0.39912507984046403 0 -0.47276878924667443 -0.39876883601629848 0 -0.47276878924667443 -0.39876883601629848 0 -0.47508586372172279 -0.38369353400062273 0 -0.46001369461008329 -0.39551516532704228 0 -0.48532519955163222 -0.39912507984046403 0 -0.47276878924667443 -0.39876883601629848 0 -0.47508586372172279 -0.38369353400062273 0 -0.47508586372172279 -0.38369353400062273 0 -0.46001369461008329 -0.39551516532704228 0 -0.44937699011690929 -0.37428876575702053 0 -0.46001369461008329 -0.39551516532704228 0 -0.44937699011690929 -0.37428876575702053 0 -0.46001369461008329 -0.39551516532704228 0 -0.4664770039474741 -0.41280612826142238 0 -0.44938045086109502 -0.40691195709770828 0 -0.4706503991032579 -0.41674156489706388 0 -0.47276878924667443 -0.39876883601629848 0 -0.46001369461008329 -0.39551516532704228 0 -0.4706503991032579 -0.41674156489706388 0 -0.46001369461008329 -0.39551516532704228 0 -0.46001369461008329 -0.39551516532704228 0 -0.44148282455571602 -0.39218440797595622 0 -0.44938045086109502 -0.40691195709770828 0 -0.44148282455571602 -0.39218440797595622 0 -0.44938045086109502 -0.40691195709770828 0 -0.43292682983736142 -0.40774569937684402 0 -0.44148282455571602 -0.39218440797595622 0 -0.44937699011690929 -0.37428876575702053 0 -0.42928435216051009 -0.37241845699578918 0 -0.46001369461008329 -0.39551516532704228 0 -0.44148282455571602 -0.39218440797595622 0 -0.44937699011690929 -0.37428876575702053 0 -0.45321910921607472 -0.43766710040231482 0 -0.4706503991032579 -0.41674156489706388 0 -0.46813588861297351 -0.43813231181786999 0 -0.45321910921607472 -0.43766710040231482 0 -0.4706503991032579 -0.41674156489706388 0 -0.45321910921607472 -0.43766710040231482 0 -0.4664770039474741 -0.41280612826142238 0 -0.44480916889500999 -0.42526646308353072 0 -0.45321910921607472 -0.43766710040231482 0 -0.4706503991032579 -0.41674156489706388 0 -0.4664770039474741 -0.41280612826142238 0 -0.4706503991032579 -0.41674156489706388 0 -0.46001369461008329 -0.39551516532704228 0 -0.4664770039474741 -0.41280612826142238 0 -0.4664770039474741 -0.41280612826142238 0 -0.44480916889500999 -0.42526646308353072 0 -0.4664770039474741 -0.41280612826142238 0 -0.44938045086109502 -0.40691195709770828 0 -0.44480916889500999 -0.42526646308353072 0 -0.44938045086109502 -0.40691195709770828 0 -0.44480916889500999 -0.42526646308353072 0 -0.43292682983736142 -0.40774569937684402 0 -0.44480916889500999 -0.42526646308353072 0 -0.43292682983736142 -0.40774569937684402 0 -0.45321910921607472 -0.43766710040231482 0 -0.44480916889500999 -0.42526646308353072 0 -0.44191668621251567 -0.4362076523
[...]
<PointData Scalars="" Vectors="displacement," Tensors="">
<DataArray type="Float64" Name="displacement" NumberOfComponents="3" format="ascii">
0.044996448304971695 0.044998546063876634 0 0.044516703384701629 0.04382759633672445 0 0.044999074561446792 0.041262678527777326 0 0.044996448304971695 0.044998546063876634 0 0.042785978508888843 0.04499842094798271 0 0.044516703384701629 0.04382759633672445 0 0.042785978508888843 0.04499842094798271 0 0.044090353958626101 0.043979629354056665 0 0.044822107306932618 0.044387141864305389 0 0.042785978508888843 0.04499842094798271 0 0.044090353958626101 0.043979629354056665 0 0.044516703384701629 0.04382759633672445 0 0.044090353958626101 0.043979629354056665 0 0.044516703384701629 0.04382759633672445 0 0.044712553898423463 0.042981946507434289 0 0.044090353958626101 0.043979629354056665 0 0.044712553898423463 0.042981946507434289 0 0.04466228687152906 0.043515368352590476 0 0.045137214736568308 0.041898143470631463 0 0.045760127278482193 0.042109678927147717 0 0.044516703384701629 0.04382759633672445 0 0.044999074561446792 0.041262678527777326 0 0.044712553898423463 0.042981946507434289 0 0.04499984799990165 0.041255620069555785 0 0.045861349242474564 0.04106989490249794 0 0.04572067665391992 0.040378212191946969 0 0.044999697893469047 0.041258388261532622 0 0.045137214736568308 0.041898143470631463 0 0.045861349242474564 0.04106989490249794 0 0.046182245221449238 0.040859206345957598 0 0.046266892486845616 0.040831798834911094 0 0.045861349242474564 0.04106989490249794 0 0.04609069927446683 0.04051263383983076 0 0.04572067665391992 0.040378212191946969 0 0.045861349242474564 0.04106989490249794 0 0.04609069927446683 0.04051263383983076 0 0.046182245221449238 0.040859206345957598 0 0.045965318512162949 0.04002875597770187 0 0.04572067665391992 0.040378212191946969 0 0.045552288777578831 0.039617266975914625 0 0.04609069927446683 0.04051263383983076 0 0.045965318512162949 0.04002875597770187 0 0.04572067665391992 0.040378212191946969 0 0.044999834554735794 0.039524042064051461 0 0.04572067665391992 0.040378212191946969 0 0.045552288777578831 0.039617266975914625 0 0.04499984799990165 0.041255620069555785 0 0.044999834554735794 0.039524042064051461 0 0.04572067665391992 0.040378212191946969 0 0.043144697735530799 0.040885388122138752 0 0.041467536167013465 0.040631509086160658 0 0.044057072934968848 0.040002032410789298 0 0.043891968141845122 0.039826347161350716 0 0.043933416299350513 0.039744153127433776 0 0.039435431318658572 0.041573642077448569 0 0.039324408573196509 0.04136645253072159 0 0.039437197304724635 0.041418914368362508 0 0.046672341056314411 0.040499260784236484 0 0.046312134342494801 0.040584709364945661 0 0.046800252555609774 0.04062157773421194 0 0.046672341056314411 0.040499260784236484 0 0.046383988480138846 0.040124990125624163 0 0.046312134342494801 0.040584709364945661 0 0.039435431318658572 0.041573642077448569 0 0.039483129077361068 0.041618551099408999 0 0.039491910317845019 0.041497761691128773 0 0.043144697735530799 0.040885388122138752 0 0.041595072929699113 0.042384156897413899 0 0.039435431318658572 0.041573642077448569 0 0.039491910317845019 0.041497761691128773 0 0.039437197304724635 0.041418914368362508 0 0.043144697735530799 0.040885388122138752 0 0.045232669656521604 0.040189986038572351 0 0.04609069927446683 0.04051263383983076 0 0.045965318512162949 0.04002875597770187 0 0.046383988480138846 0.040124990125624163 0 0.04609069927446683 0.04051263383983076 0 0.046383988480138846 0.040124990125624163 0 0.046312134342494801 0.040584709364945661 0 0.046312134342494801 0.040584709364945661 0 0.046182245221449238 0.040859206345957598 0 0.046227927099444975 0.040975215928106296 0 0.04609069927446683 0.04051263383983076 0 0.046312134342494801 0.040584709364945661 0 0.046182245221449238 0.040859206345957598 0 0.046182245221449238 0.040859206345957598 0 0.046227927099444975 0.040975215928106296 0 0.046266892486845616 0.040831798834911094 0 0.046227927099444975 0.040975215928106296 0 0.045463801577320599 0.040931421989096835 0 0.045421373572298564 0.041635360453301407 0 0.046312134342494801 0.040584709364945661 0 0.046227927099444975 0.040975215928106296 0 0.046800252555609774 0.04062157773421194 0 0.047634962311469832 0.040185314368333537 0 0.041595072929699113 0.042384156897413899 0 0.046227927099444975 0.040975215928106296 0 0.045463801577320599 0.040931421989096835 0 0.045692903169107756 0.04035533522187388 0 0.043306853279407712 0.044158337998845366 0 0.045760127278482193 0.042109678927147717 0 0.046227927099444975 0.040975215928106296 0 0.045692903169107756 0.04035533522187388 0 0.046266892486845616 0.040831798834911094 0 0.044090353958626101 0.043979629354056665 0 0.04466228687152906 0.043515368352590476 0 0.044822107306932618 0.044387141864305389 0 0.045627797091358065 0.043960723568675135 0 0.04466228687152906 0.043515368352590476 0 0.044822107306932618 0.044387141864305389 0 0.042778342612587797 0.044999939753253303 0 0.042897480357859903 0.04512309391390433 0 0.042777988861076734 0.044999997929526546 0 0.041314894188335567 0.04572837422961859 0 0.040686901183080507 0.044999990543712842 0 0.039861154000031408 0.046454942624631998 0 0.041314894188335567 0.04572837422961859 0 0.040686901183080507 0.044999990543712842 0 0.039861154000031408 0.046454942624631998 0 0.040686901183080507 0.044999990543712842 0 0.038595775810664708 0.044999988958148988 0 0.043306853279407712 0.044158337998845366 0 0.042897480357859903 0.04512309391390433 0 0.043306853279407712 0.044158337998845366 0 0.037749138549068743 0.04569508176944051 0 0.039861154000031408 0.046454942624631998 0 0.038595775810664708 0.044999988958148988 0 0.038176453915024854 0.045731430138558855 0 0.037749138549068743 0.04569508176944051 0 0.036505498434950504 0.045000322948064539 0 0.038205281101332568 0.045672881305838423 0 0.037058203450775713 0.045990924338077027 0 0.036504639750807914 0.044999861935648477 0 0.038595775810664708 0.044999988958148988 0 0.038176453915024854 0.045731430138558855 0 0.036504638477440933 0.045000001510543723 0 0.037058203450775713 0.045990924338077027 0 0.037523137643041951 0.047596941146047581 0 0.035925801024236967 0.04628900933758797 0 0.036992823433689974 0.044367448732997625 0 0.034917772110191571 0.046073028146692951 0 0.038205281101332568 0.045672881305838423 0 0.037058203450775713 0.045990924338077027 0 0.037523137643041951 0.047596941146047581 0 0.039946502911478554 0.046398539887402904 0 0.038205281101332568 0.045672881305838423 0 0.037523137643041951 0.047596941146047581 0 0.043306853279407712 0.044158337998845366 0 0.036992823433689974 0.044367448732997625 0 0.045463801577320599 0.040931421989096835 0 0.045692903169107756 0.04035533522187388 0 0.044407906601699146 0.040837471286053431 0 0.034335665035049992 0.044999992252811954 0 0.034917772110191571 0.046073028146692951 0 0.034332819323425606 0.045000116393181959 0 0.033954090449418314 0.045434065414090861 0 0.0334792787543799 0.045728730910323603 0 0.034332819323425606 0.045000116393181959 0 0.0334792787543799 0.045728730910323603 0 0.033077150494905963 0.045548386622232678 0 0.034335798673586784 0.045000055238096866 0 0.036504639750807914 0.044999861935648477 0 0.035925801024236967 0.04628900933758797 0 0.037058203450775713 0.045990924338077027 0 0.036504639750807914 0.044999861935648477 0 0.035925801024236967 0.04628900933758797 0 0.034332771102867046 0.045791932470361056 0 0.033954090449418314 0.045434065414090861 0 0.033866923670441071 0.04574506004151279 0 0.033866923670441071 0.04574506004151279 0 0.0334792787543799 0.045728730910323603 0 0.033706033547815602 0.046018811846994502 0 0.033954090449418314 0.045434065414090861 0 0.033866923670441071 0.04574506004151279 0 0.0334792787543799 0.045728730910323603 0 0.0334792787543799 0.045728730910323603 0 0.033706033547815602 0.046018811846994502 0 0.032686954535351177 0.045984026733582165 0 0.032166074436036807 0.046273457845817489 0 0.033069567997727117 0.045820971695973607 0 0.032165009415104334 0.045871932141279236 0 0.032234943291936324 0.0457501609129621 0 0.032110183208952474 0.045727001001111593 0 0.034332771102867046 0.045791932470361056 0 0.033866923670441071 0.04574506004151279 0 0.033706033547815602 0.046018811846994502 0 0.036992823433689974 0.044367448732997625 0 0.032166074436036807 0.046273457845817489 0 0.032165009415104334 0.045871932141279236 0 0.032216241321205624 0.04564273507124559 0 0.032110183208952474 0.045727001001111593 0 0.032216241321205624 0.04564273507124559 0 0.032110183208952474 0.045727001001111593 0 0.032024505027109157 0.045508088000426584 0 0.032216241321205624 0.04564273507124559 0 0.032686954535351177 0.045984026733582165 0 0.032516428339576652 0.045368623196112456 0 0.032165009415104334 0.045871932141279236 0 0.032216241321205624 0.04564273507124559 0 0.032686954535351177 0.045984026733582165 0 0.041595072929699113 0.042384156897413899 0 0.036992823433689974 0.044367448732997625 0 0.045463801577320599 0.040931421989096835 0 0.045421373572298564 0.041635360453301407 0 0.044407906601699146 0.040837471286053431 0 0.032983166345745815 0.046017958812571307 0 0.032234943291936324 0.0457501609129621 0 0.032637850270187833 0.04625135586306834 0 0.032983166345745815 0.046017958812571307 0 0.032287978945093894 0.045684996858107077 0 0.032234943291936324 0.0457501609129621 0 0.032287978945093894 0.045684996858107077 0 0.032165009415104334 0.045871932141279236 0 0.032234943291936324 0.0457501609129621 0 0.032097061093095257 0.046192771686260903 0 0.033314548927080398 0.044502706960091939 0 0.032234943291936324 0.0457501609129621 0 0.032110183208952474 0.045727001001111593 0 0.032002235764407506 0.045681151191952325 0 0.032110183208952474 0.045727001001111593 0 0.032002235764407506 0.045681151191952325 0 0.032024505027109157 0.045508088000426584 0 0.033314548927080398 0.044502706960091939 0 0.031708853236015709 0.045433229267595528 0 0.039483129077361068 0.041618551099408999 0 0.039583808813178162 0.041542507626130723 0 0.039491910317845019 0.041497761691128773 0 0.041595072929699113 0.042384156897413899 0 0.033314548927080398 0.044502706960091939 0 0.031750597418509004 0.045106027475694949 0 0.031615224141862679 0.044848171222523915 0 0.031787382102387018 0.044817249555834993 0 0.033314548927080398 0.044502706960091939 0 0.035581609710534701 0.043518455945416777 0 0.039583808813178162 0.041542507626130723 0 0.039491910317845019 0.041497761691128773 0 0.039494467706941469 0.041294790145195291 0 0.031750597418509004 0.045106027475694949 0 0.03193159772621125 0.045002561330380372 0 0.031787382102387018 0.044817249555834993 0 0.03193159772621125 0.045002561330380372 0 0.031787382102387018 0.044817249555834993 0 0.031953012688115519 0.044854295670389684 0 0.031787382102387018 0.044817249555834993 0 0.031953012688115519 0.044854295670389684 0 0.031877383898432879 0.044627071573883376 0 0.031787382102387018 0.044817249555834993 0 0.031757215491359229 0.044578197373606014 0 0.031877383898432879 0.044627071573883376 0 0.031787382102387018 0.044817249555834993 0 0.031655141243747222 0.04462726057903698 0 0.031757215491359229 0.044578197373606014 0 0.031615224141862679 0.044848171222523915 0 0.031787382102387018 0.044817249555834993 0 0.031655141243747222 0.04462726057903698 0 0.032216241321205624 0.04564273507124559 0 0.032172112664125709 0.045066296876644422 0 0.032516428339576652 0.045368623196112456 0 0.032216241321205624 0.04564273507124559 0 0.032024505027109157 0.045508088000426584 0 0.032172112664125709 0.045066296876644422 0 0.031708853236015709 0.045433229267595528 0 0.032296442131783933 0.044996954241686489 0 0.03193159772621125 0.045002561330380372 0 0.031953012688115519 0.044854295670389684 0 0.032172112664125709 0.045066296876644422 0 0.031953012688115519 0.044854295670389684 0 0.032074291984063842 0.044687196646911488 0 0.031877383898432879 0.044627071573883376 0 0.031953012688115519 0.044854295670389684 0 0.032074291984063842 0.044687196646911488 0 0.032172112664125709 0.045066296876644422 0 0.032341912083414269 0.044752566459245469 0 0.032172112664125709 0.045066296876644422 0 0.032516428339576652 0.045368623196112456 0 0.032074291984063842 0.044687196646911488 0 0.032341912083414269 0.044752566459245469 0 0.032172112664125709 0.045066296876644422 0 0.032341912083414269 0.044752566459245469 0 0.032180269330450262 0.044402538747055159 0 0.03243170179804284 0.044284669473093355 0 0.032074291984063842 0.044687196646911488 0 0.032341912083414269 0.044752566459245469 0 0.032180269330450262 0.044402538747055159 0 0.032180269330450262 0.044402538747055159 0 0.031961034655757892 0.044408957733818644 0 0.032043364345487178 0.044206912637696501 0 0.032074291984063842 0.044687196646911488 0 0.032180269330450262 0.044402538747055159 0 0.031961034655757892 0.044408957733818644 0 0.032074291984063842 0.044687196646911488 0 0.031961034655757892 0.044408957733818644 0 0.031877383898432879 0.044627071573883376 0 0.032043364345487178 0.044206912637696501 0 0.031840110189808146 0.044183267099825896 0 0.032073003361115432 0.043902132190578154 0 0.035034303345630541 0.038672330820661793 0 0.034352350952445342 0.031632147660706857 0 0.031961034655757892 0.044408957733818644 0 0.032043364345487178 0.044206912637696501 0 0.031840110189808146 0.044183267099825896 0 0.032043364345487178 0.044206912637696501 0 0.032177417505023627 0.044125148899544948 0 0.032073003361115432 0.043902132190578154 0 0.032180269330450262 0.044402538747055159 0 0.032043364345487178 0.044206912637696501 0 0.032177417505023627 0.044125148899544948 0 0.032180269330450262 0.044402538747055159 0 0.032177417505023627 0.044125148899544948 0 0.03243170179804284 0.044284669473093355 0 0.032177417505023627 0.044125148899544948 0 0.03243170179804284 0.044284669473093355 0 0.032279040143993687 0.043885606650988021 0 0.031655141243747222 0.04462726057903698 0 0.031671768817805888 0.044398047393053884 0 0.031757215491359229 0.044578197373606014 0 0.031655141243747222 0.04462726057903698 0 0.031671768817805888 0.044398047393053884 0 0.031509545985341759 0.044534617922913841 0 0.031671768817805888 0.044398047393053884 0 0.031757215491359229 0.044578197373606014 0 0.031812734679558204 0.044422267633122327 0 0.031757215491359229 0.044578197373606014 0 0.031877383898432879 0.044627071573883376 0 0.031812734679558204 0.044422267633122327 0 0.031961034655757892 0.044408957733818644 0 0.031877383898432879 0.044627071573883376 0 0.031812734679558204 0.044422267633122327 0 0.038622621805729146 0.031918605092592582 0 0.039252076679497337 0.031900831600502652 0 0.038515935685152977 0.032295602699307778 0 0.031671768817805888 0.044398047393053884 0 0.031812734679558204 0.044422267633122327 0 0.031840110189808146 0.044183267099825896 0 0.042876238358744219 0.027098518264472262 0 0.041944577148800219 0.023146445108965852 0 0.031961034655757892 0.044408957733818644 0 0.031812734679558204 0.044422267633122327 0 0.031840110189808146 0.044183267099825896 0 0.035085945370126104 0.038041742358650682 0 0.035034303345630541 0.038672330820661793 0 0.039221353474106734 0.031593328378460836 0 0.038622621805729146 0.031918605092592582 0 0.039252076679497337 0.031900831600502652 0 0.046899868519019422 0.021480912007057117 0 0.047637560552365413 0.021823524569166808 0 0.047914678547798926 0.021453035094496437 0 0.047637560552365413 0.021823524569166808 0 0.047914678547798926 0.021453035094496437 0 0.048095924434219756 0.021721526657928234 0 0.042876238358744219 0.027098518264472262 0 0.044562528582047678 0.027429062413653418 0 0.046899868519019422 0.021480912007057117 0 0.047637560552365413 0.021823524569166808 0 0.047113922770828959 0.022001225534347222 0 0.039221353474106734 0.031593328378460836 0 0.039252076679497337 0.031900831600502652 0 0.039976456805541967 0.031493342452310967 0 0.035085945370126104 0.038041742358650682 0 0.0388606585849188 0.038675439247424642 0 0.039221353474106734 0.031593328378460836 0 0.039976456805541967 0.031493342452310967 0 0.039813289519019093 0.031253649666164812 0 0.044562528582047678 0.027429062413653418 0 0.0388606585849188 0.038675439247424642 0 0.048130744529565526 0.021783266464857717 0 0.04832590881705643 0.021866921746209113 0 0.048421649001720773 0.021927348872608683 0 0.044562528582047678 0.027429062413653418 0 0.045591136750824997 0.032778547442208116 0 0.043188410314478232 0.034653420391254255 0 0.043172549165592045 0.034702761203478767 0 0.043147670609763815 0.034705613816091496 0 0.043188410314478232 0.034653420391254255 0 0.043194413529098252 0.034703022835701751 0 0.043172549165592045 0.034702761203478767 0 0.048130744529565526 0.021783266464857717 0 0.04832590881705643 0.021866921746209113 0 0.048095924434219756 0.021721526657928234 0 0.044562528582047678 0.027429062413653418 0 0.045151573154196378 0.023827951188268189 0 0.04832590881705643 0.021866921746209113 0 0.048366019307785203 0.021942998478431744 0 0.048095924434219756 0.021721526657928234 0 0.048366019307785203 0.021942998478431744 0 0.048095924434219756 0.021721526657928234 0 0.048065384155158201 0.021981502599527643 0 0.047637560552365413 0.021823524569166808 0 0.048095924434219756 0.021721526657928234 0 0.048065384155158201 0.021981502599527643 0 0.048366019307785203 0.021942998478431744 0 0.048065384155158201 0.021981502599527643 0 0.048363714758395231 0.022221451117208951 0 0.048366019307785203 0.021942998478431744 0 0.048704482706010181 0.022000297692579864 0 0.048363714758395231 0.022221451117208951 0 0.04832590881705643 0.021866921746209113 0 0.048366019307785203 0.021942998478431744 0 0.048704482706010181 0.022000297692579864 0 0.046052334102212662 0.034855264365879074 0 0.044999580057881745 0.034396022807627699 0 0.045000032957137691 0.036114148717443041 0 0.047345595817540415 0.027671454281743418 0 0.046330388383476868 0.02976139911661007 0 0.046052334102212662 0.034855264365879074 0 0.044999580057881745 0.034396022807627699 0 0.045425685490333913 0.033647884989902919 0 0.044998840103706951 0.03439582958528703 0 0.046330388383476868 0.02976139911661007 0 0.046052334102212662 0.034855264365879074 0 0.045000032957137691 0.036114148717443041 0 0.045897735220254796 0.035703660583885563 0 0.047345595817540415 0.027671454281743418 0 0.045591136750824997 0.032778547442208116 0 0.04832590881705643 0.021866921746209113 0 0.048704482706010181 0.022000297692579864 0 0.048421649001720773 0.021927348872608683 0 0.046052334102212662 0.034855264365879074 0 0.045897735220254796 0.035703660583885563 0 0.046340408323585887 0.035789475558688402 0 0.045591136750824997 0.032778547442208116 0 0.045793161962278971 0.037230091308558429 0 0.045189287243676206 0.036820466511435092 0 0.044993784322813486 0.036961751528095464 0 0.045137436632190588 0.036948234423795856 0 0.045897735220254796 0.035703660583885563 0 0.046340408323585887 0.035789475558688402 0 0.045861254044176417 0.036255028484205643 0 0.045793161962278971 0.037230091308558429 0 0.045437674589074592 0.038591059942232692 0 0.045137436632190588 0.036948234423795856 0 0.045105495012160476 0.037059601126285521 0 0.045260582572656749 0.036949606309850336 0 0.045437674589074592 0.038591059942232692 0 0.043312495790705396 0.038346847047328693 0 0.044993784322813486 0.036961751528095464 0 0.045137436632190588 0.036948234423795856 0 0.045105495012160476 0.037059601126285521 0 0.045000032957137691 0.036114148717443041 0 0.045897735220254796 0.035703660583885563 0 0.045861254044176417 0.036255028484205643 0 0.045793161962278971 0.037230091308558429 0 0.045000878739258093 0.038450840878023779 0 0.045000398815835847 0.036116505512051221 0 0.045793161962278971 0.037230091308558429 0 0.044999993891209289 0.036116555564227569 0 0.046565100470104891 0.037429203473172405 0 0.044999991820662819 0.038451229807821702 0 0.046460431335115182 0.037529647461870236 0 0.044999984988992353 0.038451382882684404 0 0.046065590946705474 0.038757831543305019 0 0.044999990874908469 0.039521231053550494 0 0.044999984988992353 0.038451382882684404 0 0.046065590946705474 0.03875783