<?xml version="1.0"?>
<VTKFile type="UnstructuredGrid" version="0.1" byte_order="LittleEndian">
<UnstructuredGrid>
<Piece NumberOfPoints="30841" NumberOfCells="10845">
<Points>
<DataArray type="Float64" NumberOfComponents="3" format="ascii">
-0.5 -0.5 0 -0.47752665041364278 -0.48380414361719137 0 -0.44957979014861632 -0.49999999999999589 0 -0.5 -0.5 0 -0.50000000000000044 -0.47730426660569841 0 -0.47752665041364278 -0.48380414361719137 0 -0.50000000000000044 -0.47730426660569841 0 -0.47848825198827821 -0.46595520288950271 0 -0.50000000000000044 -0.47730426660569841 0 -0.47752665041364278 -0.48380414361719137 0 -0.47848825198827821 -0.46595520288950271 0 -0.47752665041364278 -0.48380414361719137 0 -0.4574566154983753 -0.47433445302199417 0 -0.47848825198827821 -0.46595520288950271 0 -0.47752665041364278 -0.48380414361719137 0 -0.4574566154983753 -0.47433445302199417 0 -0.44957979014861632 -0.49999999999999589 0 -0.4574566154983753 -0.47433445302199417 0 -0.43855197532396201 -0.47932271237983309 0 -0.44361652113919492 -0.46231852007213659 0 -0.43855197532396201 -0.47932271237983309 0 -0.44957979014861632 -0.49999999999999589 0 -0.4574566154983753 -0.47433445302199417 0 -0.43855197532396201 -0.47932271237983309 0 -0.44957979014861632 -0.49999999999999589 0 -0.43994273576761639 -0.4406898814956885 0 -0.45697650397655581 -0.454606139173307 0 -0.45387400681741291 -0.43625989186828767 0 -0.43994273576761639 -0.4406898814956885 0 -0.45697650397655581 -0.454606139173307 0 -0.43546475596483331 -0.44325707545711129 0 -0.45697650397655581 -0.454606139173307 0 -0.43546475596483331 -0.44325707545711129 0 -0.4574566154983753 -0.47433445302199417 0 -0.44361652113919492 -0.46231852007213659 0 -0.45697650397655581 -0.454606139173307 0 -0.44361652113919492 -0.46231852007213659 0 -0.45697650397655581 -0.454606139173307 0 -0.43546475596483331 -0.44325707545711129 0 -0.45697650397655581 -0.454606139173307 0 -0.47848825198827821 -0.46595520288950271 0 -0.4574566154983753 -0.47433445302199417 0 -0.45697650397655581 -0.454606139173307 0 -0.47848825198827821 -0.46595520288950271 0 -0.45697650397655581 -0.454606139173307 0 -0.47678234954998772 -0.44203095098192963 0 -0.45387400681741291 -0.43625989186828767 0 -0.45697650397655581 -0.454606139173307 0 -0.47678234954998772 -0.44203095098192963 0 -0.47848825198827821 -0.46595520288950271 0 -0.47678234954998772 -0.44203095098192963 0 -0.47848825198827821 -0.46595520288950271 0 -0.5 -0.45379301248921672 0 -0.50000000000000044 -0.47730426660569841 0 -0.47848825198827821 -0.46595520288950271 0 -0.5 -0.45379301248921672 0 -0.47678234954998772 -0.44203095098192963 0 -0.5 -0.45379301248921672 0 -0.5 -0.43028175837273491 0 -0.47678234954998772 -0.44203095098192963 0 -0.5 -0.43028175837273491 0 -0.48297839460253261 -0.42395154385515432 0 -0.499999999999995 -0.40677050425625311 0 -0.47534031988631797 -0.40747530396933029 0 -0.48297839460253261 -0.42395154385515432 0 -0.5 -0.43028175837273491 0 -0.499999999999995 -0.40677050425625311 0 -0.48297839460253261 -0.42395154385515432 0 -0.499999999999995 -0.40677050425625311 0 -0.47534031988631797 -0.40747530396933029 0 -0.47534031988631797 -0.40747530396933029 0 -0.48297839460253261 -0.42395154385515432 0 -0.46513781073135441 -0.42463459435149492 0 -0.47678234954998772 -0.44203095098192963 0 -0.48297839460253261 -0.42395154385515432 0 -0.46513781073135441 -0.42463459435149492 0 -0.5 -0.37872075625943252 0 -0.4791796759782237 -0.38787974815495191 0 -0.4796682851818983 -0.36641287393160182 0 -0.499999999999995 -0.40677050425625311 0 -0.47534031988631797 -0.40747530396933029 0 -0.4791796759782237 -0.38787974815495191 0 -0.499999999999995 -0.40677050425625311 0 -0.5 -0.37872075625943252 0 -0.4791796759782237 -0.38787974815495191 0 -0.47534031988631797 -0.40747530396933029 0 -0.4791796759782237 -0.38787974815495191 0 -0.45867486922540529 -0.39341278549032488 0 -0.4791796759782237 -0.38787974815495191 0 -0.4617094432725275 -0.37570910172421651 0 -0.4796682851818983 -0.36641287393160182 0 -0.4617094432725275 -0.37570910172421651 0 -0.45867486922540529 -0.39341278549032488 0 -0.4463505382415528 -0.38412001475165891 0 -0.4791796759782237 -0.38787974815495191 0 -0.4617094432725275 -0.37570910172421651 0 -0.45867486922540529 -0.39341278549032488 0 -0.47534031988631797 -0.40747530396933029 0 -0.45867486922540529 -0.39341278549032488 0 -0.45068063977264089 -0.4081801036824077 0 -0.44133604600202869 -0.39734802760330351 0 -0.45068063977264089 -0.4081801036824077 0 -0.42602095965896403 -0.40888490339548511 0 -0.45867486922540529 -0.39341278549032488 0 -0.44133604600202869 -0.39734802760330351 0 -0.4463505382415528 -0.38412001475165891 0 -0.45867486922540529 -0.39341278549032488 0 -0.44133604600202869 -0.39734802760330351 0 -0.45068063977264089 -0.4081801036824077 0 -0.44133604600202869 -0.39734802760330351 0 -0.4463505382415528 -0.38412001475165891 0 -0.43646982006771162 -0.38845871092834761 0 -0.4463505382415528 -0.38412001475165891 0 -0.43264224312933652 -0.38284222846664828 0 -0.43646982006771162 -0.38845871092834761 0 -0.4463505382415528 -0.38412001475165891 0 -0.43264224312933652 -0.38284222846664828 0 -0.44670199762469132 -0.37118711816895322 0 -0.43264224312933652 -0.38284222846664828 0 -0.44670199762469132 -0.37118711816895322 0 -0.4617094432725275 -0.37570910172421651 0 -0.4463505382415528 -0.38412001475165891 0 -0.44670199762469132 -0.37118711816895322 0 -0.47678234954998772 -0.44203095098192963 0 -0.46513781073135441 -0.42463459435149492 0 -0.45387400681741291 -0.43625989186828767 0 -0.46513781073135441 -0.42463459435149492 0 -0.45387400681741291 -0.43625989186828767 0 -0.4459141800831129 -0.42471880740979367 0 -0.47534031988631797 -0.40747530396933029 0 -0.46513781073135441 -0.42463459435149492 0 -0.45068063977264089 -0.4081801036824077 0 -0.47534031988631797 -0.40747530396933029 0 -0.45068063977264089 -0.4081801036824077 0 -0.46513781073135441 -0.42463459435149492 0 -0.45068063977264089 -0.4081801036824077 0 -0.4459141800831129 -0.42471880740979367 0 -0.45068063977264089 -0.4081801036824077 0 -0.42602095965896403 -0.40888490339548511 0 -0.45068063977264089 -0.4081801036824077 0 -0.4459141800831129 -0.42471880740979367 0 -0.42602095965896403 -0.40888490339548511 0 -0.4459141800831129 -0.42471880740979367 0 -0.44044757691334308 -0.43154478595469942 0 -0.42957471087640342 -0.42706726636862408 0 -0.45387400681741291 -0.43625989186828767 0 -0.4459141800831129 -0.42471880740979367 0 -0.44044757691334308 -0.43154478595469942 0 -0.43994273576761639 -0.4406898814956885 0 -0.45387400681741291 -0.43625989186828767 0 -0.44044757691334308 -0.43154478595469942 0 -0.43994273576761639 -0.4406898814956885 0 -0.44044757691334308 -0.43154478595469942 0 -0.42957471087640342 -0.42706726636862408 0 -0.43994273576761639 -0.4406898814956885 0 -0.42957471087640342 -0.42706726636862408 0 -0.41649634567464822 -0.43796813713951033 0 -0.4459141800831129 -0.42471880740979367 0 -0.42957471087640342 -0.42706726636862408 0 -0.42602095965896403 -0.40888490339548511 0 -0.42602095965896403 -0.40888490339548511 0 -0.40136127954528711 -0.40958970310856252 0 -0.42957471087640342 -0.42706726636862408 0 -0.42602095965896403 -0.40888490339548511 0 -0.40892881260996838 -0.42377892012403601 0 -0.42602095965896403 -0.40888490339548511 0 -0.40892881260996838 -0.42377892012403601 0 -0.40136127954528711 -0.40958970310856252 0 -0.40892881260996838 -0.42377892012403601 0 -0.39542502574869243 -0.43552209978117279 0 -0.41649634567464822 -0.43796813713951033 0 -0.42957471087640342 -0.42706726636862408 0 -0.40892881260996838 -0.42377892012403601 0 -0.41649634567464822 -0.43796813713951033 0 -0.40892881260996838 -0.42377892012403601 0 -0.41649634567464822 -0.43796813713951033 0 -0.43264224312933652 -0.38284222846664828 0 -0.41685077955477562 -0.39593287309947689 0 -0.43264224312933652 -0.38284222846664828 0 -0.43646982006771162 -0.38845871092834761 0 -0.43057068374178081 -0.39527754626228878 0 -0.43264224312933652 -0.38284222846664828 0 -0.43646982006771162 -0.38845871092834761 0 -0.43264224312933652 -0.38284222846664828 0 -0.43057068374178081 -0.39527754626228878 0 -0.41685077955477562 -0.39593287309947689 0 -0.44133604600202869 -0.39734802760330351 0 -0.43646982006771162 -0.38845871092834761 0 -0.43057068374178081 -0.39527754626228878 0 -0.44133604600202869 -0.39734802760330351 0 -0.42602095965896403 -0.40888490339548511 0 -0.43057068374178081 -0.39527754626228878 0 -0.42602095965896403 -0.40888490339548511 0 -0.43057068374178081 -0.39527754626228878 0 -0.41685077955477562 -0.39593287309947689 0 -0.42602095965896403 -0.40888490339548511 0 -0.41685077955477562 -0.39593287309947689 0 -0.40136127954528711 -0.40958970310856252 0 -0.41685077955477562 -0.39593287309947689 0 -0.40136127954528711 -0.40958970310856252 0 -0.41685077955477562 -0.39593287309947689 0 -0.40401808628862129 -0.39600472825408772 0 -0.40136127954528711 -0.40958970310856252 0 -0.41685077955477562 -0.39593287309947689 0 -0.40402509465979741 -0.37857884567570182 0 -0.40401808628862129 -0.39600472825408772 0 -0.43264224312933652 -0.38284222846664828 0 -0.41685077955477562 -0.39593287309947689 0 -0.40402509465979741 -0.37857884567570182 0 -0.40402509465979741 -0.37857884567570182 0 -0.39174017751428891 -0.39154865634663483 0 -0.40401808628862129 -0.39600472825408772 0 -0.39174017751428891 -0.39154865634663483 0 -0.40401808628862129 -0.39600472825408772 0 -0.39392919336894272 -0.40231004669480019 0 -0.40401808628862129 -0.39600472825408772 0 -0.39392919336894272 -0.40231004669480019 0 -0.40136127954528711 -0.40958970310856252 0 -0.39174017751428891 -0.39154865634663483 0 -0.37992202488898769 -0.39996854235808971 0 -0.37540551714450537 -0.38264397052145249 0 -0.39392919336894272 -0.40231004669480019 0 -0.37992202488898769 -0.39996854235808971 0 -0.38717102997358949 -0.4099952754347454 0 -0.39174017751428891 -0.39154865634663483 0 -0.39392919336894272 -0.40231004669480019 0 -0.37992202488898769 -0.39996854235808971 0 -0.40402509465979741 -0.3785788456
[...]
<PointData Scalars="" Vectors="displacement," Tensors="">
<DataArray type="Float64" Name="displacement" NumberOfComponents="3" format="ascii">
3.2420499456423894e-07 0.014998961907481978 0 3.1746140838920615e-05 0.014867216989323879 0 -2.7269429027011752e-07 0.014999703581872725 0 3.2420499456423894e-07 0.014998961907481978 0 -3.8742147673367121e-07 0.014321079648946827 0 3.1746140838920615e-05 0.014867216989323879 0 2.1305544215222568e-08 0.01431901599500484 0 3.262562056169988e-05 0.014193476039785874 0 -3.8742147673367121e-07 0.014321079648946827 0 3.1746140838920615e-05 0.014867216989323879 0 -7.9389582387167146e-05 0.014834505226748767 0 3.1746140838920615e-05 0.014867216989323879 0 -1.2239133049250641e-05 0.014826776256547953 0 -7.9389582387167146e-05 0.014834505226748767 0 3.1746140838920615e-05 0.014867216989323879 0 -1.2239133049250641e-05 0.014826776256547953 0 -2.7269429027011752e-07 0.014999703581872725 0 -1.2239133049250641e-05 0.014826776256547953 0 -3.2115703365474242e-05 0.01467993083119278 0 7.7740467581517827e-05 0.014591880598070499 0 1.1353326860594422e-05 0.014830337418054203 0 1.5756563234835666e-08 0.014999919584227386 0 -1.2239133049250641e-05 0.014826776256547953 0 -3.2115703365474242e-05 0.01467993083119278 0 -2.7269429027011752e-07 0.014999703581872725 0 0.00012234355324892453 0.014143464657688362 0 0.00028007720169482869 0.01364740905922676 0 4.9274698158068876e-05 0.0137517523301706 0 0.00012234355324892453 0.014143464657688362 0 0.00028007720169482869 0.01364740905922676 0 0.0001862172015435166 0.014266832564908613 0 0.00017570421620996443 0.014213258775308995 0 0.00017986921712442758 0.014280592895473903 0 -1.2239133049250641e-05 0.014826776256547953 0 7.7740467581517827e-05 0.014591880598070499 0 0.00012561789906540981 0.014759424332386126 0 7.7740467581517827e-05 0.014591880598070499 0 0.00012561789906540981 0.014759424332386126 0 0.0001862172015435166 0.014266832564908613 0 0.00017570421620996443 0.014213258775308995 0 3.262562056169988e-05 0.014193476039785874 0 -1.2239133049250641e-05 0.014826776256547953 0 0.00012561789906540981 0.014759424332386126 0 -7.9389582387167146e-05 0.014834505226748767 0 0.00028007720169482869 0.01364740905922676 0 0.00013881587228158079 0.013376854811362549 0 4.9274698158068876e-05 0.0137517523301706 0 0.00028007720169482869 0.01364740905922676 0 0.00013881587228158079 0.013376854811362549 0 8.274890595958757e-05 0.013559193437159826 0 0.00013881587228158079 0.013376854811362549 0 8.274890595958757e-05 0.013559193437159826 0 4.0854964359644181e-07 0.01361399257891981 0 -4.4828690062737812e-07 0.014317886444183815 0 8.274890595958757e-05 0.013559193437159826 0 4.0854964359644181e-07 0.01361399257891981 0 0.00013881587228158079 0.013376854811362549 0 4.0854964359644181e-07 0.01361399257891981 0 3.2344478748264286e-07 0.012908355613291365 0 0.00013881587228158079 0.013376854811362549 0 3.2344478748264286e-07 0.012908355613291365 0 -1.3965967378165821e-05 0.01307551995953455 0 -1.0033760611821782e-06 0.012204445509843535 0 -0.00040832230030026515 0.013239809802837342 0 -1.3965967378165821e-05 0.01307551995953455 0 3.2344478748264286e-07 0.012908355613291365 0 -1.0033760611821782e-06 0.012204445509843535 0 -1.3965967378165821e-05 0.01307551995953455 0 -2.3120173401096222e-07 0.012203051696360597 0 -0.00046359516730305294 0.011990312889893214 0 -0.00040832230030026515 0.013239809802837342 0 -1.3965967378165821e-05 0.01307551995953455 0 -8.334081216779272e-05 0.013514112556145843 0 0.00013881587228158079 0.013376854811362549 0 -1.3965967378165821e-05 0.01307551995953455 0 -8.334081216779272e-05 0.013514112556145843 0 4.2805125975904866e-07 0.011361493913942637 0 -0.00010718428018257897 0.010818532535730912 0 3.4512052848221897e-05 0.010467629783723578 0 -1.7230845517903548e-06 0.012201383928760075 0 -0.00062093721708671114 0.010758203411125036 0 -0.00010718428018257897 0.010818532535730912 0 -1.7230845517903548e-06 0.012201383928760075 0 4.2805125975904866e-07 0.011361493913942637 0 -0.00010718428018257897 0.010818532535730912 0 -0.00062093721708671114 0.010758203411125036 0 -0.00010718428018257897 0.010818532535730912 0 -0.00032191344834463361 0.010202114559822062 0 -0.00010718428018257897 0.010818532535730912 0 -8.96069669551187e-05 0.010154991706713096 0 3.4512052848221897e-05 0.010467629783723578 0 -8.96069669551187e-05 0.010154991706713096 0 -0.00032191344834463361 0.010202114559822062 0 -0.00024843038858537764 0.0099403233132770927 0 -0.00010718428018257897 0.010818532535730912 0 -8.96069669551187e-05 0.010154991706713096 0 -0.00032191344834463361 0.010202114559822062 0 -0.00062093721708671114 0.010758203411125036 0 -0.00032191344834463361 0.010202114559822062 0 -0.0005636165243737731 0.010055923197117286 0 -0.00039783574974319784 0.0099492447963132162 0 -0.0005636165243737731 0.010055923197117286 0 -0.00037285192685391751 0.0099246261675532965 0 -0.00032191344834463361 0.010202114559822062 0 -0.00039783574974319784 0.0099492447963132162 0 -0.00024843038858537764 0.0099403233132770927 0 -0.00032191344834463361 0.010202114559822062 0 -0.00039783574974319784 0.0099492447963132162 0 -0.0005636165243737731 0.010055923197117286 0 -0.00039783574974319784 0.0099492447963132162 0 -0.00024843038858537764 0.0099403233132770927 0 -0.00033209786959729977 0.0099025176443884814 0 -0.00024843038858537764 0.0099403233132770927 0 -0.00026562412275984136 0.0098581077414372064 0 -0.00033209786959729977 0.0099025176443884814 0 -0.00024843038858537764 0.0099403233132770927 0 -0.00026562412275984136 0.0098581077414372064 0 -0.00012229510561840779 0.0098080591180115789 0 -0.00020729692513782381 0.010791366125608043 0 -0.00033838605754388706 0.0095437395727223321 0 -8.96069669551187e-05 0.010154991706713096 0 -0.00024843038858537764 0.0099403233132770927 0 -0.00012229510561840779 0.0098080591180115789 0 0.00013881587228158079 0.013376854811362549 0 -8.334081216779272e-05 0.013514112556145843 0 4.9274698158068876e-05 0.0137517523301706 0 -8.334081216779272e-05 0.013514112556145843 0 4.9274698158068876e-05 0.0137517523301706 0 -0.00013572147578875317 0.013931683972442818 0 -0.00040832230030026515 0.013239809802837342 0 -8.334081216779272e-05 0.013514112556145843 0 -0.00043122345997812688 0.013819325956535154 0 -0.00046359516730305294 0.011990312889893214 0 -0.0004895646304714016 0.011990241156792683 0 -8.334081216779272e-05 0.013514112556145843 0 -0.00043122345997812688 0.013819325956535154 0 -0.00013572147578875317 0.013931683972442818 0 -0.0004895646304714016 0.011990241156792683 0 -0.0003998709998099046 0.011919725480466126 0 -0.00043122345997812688 0.013819325956535154 0 -0.00013572147578875317 0.013931683972442818 0 -0.00037979002810252754 0.014255468807854034 0 -0.00013572147578875317 0.013931683972442818 0 -3.0442306645199458e-05 0.014067722588839267 0 -9.336485023786977e-05 0.014223107773896465 0 4.9274698158068876e-05 0.0137517523301706 0 -0.00013572147578875317 0.013931683972442818 0 -3.0442306645199458e-05 0.014067722588839267 0 0.00012234355324892453 0.014143464657688362 0 4.9274698158068876e-05 0.0137517523301706 0 -3.0442306645199458e-05 0.014067722588839267 0 0.00012234355324892453 0.014143464657688362 0 -3.0442306645199458e-05 0.014067722588839267 0 -9.336485023786977e-05 0.014223107773896465 0 0.00012234355324892453 0.014143464657688362 0 -9.336485023786977e-05 0.014223107773896465 0 4.5327956692083452e-05 0.014393616670477402 0 -0.00013572147578875317 0.013931683972442818 0 -9.336485023786977e-05 0.014223107773896465 0 -0.00037979002810252754 0.014255468807854034 0 -0.0003998709998099046 0.011919725480466126 0 -0.00021195680417866272 0.013177381204612459 0 -9.336485023786977e-05 0.014223107773896465 0 -0.00037979002810252754 0.014255468807854034 0 -0.00015123342801876956 0.01449270295016534 0 -0.00037979002810252754 0.014255468807854034 0 -0.00015123342801876956 0.01449270295016534 0 -0.00034807672422317677 0.014582337548568702 0 5.128628336833548e-06 0.013760093895357581 0 0.0001270429989787874 0.013889618520748796 0 0.00014084073991932458 0.013694938833555341 0 -9.336485023786977e-05 0.014223107773896465 0 -0.00015123342801876956 0.01449270295016534 0 4.5327956692083452e-05 0.014393616670477402 0 -0.00012033148449088877 0.0141336461453002 0 3.9595269934492811e-05 0.014410900330280751 0 -0.00020729692513782381 0.010791366125608043 0 -0.00034915004772344038 0.012021863589935285 0 -0.00035299595502451064 0.0099132755430816465 0 -0.00033209786959729977 0.0099025176443884814 0 -0.00037302354766356396 0.0099249632709902461 0 -0.00020729692513782381 0.010791366125608043 0 -8.9534830691343729e-05 0.010366995146173379 0 -0.00035299595502451064 0.0099132755430816465 0 -0.00037302354766356396 0.0099249632709902461 0 -0.00040469884972690846 0.0099816839316523263 0 -0.00039783574974319784 0.0099492447963132162 0 -0.00033209786959729977 0.0099025176443884814 0 -0.00037302354766356396 0.0099249632709902461 0 -0.00039783574974319784 0.0099492447963132162 0 -0.00037285192685391751 0.0099246261675532965 0 -0.00037302354766356396 0.0099249632709902461 0 -0.00037285192685391751 0.0099246261675532965 0 -0.00037302354766356396 0.0099249632709902461 0 -0.00040469884972690846 0.0099816839316523263 0 -0.00037285192685391751 0.0099246261675532965 0 -0.00040469884972690846 0.0099816839316523263 0 -0.00031882823852677315 0.010133953198442042 0 -0.00034915004772344038 0.012021863589935285 0 -0.00021195680417866272 0.013177381204612459 0 -0.00026660593555094487 0.014034859304323235 0 -0.00026203488194709561 0.013982632402733348 0 -0.00026557616072737185 0.013956635838471216 0 -0.00026660593555094487 0.014034859304323235 0 -0.00018772662476021276 0.014003261557630001 0 -0.00026203488194709561 0.013982632402733348 0 -0.00019819501261082305 0.014129548805513637 0 -0.00026660593555094487 0.014034859304323235 0 -0.00018772662476021276 0.014003261557630001 0 -0.00018772662476021276 0.014003261557630001 0 -0.00028000640145425711 0.01395084693219004 0 -0.00026203488194709561 0.013982632402733348 0 -0.00028000640145425711 0.01395084693219004 0 -0.00026203488194709561 0.013982632402733348 0 -0.00025323007354057994 0.013954070696316804 0 -0.00026203488194709561 0.013982632402733348 0 -0.00025323007354057994 0.013954070696316804 0 -0.00026557616072737185 0.013956635838471216 0 -0.00028000640145425711 0.01395084693219004 0 -0.00025604307773544321 0.013995737530131917 0 -0.00036387695149157407 0.013894128620419622 0 -0.00025323007354057994 0.013954070696316804 0 -0.00025604307773544321 0.013995737530131917 0 -0.00019844984554033738 0.01396546394926654 0 -0.00028000640145425711 0.01395084693219004 0 -0.00025323007354057994 0.013954070696316804 0 -0.00025604307773544321 0.013995737530131917 0 -0.00018772662476021276 0.014003261557630001 0 -0.00028000640145425711 0.01395084693219004 0 -0.00036387695149157407 0.013894128620419622 0 0.00010945405627184976 0.014401334429009946 0 3.9595269934492811e-05 0.014410900330280751 0 0.0001270429989787874 0.013889618520748796 0 -3.3201134312234311e-05 0.013863324195086929 0 -1.6122143639634376e-05 0.013999586107619704 0 5.128628336833548e-06 0.013760093895357581 0 0.0001270429989787874 0.013889618520748796 0 -3.3201134312234311e-05 0.013863324195086929 0 -0.00020413870471060804 0.013748230516667445 0 -0.00019844984554033738 0.01396546394926654 0 -1.6122143639634376e-05 0.013999586107619704 0 -0.00021195680417866272 0.013177381204612459 0 6.0307370321010155e-05 0.014158225691948259 0 -0.00012033148449088877 0.0141336461453002 0 -0.00021195680417866272 0.013177381204612459 0 5.128628336833548e-06 0.013760093895357581 0 -0.00013868574283693283 0.01382929840147437 0 -3.3201134312234311e-05 0.013863324195086929 0 -0.00013868574283693283 0.01382929840147437 0 -3.3201134312234311e-05 0.013863324195086929 0 -1.6122143639634376e-05 0.013999586107619704 0 -0.00025323007354057994 0.013954070696316804 0 -0.00026557616072737185 0.013956635838471216 0 -0.00019844984554033738 0.01396546394926654 0 -0.00021195680417866272 0.013177381204612459 0 -0.00020188954950049612 0.01413366479250059 0 -0.00025604307773544321 0.013995737530131917 0 -0.00019844984554033738 0.01396546394926654 0 -0.00013624711847757355 0.014167564151242141 0 -0.00019844984554033738 0.01396546394926654 0 -4.5525275937883879e-05 0.014113387220821651 0 -1.6122143639634376e-05 0.013999586107619704 0 -0.00019844984554033738 0.01396546394926654 0 -4.5525275937883879e-05 0.014113387220821651 0 -0.00013624711847757355 0.014167564151242141 0 0.0001270429989787874 0.013889618520748796 0 -1.6122143639634376e-05 0.013999586107619704 0 0.00013353673808807627 0.014137079195373351 0 0.00010945405627184976 0.014401334429009946 0 9.7489917944124427e-05 0.014500315481078946 0 -4.5525275937883879e-05 0.014113387220821651 0 -1.6122143639634376e-05 0.013999586107619704 0 0.00013353673808807627 0.014137079195373351 0 7.7115261831216643e-05 0.014942416934448307 0 3.3542414085584389e-05 0.014914314477295108 0 9.3432959092695721e-05 0.014850813838532739 0 7.7115261831216643e-05 0.014942416934448307 0 3.3542414085584389e-05 0.014914314477295108 0 4.3844773622582081e-05 0.014966356516538758 0 7.7115261831216643e-05 0.014942416934448307 0 4.3844773622582081e-05 0.014966356516538758 0 6.2078500627037232e-05 0.014984063636752377 0 3.3542414085584389e-05 0.014914314477295108 0 4.3844773622582081e-05 0.014966356516538758 0 1.6218794769796205e-05 0.014965407798841826 0 3.3542414085584389e-05 0.014914314477295108 0 1.6218794769796205e-05 0.014965407798841826 0 7.6257366713792948e-06 0.014928238282291445 0 3.3542414085584389e-05 0.014914314477295108 0 7.6257366713792948e-06 0.014928238282291445 0 1.5957039433451387e-05 0.014867935421686639 0 7.6257366713792948e-06 0.014928238282291445 0 -7.2850885993048882e-07 0.014969828711276703 0 2.0846018776791843e-06 0.014957211204809107 0 -7.2850885993048882e-07 0.014969828711276703 0 -6.8721809265657094e-09 0.014999966338085658 0 -3.9444679766959861e-09 0.014999937578683342 0 -7.2850885993048882e-07 0.014969828711276703 0 -3.9444679766959861e-09 0.014999937578683342 0 2.0846018776791843e-06 0.014957211204809107 0 -7.2850885993048882e-07 0.014969828711276703 0 -6.8721809265657094e-09 0.014999966338085658 0 2.4010801180399485e-06 0.014989638951794287 0 1.6218794769796205e-05 0.014965407798841826 0 7.6257366713792948e-06 0.014928238282291445 0 -7.2850885993048882e-07 0.014969828711276703 0 1.6218794769796205e-05 0.014965407798841826 0 -7.2850885993048882e-07 0.014969828711276703 0 2.4010801180399485e-06 0.014989638951794287 0 -6.8721809265657094e-09 0.014999966338085658 0 2.4010801180399485e-06 0.014989638951794287 0 -8.6699810661824315e-10 0.014999995433695342 0 4.5205301767403275e-06 0.015002445613825448 0 2.9758816294938328e-09 0.015000007662506766 0 -8.6699810661824315e-10 0.014999995433695342 0 4.5205301767403275e-06 0.015002445613825448 0 2.4010801180399485e-06 0.014989638951794287 0 -8.6699810661824315e-10 0.014999995433695342 0 1.1353326860594422e-05 0.014830337418054203 0 8.2365009079660921e-05 0.01473579847714644 0 4.5205301767403275e-06 0.015002445613825448 0 2.4010801180399485e-06 0.014989638951794287 0 2.3749569669003673e-05 0.014999027901345828 0 -3.2115703365474242e-05 0.01467993083119278 0 7.7740467581517827e-05 0.014591880598070499 0 0.00015042784451343695 0.014371560182284249 0 7.7740467581517827e-05 0.014591880598070499 0 0.00015042784451343695 0.014371560182284249 0 0.0001862172015435166 0.014266832564908613 0 0.00015042784451343695 0.014371560182284249 0 0.0001862172015435166 0.014266832564908613 0 0.00012951370300419193 0.014484781466244021 0 0.00012234355324892453 0.014143464657688362 0 0.0001862172015435166 0.014266832564908613 0 0.00012951370300419193 0.014484781466244021 0 8.2365009079660921e-05 0.01473579847714644 0 3.9595269934492811e-05 0.014410900330280751 0 0.0001289748913151821 0.014165308505269366 0 3.9595269934492811e-05 0.014410900330280751 0 4.3844773622582081e-05 0.014966356516538758 0 2.3749569669003673e-05 0.014999027901345828 0 6.2078500627037232e-05 0.014984063636752377 0 1.6218794769796205e-05 0.014965407798841826 0 2.4010801180399485e-06 0.014989638951794287 0 2.3749569669003673e-05 0.014999027901345828 0 4.3844773622582081e-05 0.014966356516538758 0 1.6218794769796205e-05 0.014965407798841826 0 2.3749569669003673e-05 0.014999027901345828 0 0.00024285522963370923 0.0085374323474433356 0 0.0001600937692300004 0.0081191560932602248 0 0.00015016088066419891 0.0084091589767715368 0 0.00012260258982721691 0.0083393262366308236 0 0.0001600937692300004 0.0081191560932602248 0 3.1475276748958046e-05 0.0078746305782632746 0 0.00012260258982721691 0.0083393262366308236 0 0.00024285522963370923 0.0085374323474433356 0 0.0001600937692300004 0.0081191560932602248 0 0.0001600937692300004 0.0081191560932602248 0 8.9811784923935999e-05 0.0079055298954757453 0 2.6898749386959302e-05 0.0074716558908863072 0 8.9811784923935999e-05 0.0079055298954757453 0 1.8203266736325724e-07 0.0079957365281345966 0 7.1715648495317735e-08 0.0071542462292479674 0 8.9811784923935999e-05 0.0079055298954757453 0 1.8203266736325724e-07 0.0079957365281345966 0 0.00015016088066419891 0.0084091589767715368 0 1.8203266736325724e-07 0.0079957365281345966 0 0.00015016088066419891 0.0084091589767715368 0 2.2864373778479973e-07 0.0088370866788136729 0 0.0001600937692300004 0.0081191560932602248 0 8.9811784923935999e-05 0.0079055298954757453 0 0.00015016088066419891 0.0084091589767715368 0 0.00015016088066419891 0.0084091589767715368 0 0.00012892564106057892 0.0090143866957527134 0 0.00023921529795943827 0.0088731437086306594 0 0.00015016088066419891 0.0084091589767715368 0 2.2864373778479973e-07 0.0088370866788136729 0 0.00012892564106057892 0.0090143866957527134 0 2.2864373778479973e-07 0.0088370866788136729 0 0.00012892564106057892 0.0090143866957527134 0 2.705477665767263e-07 0.0096785492319710533 0 0.00012892564106057892 0.0090143866957527134 0 0.00023921529795943827 0.0088731437086306594 0 0.00016807081886980455 0.0093564940470502924 0 0.00024285522963370923 0.0085374323474433356 0 0.00015016088066419891 0.0084091589767715368 0 0.00023921529795943827 0.0088731437086306594 0 0.00024285522963370923 0.0085374323474433356 0 0.00023921529795943827 0.0088731437086306594 0 0.00027827266054137136 0.0088598146067829977 0 0.00023921529795943827 0.0088731437086306594 0 0.00027827266054137136 0.0088598146067829977 0 0.00026150256740096827 0.0091869374407959302 0 0.00026150256740096827 0.0091869374407959302 0 0.00014877901919857896 0.0095155726658636801 0 0.00025410423039470646 0.0091823100320184529 0 0.00026150256740096827 0.0091869374407959302 0 0.00017097886417471864 0.0096056242283467617 0 0.00014877901919857896 0.0095155726658636801 0 0.00026150256740096827 0.0091869374407959302 0 0.00017097886417471864 0.0096056242283467617 0 0.00016807081886980455 0.0093564940470502924 0 0.00023921529795943827 0.0088731437086306594 0 0.00026150256740096827 0.0091869374407959302 0 0.00016807081886980455 0.0093564940470502924 0 0.00012892564106057892 0.0090143866957527134 0 0.00016807081886980455 0.0093564940470502924 0 2.705477665767263e-07 0.0096785492319710533 0 2.705477665767263e-07 0.0096785492319710533 0 0.000109201115465289 0.0099548063785885824 0 6.8457061633685331e-08 0.010519800657511224 0 0.00016807081886980455 0.0093564940470502924 0 2.705477665767263e-07 0.0096785492319710533 0 0.000109201115465289 0.0099548063785885824 0 0.00017097886417471864 0.0096056242283467617 0 0.00016807081886980455 0.0093564940470502924 0 0.000109201115465289 0.0099548063785885824 0 0.000109201115465289 0.0099548063785885824 0 3.4512052848221897e-05 0.010467629783723578 0 6.3505692342785976e-05 0.0099308099863425949 0 0.000109201115465289 0.0099548063785885824 0 6.8457061633685331e-08 0.010519800657511224 0 3.4512052848221897e-05 0.010467629783723578 0 4.2805125975904866e-07 0.011361493913942637 0 6.8457061633685331e-08 0.010519800657511224 0 3.4512052848221897e-05 0.010467629783723578 0 -8.96069669551187e-05 0.010154991706713096 0 6.35056923427