<?xml version="1.0"?>
<VTKFile type="UnstructuredGrid" version="0.1" byte_order="LittleEndian">
<UnstructuredGrid>
<Piece NumberOfPoints="31898" NumberOfCells="11152">
<Points>
<DataArray type="Float64" NumberOfComponents="3" format="ascii">
-0.5 -0.5 0 -0.47620991077874902 -0.44978878706170539 0 -0.49999999999999473 -0.42132396840504388 0 -0.5 -0.5 0 -0.47160970827802529 -0.4793630013852106 0 -0.47620991077874902 -0.44978878706170539 0 -0.5 -0.5 0 -0.47160970827802529 -0.4793630013852106 0 -0.44860394795025399 -0.5 0 -0.47160970827802529 -0.4793630013852106 0 -0.44860394795025399 -0.5 0 -0.4490820238307246 -0.45820516232899983 0 -0.44860394795025399 -0.5 0 -0.4490820238307246 -0.45820516232899983 0 -0.42881687682924802 -0.47781464288736519 0 -0.4490820238307246 -0.45820516232899983 0 -0.45555437223955858 -0.42914059360647611 0 -0.4490820238307246 -0.45820516232899983 0 -0.45555437223955858 -0.42914059360647611 0 -0.43867285131603428 -0.4271457417558665 0 -0.4490820238307246 -0.45820516232899983 0 -0.43867285131603428 -0.4271457417558665 0 -0.4263356171060747 -0.44269880333887462 0 -0.47160970827802529 -0.4793630013852106 0 -0.4490820238307246 -0.45820516232899983 0 -0.47620991077874902 -0.44978878706170539 0 -0.4490820238307246 -0.45820516232899983 0 -0.47620991077874902 -0.44978878706170539 0 -0.45555437223955858 -0.42914059360647611 0 -0.47620991077874902 -0.44978878706170539 0 -0.48101336032419229 -0.41069999664450008 0 -0.45555437223955858 -0.42914059360647611 0 -0.47620991077874902 -0.44978878706170539 0 -0.49999999999999473 -0.42132396840504388 0 -0.48101336032419229 -0.41069999664450008 0 -0.49999999999999473 -0.42132396840504388 0 -0.48101336032419229 -0.41069999664450008 0 -0.5 -0.393886241813306 0 -0.49999999999999473 -0.42132396840504388 0 -0.48101336032419229 -0.41069999664450008 0 -0.5 -0.393886241813306 0 -0.47854472220918332 -0.38978458738689759 0 -0.48422759779560409 -0.37130120630367158 0 -0.5 -0.393886241813306 0 -0.5 -0.36644851522156802 0 -0.48422759779560409 -0.37130120630367158 0 -0.48101336032419229 -0.41069999664450008 0 -0.5 -0.393886241813306 0 -0.47854472220918332 -0.38978458738689759 0 -0.48101336032419229 -0.41069999664450008 0 -0.47854472220918332 -0.38978458738689759 0 -0.46202672064839212 -0.40007602488395211 0 -0.48101336032419229 -0.41069999664450008 0 -0.46202672064839212 -0.40007602488395211 0 -0.47854472220918332 -0.38978458738689759 0 -0.46725442735267431 -0.37660061361585562 0 -0.46202672064839212 -0.40007602488395211 0 -0.47854472220918332 -0.38978458738689759 0 -0.46725442735267431 -0.37660061361585562 0 -0.48422759779560409 -0.37130120630367158 0 -0.46725442735267431 -0.37660061361585562 0 -0.46202672064839212 -0.40007602488395211 0 -0.46725442735267431 -0.37660061361585562 0 -0.45645674801697989 -0.38644133236760531 0 -0.46202672064839212 -0.40007602488395211 0 -0.46725442735267431 -0.37660061361585562 0 -0.45645674801697989 -0.38644133236760531 0 -0.4540003998136638 -0.37455519391687309 0 -0.45645674801697989 -0.38644133236760531 0 -0.46202672064839212 -0.40007602488395211 0 -0.44257020456291563 -0.38918913383950271 0 -0.46202672064839212 -0.40007602488395211 0 -0.44257020456291563 -0.38918913383950271 0 -0.44727608925983742 -0.41095911152778891 0 -0.46202672064839212 -0.40007602488395211 0 -0.44257020456291563 -0.38918913383950271 0 -0.44257020456291563 -0.38918913383950271 0 -0.44727608925983742 -0.41095911152778891 0 -0.43479358559901082 -0.4041454901736512 0 -0.44257020456291563 -0.38918913383950271 0 -0.4540003998136638 -0.37455519391687309 0 -0.44172858264042247 -0.37082207246888088 0 -0.45645674801697989 -0.38644133236760531 0 -0.44257020456291563 -0.38918913383950271 0 -0.4540003998136638 -0.37455519391687309 0 -0.46202672064839212 -0.40007602488395211 0 -0.45555437223955858 -0.42914059360647611 0 -0.44727608925983742 -0.41095911152778891 0 -0.46202672064839212 -0.40007602488395211 0 -0.45555437223955858 -0.42914059360647611 0 -0.48101336032419229 -0.41069999664450008 0 -0.46202672064839212 -0.40007602488395211 0 -0.45555437223955858 -0.42914059360647611 0 -0.44727608925983742 -0.41095911152778891 0 -0.43867285131603428 -0.4271457417558665 0 -0.43676601469929588 -0.41441201227470881 0 -0.44727608925983742 -0.41095911152778891 0 -0.43676601469929588 -0.41441201227470881 0 -0.43479358559901082 -0.4041454901736512 0 -0.45555437223955858 -0.42914059360647611 0 -0.44727608925983742 -0.41095911152778891 0 -0.43867285131603428 -0.4271457417558665 0 -0.43867285131603428 -0.4271457417558665 0 -0.42681803064840879 -0.42717069814352421 0 -0.4263356171060747 -0.44269880333887462 0 -0.42681803064840879 -0.42717069814352421 0 -0.41531815884496182 -0.42985383783075998 0 -0.4263356171060747 -0.44269880333887462 0 -0.42681803064840879 -0.42717069814352421 0 -0.42624289495594048 -0.42089725947505818 0 -0.42083332353326591 -0.42146747131641099 0 -0.42681803064840879 -0.42717069814352421 0 -0.43096994786351572 -0.41951492446283251 0 -0.42624289495594048 -0.42089725947505818 0 -0.43867285131603428 -0.4271457417558665 0 -0.42681803064840879 -0.42717069814352421 0 -0.43096994786351572 -0.41951492446283251 0 -0.43867285131603428 -0.4271457417558665 0 -0.43676601469929588 -0.41441201227470881 0 -0.43096994786351572 -0.41951492446283251 0 -0.43676601469929588 -0.41441201227470881 0 -0.43096994786351572 -0.41951492446283251 0 -0.42907264086257813 -0.41311715872526122 0 -0.43676601469929588 -0.41441201227470881 0 -0.42907264086257813 -0.41311715872526122 0 -0.43479358559901082 -0.4041454901736512 0 -0.42907264086257813 -0.41311715872526122 0 -0.43479358559901082 -0.4041454901736512 0 -0.42460885511582858 -0.40417321677700252 0 -0.42907264086257813 -0.41311715872526122 0 -0.41997834854398469 -0.41180534796019508 0 -0.42907264086257813 -0.41311715872526122 0 -0.42635027777857132 -0.41543594397746519 0 -0.41997834854398469 -0.41180534796019508 0 -0.42907264086257813 -0.41311715872526122 0 -0.41997834854398469 -0.41180534796019508 0 -0.42460885511582858 -0.40417321677700252 0 -0.42635027777857132 -0.41543594397746519 0 -0.41997834854398469 -0.41180534796019508 0 -0.42635027777857132 -0.41543594397746519 0 -0.42083332353326591 -0.42146747131641099 0 -0.41997834854398469 -0.41180534796019508 0 -0.43096994786351572 -0.41951492446283251 0 -0.42624289495594048 -0.42089725947505818 0 -0.42635027777857132 -0.41543594397746519 0 -0.43096994786351572 -0.41951492446283251 0 -0.42907264086257813 -0.41311715872526122 0 -0.42635027777857132 -0.41543594397746519 0 -0.42624289495594048 -0.42089725947505818 0 -0.42635027777857132 -0.41543594397746519 0 -0.42083332353326591 -0.42146747131641099 0 -0.42083332353326591 -0.42146747131641099 0 -0.41997834854398469 -0.41180534796019508 0 -0.40992282953163789 -0.42011435591993562 0 -0.41997834854398469 -0.41180534796019508 0 -0.39756877647335259 -0.40857286797681719 0 -0.41997834854398469 -0.41180534796019508 0 -0.40992282953163789 -0.42011435591993562 0 -0.39756877647335259 -0.40857286797681719 0 -0.40992282953163789 -0.42011435591993562 0 -0.41531815884496182 -0.42985383783075998 0 -0.39591554026262499 -0.42887225451549271 0 -0.41531815884496182 -0.42985383783075998 0 -0.39591554026262499 -0.42887225451549271 0 -0.41160927495564159 -0.44339431233754628 0 -0.42083332353326591 -0.42146747131641099 0 -0.40992282953163789 -0.42011435591993562 0 -0.41531815884496182 -0.42985383783075998 0 -0.42681803064840879 -0.42717069814352421 0 -0.42083332353326591 -0.42146747131641099 0 -0.41531815884496182 -0.42985383783075998 0 -0.44257020456291563 -0.38918913383950271 0 -0.42311368847744002 -0.37830224279505142 0 -0.42594061475171041 -0.39368797999533162 0 -0.44257020456291563 -0.38918913383950271 0 -0.42311368847744002 -0.37830224279505142 0 -0.44172858264042247 -0.37082207246888088 0 -0.44257020456291563 -0.38918913383950271 0 -0.42311368847744002 -0.37830224279505142 0 -0.42311368847744002 -0.37830224279505142 0 -0.42594061475171041 -0.39368797999533162 0 -0.416587075656149 -0.38785930376960043 0 -0.44257020456291563 -0.38918913383950271 0 -0.42594061475171041 -0.39368797999533162 0 -0.43479358559901082 -0.4041454901736512 0 -0.42594061475171041 -0.39368797999533162 0 -0.43479358559901082 -0.4041454901736512 0 -0.42460885511582858 -0.40417321677700252 0 -0.41997834854398469 -0.41180534796019508 0 -0.41325908582185972 -0.39811010703057192 0 -0.39770572831670092 -0.39911486077581648 0 -0.41997834854398469 -0.41180534796019508 0 -0.39770572831670092 -0.39911486077581648 0 -0.42594061475171041 -0.39368797999533162 0 -0.42460885511582858 -0.40417321677700252 0 -0.41325908582185972 -0.39811010703057192 0 -0.41997834854398469 -0.41180534796019508 0 -0.42460885511582858 -0.40417321677700252 0 -0.41325908582185972 -0.39811010703057192 0 -0.42594061475171041 -0.39368797999533162 0 -0.41325908582185972 -0.39811010703057192 0 -0.416587075656149 -0.38785930376960043 0 -0.41325908582185972 -0.39811010703057192 0 -0.416587075656149 -0.38785930376960043 0 -0.40403491357358612 -0.38133688525744702 0 -0.42311368847744002 -0.37830224279505142 0 -0.40403491357358612 -0.38133688525744702 0 -0.40365717239196519 -0.36741535175059892 0 -0.42311368847744002 -0.37830224279505142 0 -0.416587075656149 -0.38785930376960043 0 -0.40403491357358612 -0.38133688525744702 0 -0.40403491357358612 -0.38133688525744702 0 -0.39190790742475001 -0.38540387676521748 0 -0.39770572831670092 -0.39911486077581648 0 -0.40403491357358612 -0.38133688525744702 0 -0.39190790742475001 -0.38540387676521748 0 -0.3904578797192948 -0.37473938743617019 0 -0.41325908582185972 -0.39811010703057192 0 -0.40403491357358612 -0.38133688525744702 0 -0.39770572831670092 -0.39911486077581648 0 -0.39770572831670092 -0.39911486077581648 0 -0.37543310808941849 -0.38642437359143528 0 -0.39770572831670092 -0.39911486077581648 0 -0.37515920440272033 -0.40534038799344108 0 -0.37543310808941849 -0.38642437359143528 0 -0.39770572831670092 -0.39911486077581648 0 -0.37515920440272033 -0.40534038799344108 0 -0.39756877647335259 -0.40857286797681719
[...]
<PointData Scalars="" Vectors="displacement," Tensors="">
<DataArray type="Float64" Name="displacement" NumberOfComponents="3" format="ascii">
-0.034997128640349352 -2.7131001682816589e-07 0 -0.034118854691000726 -0.00018118265585240808 0 -0.034997664691260484 -7.4624669195711887e-07 0 -0.034997128640349352 -2.7131001682816589e-07 0 -0.033473375013680459 -0.00012185236339124648 0 -0.034118854691000726 -0.00018118265585240808 0 -0.034997128640349352 -2.7131001682816589e-07 0 -0.033473375013680459 -0.00012185236339124648 0 -0.03140421549385046 -2.7417892845955117e-07 0 -0.033473375013680459 -0.00012185236339124648 0 -0.03140421549385046 -2.7417892845955117e-07 0 -0.032859405514963358 6.7854620737590362e-05 0 -0.03140421549385046 -2.7417892845955117e-07 0 -0.032859405514963358 6.7854620737590362e-05 0 -0.031216967756674555 -6.7506890987643894e-05 0 -0.033366539974115782 0.00027290402116953924 0 -0.03344050962959623 0.00028000263717951673 0 -0.032859405514963358 6.7854620737590362e-05 0 -0.032311587518953674 0.00030520802249819028 0 -0.032260556877944851 9.6967699714425149e-05 0 -0.032859405514963358 6.7854620737590362e-05 0 -0.032260556877944851 9.6967699714425149e-05 0 -0.032288067294873088 1.3990787861295408e-05 0 -0.033473375013680459 -0.00012185236339124648 0 -0.032859405514963358 6.7854620737590362e-05 0 -0.034118854691000726 -0.00018118265585240808 0 -0.032859405514963358 6.7854620737590362e-05 0 -0.034118854691000726 -0.00018118265585240808 0 -0.034445040324770533 0.00026242521020645651 0 -0.034118854691000726 -0.00018118265585240808 0 -0.034883616518982093 -3.2052602408266463e-05 0 -0.034445040324770533 0.00026242521020645651 0 -0.034118854691000726 -0.00018118265585240808 0 -0.034997664691260484 -7.4624669195711887e-07 0 -0.034883616518982093 -3.2052602408266463e-05 0 -0.034999999063019545 1.184119314752325e-10 0 -0.034999081407049069 -4.124995991639681e-07 0 -0.034999999178623564 -5.0724136605551522e-10 0 -0.034997421997143979 9.9344224591048601e-07 0 -0.034316662131034979 0.00016371232528589945 0 -0.034999999178623564 -5.0724136605551522e-10 0 -0.034998898143588995 -7.6003745818254308e-07 0 -0.034999580692203047 -1.1937661373411078e-06 0 -0.034999999178623564 -5.0724136605551522e-10 0 -0.034999997528441427 -1.7559671463466191e-09 0 -0.034999580692203047 -1.1937661373411078e-06 0 -0.034999081407049069 -4.124995991639681e-07 0 -0.034999999178623564 -5.0724136605551522e-10 0 -0.034998898143588995 -7.6003745818254308e-07 0 -0.034999081407049069 -4.124995991639681e-07 0 -0.034998898143588995 -7.6003745818254308e-07 0 -0.034997719146311862 -7.0184564833056889e-07 0 -0.034316662131034979 0.00016371232528589945 0 -0.033531951875746424 0.00029640092561128466 0 -0.034998898143588995 -7.6003745818254308e-07 0 -0.034998597500696317 -9.6822711074540507e-07 0 -0.034997719146311862 -7.0184564833056889e-07 0 -0.034998898143588995 -7.6003745818254308e-07 0 -0.034998597500696317 -9.6822711074540507e-07 0 -0.034999580692203047 -1.1937661373411078e-06 0 -0.033995873660835355 0.00017556483234961907 0 -0.033531951875746424 0.00029640092561128466 0 -0.03337817852760596 0.00015138925785294154 0 -0.033145035552106607 0.000417850100096345 0 -0.032817485691059446 0.00028471405188590344 0 -0.03337817852760596 0.00015138925785294154 0 -0.033145035552106607 0.000417850100096345 0 -0.033434355943355483 0.000480487912761589 0 -0.033145035552106607 0.000417850100096345 0 -0.032817485691059446 0.00028471405188590344 0 -0.033082277915963562 0.00075189016142067225 0 -0.032046152286198601 0.00035320525393744815 0 -0.031943900251677898 0.00018574259684573304 0 -0.032145916213433545 0.00021538251636000461 0 -0.033531951875746424 0.00029640092561128466 0 -0.032590834235931794 0.00065843239794717697 0 -0.031943900251677898 0.00018574259684573304 0 -0.032145916213433545 0.00021538251636000461 0 -0.032091393023302425 0.00011203787930278289 0 -0.033082277915963562 0.00075189016142067225 0 -0.033434355943355483 0.000480487912761589 0 -0.03352291957137201 0.00077251914032551103 0 -0.033145035552106607 0.000417850100096345 0 -0.033082277915963562 0.00075189016142067225 0 -0.033434355943355483 0.000480487912761589 0 -0.032046152286198601 0.00035320525393744815 0 -0.032311587518953674 0.00030520802249819028 0 -0.032145916213433545 0.00021538251636000461 0 -0.033531951875746424 0.00029640092561128466 0 -0.03344050962959623 0.00028000263717951673 0 -0.034883616518982093 -3.2052602408266463e-05 0 -0.035005875516656355 0.00023547054083282456 0 -0.034445040324770533 0.00026242521020645651 0 -0.032145916213433545 0.00021538251636000461 0 -0.032260556877944851 9.6967699714425149e-05 0 -0.032189559898252632 0.0001208698178089673 0 -0.032145916213433545 0.00021538251636000461 0 -0.032189559898252632 0.0001208698178089673 0 -0.032091393023302425 0.00011203787930278289 0 -0.032311587518953674 0.00030520802249819028 0 -0.032145916213433545 0.00021538251636000461 0 -0.032260556877944851 9.6967699714425149e-05 0 -0.032260556877944851 9.6967699714425149e-05 0 -0.032261692203769073 6.9631292440640847e-05 0 -0.032288067294873088 1.3990787861295408e-05 0 -0.032261692203769073 6.9631292440640847e-05 0 -0.032265425038648085 0.00013094577027010843 0 -0.032288067294873088 1.3990787861295408e-05 0 -0.032261692203769073 6.9631292440640847e-05 0 -0.032247322378509857 7.5084138179627979e-05 0 -0.032256755137797841 9.5440986731865521e-05 0 -0.032261692203769073 6.9631292440640847e-05 0 -0.032235338727266478 8.1814469808019066e-05 0 -0.032247322378509857 7.5084138179627979e-05 0 -0.032260556877944851 9.6967699714425149e-05 0 -0.032261692203769073 6.9631292440640847e-05 0 -0.032235338727266478 8.1814469808019066e-05 0 -0.032260556877944851 9.6967699714425149e-05 0 -0.032189559898252632 0.0001208698178089673 0 -0.032235338727266478 8.1814469808019066e-05 0 -0.032189559898252632 0.0001208698178089673 0 -0.032235338727266478 8.1814469808019066e-05 0 -0.032199583355405965 7.0561333451163685e-05 0 -0.032189559898252632 0.0001208698178089673 0 -0.032199583355405965 7.0561333451163685e-05 0 -0.032091393023302425 0.00011203787930278289 0 -0.032199583355405965 7.0561333451163685e-05 0 -0.032091393023302425 0.00011203787930278289 0 -0.032092295903062701 1.1060957551636504e-05 0 -0.027099924866160471 0.001309634155122093 0 -0.027048821085385914 0.0013382447046092749 0 -0.032199583355405965 7.0561333451163685e-05 0 -0.032233468294155861 6.2583324782533624e-05 0 -0.03221012493941406 2.1123415700071192e-05 0 -0.032199583355405965 7.0561333451163685e-05 0 -0.032178539494579363 -3.9510433792317984e-05 0 -0.032092295903062701 1.1060957551636504e-05 0 -0.027097638699440065 0.001355287897178803 0 -0.027048821085385914 0.0013382447046092749 0 -0.032233468294155861 6.2583324782533624e-05 0 -0.032256755137797841 9.5440986731865521e-05 0 -0.032280947510342668 0.00010122924502128838 0 -0.032235338727266478 8.1814469808019066e-05 0 -0.032247322378509857 7.5084138179627979e-05 0 -0.032233468294155861 6.2583324782533624e-05 0 -0.032235338727266478 8.1814469808019066e-05 0 -0.032199583355405965 7.0561333451163685e-05 0 -0.032233468294155861 6.2583324782533624e-05 0 -0.032247322378509857 7.5084138179627979e-05 0 -0.032233468294155861 6.2583324782533624e-05 0 -0.032256755137797841 9.5440986731865521e-05 0 -0.032256755137797841 9.5440986731865521e-05 0 -0.032280947510342668 0.00010122924502128838 0 -0.032268243165704008 0.00014408391073216634 0 -0.027048821085385914 0.0013382447046092749 0 -0.02665995812211094 0.0011248975202390516 0 -0.032280947510342668 0.00010122924502128838 0 -0.032268243165704008 0.00014408391073216634 0 -0.032301168111731594 0.00019333369856906131 0 -0.032268243165704008 0.00014408391073216634 0 -0.032265425038648085 0.00013094577027010843 0 -0.032244268791259231 0.00020450755404664915 0 -0.032265425038648085 0.00013094577027010843 0 -0.032244268791259231 0.00020450755404664915 0 -0.032222764040528526 0.00020411535321944972 0 -0.032256755137797841 9.5440986731865521e-05 0 -0.032268243165704008 0.00014408391073216634 0 -0.032265425038648085 0.00013094577027010843 0 -0.032261692203769073 6.9631292440640847e-05 0 -0.032256755137797841 9.5440986731865521e-05 0 -0.032265425038648085 0.00013094577027010843 0 -0.031943900251677898 0.00018574259684573304 0 -0.031809543971111021 -5.7599513933092459e-06 0 -0.031979710234916608 2.300918954415011e-05 0 -0.033082277915963562 0.00075189016142067225 0 -0.033344303054090911 0.0012080925764978185 0 -0.03352291957137201 0.00077251914032551103 0 -0.032590834235931794 0.00065843239794717697 0 -0.031703921648042734 0.0011234007126233927 0 -0.031809543971111021 -5.7599513933092459e-06 0 -0.031979710234916608 2.300918954415011e-05 0 -0.031910896675025321 -7.652667945505978e-05 0 -0.031943900251677898 0.00018574259684573304 0 -0.031979710234916608 2.300918954415011e-05 0 -0.032091393023302425 0.00011203787930278289 0 -0.031979710234916608 2.300918954415011e-05 0 -0.032091393023302425 0.00011203787930278289 0 -0.032092295903062701 1.1060957551636504e-05 0 -0.032178539494579363 -3.9510433792317984e-05 0 -0.032024392394133988 -0.00011324364660207324 0 -0.032034521169423666 -0.00028817638412855163 0 -0.027048821085385914 0.0013382447046092749 0 -0.026798945558429637 0.0014728120919143713 0 -0.031979710234916608 2.300918954415011e-05 0 -0.032092295903062701 1.1060957551636504e-05 0 -0.032024392394133988 -0.00011324364660207324 0 -0.032178539494579363 -3.9510433792317984e-05 0 -0.032092295903062701 1.1060957551636504e-05 0 -0.032024392394133988 -0.00011324364660207324 0 -0.031979710234916608 2.300918954415011e-05 0 -0.032024392394133988 -0.00011324364660207324 0 -0.031910896675025321 -7.652667945505978e-05 0 -0.032024392394133988 -0.00011324364660207324 0 -0.031910896675025321 -7.652667945505978e-05 0 -0.031830090902119627 -0.00021179774323273713 0 -0.031809543971111021 -5.7599513933092459e-06 0 -0.031830090902119627 -0.00021179774323273713 0 -0.031681530535893926 -0.00021431389684418851 0 -0.031809543971111021 -5.7599513933092459e-06 0 -0.031910896675025321 -7.652667945505978e-05 0 -0.031830090902119627 -0.00021179774323273713 0 -0.031830090902119627 -0.00021179774323273713 0 -0.031871447184872059 -0.00035997012035304311 0 -0.032034521169423666 -0.00028817638412855163 0 -0.031830090902119627 -0.00021179774323273713 0 -0.031871447184872059 -0.00035997012035304311 0 -0.031738634437709065 -0.00037855696981381665 0 -0.032024392394133988 -0.00011324364660207324 0 -0.031830090902119627 -0.00021179774323273713 0 -0.032034521169423666 -0.00028817638412855163 0 -0.026798945558429637 0.0014728120919143713 0 -0.026049648513734092 0.0015956533704552559 0 -0.026376767778254543 0.0013116536632054557 0 -0.026414457204264403 0.0011727101790465584 0 -0.026298227059095198 0.0011745764898861628 0 -0.026376767778254543 0.0013116536632054557 0 -0.026414457204264403 0.0011727101790465584 0 -0.026435037028377739 0.0013107679711323211 0 -0.025920271254866848 0.00095398873320941735 0 -0.026049648513734092 0.0015956533704552559 0 -0.031880554520493105 -0.00056370930127586484 0 -0.031738634437709065 -0.00037855696981381665 0 -0.031664367587434329 -0.00056458929582283812 0 -0.031871447184872059 -0.00035997012035304311 0 -0.031880554520493105 -0.00056370930127586484 0 -0.031738634437709065 -0.00037855696981381665 0 -0.026049648513734092 0.0015956533704552559 0 -0.027539904832329824 0.00161293184219241 0 -0.031871447184872059 -0.00035997012035304311 0 -0.032034521169423666 -0.00028817638412855163 0 -0.031880554520493105 -0.00056370930127586484 0 -0.026455782104869409 0.0014490395636813599 0 -0.026376767778254543 0.0013116536632054557 0 -0.026435037028377739 0.0013107679711323211 0 -0.032268243165704008 0.00014408391073216634 0 -0.032244268791259231 0.00020450755404664915 0 -0.032301168111731594 0.00019333369856906131 0 -0.032300075012615392 0.0002580428186958759 0 -0.032244268791259231 0.00020450755404664915 0 -0.032301168111731594 0.00019333369856906131 0 -0.025920271254866848 0.00095398873320941735 0 -0.02665995812211094 0.0011248975202390516 0 -0.032300075012615392 0.0002580428186958759 0 -0.032244268791259231 0.00020450755404664915 0 -0.032225545052196242 0.00025822258063537269 0 -0.032244268791259231 0.00020450755404664915 0 -0.032208616668583163 0.00022000418269828189 0 -0.032225545052196242 0.00025822258063537269 0 -0.032208616668583163 0.00022000418269828189 0 -0.032162695250807387 0.00026084368244385308 0 -0.032225545052196242 0.00025822258063537269 0 -0.032244268791259231 0.00020450755404664915 0 -0.032208616668583163 0.00022000418269828189 0 -0.032222764040528526 0.00020411535321944972 0 -0.032208616668583163 0.00022000418269828189 0 -0.032190972344451355 0.00020642460463982668 0 -0.032222764040528526 0.00020411535321944972 0 -0.031710953608654259 0.00064076581095640582 0 -0.02971152046937562 0.00074444663090822644 0 -0.031081680510010812 0.00022320708123577736 0 -0.023686048163398785 0.0017322006862411999 0 -0.023913362782854448 0.00088341228679217137 0 -0.024904822923554882 0.0010823448237112685 0 -0.027725522318922918 -0.00053530897506410017 0 -0.02727440568679319 -0.00023344777425991423 0 -0.027725522318922918 -0.00053530897506410017 0 -0.027729089383213498 -0.00053486472902825987 0 -0.027725522318922918 -0.00053530897506410017 0 -0.027326782107752821 0.00014879069691538227 0 -0.032208616668583163 0.00022000418269828189 0 -0.032190972344451355 0.00020642460463982668 0 -0.032175901145953138 0.00022942752172662434 0 -0.032208616668583163 0.00022000418269828189 0 -0.032175901145953138 0.00022942752172662434 0 -0.032162695250807387 0.00026084368244385308 0 -0.027326782107752821 0.00014879069691538227 0 -0.026895726427624157 0.00077203024024674995 0 -0.023913362782854448 0.00088341228679217137 0 -0.024490248865994123 0.00057468279922465485 0 -0.024142079848442865 2.3229881485957612e-05 0 -0.024490248865994123 0.00057468279922465485 0 -0.024904822923554882 0.0010823448237112685 0 -0.024821242996936894 8.1803607229810887e-06 0 -0.024904822923554882 0.0010823448237112685 0 -0.025525981389152502 -0.00012749478015895187 0 -0.024821242996936894 8.1803607229810887e-06 0 -0.024490248865994123 0.00057468279922465485 0 -0.024821242996936894 8.1803607229810887e-06 0 -0.024142079848442865 2.3229881485957612e-05 0 -0.023913362782854448 0.00088341228679217137 0 -0.024490248865994123 0.00057468279922465485 0 -0.024904822923554882 0.0010823448237112685 0 -0.026667902301908394 -4.0891520454864484e-07 0 -0.02727440568679319 -0.00023344777425991423 0 -0.026663355073103405 1.8271984194504381e-06 0 -0.024904822923554882 0.0010823448237112685 0 -0.025525981389152502 -0.00012749478015895187 0 -0.026669741432056821 2.8413493988010573e-06 0 -0.02971152046937562 0.00074444663090822644 0 -0.028698741431501154 -4.9327906892480221e-07 0 -0.02971152046937562 0.00074444663090822644 0 -0.031081680510010812 0.00022320708123577736 0 -0.028698741431501154 -4.9327906892480221e-07 0 -0.031081680510010812 0.00022320708123577736 0 -0.028698741431501154 -4.9327906892480221e-07 0 -0.031216967756674555 -6.7506890987643894e-05 0 -0.03140421549385046 -2.7417892845955117e-07 0 -0.028698741431501154 -4.9327906892480221e-07 0 -0.031216967756674555 -6.7506890987643894e-05 0 -0.031081680510010812 0.00022320708123577736 0 -0.031216967756674555 -6.7506890987643894e-05 0 -0.031957617267887019 2.7660540789089907e-05 0 -0.032859405514963358 6.7854620737590362e-05 0 -0.031216967756674555 -6.7506890987643894e-05 0 -0.031957617267887019 2.7660540789089907e-05 0 -0.032859405514963358 6.7854620737590362e-05 0 -0.031957617267887019 2.7660540789089907e-05 0 -0.032288067294873088 1.3990787861295408e-05 0 -0.031957617267887019 2.7660540789089907e-05 0 -0.032288067294873088 1.3990787861295408e-05 0 -0.031974207911499471 0.00015410124791984448 0 -0.032288067294873088 1.3990787861295408e-05 0 -0.032222764040528526 0.00020411535321944972 0 -0.031974207911499471 0.00015410124791984448 0 -0.032265425038648085 0.00013094577027010843 0 -0.032288067294873088 1.3990787861295408e-05 0 -0.032222764040528526 0.00020411535321944972 0 -0.031751457397410095 0.0006142787775677153 0 -0.032222764040528526 0.00020411535321944972 0 -0.031772531696800166 0.00050861565393455724 0 -0.032222764040528526 0.00020411535321944972 0 -0.031772531696800166 0.00050861565393455724 0 -0.031974207911499471 0.00015410124791984448 0 -0.027725522318922918 -0.00053530897506410017 0 -0.028117305694260679 -0.00064780321255886414 0 -0.031081680510010812 0.00022320708123577736 0 -0.031772531696800166 0.00050861565393455724 0 -0.031974207911499471 0.00015410124791984448 0 -0.031710953608654259 0.00064076581095640582 0 -0.031081680510010812 0.00022320708123577736 0 -0.031772531696800166 0.00050861565393455724 0 -0.031081680510010812 0.00022320708123577736 0 -0.031957617267887019 2.7660540789089907e-05 0 -0.031974207911499471 0.00015410124791984448 0 -0.031115219197537711 0.0011736278088223774 0 -0.030465870824461089 0.0019508932007628712 0 -0.034799587116489186 -0.00032899327551052604 0 -0.034843605175445574 -0.0013785577979059712 0 -0.034282086979229479 -0.00053194397234295442 0 -0.034945483427438417 0.00010507839596153305 0 -0.034970988526782792 8.0481846120863292e-05 0 -0.034978491737854264 0.00013853829920507457 0 -0.034945483427438417 0.00010507839596153305 0 -0.034941519172034807 0.00015391797620257797 0 -0.034978491737854264 0.00013853829920507457 0 -0.034945483427438417 0.00010507839596153305 0 -0.034913421362399027 0.00014904197807444377 0 -0.034941519172034807 0.00015391797620257797 0 -0.034945483427438417 0.00010507839596153305 0 -0.034949208961003883 5.5468861135006725e-05 0 -0.03495109268481391 5.226538688564133e-05 0 -0.034945483427438417 0.00010507839596153305 0 -0.034949208961003883 5.5468861135006725e-05 0 -0.034970988526782792 8.0481846120863292e-05 0 -0.031115219197537711 0.0011736278088223774 0 -0.031327714193705593 0.00098682343894956502 0 -0.034949208961003883 5.5468861135006725e-05 0 -0.034970988526782792 8.0481846120863292e-05 0 -0.034905867096002879 4.8752157327348554e-05 0 -0.034799587116489186 -0.00032899327551052604 0 -0.034905867096002879 4.8752157327348554e-05 0 -0.034342549770669153 3.3645836851737633e-05 0 -0.034905867096002879 4.8752157327348554e-05 0 -0.034999914042909454 1.036169462833481e-07 0 -0.034964539145478923 3.1888766795644657e-05 0 -0.034905867096002879 4.8752157327348554e-05 0 -0.034999914042909454 1.036169462833481e-07 0 -0.034745498485476325 6.017190289510798e-05 0 -0.034999914042909454 1.036169462833481e-07 0 -0.034964539145478923 3.1888766795644657e-05 0 -0.034999938913379193 -4.73179332542165e-09 0 -0.034949208961003883 5.5468861135006725e-05 0 -0.034905867096002879 4.8752157327348554e-05 0 -0.034964539145478923 3.1888766795644657e-05 0 -0.034949208961003883 5.5468861135006725e-05 0 -0.034964539145478923 3.1888766795644657e-05 0 -0.03495109268481391 5.226538688564133e-05 0 -0.03495109268481391 5.226538688564133e-05 0 -0.034967082771112407 9.2694816654865271e-06 0 -0.034935854528652201 4.0188368255143612e-05 0 -0.034964539145478923 3.1888766795644657e-05 0 -0.03495109268481391 5.226538688564133e-05 0 -0.034967082771112407 9.2694816654865271e-06 0 -0.034999938913379193 -4.73179332542165e-09 0 -0.034967082771112407 9.2694816654865271e-06 0 -0.034999931061887223 8.7667363033515509e-09 0 -0.034964539145478923 3.1888766795644657e-05 0 -0.034999938913379193 -4.73179332542165e-09 0 -0.034967082771112407 9.2694816654865271e-06 0 -0.034967082771112407 9.2694816654865271e-06 0 -0.034999931061887223 8.7667363033515509e-09 0 -0.034950694478773428 -9.0156210631820049e-06 0 -0.034950694478773428 -9.0156210631820049e-06 0 -0.034935854528652201 4.0188368255143612e-05 0 -0.034852173809994252 3.4834226401981878e-05 0 -0.034967082771112407 9.2694816654865271e-06 0 -0.034950694478773428 -9.0156210631820049e-06 0 -0.034935854528652201 4.0188368255143612e-05 0 -0.034935854528652201 4.0188368255143612e-05 0 -0.034877373467178473 9.3690483710765635e-05 0 -0.034852173809994252 3.4834226401981878e-05 0 -0.034877373467178473 9.3690483710765635e-05 0 -0.034873666027927033 0