<?xml version="1.0"?>
<VTKFile type="UnstructuredGrid" version="0.1" byte_order="LittleEndian">
<UnstructuredGrid>
<Piece NumberOfPoints="31898" NumberOfCells="11152">
<Points>
<DataArray type="Float64" NumberOfComponents="3" format="ascii">
-0.5 -0.5 0 -0.47620991077874902 -0.44978878706170539 0 -0.49999999999999473 -0.42132396840504388 0 -0.5 -0.5 0 -0.47160970827802529 -0.4793630013852106 0 -0.47620991077874902 -0.44978878706170539 0 -0.5 -0.5 0 -0.47160970827802529 -0.4793630013852106 0 -0.44860394795025399 -0.5 0 -0.47160970827802529 -0.4793630013852106 0 -0.44860394795025399 -0.5 0 -0.4490820238307246 -0.45820516232899983 0 -0.44860394795025399 -0.5 0 -0.4490820238307246 -0.45820516232899983 0 -0.42881687682924802 -0.47781464288736519 0 -0.4490820238307246 -0.45820516232899983 0 -0.45555437223955858 -0.42914059360647611 0 -0.4490820238307246 -0.45820516232899983 0 -0.45555437223955858 -0.42914059360647611 0 -0.43867285131603428 -0.4271457417558665 0 -0.4490820238307246 -0.45820516232899983 0 -0.43867285131603428 -0.4271457417558665 0 -0.4263356171060747 -0.44269880333887462 0 -0.47160970827802529 -0.4793630013852106 0 -0.4490820238307246 -0.45820516232899983 0 -0.47620991077874902 -0.44978878706170539 0 -0.4490820238307246 -0.45820516232899983 0 -0.47620991077874902 -0.44978878706170539 0 -0.45555437223955858 -0.42914059360647611 0 -0.47620991077874902 -0.44978878706170539 0 -0.48101336032419229 -0.41069999664450008 0 -0.45555437223955858 -0.42914059360647611 0 -0.47620991077874902 -0.44978878706170539 0 -0.49999999999999473 -0.42132396840504388 0 -0.48101336032419229 -0.41069999664450008 0 -0.49999999999999473 -0.42132396840504388 0 -0.48101336032419229 -0.41069999664450008 0 -0.5 -0.393886241813306 0 -0.49999999999999473 -0.42132396840504388 0 -0.48101336032419229 -0.41069999664450008 0 -0.5 -0.393886241813306 0 -0.47854472220918332 -0.38978458738689759 0 -0.48422759779560409 -0.37130120630367158 0 -0.5 -0.393886241813306 0 -0.5 -0.36644851522156802 0 -0.48422759779560409 -0.37130120630367158 0 -0.48101336032419229 -0.41069999664450008 0 -0.5 -0.393886241813306 0 -0.47854472220918332 -0.38978458738689759 0 -0.48101336032419229 -0.41069999664450008 0 -0.47854472220918332 -0.38978458738689759 0 -0.46202672064839212 -0.40007602488395211 0 -0.48101336032419229 -0.41069999664450008 0 -0.46202672064839212 -0.40007602488395211 0 -0.47854472220918332 -0.38978458738689759 0 -0.46725442735267431 -0.37660061361585562 0 -0.46202672064839212 -0.40007602488395211 0 -0.47854472220918332 -0.38978458738689759 0 -0.46725442735267431 -0.37660061361585562 0 -0.48422759779560409 -0.37130120630367158 0 -0.46725442735267431 -0.37660061361585562 0 -0.46202672064839212 -0.40007602488395211 0 -0.46725442735267431 -0.37660061361585562 0 -0.45645674801697989 -0.38644133236760531 0 -0.46202672064839212 -0.40007602488395211 0 -0.46725442735267431 -0.37660061361585562 0 -0.45645674801697989 -0.38644133236760531 0 -0.4540003998136638 -0.37455519391687309 0 -0.45645674801697989 -0.38644133236760531 0 -0.46202672064839212 -0.40007602488395211 0 -0.44257020456291563 -0.38918913383950271 0 -0.46202672064839212 -0.40007602488395211 0 -0.44257020456291563 -0.38918913383950271 0 -0.44727608925983742 -0.41095911152778891 0 -0.46202672064839212 -0.40007602488395211 0 -0.44257020456291563 -0.38918913383950271 0 -0.44257020456291563 -0.38918913383950271 0 -0.44727608925983742 -0.41095911152778891 0 -0.43479358559901082 -0.4041454901736512 0 -0.44257020456291563 -0.38918913383950271 0 -0.4540003998136638 -0.37455519391687309 0 -0.44172858264042247 -0.37082207246888088 0 -0.45645674801697989 -0.38644133236760531 0 -0.44257020456291563 -0.38918913383950271 0 -0.4540003998136638 -0.37455519391687309 0 -0.46202672064839212 -0.40007602488395211 0 -0.45555437223955858 -0.42914059360647611 0 -0.44727608925983742 -0.41095911152778891 0 -0.46202672064839212 -0.40007602488395211 0 -0.45555437223955858 -0.42914059360647611 0 -0.48101336032419229 -0.41069999664450008 0 -0.46202672064839212 -0.40007602488395211 0 -0.45555437223955858 -0.42914059360647611 0 -0.44727608925983742 -0.41095911152778891 0 -0.43867285131603428 -0.4271457417558665 0 -0.43676601469929588 -0.41441201227470881 0 -0.44727608925983742 -0.41095911152778891 0 -0.43676601469929588 -0.41441201227470881 0 -0.43479358559901082 -0.4041454901736512 0 -0.45555437223955858 -0.42914059360647611 0 -0.44727608925983742 -0.41095911152778891 0 -0.43867285131603428 -0.4271457417558665 0 -0.43867285131603428 -0.4271457417558665 0 -0.42681803064840879 -0.42717069814352421 0 -0.4263356171060747 -0.44269880333887462 0 -0.42681803064840879 -0.42717069814352421 0 -0.41531815884496182 -0.42985383783075998 0 -0.4263356171060747 -0.44269880333887462 0 -0.42681803064840879 -0.42717069814352421 0 -0.42624289495594048 -0.42089725947505818 0 -0.42083332353326591 -0.42146747131641099 0 -0.42681803064840879 -0.42717069814352421 0 -0.43096994786351572 -0.41951492446283251 0 -0.42624289495594048 -0.42089725947505818 0 -0.43867285131603428 -0.4271457417558665 0 -0.42681803064840879 -0.42717069814352421 0 -0.43096994786351572 -0.41951492446283251 0 -0.43867285131603428 -0.4271457417558665 0 -0.43676601469929588 -0.41441201227470881 0 -0.43096994786351572 -0.41951492446283251 0 -0.43676601469929588 -0.41441201227470881 0 -0.43096994786351572 -0.41951492446283251 0 -0.42907264086257813 -0.41311715872526122 0 -0.43676601469929588 -0.41441201227470881 0 -0.42907264086257813 -0.41311715872526122 0 -0.43479358559901082 -0.4041454901736512 0 -0.42907264086257813 -0.41311715872526122 0 -0.43479358559901082 -0.4041454901736512 0 -0.42460885511582858 -0.40417321677700252 0 -0.42907264086257813 -0.41311715872526122 0 -0.41997834854398469 -0.41180534796019508 0 -0.42907264086257813 -0.41311715872526122 0 -0.42635027777857132 -0.41543594397746519 0 -0.41997834854398469 -0.41180534796019508 0 -0.42907264086257813 -0.41311715872526122 0 -0.41997834854398469 -0.41180534796019508 0 -0.42460885511582858 -0.40417321677700252 0 -0.42635027777857132 -0.41543594397746519 0 -0.41997834854398469 -0.41180534796019508 0 -0.42635027777857132 -0.41543594397746519 0 -0.42083332353326591 -0.42146747131641099 0 -0.41997834854398469 -0.41180534796019508 0 -0.43096994786351572 -0.41951492446283251 0 -0.42624289495594048 -0.42089725947505818 0 -0.42635027777857132 -0.41543594397746519 0 -0.43096994786351572 -0.41951492446283251 0 -0.42907264086257813 -0.41311715872526122 0 -0.42635027777857132 -0.41543594397746519 0 -0.42624289495594048 -0.42089725947505818 0 -0.42635027777857132 -0.41543594397746519 0 -0.42083332353326591 -0.42146747131641099 0 -0.42083332353326591 -0.42146747131641099 0 -0.41997834854398469 -0.41180534796019508 0 -0.40992282953163789 -0.42011435591993562 0 -0.41997834854398469 -0.41180534796019508 0 -0.39756877647335259 -0.40857286797681719 0 -0.41997834854398469 -0.41180534796019508 0 -0.40992282953163789 -0.42011435591993562 0 -0.39756877647335259 -0.40857286797681719 0 -0.40992282953163789 -0.42011435591993562 0 -0.41531815884496182 -0.42985383783075998 0 -0.39591554026262499 -0.42887225451549271 0 -0.41531815884496182 -0.42985383783075998 0 -0.39591554026262499 -0.42887225451549271 0 -0.41160927495564159 -0.44339431233754628 0 -0.42083332353326591 -0.42146747131641099 0 -0.40992282953163789 -0.42011435591993562 0 -0.41531815884496182 -0.42985383783075998 0 -0.42681803064840879 -0.42717069814352421 0 -0.42083332353326591 -0.42146747131641099 0 -0.41531815884496182 -0.42985383783075998 0 -0.44257020456291563 -0.38918913383950271 0 -0.42311368847744002 -0.37830224279505142 0 -0.42594061475171041 -0.39368797999533162 0 -0.44257020456291563 -0.38918913383950271 0 -0.42311368847744002 -0.37830224279505142 0 -0.44172858264042247 -0.37082207246888088 0 -0.44257020456291563 -0.38918913383950271 0 -0.42311368847744002 -0.37830224279505142 0 -0.42311368847744002 -0.37830224279505142 0 -0.42594061475171041 -0.39368797999533162 0 -0.416587075656149 -0.38785930376960043 0 -0.44257020456291563 -0.38918913383950271 0 -0.42594061475171041 -0.39368797999533162 0 -0.43479358559901082 -0.4041454901736512 0 -0.42594061475171041 -0.39368797999533162 0 -0.43479358559901082 -0.4041454901736512 0 -0.42460885511582858 -0.40417321677700252 0 -0.41997834854398469 -0.41180534796019508 0 -0.41325908582185972 -0.39811010703057192 0 -0.39770572831670092 -0.39911486077581648 0 -0.41997834854398469 -0.41180534796019508 0 -0.39770572831670092 -0.39911486077581648 0 -0.42594061475171041 -0.39368797999533162 0 -0.42460885511582858 -0.40417321677700252 0 -0.41325908582185972 -0.39811010703057192 0 -0.41997834854398469 -0.41180534796019508 0 -0.42460885511582858 -0.40417321677700252 0 -0.41325908582185972 -0.39811010703057192 0 -0.42594061475171041 -0.39368797999533162 0 -0.41325908582185972 -0.39811010703057192 0 -0.416587075656149 -0.38785930376960043 0 -0.41325908582185972 -0.39811010703057192 0 -0.416587075656149 -0.38785930376960043 0 -0.40403491357358612 -0.38133688525744702 0 -0.42311368847744002 -0.37830224279505142 0 -0.40403491357358612 -0.38133688525744702 0 -0.40365717239196519 -0.36741535175059892 0 -0.42311368847744002 -0.37830224279505142 0 -0.416587075656149 -0.38785930376960043 0 -0.40403491357358612 -0.38133688525744702 0 -0.40403491357358612 -0.38133688525744702 0 -0.39190790742475001 -0.38540387676521748 0 -0.39770572831670092 -0.39911486077581648 0 -0.40403491357358612 -0.38133688525744702 0 -0.39190790742475001 -0.38540387676521748 0 -0.3904578797192948 -0.37473938743617019 0 -0.41325908582185972 -0.39811010703057192 0 -0.40403491357358612 -0.38133688525744702 0 -0.39770572831670092 -0.39911486077581648 0 -0.39770572831670092 -0.39911486077581648 0 -0.37543310808941849 -0.38642437359143528 0 -0.39770572831670092 -0.39911486077581648 0 -0.37515920440272033 -0.40534038799344108 0 -0.37543310808941849 -0.38642437359143528 0 -0.39770572831670092 -0.39911486077581648 0 -0.37515920440272033 -0.40534038799344108 0 -0.39756877647335259 -0.40857286797681719
[...]
<PointData Scalars="" Vectors="displacement," Tensors="">
<DataArray type="Float64" Name="displacement" NumberOfComponents="3" format="ascii">
-1.7051581916242818e-06 -0.034996799190410259 0 -0.00017055910691424301 -0.032724581287448595 0 3.6141017168012052e-06 -0.029500842975768216 0 -1.7051581916242818e-06 -0.034996799190410259 0 -0.00015735496083778372 -0.03420229737298823 0 -0.00017055910691424301 -0.032724581287448595 0 -1.7051581916242818e-06 -0.034996799190410259 0 -0.00015735496083778372 -0.03420229737298823 0 5.443526618134457e-09 -0.034999152018592897 0 -0.00015735496083778372 -0.03420229737298823 0 5.443526618134457e-09 -0.034999152018592897 0 -8.6949164692407658e-05 -0.034206646565034415 0 5.443526618134457e-09 -0.034999152018592897 0 -8.6949164692407658e-05 -0.034206646565034415 0 -6.8290491028624145e-05 -0.034770113126245519 0 -0.00031800460104643597 -0.029745601453540143 0 -2.9664502326892772e-05 -0.029179870171466137 0 -8.6949164692407658e-05 -0.034206646565034415 0 0.00040126454567648547 -0.034171623049877385 0 0.00043377605069791194 -0.034383924295236463 0 -8.6949164692407658e-05 -0.034206646565034415 0 0.00043377605069791194 -0.034383924295236463 0 0.00021378562000634152 -0.034602343653964959 0 -0.00015735496083778372 -0.03420229737298823 0 -8.6949164692407658e-05 -0.034206646565034415 0 -0.00017055910691424301 -0.032724581287448595 0 -8.6949164692407658e-05 -0.034206646565034415 0 -0.00017055910691424301 -0.032724581287448595 0 0.00062624013598205409 -0.03338630710077959 0 -0.00017055910691424301 -0.032724581287448595 0 0.0013298616359993616 -0.031629479807835266 0 0.00062624013598205409 -0.03338630710077959 0 -0.00017055910691424301 -0.032724581287448595 0 3.6141017168012052e-06 -0.029500842975768216 0 0.0013298616359993616 -0.031629479807835266 0 1.980734351596975e-06 -0.029489652321762459 0 0.0003006702568895313 -0.027192803030636231 0 -8.3768254430025543e-07 -0.027572046946566123 0 2.1386909744278275e-06 -0.029489868734970566 0 0.00039313894270150867 -0.028584014844566876 0 -8.3768254430025543e-07 -0.027572046946566123 0 -8.0400127671302257e-05 -0.026488335575027781 0 -0.00016838874541560365 -0.025781589459381245 0 -8.3768254430025543e-07 -0.027572046946566123 0 -2.5628952750331874e-07 -0.025651173744944904 0 -0.00016838874541560365 -0.025781589459381245 0 0.0003006702568895313 -0.027192803030636231 0 -8.3768254430025543e-07 -0.027572046946566123 0 -8.0400127671302257e-05 -0.026488335575027781 0 0.0003006702568895313 -0.027192803030636231 0 -8.0400127671302257e-05 -0.026488335575027781 0 0.00013077324190254139 -0.026228620941212658 0 0.00039313894270150867 -0.028584014844566876 0 0.00066967397147801237 -0.027442112985530846 0 -8.0400127671302257e-05 -0.026488335575027781 0 -0.00020766432445433144 -0.026003733273962028 0 0.00013077324190254139 -0.026228620941212658 0 -8.0400127671302257e-05 -0.026488335575027781 0 -0.00020766432445433144 -0.026003733273962028 0 -0.00016838874541560365 -0.025781589459381245 0 0.00056774760634885129 -0.026073091142926046 0 0.00066967397147801237 -0.027442112985530846 0 0.0012505927473088557 -0.020316096296713018 0 0.0011425052530889732 -0.020417433749692803 0 0.0010075858145267857 -0.020367568866210394 0 0.0012505927473088557 -0.020316096296713018 0 0.0011425052530889732 -0.020417433749692803 0 0.0012476658853500149 -0.020431344446420214 0 0.0011425052530889732 -0.020417433749692803 0 0.0010075858145267857 -0.020367568866210394 0 0.0011095489325780449 -0.020550825447164196 0 0.0006239180544435689 -0.03421785292898067 0 0.00060458318019488821 -0.034346723250718109 0 0.0005675001429189889 -0.034298861786894883 0 0.00066967397147801237 -0.027442112985530846 0 0.00085826799496471144 -0.026910798256189316 0 0.00060458318019488821 -0.034346723250718109 0 0.0005675001429189889 -0.034298861786894883 0 0.0005963733819232571 -0.034365790198544424 0 0.0011095489325780449 -0.020550825447164196 0 0.0012476658853500149 -0.020431344446420214 0 0.0012772515766654839 -0.020553183596631639 0 0.0011425052530889732 -0.020417433749692803 0 0.0011095489325780449 -0.020550825447164196 0 0.0012476658853500149 -0.020431344446420214 0 0.0006239180544435689 -0.03421785292898067 0 0.00040126454567648547 -0.034171623049877385 0 0.0005675001429189889 -0.034298861786894883 0 0.00066967397147801237 -0.027442112985530846 0 -2.9664502326892772e-05 -0.029179870171466137 0 0.0013298616359993616 -0.031629479807835266 0 0.002054064482386291 -0.03280863425004539 0 0.00062624013598205409 -0.03338630710077959 0 0.0005675001429189889 -0.034298861786894883 0 0.00043377605069791194 -0.034383924295236463 0 0.00055959150235664675 -0.034378212621427574 0 0.0005675001429189889 -0.034298861786894883 0 0.00055959150235664675 -0.034378212621427574 0 0.0005963733819232571 -0.034365790198544424 0 0.00040126454567648547 -0.034171623049877385 0 0.0005675001429189889 -0.034298861786894883 0 0.00043377605069791194 -0.034383924295236463 0 0.00043377605069791194 -0.034383924295236463 0 0.00041745952777143925 -0.034540970160680882 0 0.00021378562000634152 -0.034602343653964959 0 0.00041745952777143925 -0.034540970160680882 0 0.00037680850077815203 -0.034708479706189371 0 0.00021378562000634152 -0.034602343653964959 0 0.00041745952777143925 -0.034540970160680882 0 0.00049616869654193227 -0.034525004562009264 0 0.00048549910782570569 -0.034613411186288683 0 0.00041745952777143925 -0.034540970160680882 0 0.00051547027780154151 -0.034447950990684435 0 0.00049616869654193227 -0.034525004562009264 0 0.00043377605069791194 -0.034383924295236463 0 0.00041745952777143925 -0.034540970160680882 0 0.00051547027780154151 -0.034447950990684435 0 0.00043377605069791194 -0.034383924295236463 0 0.00055959150235664675 -0.034378212621427574 0 0.00051547027780154151 -0.034447950990684435 0 0.00055959150235664675 -0.034378212621427574 0 0.00051547027780154151 -0.034447950990684435 0 0.00060782944986789483 -0.034419565393926023 0 0.00055959150235664675 -0.034378212621427574 0 0.00060782944986789483 -0.034419565393926023 0 0.0005963733819232571 -0.034365790198544424 0 0.00060782944986789483 -0.034419565393926023 0 0.0005963733819232571 -0.034365790198544424 0 0.00060247170700675884 -0.034342686423426701 0 0.0016666712359982413 -0.03194933952539817 0 0.0016673181847523455 -0.031852261076973525 0 0.00060782944986789483 -0.034419565393926023 0 0.00056773073295312898 -0.034499404465926413 0 0.00066608411249759127 -0.03465902659610854 0 0.00060782944986789483 -0.034419565393926023 0 0.0006558962509109358 -0.03431393485272826 0 0.00060247170700675884 -0.034342686423426701 0 0.0016773141512674745 -0.031900073100558132 0 0.0016673181847523455 -0.031852261076973525 0 0.00056773073295312898 -0.034499404465926413 0 0.00048549910782570569 -0.034613411186288683 0 0.00062435790136620734 -0.034622591475003101 0 0.00051547027780154151 -0.034447950990684435 0 0.00049616869654193227 -0.034525004562009264 0 0.00056773073295312898 -0.034499404465926413 0 0.00051547027780154151 -0.034447950990684435 0 0.00060782944986789483 -0.034419565393926023 0 0.00056773073295312898 -0.034499404465926413 0 0.00049616869654193227 -0.034525004562009264 0 0.00056773073295312898 -0.034499404465926413 0 0.00048549910782570569 -0.034613411186288683 0 0.00048549910782570569 -0.034613411186288683 0 0.00062435790136620734 -0.034622591475003101 0 0.00050295904062134448 -0.034767556448138962 0 0.0016673181847523455 -0.031852261076973525 0 0.0013222781353591298 -0.031597784796599221 0 0.00062435790136620734 -0.034622591475003101 0 0.00050295904062134448 -0.034767556448138962 0 0.00064758685747775603 -0.034924570976284992 0 0.00050295904062134448 -0.034767556448138962 0 0.00037680850077815203 -0.034708479706189371 0 0.00039064113522022369 -0.034947907155116531 0 0.00037680850077815203 -0.034708479706189371 0 0.00039064113522022369 -0.034947907155116531 0 0.00020949694474194365 -0.034777754448211816 0 0.00048549910782570569 -0.034613411186288683 0 0.00050295904062134448 -0.034767556448138962 0 0.00037680850077815203 -0.034708479706189371 0 0.00041745952777143925 -0.034540970160680882 0 0.00048549910782570569 -0.034613411186288683 0 0.00037680850077815203 -0.034708479706189371 0 0.00060458318019488821 -0.034346723250718109 0 0.00046567402499876268 -0.034301416911376767 0 0.00056761828194061992 -0.034326428724336576 0 0.0011095489325780449 -0.020550825447164196 0 0.001202430658001656 -0.02074201726643023 0 0.0012772515766654839 -0.020553183596631639 0 0.00085826799496471144 -0.026910798256189316 0 0.0009690245657632536 -0.026172034256356242 0 0.00046567402499876268 -0.034301416911376767 0 0.00056761828194061992 -0.034326428724336576 0 0.00052067910616687306 -0.034255868575121307 0 0.00060458318019488821 -0.034346723250718109 0 0.00056761828194061992 -0.034326428724336576 0 0.0005963733819232571 -0.034365790198544424 0 0.00056761828194061992 -0.034326428724336576 0 0.0005963733819232571 -0.034365790198544424 0 0.00060247170700675884 -0.034342686423426701 0 0.0006558962509109358 -0.03431393485272826 0 0.00058801550630184561 -0.034240480270485749 0 0.00061966414989647048 -0.034089044164064025 0 0.0016673181847523455 -0.031852261076973525 0 0.0016616571027108739 -0.030675685887699054 0 0.00056761828194061992 -0.034326428724336576 0 0.00060247170700675884 -0.034342686423426701 0 0.00058801550630184561 -0.034240480270485749 0 0.0006558962509109358 -0.03431393485272826 0 0.00060247170700675884 -0.034342686423426701 0 0.00058801550630184561 -0.034240480270485749 0 0.00056761828194061992 -0.034326428724336576 0 0.00058801550630184561 -0.034240480270485749 0 0.00052067910616687306 -0.034255868575121307 0 0.00058801550630184561 -0.034240480270485749 0 0.00052067910616687306 -0.034255868575121307 0 0.00045770420901440742 -0.034147163324240774 0 0.00046567402499876268 -0.034301416911376767 0 0.00045770420901440742 -0.034147163324240774 0 0.00035013843651129179 -0.034136540589092081 0 0.00046567402499876268 -0.034301416911376767 0 0.00052067910616687306 -0.034255868575121307 0 0.00045770420901440742 -0.034147163324240774 0 0.00045770420901440742 -0.034147163324240774 0 0.00048925324817672704 -0.034010541739022612 0 0.00061966414989647048 -0.034089044164064025 0 0.00045770420901440742 -0.034147163324240774 0 0.00048925324817672704 -0.034010541739022612 0 0.00036903087062393542 -0.033985499004307307 0 0.00058801550630184561 -0.034240480270485749 0 0.00045770420901440742 -0.034147163324240774 0 0.00061966414989647048 -0.034089044164064025 0 0.0016616571027108739 -0.030675685887699054 0 0.0014248445981647534 -0.028686400946467693 0 0.0017580940795656167 -0.030470245983103845 0 0.001982216089978651 -0.029655001787810057 0 0.0013001199002546234 -0.029663420684793933 0 0.0017580940795656167 -0.030470245983103845 0 0.001982216089978651 -0.029655001787810057 0 0.0020998399295039981 -0.030465872791527515 0 0.00090491048490959054 -0.030747292849592923 0 0.0014248445981647534 -0.028686400946467693 0 0.00050574764139000444 -0.033812546210322779 0 0.00036903087062393542 -0.033985499004307307 0 0.00030204666005302259 -0.033802630439884226 0 0.00048925324817672704 -0.034010541739022612 0 0.00050574764139000444 -0.033812546210322779 0 0.00036903087062393542 -0.033985499004307307 0 0.0014248445981647534 -0.028686400946467693 0 0.0011374919945561384 -0.026841513985593621 0 0.00048925324817672704 -0.034010541739022612 0 0.00061966414989647048 -0.034089044164064025 0 0.00050574764139000444 -0.033812546210322779 0 0.0022170230598867707 -0.031278611798933695 0 0.0017580940795656167 -0.030470245983103845 0 0.0020998399295039981 -0.030465872791527515 0 0.00050295904062134448 -0.034767556448138962 0 0.00039064113522022369 -0.034947907155116531 0 0.00064758685747775603 -0.034924570976284992 0 0.00068299033918387474 -0.035194580694185636 0 0.00039064113522022369 -0.034947907155116531 0 0.00064758685747775603 -0.034924570976284992 0 0.00090491048490959054 -0.030747292849592923 0 0.0013222781353591298 -0.031597784796599221 0 0.00068299033918387474 -0.035194580694185636 0 0.00039064113522022369 -0.034947907155116531 0 0.00031206100228915241 -0.035199278667211641 0 0.00039064113522022369 -0.034947907155116531 0 0.00018013089438647598 -0.0349841749372925 0 0.00031206100228915241 -0.035199278667211641 0 0.00018013089438647598 -0.0349841749372925 0 -4.0240974984476788e-05 -0.035200203437981629 0 0.00031206100228915241 -0.035199278667211641 0 0.00039064113522022369 -0.034947907155116531 0 0.00018013089438647598 -0.0349841749372925 0 0.00020949694474194365 -0.034777754448211816 0 0.00018013089438647598 -0.0349841749372925 0 5.469782148304557e-05 -0.034861108238941479 0 0.00020949694474194365 -0.034777754448211816 0 4.9099795791143166e-05 -0.034879694881045753 0 -2.1039497957282873e-05 -0.034955208860998989 0 -2.1426502602380888e-05 -0.034846243001206596 0 1.2826980388147962e-05 -0.034986747235477698 0 1.0502540896385092e-05 -0.034993853024658919 0 2.7888842602828499e-06 -0.034993755271227972 0 8.7287099544576676e-05 -0.034633501766977187 0 1.9517308834183656e-05 -0.03483856836492339 0 8.7287099544576676e-05 -0.034633501766977187 0 8.7116325064546431e-05 -0.034634228372959 0 8.7287099544576676e-05 -0.034633501766977187 0 0.00013810964378589027 -0.034320920111497621 0 0.00018013089438647598 -0.0349841749372925 0 5.469782148304557e-05 -0.034861108238941479 0 7.1239510866813132e-06 -0.035028916450102844 0 0.00018013089438647598 -0.0349841749372925 0 7.1239510866813132e-06 -0.035028916450102844 0 -4.0240974984476788e-05 -0.035200203437981629 0 0.00013810964378589027 -0.034320920111497621 0 0.00023034557531376667 -0.033843160071339098 0 1.0502540896385092e-05 -0.034993853024658919 0 5.6053199401066493e-06 -0.034996030617090404 0 8.2874911615149989e-06 -0.034999326984718762 0 5.6053199401066493e-06 -0.034996030617090404 0 2.7888842602828499e-06 -0.034993755271227972 0 2.4820108557373792e-06 -0.034998990812694447 0 2.7888842602828499e-06 -0.034993755271227972 0 1.0197517275222698e-06 -0.034999450125873605 0 2.4820108557373792e-06 -0.034998990812694447 0 5.6053199401066493e-06 -0.034996030617090404 0 2.4820108557373792e-06 -0.034998990812694447 0 8.2874911615149989e-06 -0.034999326984718762 0 1.0502540896385092e-05 -0.034993853024658919 0 5.6053199401066493e-06 -0.034996030617090404 0 2.7888842602828499e-06 -0.034993755271227972 0 -1.0028725846622051e-07 -0.034999505240254004 0 1.9517308834183656e-05 -0.03483856836492339 0 -2.3430452213686753e-09 -0.03499999355046788 0 2.7888842602828499e-06 -0.034993755271227972 0 1.0197517275222698e-06 -0.034999450125873605 0 5.6664091179074891e-08 -0.034999983609000071 0 -2.1039497957282873e-05 -0.034955208860998989 0 -1.3992135509608235e-07 -0.034999890102847424 0 -2.1039497957282873e-05 -0.034955208860998989 0 -2.1426502602380888e-05 -0.034846243001206596 0 -1.3992135509608235e-07 -0.034999890102847424 0 -2.1426502602380888e-05 -0.034846243001206596 0 -1.3992135509608235e-07 -0.034999890102847424 0 -6.8290491028624145e-05 -0.034770113126245519 0 5.443526618134457e-09 -0.034999152018592897 0 -1.3992135509608235e-07 -0.034999890102847424 0 -6.8290491028624145e-05 -0.034770113126245519 0 -2.1426502602380888e-05 -0.034846243001206596 0 -6.8290491028624145e-05 -0.034770113126245519 0 3.0757650575804336e-06 -0.034664310757576519 0 -8.6949164692407658e-05 -0.034206646565034415 0 -6.8290491028624145e-05 -0.034770113126245519 0 3.0757650575804336e-06 -0.034664310757576519 0 -8.6949164692407658e-05 -0.034206646565034415 0 3.0757650575804336e-06 -0.034664310757576519 0 0.00021378562000634152 -0.034602343653964959 0 3.0757650575804336e-06 -0.034664310757576519 0 0.00021378562000634152 -0.034602343653964959 0 8.257029949744604e-05 -0.034753311898443516 0 0.00021378562000634152 -0.034602343653964959 0 0.00020949694474194365 -0.034777754448211816 0 8.257029949744604e-05 -0.034753311898443516 0 0.00037680850077815203 -0.034708479706189371 0 0.00021378562000634152 -0.034602343653964959 0 0.00020949694474194365 -0.034777754448211816 0 4.9479097074257282e-05 -0.034893559094639523 0 0.00020949694474194365 -0.034777754448211816 0 5.6838138738445747e-05 -0.03486084895584856 0 0.00020949694474194365 -0.034777754448211816 0 5.6838138738445747e-05 -0.03486084895584856 0 8.257029949744604e-05 -0.034753311898443516 0 8.7287099544576676e-05 -0.034633501766977187 0 8.5819689035340408e-05 -0.034641006463169768 0 -2.1426502602380888e-05 -0.034846243001206596 0 5.6838138738445747e-05 -0.03486084895584856 0 8.257029949744604e-05 -0.034753311898443516 0 4.9099795791143166e-05 -0.034879694881045753 0 -2.1426502602380888e-05 -0.034846243001206596 0 5.6838138738445747e-05 -0.03486084895584856 0 -2.1426502602380888e-05 -0.034846243001206596 0 3.0757650575804336e-06 -0.034664310757576519 0 8.257029949744604e-05 -0.034753311898443516 0 0.0014613416807854466 -0.017853088646204343 0 0.0016696541351063968 -0.017558217298348586 0 0.00048215274268781182 -0.01760549165154645 0 0.00058006060428631833 -0.017056835440894532 0 0.00031898726710607116 -0.017430330767779403 0 -0.00013002653772873908 -0.019581359885898739 0 0.00012982079576403743 -0.019542358896803131 0 6.0205491503000528e-05 -0.019663915336157946 0 -0.00013002653772873908 -0.019581359885898739 0 -8.1165555815261071e-05 -0.019607914767515978 0 6.0205491503000528e-05 -0.019663915336157946 0 -0.00013002653772873908 -0.019581359885898739 0 -7.5206830606481569e-05 -0.019512601656481467 0 -8.1165555815261071e-05 -0.019607914767515978 0 -0.00013002653772873908 -0.019581359885898739 0 -0.00012164971158379869 -0.019315578778160328 0 -0.0001867032075925354 -0.019655350778278673 0 -0.00013002653772873908 -0.019581359885898739 0 -0.00012164971158379869 -0.019315578778160328 0 0.00012982079576403743 -0.019542358896803131 0 0.0014613416807854466 -0.017853088646204343 0 0.0013893534424683938 -0.017926560510601673 0 -0.00012164971158379869 -0.019315578778160328 0 0.00012982079576403743 -0.019542358896803131 0 0.00012919479306552364 -0.018515303057682064 0 0.00048215274268781182 -0.01760549165154645 0 0.00012919479306552364 -0.018515303057682064 0 4.4419237171578427e-05 -0.017848988453617886 0 0.00012919479306552364 -0.018515303057682064 0 -4.3567719068372374e-07 -0.01796860166351472 0 -0.00012877249370325277 -0.019268931884603969 0 0.00012919479306552364 -0.018515303057682064 0 -4.3567719068372374e-07 -0.01796860166351472 0 -2.6887970020918351e-05 -0.017573166653503329 0 -4.3567719068372374e-07 -0.01796860166351472 0 -0.00012877249370325277 -0.019268931884603969 0 -3.6866187991220933e-07 -0.019889470171635708 0 -0.00012164971158379869 -0.019315578778160328 0 0.00012919479306552364 -0.018515303057682064 0 -0.00012877249370325277 -0.019268931884603969 0 -0.00012164971158379869 -0.019315578778160328 0 -0.00012877249370325277 -0.019268931884603969 0 -0.0001867032075925354 -0.019655350778278673 0 -0.0001867032075925354 -0.019655350778278673 0 -7.8857953071321727e-05 -0.020268952276632161 0 -2.6242763744356749e-05 -0.020140580955938112 0 -0.00012877249370325277 -0.019268931884603969 0 -0.0001867032075925354 -0.019655350778278673 0 -7.8857953071321727e-05 -0.020268952276632161 0 -3.6866187991220933e-07 -0.019889470171635708 0 -7.8857953071321727e-05 -0.020268952276632161 0 4.5702977791028492e-07 -0.021809979785729502 0 -0.00012877249370325277 -0.019268931884603969 0 -3.6866187991220933e-07 -0.019889470171635708 0 -7.8857953071321727e-05 -0.020268952276632161 0 -7.8857953071321727e-05 -0.020268952276632161 0 4.5702977791028492e-07 -0.021809979785729502 0 0.00014569726383500788 -0.021042538991586403 0 0.00014569726383500788 -0.021042538991586403 0 -2.6242763744356749e-05 -0.020140580955938112 0 0.00054740006015246468 -0.02037116641045434 0 -7.8857953071321727e-05 -0.020268952276632161 0 0.00014569726383500788 -0.021042538991586403 0 -2.6242763744356749e-05 -0.020140580955938112 0 -2.6242763744356749e-05 -0.020140580955938112 0 0.00025577405378299304 -0.019902775278152852 0 0.00054740006015246468 -0.02037116641045434 0 0.00025577405378299304 -0.019902775278152852 0 0.00018128592878514498 -0.019578325863609244 0 0.0004906