<?xml version="1.0"?>
<VTKFile type="UnstructuredGrid" version="0.1" byte_order="LittleEndian">
<UnstructuredGrid>
<Piece NumberOfPoints="31898" NumberOfCells="11152">
<Points>
<DataArray type="Float64" NumberOfComponents="3" format="ascii">
-0.5 -0.5 0 -0.47620991077874902 -0.44978878706170539 0 -0.49999999999999473 -0.42132396840504388 0 -0.5 -0.5 0 -0.47160970827802529 -0.4793630013852106 0 -0.47620991077874902 -0.44978878706170539 0 -0.5 -0.5 0 -0.47160970827802529 -0.4793630013852106 0 -0.44860394795025399 -0.5 0 -0.47160970827802529 -0.4793630013852106 0 -0.44860394795025399 -0.5 0 -0.4490820238307246 -0.45820516232899983 0 -0.44860394795025399 -0.5 0 -0.4490820238307246 -0.45820516232899983 0 -0.42881687682924802 -0.47781464288736519 0 -0.4490820238307246 -0.45820516232899983 0 -0.45555437223955858 -0.42914059360647611 0 -0.4490820238307246 -0.45820516232899983 0 -0.45555437223955858 -0.42914059360647611 0 -0.43867285131603428 -0.4271457417558665 0 -0.4490820238307246 -0.45820516232899983 0 -0.43867285131603428 -0.4271457417558665 0 -0.4263356171060747 -0.44269880333887462 0 -0.47160970827802529 -0.4793630013852106 0 -0.4490820238307246 -0.45820516232899983 0 -0.47620991077874902 -0.44978878706170539 0 -0.4490820238307246 -0.45820516232899983 0 -0.47620991077874902 -0.44978878706170539 0 -0.45555437223955858 -0.42914059360647611 0 -0.47620991077874902 -0.44978878706170539 0 -0.48101336032419229 -0.41069999664450008 0 -0.45555437223955858 -0.42914059360647611 0 -0.47620991077874902 -0.44978878706170539 0 -0.49999999999999473 -0.42132396840504388 0 -0.48101336032419229 -0.41069999664450008 0 -0.49999999999999473 -0.42132396840504388 0 -0.48101336032419229 -0.41069999664450008 0 -0.5 -0.393886241813306 0 -0.49999999999999473 -0.42132396840504388 0 -0.48101336032419229 -0.41069999664450008 0 -0.5 -0.393886241813306 0 -0.47854472220918332 -0.38978458738689759 0 -0.48422759779560409 -0.37130120630367158 0 -0.5 -0.393886241813306 0 -0.5 -0.36644851522156802 0 -0.48422759779560409 -0.37130120630367158 0 -0.48101336032419229 -0.41069999664450008 0 -0.5 -0.393886241813306 0 -0.47854472220918332 -0.38978458738689759 0 -0.48101336032419229 -0.41069999664450008 0 -0.47854472220918332 -0.38978458738689759 0 -0.46202672064839212 -0.40007602488395211 0 -0.48101336032419229 -0.41069999664450008 0 -0.46202672064839212 -0.40007602488395211 0 -0.47854472220918332 -0.38978458738689759 0 -0.46725442735267431 -0.37660061361585562 0 -0.46202672064839212 -0.40007602488395211 0 -0.47854472220918332 -0.38978458738689759 0 -0.46725442735267431 -0.37660061361585562 0 -0.48422759779560409 -0.37130120630367158 0 -0.46725442735267431 -0.37660061361585562 0 -0.46202672064839212 -0.40007602488395211 0 -0.46725442735267431 -0.37660061361585562 0 -0.45645674801697989 -0.38644133236760531 0 -0.46202672064839212 -0.40007602488395211 0 -0.46725442735267431 -0.37660061361585562 0 -0.45645674801697989 -0.38644133236760531 0 -0.4540003998136638 -0.37455519391687309 0 -0.45645674801697989 -0.38644133236760531 0 -0.46202672064839212 -0.40007602488395211 0 -0.44257020456291563 -0.38918913383950271 0 -0.46202672064839212 -0.40007602488395211 0 -0.44257020456291563 -0.38918913383950271 0 -0.44727608925983742 -0.41095911152778891 0 -0.46202672064839212 -0.40007602488395211 0 -0.44257020456291563 -0.38918913383950271 0 -0.44257020456291563 -0.38918913383950271 0 -0.44727608925983742 -0.41095911152778891 0 -0.43479358559901082 -0.4041454901736512 0 -0.44257020456291563 -0.38918913383950271 0 -0.4540003998136638 -0.37455519391687309 0 -0.44172858264042247 -0.37082207246888088 0 -0.45645674801697989 -0.38644133236760531 0 -0.44257020456291563 -0.38918913383950271 0 -0.4540003998136638 -0.37455519391687309 0 -0.46202672064839212 -0.40007602488395211 0 -0.45555437223955858 -0.42914059360647611 0 -0.44727608925983742 -0.41095911152778891 0 -0.46202672064839212 -0.40007602488395211 0 -0.45555437223955858 -0.42914059360647611 0 -0.48101336032419229 -0.41069999664450008 0 -0.46202672064839212 -0.40007602488395211 0 -0.45555437223955858 -0.42914059360647611 0 -0.44727608925983742 -0.41095911152778891 0 -0.43867285131603428 -0.4271457417558665 0 -0.43676601469929588 -0.41441201227470881 0 -0.44727608925983742 -0.41095911152778891 0 -0.43676601469929588 -0.41441201227470881 0 -0.43479358559901082 -0.4041454901736512 0 -0.45555437223955858 -0.42914059360647611 0 -0.44727608925983742 -0.41095911152778891 0 -0.43867285131603428 -0.4271457417558665 0 -0.43867285131603428 -0.4271457417558665 0 -0.42681803064840879 -0.42717069814352421 0 -0.4263356171060747 -0.44269880333887462 0 -0.42681803064840879 -0.42717069814352421 0 -0.41531815884496182 -0.42985383783075998 0 -0.4263356171060747 -0.44269880333887462 0 -0.42681803064840879 -0.42717069814352421 0 -0.42624289495594048 -0.42089725947505818 0 -0.42083332353326591 -0.42146747131641099 0 -0.42681803064840879 -0.42717069814352421 0 -0.43096994786351572 -0.41951492446283251 0 -0.42624289495594048 -0.42089725947505818 0 -0.43867285131603428 -0.4271457417558665 0 -0.42681803064840879 -0.42717069814352421 0 -0.43096994786351572 -0.41951492446283251 0 -0.43867285131603428 -0.4271457417558665 0 -0.43676601469929588 -0.41441201227470881 0 -0.43096994786351572 -0.41951492446283251 0 -0.43676601469929588 -0.41441201227470881 0 -0.43096994786351572 -0.41951492446283251 0 -0.42907264086257813 -0.41311715872526122 0 -0.43676601469929588 -0.41441201227470881 0 -0.42907264086257813 -0.41311715872526122 0 -0.43479358559901082 -0.4041454901736512 0 -0.42907264086257813 -0.41311715872526122 0 -0.43479358559901082 -0.4041454901736512 0 -0.42460885511582858 -0.40417321677700252 0 -0.42907264086257813 -0.41311715872526122 0 -0.41997834854398469 -0.41180534796019508 0 -0.42907264086257813 -0.41311715872526122 0 -0.42635027777857132 -0.41543594397746519 0 -0.41997834854398469 -0.41180534796019508 0 -0.42907264086257813 -0.41311715872526122 0 -0.41997834854398469 -0.41180534796019508 0 -0.42460885511582858 -0.40417321677700252 0 -0.42635027777857132 -0.41543594397746519 0 -0.41997834854398469 -0.41180534796019508 0 -0.42635027777857132 -0.41543594397746519 0 -0.42083332353326591 -0.42146747131641099 0 -0.41997834854398469 -0.41180534796019508 0 -0.43096994786351572 -0.41951492446283251 0 -0.42624289495594048 -0.42089725947505818 0 -0.42635027777857132 -0.41543594397746519 0 -0.43096994786351572 -0.41951492446283251 0 -0.42907264086257813 -0.41311715872526122 0 -0.42635027777857132 -0.41543594397746519 0 -0.42624289495594048 -0.42089725947505818 0 -0.42635027777857132 -0.41543594397746519 0 -0.42083332353326591 -0.42146747131641099 0 -0.42083332353326591 -0.42146747131641099 0 -0.41997834854398469 -0.41180534796019508 0 -0.40992282953163789 -0.42011435591993562 0 -0.41997834854398469 -0.41180534796019508 0 -0.39756877647335259 -0.40857286797681719 0 -0.41997834854398469 -0.41180534796019508 0 -0.40992282953163789 -0.42011435591993562 0 -0.39756877647335259 -0.40857286797681719 0 -0.40992282953163789 -0.42011435591993562 0 -0.41531815884496182 -0.42985383783075998 0 -0.39591554026262499 -0.42887225451549271 0 -0.41531815884496182 -0.42985383783075998 0 -0.39591554026262499 -0.42887225451549271 0 -0.41160927495564159 -0.44339431233754628 0 -0.42083332353326591 -0.42146747131641099 0 -0.40992282953163789 -0.42011435591993562 0 -0.41531815884496182 -0.42985383783075998 0 -0.42681803064840879 -0.42717069814352421 0 -0.42083332353326591 -0.42146747131641099 0 -0.41531815884496182 -0.42985383783075998 0 -0.44257020456291563 -0.38918913383950271 0 -0.42311368847744002 -0.37830224279505142 0 -0.42594061475171041 -0.39368797999533162 0 -0.44257020456291563 -0.38918913383950271 0 -0.42311368847744002 -0.37830224279505142 0 -0.44172858264042247 -0.37082207246888088 0 -0.44257020456291563 -0.38918913383950271 0 -0.42311368847744002 -0.37830224279505142 0 -0.42311368847744002 -0.37830224279505142 0 -0.42594061475171041 -0.39368797999533162 0 -0.416587075656149 -0.38785930376960043 0 -0.44257020456291563 -0.38918913383950271 0 -0.42594061475171041 -0.39368797999533162 0 -0.43479358559901082 -0.4041454901736512 0 -0.42594061475171041 -0.39368797999533162 0 -0.43479358559901082 -0.4041454901736512 0 -0.42460885511582858 -0.40417321677700252 0 -0.41997834854398469 -0.41180534796019508 0 -0.41325908582185972 -0.39811010703057192 0 -0.39770572831670092 -0.39911486077581648 0 -0.41997834854398469 -0.41180534796019508 0 -0.39770572831670092 -0.39911486077581648 0 -0.42594061475171041 -0.39368797999533162 0 -0.42460885511582858 -0.40417321677700252 0 -0.41325908582185972 -0.39811010703057192 0 -0.41997834854398469 -0.41180534796019508 0 -0.42460885511582858 -0.40417321677700252 0 -0.41325908582185972 -0.39811010703057192 0 -0.42594061475171041 -0.39368797999533162 0 -0.41325908582185972 -0.39811010703057192 0 -0.416587075656149 -0.38785930376960043 0 -0.41325908582185972 -0.39811010703057192 0 -0.416587075656149 -0.38785930376960043 0 -0.40403491357358612 -0.38133688525744702 0 -0.42311368847744002 -0.37830224279505142 0 -0.40403491357358612 -0.38133688525744702 0 -0.40365717239196519 -0.36741535175059892 0 -0.42311368847744002 -0.37830224279505142 0 -0.416587075656149 -0.38785930376960043 0 -0.40403491357358612 -0.38133688525744702 0 -0.40403491357358612 -0.38133688525744702 0 -0.39190790742475001 -0.38540387676521748 0 -0.39770572831670092 -0.39911486077581648 0 -0.40403491357358612 -0.38133688525744702 0 -0.39190790742475001 -0.38540387676521748 0 -0.3904578797192948 -0.37473938743617019 0 -0.41325908582185972 -0.39811010703057192 0 -0.40403491357358612 -0.38133688525744702 0 -0.39770572831670092 -0.39911486077581648 0 -0.39770572831670092 -0.39911486077581648 0 -0.37543310808941849 -0.38642437359143528 0 -0.39770572831670092 -0.39911486077581648 0 -0.37515920440272033 -0.40534038799344108 0 -0.37543310808941849 -0.38642437359143528 0 -0.39770572831670092 -0.39911486077581648 0 -0.37515920440272033 -0.40534038799344108 0 -0.39756877647335259 -0.40857286797681719
[...]
<PointData Scalars="" Vectors="displacement," Tensors="">
<DataArray type="Float64" Name="displacement" NumberOfComponents="3" format="ascii">
-0.034997500466011446 -0.034998036453779427 0 -0.03263386342321891 -0.034384612423803043 0 -0.029503245246173516 -0.034995344163500378 0 -0.034997500466011446 -0.034998036453779427 0 -0.034449255428080923 -0.033732756681617508 0 -0.03263386342321891 -0.034384612423803043 0 -0.034997500466011446 -0.034998036453779427 0 -0.034449255428080923 -0.033732756681617508 0 -0.034998036984157224 -0.031405329535589596 0 -0.034449255428080923 -0.033732756681617508 0 -0.034998036984157224 -0.031405329535589596 0 -0.034672708139999384 -0.033274048165604933 0 -0.034998036984157224 -0.031405329535589596 0 -0.034672708139999384 -0.033274048165604933 0 -0.035119248227096188 -0.030754847619336619 0 -0.032846323860181457 -0.034096229945355425 0 -0.032443627716148539 -0.034106794784014294 0 -0.034672708139999384 -0.033274048165604933 0 -0.037845819710921914 -0.033699047852650717 0 -0.038089859305698422 -0.032079599660152648 0 -0.034672708139999384 -0.033274048165604933 0 -0.038089859305698422 -0.032079599660152648 0 -0.036736335735561731 -0.030866083573575627 0 -0.034449255428080923 -0.033732756681617508 0 -0.034672708139999384 -0.033274048165604933 0 -0.03263386342321891 -0.034384612423803043 0 -0.034672708139999384 -0.033274048165604933 0 -0.03263386342321891 -0.034384612423803043 0 -0.031835840230957251 -0.035003230205370502 0 -0.03263386342321891 -0.034384612423803043 0 -0.030354551319601249 -0.034634553836180075 0 -0.031835840230957251 -0.035003230205370502 0 -0.03263386342321891 -0.034384612423803043 0 -0.029503245246173516 -0.034995344163500378 0 -0.030354551319601249 -0.034634553836180075 0 -0.029492671164934141 -0.034999997288177334 0 -0.028747787186589876 -0.036322615918954734 0 -0.027572039574325066 -0.034999995905380277 0 -0.029493396101178293 -0.034999223727759432 0 -0.029783287885381083 -0.034594418809837879 0 -0.027572039574325066 -0.034999995905380277 0 -0.027286451183262964 -0.036494167006238622 0 -0.025992891883264712 -0.036098641187163799 0 -0.027572039574325066 -0.034999995905380277 0 -0.02565139786866669 -0.034999995268318464 0 -0.025992891883264712 -0.036098641187163799 0 -0.028747787186589876 -0.036322615918954734 0 -0.027572039574325066 -0.034999995905380277 0 -0.027286451183262964 -0.036494167006238622 0 -0.028747787186589876 -0.036322615918954734 0 -0.027286451183262964 -0.036494167006238622 0 -0.028006770451656254 -0.037642296945597585 0 -0.029783287885381083 -0.034594418809837879 0 -0.030254172710470983 -0.033819264082934987 0 -0.027286451183262964 -0.036494167006238622 0 -0.026365480644928975 -0.037280595799713885 0 -0.028006770451656254 -0.037642296945597585 0 -0.027286451183262964 -0.036494167006238622 0 -0.026365480644928975 -0.037280595799713885 0 -0.025992891883264712 -0.036098641187163799 0 -0.027283227020509539 -0.034394859246103734 0 -0.030254172710470983 -0.033819264082934987 0 -0.023692789842584095 -0.036968792041860959 0 -0.023568611769976482 -0.036876656634612197 0 -0.023433850551264148 -0.036933614612223276 0 -0.023692789842584095 -0.036968792041860959 0 -0.023568611769976482 -0.036876656634612197 0 -0.023660476306594794 -0.03686859515790826 0 -0.023568611769976482 -0.036876656634612197 0 -0.023433850551264148 -0.036933614612223276 0 -0.023522709980944221 -0.036736500771272322 0 -0.040231355963548078 -0.033981765229098848 0 -0.040970032875842978 -0.032393109372676809 0 -0.039381811893870161 -0.032827000484397295 0 -0.030254172710470983 -0.033819264082934987 0 -0.029983142301273642 -0.032895093565468138 0 -0.040970032875842978 -0.032393109372676809 0 -0.039381811893870161 -0.032827000484397295 0 -0.039885174306760959 -0.031809134107714597 0 -0.023522709980944221 -0.036736500771272322 0 -0.023660476306594794 -0.03686859515790826 0 -0.023685461137680709 -0.036728918456530549 0 -0.023568611769976482 -0.036876656634612197 0 -0.023522709980944221 -0.036736500771272322 0 -0.023660476306594794 -0.03686859515790826 0 -0.040231355963548078 -0.033981765229098848 0 -0.037845819710921914 -0.033699047852650717 0 -0.039381811893870161 -0.032827000484397295 0 -0.030254172710470983 -0.033819264082934987 0 -0.032443627716148539 -0.034106794784014294 0 -0.030354551319601249 -0.034634553836180075 0 -0.030192816253138459 -0.035168436134620229 0 -0.031835840230957251 -0.035003230205370502 0 -0.039381811893870161 -0.032827000484397295 0 -0.038089859305698422 -0.032079599660152648 0 -0.039118931472683638 -0.031947688735357416 0 -0.039381811893870161 -0.032827000484397295 0 -0.039118931472683638 -0.031947688735357416 0 -0.039885174306760959 -0.031809134107714597 0 -0.037845819710921914 -0.033699047852650717 0 -0.039381811893870161 -0.032827000484397295 0 -0.038089859305698422 -0.032079599660152648 0 -0.038089859305698422 -0.032079599660152648 0 -0.038060816345855931 -0.031024719679666714 0 -0.036736335735561731 -0.030866083573575627 0 -0.038060816345855931 -0.031024719679666714 0 -0.037827327852510154 -0.030050136611428725 0 -0.036736335735561731 -0.030866083573575627 0 -0.038060816345855931 -0.031024719679666714 0 -0.038584930236697547 -0.031010562334524119 0 -0.038530077061867708 -0.030535020665356401 0 -0.038060816345855931 -0.031024719679666714 0 -0.038707258018087949 -0.031440148145949962 0 -0.038584930236697547 -0.031010562334524119 0 -0.038089859305698422 -0.032079599660152648 0 -0.038060816345855931 -0.031024719679666714 0 -0.038707258018087949 -0.031440148145949962 0 -0.038089859305698422 -0.032079599660152648 0 -0.039118931472683638 -0.031947688735357416 0 -0.038707258018087949 -0.031440148145949962 0 -0.039118931472683638 -0.031947688735357416 0 -0.038707258018087949 -0.031440148145949962 0 -0.039252398626691935 -0.031331267505998434 0 -0.039118931472683638 -0.031947688735357416 0 -0.039252398626691935 -0.031331267505998434 0 -0.039885174306760959 -0.031809134107714597 0 -0.039252398626691935 -0.031331267505998434 0 -0.039885174306760959 -0.031809134107714597 0 -0.039875173514912349 -0.031081326509744947 0 -0.035704355719772804 -0.027550158192502731 0 -0.035680447457844613 -0.027418198145747783 0 -0.039252398626691935 -0.031331267505998434 0 -0.039042651716683405 -0.031045709135277856 0 -0.039412873512441868 -0.030400581103684612 0 -0.039252398626691935 -0.031331267505998434 0 -0.039380160043494115 -0.030771792407554351 0 -0.039875173514912349 -0.031081326509744947 0 -0.035690837095717416 -0.027462907474065906 0 -0.035680447457844613 -0.027418198145747783 0 -0.039042651716683405 -0.031045709135277856 0 -0.038530077061867708 -0.030535020665356401 0 -0.039348756181433353 -0.030463545247910614 0 -0.038707258018087949 -0.031440148145949962 0 -0.038584930236697547 -0.031010562334524119 0 -0.039042651716683405 -0.031045709135277856 0 -0.038707258018087949 -0.031440148145949962 0 -0.039252398626691935 -0.031331267505998434 0 -0.039042651716683405 -0.031045709135277856 0 -0.038584930236697547 -0.031010562334524119 0 -0.039042651716683405 -0.031045709135277856 0 -0.038530077061867708 -0.030535020665356401 0 -0.038530077061867708 -0.030535020665356401 0 -0.039348756181433353 -0.030463545247910614 0 -0.038640596236557433 -0.029614013819868439 0 -0.035680447457844613 -0.027418198145747783 0 -0.035951249584045539 -0.026819921056579248 0 -0.039348756181433353 -0.030463545247910614 0 -0.038640596236557433 -0.029614013819868439 0 -0.039587050153671026 -0.028592986292581935 0 -0.038640596236557433 -0.029614013819868439 0 -0.037827327852510154 -0.030050136611428725 0 -0.037922158238912193 -0.028462465663837633 0 -0.037827327852510154 -0.030050136611428725 0 -0.037922158238912193 -0.028462465663837633 0 -0.036744932795776515 -0.029748875547636906 0 -0.038530077061867708 -0.030535020665356401 0 -0.038640596236557433 -0.029614013819868439 0 -0.037827327852510154 -0.030050136611428725 0 -0.038060816345855931 -0.031024719679666714 0 -0.038530077061867708 -0.030535020665356401 0 -0.037827327852510154 -0.030050136611428725 0 -0.040970032875842978 -0.032393109372676809 0 -0.041553192504879766 -0.030997609272793498 0 -0.040582564384804475 -0.031190333360226752 0 -0.023522709980944221 -0.036736500771272322 0 -0.023603877313624635 -0.036506562316648963 0 -0.023685461137680709 -0.036728918456530549 0 -0.029983142301273642 -0.032895093565468138 0 -0.029520295450617719 -0.031599085305062266 0 -0.041553192504879766 -0.030997609272793498 0 -0.040582564384804475 -0.031190333360226752 0 -0.040927057081258808 -0.03057701481032904 0 -0.040970032875842978 -0.032393109372676809 0 -0.040582564384804475 -0.031190333360226752 0 -0.039885174306760959 -0.031809134107714597 0 -0.040582564384804475 -0.031190333360226752 0 -0.039885174306760959 -0.031809134107714597 0 -0.039875173514912349 -0.031081326509744947 0 -0.039380160043494115 -0.030771792407554351 0 -0.040276480937455138 -0.030358136471376251 0 -0.040231120997154098 -0.029403137426665032 0 -0.035680447457844613 -0.027418198145747783 0 -0.035242936590699291 -0.026678878549483264 0 -0.040582564384804475 -0.031190333360226752 0 -0.039875173514912349 -0.031081326509744947 0 -0.040276480937455138 -0.030358136471376251 0 -0.039380160043494115 -0.030771792407554351 0 -0.039875173514912349 -0.031081326509744947 0 -0.040276480937455138 -0.030358136471376251 0 -0.040582564384804475 -0.031190333360226752 0 -0.040276480937455138 -0.030358136471376251 0 -0.040927057081258808 -0.03057701481032904 0 -0.040276480937455138 -0.030358136471376251 0 -0.040927057081258808 -0.03057701481032904 0 -0.041291898234403657 -0.029774482526166209 0 -0.041553192504879766 -0.030997609272793498 0 -0.041291898234403657 -0.029774482526166209 0 -0.042174034091565504 -0.029751997932659681 0 -0.041553192504879766 -0.030997609272793498 0 -0.040927057081258808 -0.03057701481032904 0 -0.041291898234403657 -0.029774482526166209 0 -0.041291898234403657 -0.029774482526166209 0 -0.041028566592470624 -0.029088829527564468 0 -0.040231120997154098 -0.029403137426665032 0 -0.041291898234403657 -0.029774482526166209 0 -0.041028566592470624 -0.029088829527564468 0 -0.04161139256685225 -0.029014327706661805 0 -0.040276480937455138 -0.030358136471376251 0 -0.041291898234403657 -0.029774482526166209 0 -0.040231120997154098 -0.029403137426665032 0 -0.035242936590699291 -0.026678878549483264 0 -0.034281921722128114 -0.025869030354821198 0 -0.035668848709240732 -0.026326100780824212 0 -0.035447683204739226 -0.025524962529034419 0 -0.036116895437319808 -0.025534229996668718 0 -0.035668848709240732 -0.026326100780824212 0 -0.035447683204739226 -0.025524962529034419 0 -0.035333876992066131 -0.026321508224803714 0 -0.036052656316384879 -0.025958756670394333 0 -0.034281921722128114 -0.025869030354821198 0 -0.040969784999679161 -0.028181077178920537 0 -0.04161139256685225 -0.029014327706661805 0 -0.041897730705175502 -0.028215834515357974 0 -0.041028566592470624 -0.029088829527564468 0 -0.040969784999679161 -0.028181077178920537 0 -0.04161139256685225 -0.029014327706661805 0 -0.034281921722128114 -0.025869030354821198 0 -0.031843947722255461 -0.026598202413812052 0 -0.041028566592470624 -0.029088829527564468 0 -0.040231120997154098 -0.029403137426665032 0 -0.040969784999679161 -0.028181077178920537 0 -0.035220635368861435 -0.027117539379599286 0 -0.035668848709240732 -0.026326100780824212 0 -0.035333876992066131 -0.026321508224803714 0 -0.038640596236557433 -0.029614013819868439 0 -0.037922158238912193 -0.028462465663837633 0 -0.039587050153671026 -0.028592986292581935 0 -0.03984524501525924 -0.026760850100615751 0 -0.037922158238912193 -0.028462465663837633 0 -0.039587050153671026 -0.028592986292581935 0 -0.036052656316384879 -0.025958756670394333 0 -0.035951249584045539 -0.026819921056579248 0 -0.03984524501525924 -0.026760850100615751 0 -0.037922158238912193 -0.028462465663837633 0 -0.037385387506889141 -0.026731522569431322 0 -0.037922158238912193 -0.028462465663837633 0 -0.036483284638300327 -0.028225150857693348 0 -0.037385387506889141 -0.026731522569431322 0 -0.036483284638300327 -0.028225150857693348 0 -0.034933568152979599 -0.026697312036172947 0 -0.037385387506889141 -0.026731522569431322 0 -0.037922158238912193 -0.028462465663837633 0 -0.036483284638300327 -0.028225150857693348 0 -0.036744932795776515 -0.029748875547636906 0 -0.036483284638300327 -0.028225150857693348 0 -0.035588052729210111 -0.029119442174854005 0 -0.036744932795776515 -0.029748875547636906 0 -0.036074397019047758 -0.029273441686444874 0 -0.035609357102280491 -0.028152761645861293 0 -0.035597823910012809 -0.029597057985060626 0 -0.037914553100319187 -0.028220767847853542 0 -0.037642144045083765 -0.027213753166687189 0 -0.036469797173051467 -0.027444425350450309 0 -0.036461322300382945 -0.02717948153236828 0 -0.035762979627406426 -0.026987393516445593 0 -0.036461322300382945 -0.02717948153236828 0 -0.036462181514591636 -0.027185757833166683 0 -0.036461322300382945 -0.02717948153236828 0 -0.036503720292710366 -0.02682691185403311 0 -0.036483284638300327 -0.028225150857693348 0 -0.035588052729210111 -0.029119442174854005 0 -0.035261126782950195 -0.027907132961763743 0 -0.036483284638300327 -0.028225150857693348 0 -0.035261126782950195 -0.027907132961763743 0 -0.034933568152979599 -0.026697312036172947 0 -0.036503720292710366 -0.02682691185403311 0 -0.036515757883729599 -0.026307987012820843 0 -0.037642144045083765 -0.027213753166687189 0 -0.036959065374893497 -0.026849442541138961 0 -0.037369652908974135 -0.026200281411272348 0 -0.036959065374893497 -0.026849442541138961 0 -0.036469797173051467 -0.027444425350450309 0 -0.03656836212313725 -0.026185477670452564 0 -0.036469797173051467 -0.027444425350450309 0 -0.0357107341913512 -0.026066948058014801 0 -0.03656836212313725 -0.026185477670452564 0 -0.036959065374893497 -0.026849442541138961 0 -0.03656836212313725 -0.026185477670452564 0 -0.037369652908974135 -0.026200281411272348 0 -0.037642144045083765 -0.027213753166687189 0 -0.036959065374893497 -0.026849442541138961 0 -0.036469797173051467 -0.027444425350450309 0 -0.035001336985510174 -0.026666738695599469 0 -0.035762979627406426 -0.026987393516445593 0 -0.035000002500313834 -0.026666263468993343 0 -0.036469797173051467 -0.027444425350450309 0 -0.0357107341913512 -0.026066948058014801 0 -0.034999888698693908 -0.026667482562608431 0 -0.035609357102280491 -0.028152761645861293 0 -0.034999134709072593 -0.028699041963181682 0 -0.035609357102280491 -0.028152761645861293 0 -0.035597823910012809 -0.029597057985060626 0 -0.034999134709072593 -0.028699041963181682 0 -0.035597823910012809 -0.029597057985060626 0 -0.034999134709072593 -0.028699041963181682 0 -0.035119248227096188 -0.030754847619336619 0 -0.034998036984157224 -0.031405329535589596 0 -0.034999134709072593 -0.028699041963181682 0 -0.035119248227096188 -0.030754847619336619 0 -0.035597823910012809 -0.029597057985060626 0 -0.035119248227096188 -0.030754847619336619 0 -0.035546752395583366 -0.030822548457897177 0 -0.034672708139999384 -0.033274048165604933 0 -0.035119248227096188 -0.030754847619336619 0 -0.035546752395583366 -0.030822548457897177 0 -0.034672708139999384 -0.033274048165604933 0 -0.035546752395583366 -0.030822548457897177 0 -0.036736335735561731 -0.030866083573575627 0 -0.035546752395583366 -0.030822548457897177 0 -0.036736335735561731 -0.030866083573575627 0 -0.03609393270694284 -0.030059380369718888 0 -0.036736335735561731 -0.030866083573575627 0 -0.036744932795776515 -0.029748875547636906 0 -0.03609393270694284 -0.030059380369718888 0 -0.037827327852510154 -0.030050136611428725 0 -0.036736335735561731 -0.030866083573575627 0 -0.036744932795776515 -0.029748875547636906 0 -0.03603566310830187 -0.029275387463271321 0 -0.036744932795776515 -0.029748875547636906 0 -0.036068882523890629 -0.029415276501143287 0 -0.036744932795776515 -0.029748875547636906 0 -0.036068882523890629 -0.029415276501143287 0 -0.03609393270694284 -0.030059380369718888 0 -0.036461322300382945 -0.02717948153236828 0 -0.036539269170654406 -0.027296539914103548 0 -0.035597823910012809 -0.029597057985060626 0 -0.036068882523890629 -0.029415276501143287 0 -0.03609393270694284 -0.030059380369718888 0 -0.036074397019047758 -0.029273441686444874 0 -0.035597823910012809 -0.029597057985060626 0 -0.036068882523890629 -0.029415276501143287 0 -0.035597823910012809 -0.029597057985060626 0 -0.035546752395583366 -0.030822548457897177 0 -0.03609393270694284 -0.030059380369718888 0 -0.015028927100744896 -0.034657883065481551 0 -0.014626779620267346 -0.032683764657327086 0 -0.017676025306073821 -0.037864264799006321 0 -0.017580625070136458 -0.039996014444269271 0 -0.016450601609461719 -0.038379245025025689 0 -0.01925262395568254 -0.038249893274755566 0 -0.017956483180654816 -0.037820863013531818 0 -0.017850196270788089 -0.039282629182038342 0 -0.01925262395568254 -0.038249893274755566 0 -0.019184021537966084 -0.039520910714450332 0 -0.017850196270788089 -0.039282629182038342 0 -0.01925262395568254 -0.038249893274755566 0 -0.020435954380116771 -0.038794663594853868 0 -0.019184021537966084 -0.039520910714450332 0 -0.01925262395568254 -0.038249893274755566 0 -0.018753983382989364 -0.037126716267539966 0 -0.019784730229356163 -0.036997133664232656 0 -0.01925262395568254 -0.038249893274755566 0 -0.018753983382989364 -0.037126716267539966 0 -0.017956483180654816 -0.037820863013531818 0 -0.015028927100744896 -0.034657883065481551 0 -0.01517780506080426 -0.03504428261472696 0 -0.018753983382989364 -0.037126716267539966 0 -0.017956483180654816 -0.037820863013531818 0 -0.017977080007859123 -0.036299516173153329 0 -0.017676025306073821 -0.037864264799006321 0 -0.017977080007859123 -0.036299516173153329 0 -0.016191462762635785 -0.03670416241698566 0 -0.017977080007859123 -0.036299516173153329 0 -0.017968724152282546 -0.034999706515065794 0 -0.019161840249012123 -0.036032920605520165 0 -0.017977080007859123 -0.036299516173153329 0 -0.017968724152282546 -0.034999706515065794 0 -0.016811895085293946 -0.035691508686502539 0 -0.017968724152282546 -0.034999706515065794 0 -0.019161840249012123 -0.036032920605520165 0 -0.01988941996716307 -0.034999968969106184 0 -0.018753983382989364 -0.037126716267539966 0 -0.017977080007859123 -0.036299516173153329 0 -0.019161840249012123 -0.036032920605520165 0 -0.018753983382989364 -0.037126716267539966 0 -0.019161840249012123 -0.036032920605520165 0 -0.019784730229356163 -0.036997133664232656 0 -0.019784730229356163 -0.036997133664232656 0 -0.020405390093111122 -0.035925428449546187 0 -0.020844249274546502 -0.03683752358382756 0 -0.019161840249012123 -0.036032920605520165 0 -0.019784730229356163 -0.036997133664232656 0 -0.020405390093111122 -0.035925428449546187 0 -0.01988941996716307 -0.034999968969106184 0 -0.020405390093111122 -0.035925428449546187 0 -0.02181002952285092 -0.034999948813181345 0 -0.019161840249012123 -0.036032920605520165 0 -0.01988941996716307 -0.034999968969106184 0 -0.020405390093111122 -0.035925428449546187 0 -0.020405390093111122 -0.035925428449546187 0 -0.02181002952285092 -0.034999948813181345 0 -0.02138469648815906 -0.036138149536213353 0 -0.02138469648815906 -0.036138149536213353 0 -0.020844249274546502 -0.03683752358382756 0 -0.021920410137377468 -0.03680114635779104 0 -0.020405390093111122 -0.035925428449546187 0 -0.02138469648815906 -0.036138149536213353 0 -0.020844249274546502 -0.03683752358382756 0 -0.020844249274546502 -0.03683752358382756 0 -0.021370875892426006 -0.037497417919576663 0 -0.021920410137377468 -0.03680114635779104 0 -0.021370875892426006 -0.037497417919576663 0 -0.021156407910734146 -0.038380975145430499 0 -0.021841052376460786 -0.038035597680100751 0 -0.021370875892426006 -0.037497417919576663 0 -0.020454574217046797 -0.037787162479179917 0 -0.021156407910734146 -0.038380975145430499 0 -0.020844249274546502 -0.03683752358382756 0 -0.021370875892426006 -0.037497417919576663 0 -0.020454574217046797 -0.037787162479179917 0 -0.01925262395568254 -0.038249893274755566 0 -0.019784730229356163 -0.036997133664232656 0 -0.020454574217046797 -0.037787162479179917 0 -