<?xml version="1.0"?>
<VTKFile type="UnstructuredGrid" version="0.1" byte_order="LittleEndian">
<UnstructuredGrid>
<Piece NumberOfPoints="29426" NumberOfCells="10360">
<Points>
<DataArray type="Float64" NumberOfComponents="3" format="ascii">
-0.5 -0.5 0 -0.48844779397140192 -0.47366123027711948 0 -0.50000000000000155 -0.46247496764540152 0 -0.5 -0.5 0 -0.47382683668517039 -0.47564534988414781 0 -0.45607271870562072 -0.49999999999999839 0 -0.5 -0.5 0 -0.48844779397140192 -0.47366123027711948 0 -0.47382683668517039 -0.47564534988414781 0 -0.48844779397140192 -0.47366123027711948 0 -0.47382683668517039 -0.47564534988414781 0 -0.48013650800985669 -0.45934970404010128 0 -0.47382683668517039 -0.47564534988414781 0 -0.45607271870562072 -0.49999999999999839 0 -0.45809880136126802 -0.47915999827553651 0 -0.45607271870562072 -0.49999999999999839 0 -0.45809880136126802 -0.47915999827553651 0 -0.4509613007386935 -0.48640473505746801 0 -0.47382683668517039 -0.47564534988414781 0 -0.45809880136126802 -0.47915999827553651 0 -0.46446330631975058 -0.46857003922130508 0 -0.4567195393145953 -0.47108996935110109 0 -0.45809880136126802 -0.47915999827553651 0 -0.44906287663230798 -0.47260029275850218 0 -0.4567195393145953 -0.47108996935110109 0 -0.45809880136126802 -0.47915999827553651 0 -0.46446330631975058 -0.46857003922130508 0 -0.4567195393145953 -0.47108996935110109 0 -0.44906287663230798 -0.47260029275850218 0 -0.45524118388891049 -0.46329942228200133 0 -0.45809880136126802 -0.47915999827553651 0 -0.450064024555207 -0.47988016699097741 0 -0.4509613007386935 -0.48640473505746801 0 -0.450064024555207 -0.47988016699097741 0 -0.44906287663230798 -0.47260029275850218 0 -0.44213311948855871 -0.48135564187240282 0 -0.45809880136126802 -0.47915999827553651 0 -0.450064024555207 -0.47988016699097741 0 -0.44906287663230798 -0.47260029275850218 0 -0.450064024555207 -0.47988016699097741 0 -0.44213311948855871 -0.48135564187240282 0 -0.4509613007386935 -0.48640473505746801 0 -0.44906287663230798 -0.47260029275850218 0 -0.43965395527957929 -0.48146152865944941 0 -0.44474168558519678 -0.46405619312909752 0 -0.44906287663230798 -0.47260029275850218 0 -0.44213311948855871 -0.48135564187240282 0 -0.43965395527957929 -0.48146152865944941 0 -0.44213311948855871 -0.48135564187240282 0 -0.43965395527957929 -0.48146152865944941 0 -0.44080119470646628 -0.48595487775725948 0 -0.43965395527957929 -0.48146152865944941 0 -0.44080119470646628 -0.48595487775725948 0 -0.43608140202719481 -0.48161411483509031 0 -0.44080119470646628 -0.48595487775725948 0 -0.43608140202719481 -0.48161411483509031 0 -0.43965395527957929 -0.48146152865944941 0 -0.44080119470646628 -0.48595487775725948 0 -0.43965395527957929 -0.48146152865944941 0 -0.43608140202719481 -0.48161411483509031 0 -0.44213311948855871 -0.48135564187240282 0 -0.43965395527957929 -0.48146152865944941 0 -0.45607271870562072 -0.49999999999999839 0 -0.44159960279081473 -0.48908197238229439 0 -0.4274681276564915 -0.5 0 -0.44080119470646628 -0.48595487775725948 0 -0.44159960279081473 -0.48908197238229439 0 -0.43608140202719481 -0.48161411483509031 0 -0.44213311948855871 -0.48135564187240282 0 -0.44080119470646628 -0.48595487775725948 0 -0.4509613007386935 -0.48640473505746801 0 -0.44080119470646628 -0.48595487775725948 0 -0.44159960279081473 -0.48908197238229439 0 -0.45607271870562072 -0.49999999999999839 0 -0.44080119470646628 -0.48595487775725948 0 -0.45607271870562072 -0.49999999999999839 0 -0.44080119470646628 -0.48595487775725948 0 -0.44159960279081473 -0.48908197238229439 0 -0.45607271870562072 -0.49999999999999839 0 -0.44080119470646628 -0.48595487775725948 0 -0.4509613007386935 -0.48640473505746801 0 -0.44983985647950581 -0.45160308804861499 0 -0.45966461093131178 -0.44273722091553369 0 -0.44448147895640161 -0.43499756902142322 0 -0.44983985647950581 -0.45160308804861499 0 -0.44448147895640161 -0.43499756902142322 0 -0.43300807702817251 -0.45543186968409682 0 -0.43965395527957929 -0.48146152865944941 0 -0.44474168558519678 -0.46405619312909752 0 -0.43300807702817251 -0.45543186968409682 0 -0.44983985647950581 -0.45160308804861499 0 -0.44474168558519678 -0.46405619312909752 0 -0.43300807702817251 -0.45543186968409682 0 -0.44906287663230798 -0.47260029275850218 0 -0.44474168558519678 -0.46405619312909752 0 -0.45524118388891049 -0.46329942228200133 0 -0.44983985647950581 -0.45160308804861499 0 -0.44474168558519678 -0.46405619312909752 0 -0.45524118388891049 -0.46329942228200133 0 -0.44983985647950581 -0.45160308804861499 0 -0.45524118388891049 -0.46329942228200133 0 -0.46382197426144212 -0.45499431324530482 0 -0.4567195393145953 -0.47108996935110109 0 -0.45524118388891049 -0.46329942228200133 0 -0.46446330631975058 -0.46857003922130508 0 -0.45524118388891049 -0.46329942228200133 0 -0.46446330631975058 -0.46857003922130508 0 -0.46382197426144212 -0.45499431324530482 0 -0.46382197426144212 -0.45499431324530482 0 -0.45966461093131178 -0.44273722091553369 0 -0.46983948991283231 -0.44156782445419968 0 -0.44983985647950581 -0.45160308804861499 0 -0.46382197426144212 -0.45499431324530482 0 -0.45966461093131178 -0.44273722091553369 0 -0.45966461093131178 -0.44273722091553369 0 -0.46983948991283231 -0.44156782445419968 0 -0.45985716457620551 -0.43105742298173683 0 -0.46983948991283231 -0.44156782445419968 0 -0.48013650800985669 -0.45934970404010128 0 -0.48644617933454881 -0.44305405819605709 0 -0.48013650800985669 -0.45934970404010128 0 -0.48644617933454881 -0.44305405819605709 0 -0.46382197426144212 -0.45499431324530482 0 -0.46983948991283231 -0.44156782445419968 0 -0.48013650800985669 -0.45934970404010128 0 -0.46446330631975058 -0.46857003922130508 0 -0.46382197426144212 -0.45499431324530482 0 -0.48013650800985669 -0.45934970404010128 0 -0.47382683668517039 -0.47564534988414781 0 -0.46446330631975058 -0.46857003922130508 0 -0.48013650800985669 -0.45934970404010128 0 -0.47382683668517039 -0.47564534988414781 0 -0.48013650800985669 -0.45934970404010128 0 -0.48844779397140192 -0.47366123027711948 0 -0.48013650800985669 -0.45934970404010128 0 -0.50000000000000155 -0.46247496764540152 0 -0.48013650800985669 -0.45934970404010128 0 -0.50000000000000155 -0.46247496764540152 0 -0.48644617933454881 -0.44305405819605709 0 -0.50000000000000155 -0.46247496764540152 0 -0.48644617933454881 -0.44305405819605709 0 -0.5 -0.43526215423733111 0 -0.50000000000000155 -0.46247496764540152 0 -0.48644617933454881 -0.44305405819605709 0 -0.48644617933454881 -0.44305405819605709 0 -0.5 -0.43526215423733111 0 -0.49322308966727169 -0.4255516995126577 0 -0.5 -0.43526215423733111 0 -0.49322308966727169 -0.4255516995126577 0 -0.50000000000000022 -0.40804934082926048 0 -0.48644617933454881 -0.44305405819605709 0 -0.48656776968788462 -0.43141975740227151 0 -0.49322308966727169 -0.4255516995126577 0 -0.48644617933454881 -0.44305405819605709 0 -0.49322308966727169 -0.4255516995126577 0 -0.48656776968788462 -0.43141975740227151 0 -0.49322308966727169 -0.4255516995126577 0 -0.48251009263801248 -0.41804762166735843 0 -0.49322308966727169 -0.4255516995126577 0 -0.50000000000000022 -0.40804934082926048 0 -0.49322308966727169 -0.4255516995126577 0 -0.48786992139865959 -0.40883626199836048 0 -0.48251009263801248 -0.41804762166735843 0 -0.49322308966727169 -0.4255516995126577 0 -0.50000000000000022 -0.40804934082926048 0 -0.48786992139865959 -0.40883626199836048 0 -0.46911050236362589 -0.41821422734646718 0 -0.47757641969057918 -0.40532423639974557 0 -0.46040120992690009 -0.40573491365651138 0 -0.48786992139865959 -0.40883626199836048 0 -0.48251009263801248 -0.41804762166735843 0 -0.47757641969057918 -0.40532423639974557 0 -0.48251009263801248 -0.41804762166735843 0 -0.46911050236362589 -0.41821422734646718 0 -0.47757641969057918 -0.40532423639974557 0 -0.48656776968788462 -0.43141975740227151 0 -0.48251009263801248 -0.41804762166735843 0 -0.46911050236362589 -0.41821422734646718 0 -0.48644617933454881 -0.44305405819605709 0 -0.48656776968788462 -0.43141975740227151 0 -0.46911050236362589 -0.41821422734646718 0 -0.48644617933454881 -0.44305405819605709 0 -0.46911050236362589 -0.41821422734646718 0 -0.46983948991283231 -0.44156782445419968 0 -0.48644617933454881 -0.44305405819605709 0 -0.46911050236362589 -0.41821422734646718 0 -0.48656776968788462 -0.43141975740227151 0 -0.46911050236362589 -0.41821422734646718 0 -0.5 -0.3847533113815268 0 -0.48922066936689818 -0.39738781464685369 0 -0.47521167947678228 -0.38471106762438162 0 -0.5 -0.3847533113815268 0 -0.47521167947678228 -0.38471106762438162 0 -0.49002214902665348 -0.36368722159224398 0 -0.50000000000000022 -0.40804934082926048 0 -0.5 -0.3847533113815268 0 -0.48922066936689818 -0.39738781464685369 0 -0.50000000000000022 -0.40804934082926048 0 -0.48786992139865959 -0.40883626199836048 0 -0.48922066936689818 -0.39738781464685369 0 -0.48786992139865959 -0.40883626199836048 0 -0.48922066936689818 -0.39738781464685369 0 -0.47757641969057918 -0.40532423639974557 0 -0.48922066936689818 -0.39738781464685369 0 -0.47757641969057918 -0.40532423639974557 0 -0.47521167947678228 -0.38471106762438162 0 -0.47757641969057918 -0.40532423639974557 0 -0.47521167947678228 -0.38471106762438162 0 -0.46040120992690009 -0.40573491365651138 0 -0.46048868583517699 -0.38346273104891382 0 -0.43910629694810849 -0.37522199874484979 0 -0.46462758010571459 -0.3693626276989439 0 -0.47521167947678228 -0.38471106762438162 0 -0.46048868583517699 -0.38346273104891382 0 -0.46462758010571459 -0.3693626276989439 0 -0.47521167947678228 -0.38471106762438162 0 -0.46048868583517699 -0.38346273104891382 0 -0.46040120992690009 -0.40573491365651138 0 -0.47521167947678228 -0.38471106762438162 0 -0.46040120992690009 -0.40573491365651138 0 -0.46048868583517699 -0.38346273104891382 0 -0.46040120992690009 -0.40573491365651138 0 -0.4497537534375024 -0.39047845620068189 0 -0.46040120992690009 -0.40573491365651138 0 -0.44380468417398461 -0.39907166989558501 0 -0.45769383517366491 -0.40957810240699011 0 -0.46040120992690009 -0.40573491365651138 0 -0.4497537
[...]
<PointData Scalars="" Vectors="displacement," Tensors="">
<DataArray type="Float64" Name="displacement" NumberOfComponents="3" format="ascii">
-0.04999635256438266 -0.049997289182395328 0 -0.048079108387668407 -0.049449827790689738 0 -0.046256603097742023 -0.049997151914612875 0 -0.04999635256438266 -0.049997289182395328 0 -0.04898089036210538 -0.04838672954083878 0 -0.049997886738719716 -0.045615481769260176 0 -0.04999635256438266 -0.049997289182395328 0 -0.048079108387668407 -0.049449827790689738 0 -0.04898089036210538 -0.04838672954083878 0 -0.048079108387668407 -0.049449827790689738 0 -0.04898089036210538 -0.04838672954083878 0 -0.047397407030717167 -0.049393768082435473 0 -0.04898089036210538 -0.04838672954083878 0 -0.049997886738719716 -0.045615481769260176 0 -0.049339241491386028 -0.047050360490372214 0 -0.049997886738719716 -0.045615481769260176 0 -0.049339241491386028 -0.047050360490372214 0 -0.049532567153586601 -0.046627330343812529 0 -0.04898089036210538 -0.04838672954083878 0 -0.049339241491386028 -0.047050360490372214 0 -0.049467859587587364 -0.047613275788585666 0 -0.04943808478820913 -0.047228348375973075 0 -0.049339241491386028 -0.047050360490372214 0 -0.049429344636632074 -0.047058679075396077 0 -0.04943808478820913 -0.047228348375973075 0 -0.049339241491386028 -0.047050360490372214 0 -0.049467859587587364 -0.047613275788585666 0 -0.04943808478820913 -0.047228348375973075 0 -0.049429344636632074 -0.047058679075396077 0 -0.049578273764673976 -0.047287814597965473 0 -0.049339241491386028 -0.047050360490372214 0 -0.049394248380101896 -0.046901418537198508 0 -0.049532567153586601 -0.046627330343812529 0 -0.049394248380101896 -0.046901418537198508 0 -0.049429344636632074 -0.047058679075396077 0 -0.049365700577227424 -0.047052226340588768 0 -0.049339241491386028 -0.047050360490372214 0 -0.049394248380101896 -0.046901418537198508 0 -0.049429344636632074 -0.047058679075396077 0 -0.049394248380101896 -0.046901418537198508 0 -0.049365700577227424 -0.047052226340588768 0 -0.049532567153586601 -0.046627330343812529 0 -0.049429344636632074 -0.047058679075396077 0 -0.04936210611232128 -0.047030231614458622 0 -0.049552167238248519 -0.047088645659688268 0 -0.049429344636632074 -0.047058679075396077 0 -0.049365700577227424 -0.047052226340588768 0 -0.04936210611232128 -0.047030231614458622 0 -0.049365700577227424 -0.047052226340588768 0 -0.049369354560745829 -0.047177839142371239 0 -0.049572348347899427 -0.047177865711001105 0 -0.050329262821382073 -0.044138584558346509 0 -0.050149031847622184 -0.044187152853019759 0 -0.050323351081206696 -0.04399227190792749 0 -0.050172259836469495 -0.044580443965174195 0 -0.050771795451136019 -0.042630120704849922 0 -0.049951961695998338 -0.044432492149651191 0 -0.050172259836469495 -0.044580443965174195 0 -0.049951961695998338 -0.044432492149651191 0 -0.050771795451136019 -0.042630120704849922 0 -0.049934254725520488 -0.04498573668410033 0 -0.049951961695998338 -0.044432492149651191 0 -0.049999996097304947 -0.045607269301093038 0 -0.051081665966638649 -0.044157579231736771 0 -0.049999979251593822 -0.042746793082371497 0 -0.051392315908519684 -0.044076125134218984 0 -0.051081665966638649 -0.044157579231736771 0 -0.051824748063776238 -0.043601631118577719 0 -0.049365700577227424 -0.047052226340588768 0 -0.049572348347899427 -0.047177865711001105 0 -0.049532567153586601 -0.046627330343812529 0 -0.050172259836469495 -0.044580443965174195 0 -0.050512889193278607 -0.044474847675598138 0 -0.049999758900534402 -0.045608089442228092 0 -0.050172259836469495 -0.044580443965174195 0 -0.049999996097304947 -0.045607269301093038 0 -0.051391377047840602 -0.044077224009020831 0 -0.051081665966638649 -0.044157579231736771 0 -0.049997886738719716 -0.045615481769260176 0 -0.049572348347899427 -0.047177865711001105 0 -0.049532567153586601 -0.046627330343812529 0 -0.049759219572915375 -0.047242942862539605 0 -0.049910698084771749 -0.047485157631906152 0 -0.050004740747744539 -0.047188391777627715 0 -0.049759219572915375 -0.047242942862539605 0 -0.050004740747744539 -0.047188391777627715 0 -0.049681540258758226 -0.046959974509519227 0 -0.04936210611232128 -0.047030231614458622 0 -0.049552167238248519 -0.047088645659688268 0 -0.049681540258758226 -0.046959974509519227 0 -0.049759219572915375 -0.047242942862539605 0 -0.049552167238248519 -0.047088645659688268 0 -0.049681540258758226 -0.046959974509519227 0 -0.049429344636632074 -0.047058679075396077 0 -0.049552167238248519 -0.047088645659688268 0 -0.049578273764673976 -0.047287814597965473 0 -0.049759219572915375 -0.047242942862539605 0 -0.049552167238248519 -0.047088645659688268 0 -0.049578273764673976 -0.047287814597965473 0 -0.049759219572915375 -0.047242942862539605 0 -0.049578273764673976 -0.047287814597965473 0 -0.049733697414826049 -0.047580663129776178 0 -0.04943808478820913 -0.047228348375973075 0 -0.049578273764673976 -0.047287814597965473 0 -0.049467859587587364 -0.047613275788585666 0 -0.049578273764673976 -0.047287814597965473 0 -0.049467859587587364 -0.047613275788585666 0 -0.049733697414826049 -0.047580663129776178 0 -0.049733697414826049 -0.047580663129776178 0 -0.049910698084771749 -0.047485157631906152 0 -0.049936666590740968 -0.047723223695815921 0 -0.049759219572915375 -0.047242942862539605 0 -0.049733697414826049 -0.047580663129776178 0 -0.049910698084771749 -0.047485157631906152 0 -0.049910698084771749 -0.047485157631906152 0 -0.049936666590740968 -0.047723223695815921 0 -0.05007127446043836 -0.047486761811845489 0 -0.049936666590740968 -0.047723223695815921 0 -0.049674318181930993 -0.048092934831834806 0 -0.049904859374344572 -0.048069382858801454 0 -0.048793296625934138 -0.048744433728350689 0 -0.046785373724539198 -0.049936354271001238 0 -0.049733697414826049 -0.047580663129776178 0 -0.049936666590740968 -0.047723223695815921 0 -0.049674318181930993 -0.048092934831834806 0 -0.049467859587587364 -0.047613275788585666 0 -0.049733697414826049 -0.047580663129776178 0 -0.049674318181930993 -0.048092934831834806 0 -0.04898089036210538 -0.04838672954083878 0 -0.049467859587587364 -0.047613275788585666 0 -0.049674318181930993 -0.048092934831834806 0 -0.048636131991245023 -0.048428056275348762 0 -0.048793296625934138 -0.048744433728350689 0 -0.048079108387668407 -0.049449827790689738 0 -0.047397407030717167 -0.049393768082435473 0 -0.046256603097742023 -0.049997151914612875 0 -0.047397407030717167 -0.049393768082435473 0 -0.046256603097742023 -0.049997151914612875 0 -0.047824311634772645 -0.049606769873646379 0 -0.046247498503035542 -0.049999995083886035 0 -0.04431453517545187 -0.05134557280967688 0 -0.043526236490888742 -0.049999988217440478 0 -0.046246632116199095 -0.050000769201521092 0 -0.046785373724539198 -0.049936354271001238 0 -0.04431453517545187 -0.05134557280967688 0 -0.043526236490888742 -0.049999988217440478 0 -0.042556645717777113 -0.050674818559321544 0 -0.043526236490888742 -0.049999988217440478 0 -0.042556645717777113 -0.050674818559321544 0 -0.040804928595121776 -0.050000000247788466 0 -0.044199487502699523 -0.051278931982416162 0 -0.043187291927260868 -0.051251794277093102 0 -0.042626523605505874 -0.050632364526280081 0 -0.046785373724539198 -0.049936354271001238 0 -0.042255452731041192 -0.050592448185057967 0 -0.043187291927260868 -0.051251794277093102 0 -0.042626523605505874 -0.050632364526280081 0 -0.041850112334105294 -0.051691662162104086 0 -0.042255452731041192 -0.050592448185057967 0 -0.040805736793370039 -0.050000283992823219 0 -0.042626523605505874 -0.050632364526280081 0 -0.040905527179022287 -0.051179352079978813 0 -0.041850112334105294 -0.051691662162104086 0 -0.042626523605505874 -0.050632364526280081 0 -0.040805025045666805 -0.049999862074570411 0 -0.040905527179022287 -0.051179352079978813 0 -0.04186976201877881 -0.053026466707790966 0 -0.040561564647472292 -0.052193844055067086 0 -0.040618756043671933 -0.053882155252076631 0 -0.040905527179022287 -0.051179352079978813 0 -0.041850112334105294 -0.051691662162104086 0 -0.040561564647472292 -0.052193844055067086 0 -0.041850112334105294 -0.051691662162104086 0 -0.04186976201877881 -0.053026466707790966 0 -0.040561564647472292 -0.052193844055067086 0 -0.043187291927260868 -0.051251794277093102 0 -0.041850112334105294 -0.051691662162104086 0 -0.04186976201877881 -0.053026466707790966 0 -0.044199487502699523 -0.051278931982416162 0 -0.043187291927260868 -0.051251794277093102 0 -0.042100671785748299 -0.052643275990823461 0 -0.046785373724539198 -0.049936354271001238 0 -0.044949757029148781 -0.050629812391668562 0 -0.049936666590740968 -0.047723223695815921 0 -0.049904859374344572 -0.048069382858801454 0 -0.050259273870359313 -0.047669658857434828 0 -0.042142938373846681 -0.052386940612659416 0 -0.044949757029148781 -0.050629812391668562 0 -0.0384753407672506 -0.050000005735271032 0 -0.039753072801455409 -0.051053545010769662 0 -0.038494924642984749 -0.052436201888903085 0 -0.0384753407672506 -0.050000005735271032 0 -0.038494924642984749 -0.052436201888903085 0 -0.036380654467800845 -0.050985833614596375 0 -0.040805025045666805 -0.049999862074570411 0 -0.0384753407672506 -0.050000005735271032 0 -0.039753072801455409 -0.051053545010769662 0 -0.040805025045666805 -0.049999862074570411 0 -0.040905527179022287 -0.051179352079978813 0 -0.039753072801455409 -0.051053545010769662 0 -0.040905527179022287 -0.051179352079978813 0 -0.039753072801455409 -0.051053545010769662 0 -0.040561564647472292 -0.052193844055067086 0 -0.039753072801455409 -0.051053545010769662 0 -0.040561564647472292 -0.052193844055067086 0 -0.038494924642984749 -0.052436201888903085 0 -0.040561564647472292 -0.052193844055067086 0 -0.038494924642984749 -0.052436201888903085 0 -0.040618756043671933 -0.053882155252076631 0 -0.039781512410181852 -0.049832912509138738 0 -0.039586619020388812 -0.050318171159435508 0 -0.03944214161247709 -0.049740763565458729 0 -0.039805027925172091 -0.049491449797423696 0 -0.039781512410181852 -0.049832912509138738 0 -0.03944214161247709 -0.049740763565458729 0 -0.039805027925172091 -0.049491449797423696 0 -0.039781512410181852 -0.049832912509138738 0 -0.040340123603917359 -0.049831263547761961 0 -0.038937725384901332 -0.051177891018177282 0 -0.04261421710353356 -0.049679984590364351 0 -0.039781512410181852 -0.049832912509138738 0 -0.040340123603917359 -0.049831263547761961 0 -0.039957499126196255 -0.050080775786233246 0 -0.043827568849852692 -0.047097833838622712 0 -0.043531871091896379 -0.047808431166763012 0 -0.044000521885450485 -0.047216312299926358 0 -0.04261421710353356 -0.049679984590364351 0 -0.041836154832776119 -0.048625207336107167 0 -0.043827568849852692 -0.047097833838622712 0 -0.043531871091896379 -0.047808431166763012 0 -0.043138040017566888 -0.047544897481920728 0 -0.043531871091896379 -0.047808431166763012 0 -0.043138040017566888 -0.047544897481920728 0 -0.043052483517579114 -0.048424415093979933 0 -0.046911884407658977 -0.047532026692757405 0 -0.047195222816047204 -0.048107736139849283 0 -0.039781512410181852 -0.049832912509138738 0 -0.039957499126196255 -0.050080775786233246 0 -0.039586619020388812 -0.050318171159435508 0 -0.043138040017566888 -0.047544897481920728 0 -0.042421958814166223 -0.048017267388500429 0 -0.043052483517579114 -0.048424415093979933 0 -0.041836154832776119 -0.048625207336107167 0 -0.038600878777588395 -0.048682183246267309 0 -0.050259273870359313 -0.047669658857434828 0 -0.05007127446043836 -0.047486761811845489 0 -0.050206193504894643 -0.047286545686487748 0 -0.049936666590740968 -0.047723223695815921 0 -0.050259273870359313 -0.047669658857434828 0 -0.05007127446043836 -0.047486761811845489 0 -0.049910698084771749 -0.047485157631906152 0 -0.05007127446043836 -0.047486761811845489 0 -0.050004740747744539 -0.047188391777627715 0 -0.050259273870359313 -0.047669658857434828 0 -0.050398060988492144 -0.047438107522366969 0 -0.050206193504894643 -0.047286545686487748 0 -0.044949757029148781 -0.050629812391668562 0 -0.04261421710353356 -0.049679984590364351 0 -0.044949757029148781 -0.050629812391668562 0 -0.047195222816047204 -0.048107736139849283 0 -0.044759918783843132 -0.050243862228351338 0 -0.045792984488179408 -0.049505325022753087 0 -0.045476126480491638 -0.049279132169094915 0 -0.04261421710353356 -0.049679984590364351 0 -0.047195222816047204 -0.048107736139849283 0 -0.047195222816047204 -0.048107736139849283 0 -0.050238486340004371 -0.048039856169384096 0 -0.050263177514022518 -0.047320253455229278 0 -0.050206193504894643 -0.047286545686487748 0 -0.050265900991047427 -0.047214814112422281 0 -0.050353693533212548 -0.047164192678471925 0 -0.050263177514022518 -0.047320253455229278 0 -0.050265900991047427 -0.047214814112422281 0 -0.050353693533212548 -0.047164192678471925 0 -0.050265900991047427 -0.047214814112422281 0 -0.050227857243024428 -0.047066611052166384 0 -0.050206193504894643 -0.047286545686487748 0 -0.050265900991047427 -0.047214814112422281 0 -0.050227857243024428 -0.047066611052166384 0 -0.050206193504894643 -0.047286545686487748 0 -0.050004740747744539 -0.047188391777627715 0 -0.050227857243024428 -0.047066611052166384 0 -0.05007127446043836 -0.047486761811845489 0 -0.050206193504894643 -0.047286545686487748 0 -0.050004740747744539 -0.047188391777627715 0 -0.050004740747744539 -0.047188391777627715 0 -0.050068340799158118 -0.046937383617639161 0 -0.050227857243024428 -0.047066611052166384 0 -0.050201503280427925 -0.044577726738004496 0 -0.048233472332980254 -0.041408156200931578 0 -0.050068340799158118 -0.046937383617639161 0 -0.050227857243024428 -0.047066611052166384 0 -0.050308328886349139 -0.046887832916563087 0 -0.046641664617924482 -0.039084253365208994 0 -0.045916411858617771 -0.038675313844874985 0 -0.046177967905310681 -0.039260391845553404 0 -0.049719412475943199 -0.041572554474476886 0 -0.049679438485628384 -0.041649710477616043 0 -0.049558465377371463 -0.041590315538954502 0 -0.047629438093035395 -0.040191106694386657 0 -0.048233472332980254 -0.041408156200931578 0 -0.049719412475943199 -0.041572554474476886 0 -0.049679438485628384 -0.041649710477616043 0 -0.049780372349887171 -0.041620791841882485 0 -0.035339393291383359 -0.046411638888055988 0 -0.034800250767111844 -0.044236159650725596 0 -0.035570023971912508 -0.046066438919618022 0 -0.038600878777588395 -0.048682183246267309 0 -0.039679874959954647 -0.041721315692504667 0 -0.041423939496424964 -0.046490932027994411 0 -0.039797653440774759 -0.045342952941041438 0 -0.040877632092294239 -0.043890323543123118 0 -0.038600878777588395 -0.048682183246267309 0 -0.044987517018579025 -0.045203203476459008 0 -0.044987517018579025 -0.045203203476459008 0 -0.039679874959954647 -0.041721315692504667 0 -0.050353693533212548 -0.047164192678471925 0 -0.050227857243024428 -0.047066611052166384 0 -0.050308328886349139 -0.046887832916563087 0 -0.050353693533212548 -0.047164192678471925 0 -0.050423899769477011 -0.046998541351280954 0 -0.050308328886349139 -0.046887832916563087 0 -0.044987517018579025 -0.045203203476459008 0 -0.048233472332980254 -0.041408156200931578 0 -0.046911884407658977 -0.047532026692757405 0 -0.044987517018579025 -0.045203203476459008 0 -0.045831989919151717 -0.038971923107069761 0 -0.045355610510076638 -0.038879513113700713 0 -0.045230647472353856 -0.039424543636053522 0 -0.045375879687622453 -0.038612162382526224 0 -0.045706053944108954 -0.038831750547236019 0 -0.045355610510076638 -0.038879513113700713 0 -0.045916411858617771 -0.038675313844874985 0 -0.045831989919151717 -0.038971923107069761 0 -0.045355610510076638 -0.038879513113700713 0 -0.045916411858617771 -0.038675313844874985 0 -0.045831989919151717 -0.038971923107069761 0 -0.046177967905310681 -0.039260391845553404 0 -0.048233472332980254 -0.041408156200931578 0 -0.044933692307240827 -0.039109616939355066 0 -0.045355610510076638 -0.038879513113700713 0 -0.045139338692782617 -0.038822723109597772 0 -0.045230647472353856 -0.039424543636053522 0 -0.039679874959954647 -0.041721315692504667 0 -0.041802386860257654 -0.037680773595100817 0 -0.045375879687622453 -0.038612162382526224 0 -0.045355610510076638 -0.038879513113700713 0 -0.045139338692782617 -0.038822723109597772 0 -0.038008882321987347 -0.039774980089326728 0 -0.037814358830533579 -0.038906257504612816 0 -0.038534701556436582 -0.039031530833941556 0 -0.037976164545396832 -0.038771961362638961 0 -0.037814358830533579 -0.038906257504612816 0 -0.038534701556436582 -0.039031530833941556 0 -0.034631995203171916 -0.031978064648133235 0 -0.03774226878191754 -0.035270998870113354 0 -0.033492073906020665 -0.030330459794695494 0 -0.034631995203171916 -0.031978064648133235 0 -0.037202025472686383 -0.031823993301199574 0 -0.036916517994036564 -0.031143097251009062 0 -0.03849096385050102 -0.031827878658219837 0 -0.034631995203171916 -0.031978064648133235 0 -0.035585403881992661 -0.031951031082727087 0 -0.036033588530609235 -0.031839377831904679 0 -0.037202025472686383 -0.031823993301199574 0 -0.036916517994036564 -0.031143097251009062 0 -0.03774226878191754 -0.035270998870113354 0 -0.041802386860257654 -0.037680773595100817 0 -0.045210854677431155 -0.039379293713659592 0 -0.045248394947076699 -0.039575193067154929 0 -0.045690156495567902 -0.039412694302395641 0 -0.040904063553054058 -0.035684970420871501 0 -0.040840223738534347 -0.035742492613932919 0 -0.040819028949223839 -0.035643418644483581 0 -0.041802386860257654 -0.037680773595100817 0 -0.040916854765953983 -0.035002178378732408 0 -0.03774226878191754 -0.035270998870113354 0 -0.040916854765953983 -0.035002178378732408 0 -0.045690156495567902 -0.039412694302395641 0 -0.045987742373380512 -0.039900718537017883 0 -0.046177967905310681 -0.039260391845553404 0 -0.045248394947076699 -0.039575193067154929 0 -0.045690156495567902 -0.039412694302395641 0 -0.045987742373380512 -0.039900718537017883 0 -0.045831989919151717 -0.038971923107069761 0 -0.045210854677431155 -0.039379293713659592 0 -0.045690156495567902 -0.039412694302395641 0 -0.04655214047683591 -0.038973283297972353 0 -0.041802386860257654 -0.037680773595100817 0 -0.045831989919151717 -0.038971923107069761 0 -0.045690156495567902 -0.039412694302395641 0 -0.046177967905310681 -0.039260391845553404 0 -0.043174861502602774 -0.030537734709467145 0 -0.037829503058230657 -0.028270988236417171 0 -0.04221538544974248 -0.027193847418523744 0 -0.040648170020077375 -0.026437397863468069 0 -0.041113402595660889 -0.02836256513731918 0 -0.039906849564596392 -0.030925959132045936 0 -0.044019476618776213 -0.032698325971390031 0 -0.040122086431135386 -0.031871189257461074 0 -0.044019476618776213 -0.032698325971390031 0 -0.043715153042357568 -0.033612480129183574 0 -0.040122086431135386 -0.031871189257461074 0 -0.040916854765953983 -0.035002178378732408 0 -0.045133386423063485 -0.036472116377139596 0 -0.030858720010745303 -0.023804832151714389 0 -0.030794724901354244 -0.02381689354278619 0 -0.030903668432234174 -0.023892932253898057 0 -0.037829503058230657 -0.028270988236417171 0 -0.035241979766328889 -0.025226130537394996 0 -0.037202025472686383 -0.031823993301199574 0 -0.03849096385050102 -0.031827878658219837 0 -0.038798866028482634 -0.03318587997662039 0 -0.040916854765953983 -0.035002178378732408 0 -0.037829503058230657 -0.028270988236417171 0 -0.034631995203171916 -0.031978064648133235 0 -0.037829503058230657 -0.028270988236417171 0 -0.030795939880618014 -0.023781806324999721 0 -0.030858720010745303 -0.023804832151714389 0 -0.030794724901354244 -0.02381689354278619 0 -0.036033940500394192 -0.031838928251438921 0 -0.037202025472686383 -0.031823993301199574 0 -0.038798866028482634 -0.03318587997662039 0 -0.030781951152611391 -0.023784761136561351 0 -0.030795939880618014 -0.023781806324999721 0 -0.030794724901354244 -0.02381689354278619 0 -0.046641664617924482 -0.039084253365208994 0 -0.046607876463713359 -0.039641221315321912 0 -0.047405932329065467 -0.039550242734101113 0 -0.049679438485628384 -0.041649710477616043 0 -0.049783652950821988 -0.041679711443970896 0 -0.049780372349887171 -0.041620791841882485 0 -0.047629438093035395 -0.040191106694386657 0 