<?xml version="1.0"?>
<VTKFile type="UnstructuredGrid" version="0.1" byte_order="LittleEndian">
<UnstructuredGrid>
<Piece NumberOfPoints="29426" NumberOfCells="10360">
<Points>
<DataArray type="Float64" NumberOfComponents="3" format="ascii">
-0.5 -0.5 0 -0.48844779397140192 -0.47366123027711948 0 -0.50000000000000155 -0.46247496764540152 0 -0.5 -0.5 0 -0.47382683668517039 -0.47564534988414781 0 -0.45607271870562072 -0.49999999999999839 0 -0.5 -0.5 0 -0.48844779397140192 -0.47366123027711948 0 -0.47382683668517039 -0.47564534988414781 0 -0.48844779397140192 -0.47366123027711948 0 -0.47382683668517039 -0.47564534988414781 0 -0.48013650800985669 -0.45934970404010128 0 -0.47382683668517039 -0.47564534988414781 0 -0.45607271870562072 -0.49999999999999839 0 -0.45809880136126802 -0.47915999827553651 0 -0.45607271870562072 -0.49999999999999839 0 -0.45809880136126802 -0.47915999827553651 0 -0.4509613007386935 -0.48640473505746801 0 -0.47382683668517039 -0.47564534988414781 0 -0.45809880136126802 -0.47915999827553651 0 -0.46446330631975058 -0.46857003922130508 0 -0.4567195393145953 -0.47108996935110109 0 -0.45809880136126802 -0.47915999827553651 0 -0.44906287663230798 -0.47260029275850218 0 -0.4567195393145953 -0.47108996935110109 0 -0.45809880136126802 -0.47915999827553651 0 -0.46446330631975058 -0.46857003922130508 0 -0.4567195393145953 -0.47108996935110109 0 -0.44906287663230798 -0.47260029275850218 0 -0.45524118388891049 -0.46329942228200133 0 -0.45809880136126802 -0.47915999827553651 0 -0.450064024555207 -0.47988016699097741 0 -0.4509613007386935 -0.48640473505746801 0 -0.450064024555207 -0.47988016699097741 0 -0.44906287663230798 -0.47260029275850218 0 -0.44213311948855871 -0.48135564187240282 0 -0.45809880136126802 -0.47915999827553651 0 -0.450064024555207 -0.47988016699097741 0 -0.44906287663230798 -0.47260029275850218 0 -0.450064024555207 -0.47988016699097741 0 -0.44213311948855871 -0.48135564187240282 0 -0.4509613007386935 -0.48640473505746801 0 -0.44906287663230798 -0.47260029275850218 0 -0.43965395527957929 -0.48146152865944941 0 -0.44474168558519678 -0.46405619312909752 0 -0.44906287663230798 -0.47260029275850218 0 -0.44213311948855871 -0.48135564187240282 0 -0.43965395527957929 -0.48146152865944941 0 -0.44213311948855871 -0.48135564187240282 0 -0.43965395527957929 -0.48146152865944941 0 -0.44080119470646628 -0.48595487775725948 0 -0.43965395527957929 -0.48146152865944941 0 -0.44080119470646628 -0.48595487775725948 0 -0.43608140202719481 -0.48161411483509031 0 -0.44080119470646628 -0.48595487775725948 0 -0.43608140202719481 -0.48161411483509031 0 -0.43965395527957929 -0.48146152865944941 0 -0.44080119470646628 -0.48595487775725948 0 -0.43965395527957929 -0.48146152865944941 0 -0.43608140202719481 -0.48161411483509031 0 -0.44213311948855871 -0.48135564187240282 0 -0.43965395527957929 -0.48146152865944941 0 -0.45607271870562072 -0.49999999999999839 0 -0.44159960279081473 -0.48908197238229439 0 -0.4274681276564915 -0.5 0 -0.44080119470646628 -0.48595487775725948 0 -0.44159960279081473 -0.48908197238229439 0 -0.43608140202719481 -0.48161411483509031 0 -0.44213311948855871 -0.48135564187240282 0 -0.44080119470646628 -0.48595487775725948 0 -0.4509613007386935 -0.48640473505746801 0 -0.44080119470646628 -0.48595487775725948 0 -0.44159960279081473 -0.48908197238229439 0 -0.45607271870562072 -0.49999999999999839 0 -0.44080119470646628 -0.48595487775725948 0 -0.45607271870562072 -0.49999999999999839 0 -0.44080119470646628 -0.48595487775725948 0 -0.44159960279081473 -0.48908197238229439 0 -0.45607271870562072 -0.49999999999999839 0 -0.44080119470646628 -0.48595487775725948 0 -0.4509613007386935 -0.48640473505746801 0 -0.44983985647950581 -0.45160308804861499 0 -0.45966461093131178 -0.44273722091553369 0 -0.44448147895640161 -0.43499756902142322 0 -0.44983985647950581 -0.45160308804861499 0 -0.44448147895640161 -0.43499756902142322 0 -0.43300807702817251 -0.45543186968409682 0 -0.43965395527957929 -0.48146152865944941 0 -0.44474168558519678 -0.46405619312909752 0 -0.43300807702817251 -0.45543186968409682 0 -0.44983985647950581 -0.45160308804861499 0 -0.44474168558519678 -0.46405619312909752 0 -0.43300807702817251 -0.45543186968409682 0 -0.44906287663230798 -0.47260029275850218 0 -0.44474168558519678 -0.46405619312909752 0 -0.45524118388891049 -0.46329942228200133 0 -0.44983985647950581 -0.45160308804861499 0 -0.44474168558519678 -0.46405619312909752 0 -0.45524118388891049 -0.46329942228200133 0 -0.44983985647950581 -0.45160308804861499 0 -0.45524118388891049 -0.46329942228200133 0 -0.46382197426144212 -0.45499431324530482 0 -0.4567195393145953 -0.47108996935110109 0 -0.45524118388891049 -0.46329942228200133 0 -0.46446330631975058 -0.46857003922130508 0 -0.45524118388891049 -0.46329942228200133 0 -0.46446330631975058 -0.46857003922130508 0 -0.46382197426144212 -0.45499431324530482 0 -0.46382197426144212 -0.45499431324530482 0 -0.45966461093131178 -0.44273722091553369 0 -0.46983948991283231 -0.44156782445419968 0 -0.44983985647950581 -0.45160308804861499 0 -0.46382197426144212 -0.45499431324530482 0 -0.45966461093131178 -0.44273722091553369 0 -0.45966461093131178 -0.44273722091553369 0 -0.46983948991283231 -0.44156782445419968 0 -0.45985716457620551 -0.43105742298173683 0 -0.46983948991283231 -0.44156782445419968 0 -0.48013650800985669 -0.45934970404010128 0 -0.48644617933454881 -0.44305405819605709 0 -0.48013650800985669 -0.45934970404010128 0 -0.48644617933454881 -0.44305405819605709 0 -0.46382197426144212 -0.45499431324530482 0 -0.46983948991283231 -0.44156782445419968 0 -0.48013650800985669 -0.45934970404010128 0 -0.46446330631975058 -0.46857003922130508 0 -0.46382197426144212 -0.45499431324530482 0 -0.48013650800985669 -0.45934970404010128 0 -0.47382683668517039 -0.47564534988414781 0 -0.46446330631975058 -0.46857003922130508 0 -0.48013650800985669 -0.45934970404010128 0 -0.47382683668517039 -0.47564534988414781 0 -0.48013650800985669 -0.45934970404010128 0 -0.48844779397140192 -0.47366123027711948 0 -0.48013650800985669 -0.45934970404010128 0 -0.50000000000000155 -0.46247496764540152 0 -0.48013650800985669 -0.45934970404010128 0 -0.50000000000000155 -0.46247496764540152 0 -0.48644617933454881 -0.44305405819605709 0 -0.50000000000000155 -0.46247496764540152 0 -0.48644617933454881 -0.44305405819605709 0 -0.5 -0.43526215423733111 0 -0.50000000000000155 -0.46247496764540152 0 -0.48644617933454881 -0.44305405819605709 0 -0.48644617933454881 -0.44305405819605709 0 -0.5 -0.43526215423733111 0 -0.49322308966727169 -0.4255516995126577 0 -0.5 -0.43526215423733111 0 -0.49322308966727169 -0.4255516995126577 0 -0.50000000000000022 -0.40804934082926048 0 -0.48644617933454881 -0.44305405819605709 0 -0.48656776968788462 -0.43141975740227151 0 -0.49322308966727169 -0.4255516995126577 0 -0.48644617933454881 -0.44305405819605709 0 -0.49322308966727169 -0.4255516995126577 0 -0.48656776968788462 -0.43141975740227151 0 -0.49322308966727169 -0.4255516995126577 0 -0.48251009263801248 -0.41804762166735843 0 -0.49322308966727169 -0.4255516995126577 0 -0.50000000000000022 -0.40804934082926048 0 -0.49322308966727169 -0.4255516995126577 0 -0.48786992139865959 -0.40883626199836048 0 -0.48251009263801248 -0.41804762166735843 0 -0.49322308966727169 -0.4255516995126577 0 -0.50000000000000022 -0.40804934082926048 0 -0.48786992139865959 -0.40883626199836048 0 -0.46911050236362589 -0.41821422734646718 0 -0.47757641969057918 -0.40532423639974557 0 -0.46040120992690009 -0.40573491365651138 0 -0.48786992139865959 -0.40883626199836048 0 -0.48251009263801248 -0.41804762166735843 0 -0.47757641969057918 -0.40532423639974557 0 -0.48251009263801248 -0.41804762166735843 0 -0.46911050236362589 -0.41821422734646718 0 -0.47757641969057918 -0.40532423639974557 0 -0.48656776968788462 -0.43141975740227151 0 -0.48251009263801248 -0.41804762166735843 0 -0.46911050236362589 -0.41821422734646718 0 -0.48644617933454881 -0.44305405819605709 0 -0.48656776968788462 -0.43141975740227151 0 -0.46911050236362589 -0.41821422734646718 0 -0.48644617933454881 -0.44305405819605709 0 -0.46911050236362589 -0.41821422734646718 0 -0.46983948991283231 -0.44156782445419968 0 -0.48644617933454881 -0.44305405819605709 0 -0.46911050236362589 -0.41821422734646718 0 -0.48656776968788462 -0.43141975740227151 0 -0.46911050236362589 -0.41821422734646718 0 -0.5 -0.3847533113815268 0 -0.48922066936689818 -0.39738781464685369 0 -0.47521167947678228 -0.38471106762438162 0 -0.5 -0.3847533113815268 0 -0.47521167947678228 -0.38471106762438162 0 -0.49002214902665348 -0.36368722159224398 0 -0.50000000000000022 -0.40804934082926048 0 -0.5 -0.3847533113815268 0 -0.48922066936689818 -0.39738781464685369 0 -0.50000000000000022 -0.40804934082926048 0 -0.48786992139865959 -0.40883626199836048 0 -0.48922066936689818 -0.39738781464685369 0 -0.48786992139865959 -0.40883626199836048 0 -0.48922066936689818 -0.39738781464685369 0 -0.47757641969057918 -0.40532423639974557 0 -0.48922066936689818 -0.39738781464685369 0 -0.47757641969057918 -0.40532423639974557 0 -0.47521167947678228 -0.38471106762438162 0 -0.47757641969057918 -0.40532423639974557 0 -0.47521167947678228 -0.38471106762438162 0 -0.46040120992690009 -0.40573491365651138 0 -0.46048868583517699 -0.38346273104891382 0 -0.43910629694810849 -0.37522199874484979 0 -0.46462758010571459 -0.3693626276989439 0 -0.47521167947678228 -0.38471106762438162 0 -0.46048868583517699 -0.38346273104891382 0 -0.46462758010571459 -0.3693626276989439 0 -0.47521167947678228 -0.38471106762438162 0 -0.46048868583517699 -0.38346273104891382 0 -0.46040120992690009 -0.40573491365651138 0 -0.47521167947678228 -0.38471106762438162 0 -0.46040120992690009 -0.40573491365651138 0 -0.46048868583517699 -0.38346273104891382 0 -0.46040120992690009 -0.40573491365651138 0 -0.4497537534375024 -0.39047845620068189 0 -0.46040120992690009 -0.40573491365651138 0 -0.44380468417398461 -0.39907166989558501 0 -0.45769383517366491 -0.40957810240699011 0 -0.46040120992690009 -0.40573491365651138 0 -0.4497537
[...]
<PointData Scalars="" Vectors="displacement," Tensors="">
<DataArray type="Float64" Name="displacement" NumberOfComponents="3" format="ascii">
-0.049996378589336574 -1.0907922980108992e-06 0 -0.049479741050383663 -6.1870406220270436e-05 0 -0.049999138606174519 1.0851903183980745e-07 0 -0.049996378589336574 -1.0907922980108992e-06 0 -0.048674936954040911 -3.2249760521568901e-05 0 -0.045615060508403332 2.0215705761047355e-06 0 -0.049996378589336574 -1.0907922980108992e-06 0 -0.049479741050383663 -6.1870406220270436e-05 0 -0.048674936954040911 -3.2249760521568901e-05 0 -0.049479741050383663 -6.1870406220270436e-05 0 -0.048674936954040911 -3.2249760521568901e-05 0 -0.049753315747178582 4.5052257272795341e-05 0 -0.048674936954040911 -3.2249760521568901e-05 0 -0.045615060508403332 2.0215705761047355e-06 0 -0.047907548541829 0.00037933517490126146 0 -0.045615060508403332 2.0215705761047355e-06 0 -0.047907548541829 0.00037933517490126146 0 -0.047152285266469564 0.00065720624937148063 0 -0.048674936954040911 -3.2249760521568901e-05 0 -0.047907548541829 0.00037933517490126146 0 -0.048489892109734332 0.00020632380676389539 0 -0.048261833963875476 0.0004710972390605369 0 -0.047907548541829 0.00037933517490126146 0 -0.048126361656833178 0.00078655844315229971 0 -0.048261833963875476 0.0004710972390605369 0 -0.047907548541829 0.00037933517490126146 0 -0.048489892109734332 0.00020632380676389539 0 -0.048261833963875476 0.0004710972390605369 0 -0.048126361656833178 0.00078655844315229971 0 -0.048486046572900475 0.00051803363329569691 0 -0.047907548541829 0.00037933517490126146 0 -0.047747655361649648 0.00075749182819926915 0 -0.047152285266469564 0.00065720624937148063 0 -0.047747655361649648 0.00075749182819926915 0 -0.048126361656833178 0.00078655844315229971 0 -0.04770518952531401 0.0012626466134303958 0 -0.047907548541829 0.00037933517490126146 0 -0.047747655361649648 0.00075749182819926915 0 -0.048126361656833178 0.00078655844315229971 0 -0.047747655361649648 0.00075749182819926915 0 -0.04770518952531401 0.0012626466134303958 0 -0.047152285266469564 0.00065720624937148063 0 -0.048126361656833178 0.00078655844315229971 0 -0.047716632098636018 0.0013428384045529066 0 -0.048406640987674859 0.00084733190196826591 0 -0.048126361656833178 0.00078655844315229971 0 -0.04770518952531401 0.0012626466134303958 0 -0.047716632098636018 0.0013428384045529066 0 -0.04770518952531401 0.0012626466134303958 0 -0.047694615064862181 0.0015363894977895537 0 -0.04725563223831511 0.0015079704898237013 0 -0.042711136439147722 0.0011757152782199104 0 -0.043321633694564696 0.0013323818470744235 0 -0.042729839724707994 0.00069031653732409587 0 -0.044019065283053396 0.00097624979115951496 0 -0.04154203356556966 0.00026850139479931746 0 -0.043993596491974207 0.0009325740980106645 0 -0.044019065283053396 0.00097624979115951496 0 -0.043993596491974207 0.0009325740980106645 0 -0.04154203356556966 0.00026850139479931746 0 -0.044211698095187331 0.00098919519908382343 0 -0.043993596491974207 0.0009325740980106645 0 -0.045604722271992491 1.3639291577134099e-06 0 -0.043269272471075461 8.565543975816946e-05 0 -0.042746410062170052 -6.7531641112474725e-07 0 -0.043030875805837081 0.00013633986958361209 0 -0.043269272471075461 8.565543975816946e-05 0 -0.042648700064917021 7.8453031893898996e-05 0 -0.04770518952531401 0.0012626466134303958 0 -0.04725563223831511 0.0015079704898237013 0 -0.047152285266469564 0.00065720624937148063 0 -0.044019065283053396 0.00097624979115951496 0 -0.043714465435207482 0.00083567928351807434 0 -0.045607156078298391 3.1694285331762767e-07 0 -0.044019065283053396 0.00097624979115951496 0 -0.045604722271992491 1.3639291577134099e-06 0 -0.042826801764005905 0.0001874131109688882 0 -0.043269272471075461 8.565543975816946e-05 0 -0.045615060508403332 2.0215705761047355e-06 0 -0.04725563223831511 0.0015079704898237013 0 -0.047152285266469564 0.00065720624937148063 0 -0.048678452485129531 0.00066638610963296919 0 -0.048789027297874127 0.00048351850962787939 0 -0.04887328181117475 0.00073104217678523738 0 -0.048678452485129531 0.00066638610963296919 0 -0.04887328181117475 0.00073104217678523738 0 -0.048638518159169787 0.0010072689638089718 0 -0.047716632098636018 0.0013428384045529066 0 -0.048406640987674859 0.00084733190196826591 0 -0.048638518159169787 0.0010072689638089718 0 -0.048678452485129531 0.00066638610963296919 0 -0.048406640987674859 0.00084733190196826591 0 -0.048638518159169787 0.0010072689638089718 0 -0.048126361656833178 0.00078655844315229971 0 -0.048406640987674859 0.00084733190196826591 0 -0.048486046572900475 0.00051803363329569691 0 -0.048678452485129531 0.00066638610963296919 0 -0.048406640987674859 0.00084733190196826591 0 -0.048486046572900475 0.00051803363329569691 0 -0.048678452485129531 0.00066638610963296919 0 -0.048486046572900475 0.00051803363329569691 0 -0.048633950580908775 0.00034768474431103041 0 -0.048261833963875476 0.0004710972390605369 0 -0.048486046572900475 0.00051803363329569691 0 -0.048489892109734332 0.00020632380676389539 0 -0.048486046572900475 0.00051803363329569691 0 -0.048489892109734332 0.00020632380676389539 0 -0.048633950580908775 0.00034768474431103041 0 -0.048633950580908775 0.00034768474431103041 0 -0.048789027297874127 0.00048351850962787939 0 -0.048794777138681703 0.00032618907894669554 0 -0.048678452485129531 0.00066638610963296919 0 -0.048633950580908775 0.00034768474431103041 0 -0.048789027297874127 0.00048351850962787939 0 -0.048789027297874127 0.00048351850962787939 0 -0.048794777138681703 0.00032618907894669554 0 -0.048907329244125636 0.00050900452525094362 0 -0.048794777138681703 0.00032618907894669554 0 -0.048594722921498149 0.00013714630788943676 0 -0.048785646294865315 0.00010465752987685806 0 -0.049095261226849263 7.3042205392909667e-05 0 -0.049577413609748718 1.8600188679055918e-05 0 -0.048633950580908775 0.00034768474431103041 0 -0.048794777138681703 0.00032618907894669554 0 -0.048594722921498149 0.00013714630788943676 0 -0.048489892109734332 0.00020632380676389539 0 -0.048633950580908775 0.00034768474431103041 0 -0.048594722921498149 0.00013714630788943676 0 -0.048674936954040911 -3.2249760521568901e-05 0 -0.048489892109734332 0.00020632380676389539 0 -0.048594722921498149 0.00013714630788943676 0 -0.048803669711639686 2.2479705389651322e-05 0 -0.049095261226849263 7.3042205392909667e-05 0 -0.049479741050383663 -6.1870406220270436e-05 0 -0.049753315747178582 4.5052257272795341e-05 0 -0.049999138606174519 1.0851903183980745e-07 0 -0.049753315747178582 4.5052257272795341e-05 0 -0.049999138606174519 1.0851903183980745e-07 0 -0.049797870122660008 3.5828970279883603e-05 0 -0.049999998129198239 2.8065074933817242e-10 0 -0.049998333148606321 -4.899356537950611e-08 0 -0.049999997078344433 -5.9239614369557447e-10 0 -0.050000271201142046 1.4506371868180116e-07 0 -0.049577413609748718 1.8600188679055918e-05 0 -0.049998333148606321 -4.899356537950611e-08 0 -0.049999997078344433 -5.9239614369557447e-10 0 -0.04999989677649775 -4.655523068229111e-08 0 -0.049999997078344433 -5.9239614369557447e-10 0 -0.04999989677649775 -4.655523068229111e-08 0 -0.050000001382748016 2.4190397081768516e-10 0 -0.049923251076622856 1.2318800195166152e-05 0 -0.049945756567383308 1.2299851704826185e-05 0 -0.049958425119089066 6.1752408412352105e-07 0 -0.049577413609748718 1.8600188679055918e-05 0 -0.050040081391319803 -1.8795396159737907e-05 0 -0.049945756567383308 1.2299851704826185e-05 0 -0.049958425119089066 6.1752408412352105e-07 0 -0.049970055767031882 1.6380859481648459e-05 0 -0.050040081391319803 -1.8795396159737907e-05 0 -0.04999993186995165 2.1798763728251409e-08 0 -0.049958425119089066 6.1752408412352105e-07 0 -0.049987395682109373 1.0037660429067964e-05 0 -0.049970055767031882 1.6380859481648459e-05 0 -0.049958425119089066 6.1752408412352105e-07 0 -0.049999936749477461 -1.4585362240044501e-08 0 -0.049987395682109373 1.0037660429067964e-05 0 -0.049968145268383432 3.1764878611583807e-05 0 -0.049984276653288334 1.9727932537625969e-05 0 -0.049977358171668367 3.7334399439767563e-05 0 -0.049987395682109373 1.0037660429067964e-05 0 -0.049970055767031882 1.6380859481648459e-05 0 -0.049984276653288334 1.9727932537625969e-05 0 -0.049970055767031882 1.6380859481648459e-05 0 -0.049968145268383432 3.1764878611583807e-05 0 -0.049984276653288334 1.9727932537625969e-05 0 -0.049945756567383308 1.2299851704826185e-05 0 -0.049970055767031882 1.6380859481648459e-05 0 -0.049968145268383432 3.1764878611583807e-05 0 -0.049923251076622856 1.2318800195166152e-05 0 -0.049945756567383308 1.2299851704826185e-05 0 -0.049964078275915078 4.625359799950524e-05 0 -0.049577413609748718 1.8600188679055918e-05 0 -0.049545411453188172 0.00022381095781151927 0 -0.048794777138681703 0.00032618907894669554 0 -0.048785646294865315 0.00010465752987685806 0 -0.049064547321168772 0.00037873637247323537 0 -0.050022541042662301 8.2690948574203482e-06 0 -0.049545411453188172 0.00022381095781151927 0 -0.050000008154436885 1.1722199601783454e-08 0 -0.049994676490188197 7.1121035994182379e-06 0 -0.049995562608574691 1.6332137238175809e-05 0 -0.050000008154436885 1.1722199601783454e-08 0 -0.049995562608574691 1.6332137238175809e-05 0 -0.049999398213320709 3.9667945478007973e-06 0 -0.049999936749477461 -1.4585362240044501e-08 0 -0.050000008154436885 1.1722199601783454e-08 0 -0.049994676490188197 7.1121035994182379e-06 0 -0.049999936749477461 -1.4585362240044501e-08 0 -0.049987395682109373 1.0037660429067964e-05 0 -0.049994676490188197 7.1121035994182379e-06 0 -0.049987395682109373 1.0037660429067964e-05 0 -0.049994676490188197 7.1121035994182379e-06 0 -0.049984276653288334 1.9727932537625969e-05 0 -0.049994676490188197 7.1121035994182379e-06 0 -0.049984276653288334 1.9727932537625969e-05 0 -0.049995562608574691 1.6332137238175809e-05 0 -0.049984276653288334 1.9727932537625969e-05 0 -0.049995562608574691 1.6332137238175809e-05 0 -0.049977358171668367 3.7334399439767563e-05 0 -0.04830196182549084 -5.3546977548107171e-05 0 -0.048293560764292219 -2.9806636016964978e-05 0 -0.048324155149573111 -5.9093243918689993e-05 0 -0.048304318175499128 -7.5572326908618069e-05 0 -0.04830196182549084 -5.3546977548107171e-05 0 -0.048324155149573111 -5.9093243918689993e-05 0 -0.048304318175499128 -7.5572326908618069e-05 0 -0.04830196182549084 -5.3546977548107171e-05 0 -0.048283230515611633 -5.0605342671930959e-05 0 -0.049210098496544757 -7.555667608449101e-05 0 -0.048986173381047569 0.00027843108219195549 0 -0.04830196182549084 -5.3546977548107171e-05 0 -0.048283230515611633 -5.0605342671930959e-05 0 -0.048291851200216902 -4.1878521199098536e-05 0 -0.048160956174455059 0.0015199617049308943 0 -0.047691792068823888 0.00038527671971410124 0 -0.048426036748998293 0.0013335089723770966 0 -0.048986173381047569 0.00027843108219195549 0 -0.047763026067806413 0.00042945219867983504 0 -0.048160956174455059 0.0015199617049308943 0 -0.047691792068823888 0.00038527671971410124 0 -0.047098667547322712 0.00079445925517809617 0 -0.047691792068823888 0.00038527671971410124 0 -0.047098667547322712 0.00079445925517809617 0 -0.046953662438602148 -0.00056822693524007095 0 -0.048534264357666536 0.00082975770558156733 0 -0.048902965107950627 0.00064518314896425642 0 -0.04830196182549084 -5.3546977548107171e-05 0 -0.048291851200216902 -4.1878521199098536e-05 0 -0.048293560764292219 -2.9806636016964978e-05 0 -0.047098667547322712 0.00079445925517809617 0 -0.046038503754732792 6.2893701451823637e-05 0 -0.046953662438602148 -0.00056822693524007095 0 -0.047763026067806413 0.00042945219867983504 0 -0.046117891003438112 2.413388743209149e-05 0 -0.049064547321168772 0.00037873637247323537 0 -0.048907329244125636 0.00050900452525094362 0 -0.048991961114225269 0.00067396584574948445 0 -0.048794777138681703 0.00032618907894669554 0 -0.049064547321168772 0.00037873637247323537 0 -0.048907329244125636 0.00050900452525094362 0 -0.048789027297874127 0.00048351850962787939 0 -0.048907329244125636 0.00050900452525094362 0 -0.04887328181117475 0.00073104217678523738 0 -0.049064547321168772 0.00037873637247323537 0 -0.049174628783921363 0.00056134082689430153 0 -0.048991961114225269 0.00067396584574948445 0 -0.049545411453188172 0.00022381095781151927 0 -0.048986173381047569 0.00027843108219195549 0 -0.049545411453188172 0.00022381095781151927 0 -0.048902965107950627 0.00064518314896425642 0 -0.049323033703514867 0.00043736702871525915 0 -0.04907100717611828 0.00026507868101700844 0 -0.049147860443902763 0.00021116692097155614 0 -0.048986173381047569 0.00027843108219195549 0 -0.048902965107950627 0.00064518314896425642 0 -0.048902965107950627 0.00064518314896425642 0 -0.049021717637998841 0.00063519757294926149 0 -0.048974618604008383 0.00070896386776746168 0 -0.048991961114225269 0.00067396584574948445 0 -0.0489721411852529 0.0007151042428409129 0 -0.048962644160420801 0.00073669471149743668 0 -0.048974618604008383 0.00070896386776746168 0 -0.0489721411852529 0.0007151042428409129 0 -0.048962644160420801 0.00073669471149743668 0 -0.0489721411852529 0.0007151042428409129 0 -0.048954870787355331 0.00076653372508403645 0 -0.048991961114225269 0.00067396584574948445 0 -0.0489721411852529 0.0007151042428409129 0 -0.048954870787355331 0.00076653372508403645 0 -0.048991961114225269 0.00067396584574948445 0 -0.04887328181117475 0.00073104217678523738 0 -0.048954870787355331 0.00076653372508403645 0 -0.048907329244125636 0.00050900452525094362 0 -0.048991961114225269 0.00067396584574948445 0 -0.04887328181117475 0.00073104217678523738 0 -0.04887328181117475 0.00073104217678523738 0 -0.048889004342518722 0.00084878625237711739 0 -0.048954870787355331 0.00076653372508403645 0 -0.046420449569663319 0.00074677852671153986 0 -0.043418611074348232 0.00051007505965530644 0 -0.048889004342518722 0.00084878625237711739 0 -0.048954870787355331 0.00076653372508403645 0 -0.048930820163624406 0.00078022549366683761 0 -0.038925818700924673 0.00073321727518359963 0 -0.039707256605035449 0.00019567557933731675 0 -0.039403720742101821 0.00091953158278393777 0 -0.042918992146294792 0.00048829954582655982 0 -0.042959199672852881 0.00066519662641258549 0 -0.043149510298696347 0.00054458081749088057 0 -0.04079279921793854 0.00077070688362973429 0 -0.043418611074348232 0.00051007505965530644 0 -0.042918992146294792 0.00048829954582655982 0 -0.042959199672852881 0.00066519662641258549 0 -0.042787702696154617 0.00059710148135477478 0 -0.042772327694946585 0.00064609210869103839 0 -0.042849583480682504 0.00015560760347983548 0 -0.04271170217240685 0.00056488662517856865 0 -0.046117891003438112 2.413388743209149e-05 0 -0.041551486316540653 0.00030643858369901249 0 -0.044292802194767368 -0.000193913455380864 0 -0.043913566313493704 6.1193770605624188e-05 0 -0.044146770532532471 0.00038487764313041101 0 -0.046117891003438112 2.413388743209149e-05 0 -0.044814544655091264 0.00012441493063916026 0 -0.044814544655091264 0.00012441493063916026 0 -0.041551486316540653 0.00030643858369901249 0 -0.048962644160420801 0.00073669471149743668 0 -0.048954870787355331 0.00076653372508403645 0 -0.048930820163624406 0.00078022549366683761 0 -0.048962644160420801 0.00073669471149743668 0 -0.04893092291703216 0.00075610843798286332 0 -0.048930820163624406 0.00078022549366683761 0 -0.044814544655091264 0.00012441493063916026 0 -0.043418611074348232 0.00051007505965530644 0 -0.048534264357666536 0.00082975770558156733 0 -0.044814544655091264 0.00012441493063916026 0 -0.039793699775198685 0.00056544727874017207 0 -0.040449944348338734 0.0003623276656761975 0 -0.040573149946203445 0.0011461281380324643 0 -0.040457514738129877 -3.03627747770698e-05 0 -0.040100939797803263 0.00024970814730129824 0 -0.040449944348338734 0.0003623276656761975 0 -0.039707256605035449 0.00019567557933731675 0 -0.039793699775198685 0.00056544727874017207 0 -0.040449944348338734 0.0003623276656761975 0 -0.039707256605035449 0.00019567557933731675 0 -0.039793699775198685 0.00056544727874017207 0 -0.039403720742101821 0.00091953158278393777 0 -0.043418611074348232 0.00051007505965530644 0 -0.039329236009983934 5.2640592278262463e-05 0 -0.040449944348338734 0.0003623276656761975 0 -0.040737898589366238 0.00027100308465409739 0 -0.040573149946203445 0.0011461281380324643 0 -0.041551486316540653 0.00030643858369901249 0 -0.038106314372083151 0.0014844895174197345 0 -0.040457514738129877 -3.03627747770698e-05 0 -0.040449944348338734 0.0003623276656761975 0 -0.040737898589366238 0.00027100308465409739 0 -0.038671642687596507 0.00070590596245545501 0 -0.038550539124217187 0.0011460893774931989 0 -0.038933991053033801 0.0010822276351953794 0 -0.038633200739511216 0.0012146062371670356 0 -0.038550539124217187 0.0011460893774931989 0 -0.038933991053033801 0.0010822276351953794 0 -0.031993155660796503 0.001843184342898231 0 -0.03544421107291932 0.0017393547878877106 0 -0.03069492139032572 0.0019663006903860056 0 -0.031993155660796503 0.001843184342898231 0 -0.033263818179545587 0.0017564958060387586 0 -0.033242752163757404 0.0018100559956466427 0 -0.033372488564995383 0.0017574577010249664 0 -0.031993155660796503 0.001843184342898231 0 -0.032534325940873646 0.0018344440745315066 0 -0.033173382718263367 0.0017534529989850333 0 -0.033263818179545587 0.0017564958060387586 0 -0.033242752163757404 0.0018100559956466427 0 -0.03544421107291932 0.0017393547878877106 0 -0.038106314372083151 0.0014844895174197345 0 -0.040338179322559037 0.0010813503542906628 0 -0.040293566984034107 0.0012774855987462007 0 -0.039886412247443909 0.0010916668458739499 0 -0.036754393025584656 0.0014179675223929778 0 -0.036628255921603445 0.0013156569935629928 0 -0.036585898163955174 0.0014930015345668913 0 -0.038106314372083151 0.0014844895174197345 0 -0.035690688832764168 0.0014305886198066275 0 -0.03544421107291932 0.0017393547878877106 0 -0.035690688832764168 0.0014305886198066275 0 -0.039886412247443909 0.0010916668458739499 0 -0.039572875766565471 0.0016087812347449345 0 -0.039403720742101821 0.00091953158278393777 0 -0.040293566984034107 0.0012774855987462007 0 -0.039886412247443909 0.0010916668458739499 0 -0.039572875766565471 0.0016087812347449345 0 -0.039793699775198685 0.00056544727874017207 0 -0.040338179322559037 0.0010813503542906628 0 -0.039886412247443909 0.0010916668458739499 0 -0.040468015281540398 0.00081062279668551952 0 -0.038106314372083151 0.0014844895174197345 0 -0.039793699775198685 0.00056544727874017207 0 -0.039886412247443909 0.0010916668458739499 0 -0.039403720742101821 0.00091953158278393777 0 -0.032526781418575852 0.0019747874499050767 0 -0.031611406956903745 0.0028151800456764852 0 -0.030400445049406099 0.0022420049550312413 0 -0.030060873530669753 0.0024149246517705691 0 -0.030136436155582428 0.0019717799536801144 0 -0.034300680266335759 0.0018320189758616141 0 -0.03415865775130502 0.0018950525815225011 0 -0.034290489247526465 0.001866786137714307 0 -0.03415865775130502 0.0018950525815225011 0 -0.03416746578579706 0.001936462956976681 0 -0.034290489247526465 0.001866786137714307 0 -0.035690688832764168 0.0014305886198066275 0 -0.037414280952675426 0.0016407332940481605 0 -0.026773759484527315 0.0037003550507760364 0 -0.026362452827585352 0.003444217968224415 0 -0.027004198147250195 0.0025371938572673579 0 -0.031611406956903745 0.0028151800456764852 0 -0.028375386622581836 0.0022629156702076883 0 -0.033263818179545587 0.0017564958060387586 0 -0.033372488564995383 0.0017574577010249664 0 -0.033396428954750729 0.0016461130670531842 0 -0.035690688832764168 0.0014305886198066275 0 -0.031611406956903745 0.0028151800456764852 0 -0.031993155660796503 0.001843184342898231 0 -0.031611406956903745 0.0028151800456764852 0 -0.026283148659422995 0.0039472213541582989 0 -0.026773759484527315 0.0037003550507760364 0 -0.026362452827585352 0.003444217968224415 0 -0.033163794774167275 0.0017537732422282203 0 -0.033263818179545587 0.0017564958060387586 0 -0.033396428954750729 0.0016461130670531842 0 -0.026194476725083064 0.0038816822236584303 0 -0.026283148659422995 0.0039472213541582989 0 -0.026362452827585352 0.0034442179682