<?xml version="1.0"?>
<VTKFile type="UnstructuredGrid" version="0.1" byte_order="LittleEndian">
<UnstructuredGrid>
<Piece NumberOfPoints="29426" NumberOfCells="10360">
<Points>
<DataArray type="Float64" NumberOfComponents="3" format="ascii">
-0.5 -0.5 0 -0.48844779397140192 -0.47366123027711948 0 -0.50000000000000155 -0.46247496764540152 0 -0.5 -0.5 0 -0.47382683668517039 -0.47564534988414781 0 -0.45607271870562072 -0.49999999999999839 0 -0.5 -0.5 0 -0.48844779397140192 -0.47366123027711948 0 -0.47382683668517039 -0.47564534988414781 0 -0.48844779397140192 -0.47366123027711948 0 -0.47382683668517039 -0.47564534988414781 0 -0.48013650800985669 -0.45934970404010128 0 -0.47382683668517039 -0.47564534988414781 0 -0.45607271870562072 -0.49999999999999839 0 -0.45809880136126802 -0.47915999827553651 0 -0.45607271870562072 -0.49999999999999839 0 -0.45809880136126802 -0.47915999827553651 0 -0.4509613007386935 -0.48640473505746801 0 -0.47382683668517039 -0.47564534988414781 0 -0.45809880136126802 -0.47915999827553651 0 -0.46446330631975058 -0.46857003922130508 0 -0.4567195393145953 -0.47108996935110109 0 -0.45809880136126802 -0.47915999827553651 0 -0.44906287663230798 -0.47260029275850218 0 -0.4567195393145953 -0.47108996935110109 0 -0.45809880136126802 -0.47915999827553651 0 -0.46446330631975058 -0.46857003922130508 0 -0.4567195393145953 -0.47108996935110109 0 -0.44906287663230798 -0.47260029275850218 0 -0.45524118388891049 -0.46329942228200133 0 -0.45809880136126802 -0.47915999827553651 0 -0.450064024555207 -0.47988016699097741 0 -0.4509613007386935 -0.48640473505746801 0 -0.450064024555207 -0.47988016699097741 0 -0.44906287663230798 -0.47260029275850218 0 -0.44213311948855871 -0.48135564187240282 0 -0.45809880136126802 -0.47915999827553651 0 -0.450064024555207 -0.47988016699097741 0 -0.44906287663230798 -0.47260029275850218 0 -0.450064024555207 -0.47988016699097741 0 -0.44213311948855871 -0.48135564187240282 0 -0.4509613007386935 -0.48640473505746801 0 -0.44906287663230798 -0.47260029275850218 0 -0.43965395527957929 -0.48146152865944941 0 -0.44474168558519678 -0.46405619312909752 0 -0.44906287663230798 -0.47260029275850218 0 -0.44213311948855871 -0.48135564187240282 0 -0.43965395527957929 -0.48146152865944941 0 -0.44213311948855871 -0.48135564187240282 0 -0.43965395527957929 -0.48146152865944941 0 -0.44080119470646628 -0.48595487775725948 0 -0.43965395527957929 -0.48146152865944941 0 -0.44080119470646628 -0.48595487775725948 0 -0.43608140202719481 -0.48161411483509031 0 -0.44080119470646628 -0.48595487775725948 0 -0.43608140202719481 -0.48161411483509031 0 -0.43965395527957929 -0.48146152865944941 0 -0.44080119470646628 -0.48595487775725948 0 -0.43965395527957929 -0.48146152865944941 0 -0.43608140202719481 -0.48161411483509031 0 -0.44213311948855871 -0.48135564187240282 0 -0.43965395527957929 -0.48146152865944941 0 -0.45607271870562072 -0.49999999999999839 0 -0.44159960279081473 -0.48908197238229439 0 -0.4274681276564915 -0.5 0 -0.44080119470646628 -0.48595487775725948 0 -0.44159960279081473 -0.48908197238229439 0 -0.43608140202719481 -0.48161411483509031 0 -0.44213311948855871 -0.48135564187240282 0 -0.44080119470646628 -0.48595487775725948 0 -0.4509613007386935 -0.48640473505746801 0 -0.44080119470646628 -0.48595487775725948 0 -0.44159960279081473 -0.48908197238229439 0 -0.45607271870562072 -0.49999999999999839 0 -0.44080119470646628 -0.48595487775725948 0 -0.45607271870562072 -0.49999999999999839 0 -0.44080119470646628 -0.48595487775725948 0 -0.44159960279081473 -0.48908197238229439 0 -0.45607271870562072 -0.49999999999999839 0 -0.44080119470646628 -0.48595487775725948 0 -0.4509613007386935 -0.48640473505746801 0 -0.44983985647950581 -0.45160308804861499 0 -0.45966461093131178 -0.44273722091553369 0 -0.44448147895640161 -0.43499756902142322 0 -0.44983985647950581 -0.45160308804861499 0 -0.44448147895640161 -0.43499756902142322 0 -0.43300807702817251 -0.45543186968409682 0 -0.43965395527957929 -0.48146152865944941 0 -0.44474168558519678 -0.46405619312909752 0 -0.43300807702817251 -0.45543186968409682 0 -0.44983985647950581 -0.45160308804861499 0 -0.44474168558519678 -0.46405619312909752 0 -0.43300807702817251 -0.45543186968409682 0 -0.44906287663230798 -0.47260029275850218 0 -0.44474168558519678 -0.46405619312909752 0 -0.45524118388891049 -0.46329942228200133 0 -0.44983985647950581 -0.45160308804861499 0 -0.44474168558519678 -0.46405619312909752 0 -0.45524118388891049 -0.46329942228200133 0 -0.44983985647950581 -0.45160308804861499 0 -0.45524118388891049 -0.46329942228200133 0 -0.46382197426144212 -0.45499431324530482 0 -0.4567195393145953 -0.47108996935110109 0 -0.45524118388891049 -0.46329942228200133 0 -0.46446330631975058 -0.46857003922130508 0 -0.45524118388891049 -0.46329942228200133 0 -0.46446330631975058 -0.46857003922130508 0 -0.46382197426144212 -0.45499431324530482 0 -0.46382197426144212 -0.45499431324530482 0 -0.45966461093131178 -0.44273722091553369 0 -0.46983948991283231 -0.44156782445419968 0 -0.44983985647950581 -0.45160308804861499 0 -0.46382197426144212 -0.45499431324530482 0 -0.45966461093131178 -0.44273722091553369 0 -0.45966461093131178 -0.44273722091553369 0 -0.46983948991283231 -0.44156782445419968 0 -0.45985716457620551 -0.43105742298173683 0 -0.46983948991283231 -0.44156782445419968 0 -0.48013650800985669 -0.45934970404010128 0 -0.48644617933454881 -0.44305405819605709 0 -0.48013650800985669 -0.45934970404010128 0 -0.48644617933454881 -0.44305405819605709 0 -0.46382197426144212 -0.45499431324530482 0 -0.46983948991283231 -0.44156782445419968 0 -0.48013650800985669 -0.45934970404010128 0 -0.46446330631975058 -0.46857003922130508 0 -0.46382197426144212 -0.45499431324530482 0 -0.48013650800985669 -0.45934970404010128 0 -0.47382683668517039 -0.47564534988414781 0 -0.46446330631975058 -0.46857003922130508 0 -0.48013650800985669 -0.45934970404010128 0 -0.47382683668517039 -0.47564534988414781 0 -0.48013650800985669 -0.45934970404010128 0 -0.48844779397140192 -0.47366123027711948 0 -0.48013650800985669 -0.45934970404010128 0 -0.50000000000000155 -0.46247496764540152 0 -0.48013650800985669 -0.45934970404010128 0 -0.50000000000000155 -0.46247496764540152 0 -0.48644617933454881 -0.44305405819605709 0 -0.50000000000000155 -0.46247496764540152 0 -0.48644617933454881 -0.44305405819605709 0 -0.5 -0.43526215423733111 0 -0.50000000000000155 -0.46247496764540152 0 -0.48644617933454881 -0.44305405819605709 0 -0.48644617933454881 -0.44305405819605709 0 -0.5 -0.43526215423733111 0 -0.49322308966727169 -0.4255516995126577 0 -0.5 -0.43526215423733111 0 -0.49322308966727169 -0.4255516995126577 0 -0.50000000000000022 -0.40804934082926048 0 -0.48644617933454881 -0.44305405819605709 0 -0.48656776968788462 -0.43141975740227151 0 -0.49322308966727169 -0.4255516995126577 0 -0.48644617933454881 -0.44305405819605709 0 -0.49322308966727169 -0.4255516995126577 0 -0.48656776968788462 -0.43141975740227151 0 -0.49322308966727169 -0.4255516995126577 0 -0.48251009263801248 -0.41804762166735843 0 -0.49322308966727169 -0.4255516995126577 0 -0.50000000000000022 -0.40804934082926048 0 -0.49322308966727169 -0.4255516995126577 0 -0.48786992139865959 -0.40883626199836048 0 -0.48251009263801248 -0.41804762166735843 0 -0.49322308966727169 -0.4255516995126577 0 -0.50000000000000022 -0.40804934082926048 0 -0.48786992139865959 -0.40883626199836048 0 -0.46911050236362589 -0.41821422734646718 0 -0.47757641969057918 -0.40532423639974557 0 -0.46040120992690009 -0.40573491365651138 0 -0.48786992139865959 -0.40883626199836048 0 -0.48251009263801248 -0.41804762166735843 0 -0.47757641969057918 -0.40532423639974557 0 -0.48251009263801248 -0.41804762166735843 0 -0.46911050236362589 -0.41821422734646718 0 -0.47757641969057918 -0.40532423639974557 0 -0.48656776968788462 -0.43141975740227151 0 -0.48251009263801248 -0.41804762166735843 0 -0.46911050236362589 -0.41821422734646718 0 -0.48644617933454881 -0.44305405819605709 0 -0.48656776968788462 -0.43141975740227151 0 -0.46911050236362589 -0.41821422734646718 0 -0.48644617933454881 -0.44305405819605709 0 -0.46911050236362589 -0.41821422734646718 0 -0.46983948991283231 -0.44156782445419968 0 -0.48644617933454881 -0.44305405819605709 0 -0.46911050236362589 -0.41821422734646718 0 -0.48656776968788462 -0.43141975740227151 0 -0.46911050236362589 -0.41821422734646718 0 -0.5 -0.3847533113815268 0 -0.48922066936689818 -0.39738781464685369 0 -0.47521167947678228 -0.38471106762438162 0 -0.5 -0.3847533113815268 0 -0.47521167947678228 -0.38471106762438162 0 -0.49002214902665348 -0.36368722159224398 0 -0.50000000000000022 -0.40804934082926048 0 -0.5 -0.3847533113815268 0 -0.48922066936689818 -0.39738781464685369 0 -0.50000000000000022 -0.40804934082926048 0 -0.48786992139865959 -0.40883626199836048 0 -0.48922066936689818 -0.39738781464685369 0 -0.48786992139865959 -0.40883626199836048 0 -0.48922066936689818 -0.39738781464685369 0 -0.47757641969057918 -0.40532423639974557 0 -0.48922066936689818 -0.39738781464685369 0 -0.47757641969057918 -0.40532423639974557 0 -0.47521167947678228 -0.38471106762438162 0 -0.47757641969057918 -0.40532423639974557 0 -0.47521167947678228 -0.38471106762438162 0 -0.46040120992690009 -0.40573491365651138 0 -0.46048868583517699 -0.38346273104891382 0 -0.43910629694810849 -0.37522199874484979 0 -0.46462758010571459 -0.3693626276989439 0 -0.47521167947678228 -0.38471106762438162 0 -0.46048868583517699 -0.38346273104891382 0 -0.46462758010571459 -0.3693626276989439 0 -0.47521167947678228 -0.38471106762438162 0 -0.46048868583517699 -0.38346273104891382 0 -0.46040120992690009 -0.40573491365651138 0 -0.47521167947678228 -0.38471106762438162 0 -0.46040120992690009 -0.40573491365651138 0 -0.46048868583517699 -0.38346273104891382 0 -0.46040120992690009 -0.40573491365651138 0 -0.4497537534375024 -0.39047845620068189 0 -0.46040120992690009 -0.40573491365651138 0 -0.44380468417398461 -0.39907166989558501 0 -0.45769383517366491 -0.40957810240699011 0 -0.46040120992690009 -0.40573491365651138 0 -0.4497537
[...]
<PointData Scalars="" Vectors="displacement," Tensors="">
<DataArray type="Float64" Name="displacement" NumberOfComponents="3" format="ascii">
-1.5881477035816256e-06 -0.049996783046655988 0 -0.0001276009240418379 -0.048391723949084982 0 2.6749819751084695e-06 -0.046254172665771545 0 -1.5881477035816256e-06 -0.049996783046655988 0 -0.00016692875985649134 -0.049231290340829729 0 4.8093923131689211e-07 -0.049999375026263414 0 -1.5881477035816256e-06 -0.049996783046655988 0 -0.0001276009240418379 -0.048391723949084982 0 -0.00016692875985649134 -0.049231290340829729 0 -0.0001276009240418379 -0.048391723949084982 0 -0.00016692875985649134 -0.049231290340829729 0 0.00069442291252777468 -0.04886667100134065 0 -0.00016692875985649134 -0.049231290340829729 0 4.8093923131689211e-07 -0.049999375026263414 0 -9.016619003014241e-05 -0.049566943712974647 0 4.8093923131689211e-07 -0.049999375026263414 0 -9.016619003014241e-05 -0.049566943712974647 0 -6.3056105778128689e-05 -0.049695416417604027 0 -0.00016692875985649134 -0.049231290340829729 0 -9.016619003014241e-05 -0.049566943712974647 0 -3.1141634303106891e-05 -0.049385632372392366 0 -4.2677042366350091e-05 -0.049493296248368228 0 -9.016619003014241e-05 -0.049566943712974647 0 -4.7158981026961209e-05 -0.049541976405186296 0 -4.2677042366350091e-05 -0.049493296248368228 0 -9.016619003014241e-05 -0.049566943712974647 0 -3.1141634303106891e-05 -0.049385632372392366 0 -4.2677042366350091e-05 -0.049493296248368228 0 -4.7158981026961209e-05 -0.049541976405186296 0 1.7046682893464452e-05 -0.049451583761400006 0 -9.016619003014241e-05 -0.049566943712974647 0 -7.6932749350314562e-05 -0.049604906529037728 0 -6.3056105778128689e-05 -0.049695416417604027 0 -7.6932749350314562e-05 -0.049604906529037728 0 -4.7158981026961209e-05 -0.049541976405186296 0 -8.5222199326645757e-05 -0.049567588572037635 0 -9.016619003014241e-05 -0.049566943712974647 0 -7.6932749350314562e-05 -0.049604906529037728 0 -4.7158981026961209e-05 -0.049541976405186296 0 -7.6932749350314562e-05 -0.049604906529037728 0 -8.5222199326645757e-05 -0.049567588572037635 0 -6.3056105778128689e-05 -0.049695416417604027 0 -4.7158981026961209e-05 -0.049541976405186296 0 -8.537213994001713e-05 -0.049574142907346519 0 1.1530580344408685e-05 -0.049511050974977162 0 -4.7158981026961209e-05 -0.049541976405186296 0 -8.5222199326645757e-05 -0.049567588572037635 0 -8.537213994001713e-05 -0.049574142907346519 0 -8.5222199326645757e-05 -0.049567588572037635 0 -8.4177700141613662e-05 -0.049538390062020904 0 -3.8619652454881427e-05 -0.049542713828311435 0 0.00015798740019149212 -0.049219647729719228 0 0.00026576645062502445 -0.049247834230394694 0 0.00016161957866798254 -0.049133491988431317 0 0.00018450239325140975 -0.049409981624834294 0 0.00021724745016140419 -0.048956485811583149 0 0.00038028541411570788 -0.049016865189461883 0 0.00018450239325140975 -0.049409981624834294 0 0.00038028541411570788 -0.049016865189461883 0 0.00021724745016140419 -0.048956485811583149 0 0.00034907935512849738 -0.049135414788557943 0 0.00038028541411570788 -0.049016865189461883 0 -2.9040976367313506e-10 -0.050000000697013269 0 5.3645700289705761e-07 -0.049996706406724135 0 2.3516541148336363e-09 -0.04999998122005303 0 6.5531798804426046e-07 -0.049995593563215555 0 5.3645700289705761e-07 -0.049996706406724135 0 7.327192462800683e-07 -0.049994115398486944 0 -8.5222199326645757e-05 -0.049567588572037635 0 -3.8619652454881427e-05 -0.049542713828311435 0 -6.3056105778128689e-05 -0.049695416417604027 0 0.00018450239325140975 -0.049409981624834294 0 0.00015928779185336999 -0.049465233648248334 0 1.1041543517881377e-08 -0.050000031681259251 0 0.00018450239325140975 -0.049409981624834294 0 -2.9040976367313506e-10 -0.050000000697013269 0 6.1143320370998401e-07 -0.049995958631317894 0 5.3645700289705761e-07 -0.049996706406724135 0 4.8093923131689211e-07 -0.049999375026263414 0 -3.8619652454881427e-05 -0.049542713828311435 0 -6.3056105778128689e-05 -0.049695416417604027 0 0.00010417000348524853 -0.049429063946276074 0 0.00017261575993871017 -0.049324965020635061 0 0.00021946986802439579 -0.049397975331956084 0 0.00010417000348524853 -0.049429063946276074 0 0.00021946986802439579 -0.049397975331956084 0 7.5505195757418823e-05 -0.049529414001854989 0 -8.537213994001713e-05 -0.049574142907346519 0 1.1530580344408685e-05 -0.049511050974977162 0 7.5505195757418823e-05 -0.049529414001854989 0 0.00010417000348524853 -0.049429063946276074 0 1.1530580344408685e-05 -0.049511050974977162 0 7.5505195757418823e-05 -0.049529414001854989 0 -4.7158981026961209e-05 -0.049541976405186296 0 1.1530580344408685e-05 -0.049511050974977162 0 1.7046682893464452e-05 -0.049451583761400006 0 0.00010417000348524853 -0.049429063946276074 0 1.1530580344408685e-05 -0.049511050974977162 0 1.7046682893464452e-05 -0.049451583761400006 0 0.00010417000348524853 -0.049429063946276074 0 1.7046682893464452e-05 -0.049451583761400006 0 8.6669900889183396e-05 -0.049335521726623095 0 -4.2677042366350091e-05 -0.049493296248368228 0 1.7046682893464452e-05 -0.049451583761400006 0 -3.1141634303106891e-05 -0.049385632372392366 0 1.7046682893464452e-05 -0.049451583761400006 0 -3.1141634303106891e-05 -0.049385632372392366 0 8.6669900889183396e-05 -0.049335521726623095 0 8.6669900889183396e-05 -0.049335521726623095 0 0.00017261575993871017 -0.049324965020635061 0 0.00018681905585223241 -0.049237429415707648 0 0.00010417000348524853 -0.049429063946276074 0 8.6669900889183396e-05 -0.049335521726623095 0 0.00017261575993871017 -0.049324965020635061 0 0.00017261575993871017 -0.049324965020635061 0 0.00018681905585223241 -0.049237429415707648 0 0.00024822981700426062 -0.049289580882460361 0 0.00018681905585223241 -0.049237429415707648 0 5.8117227176889896e-05 -0.049164149700872885 0 0.00018079678633546383 -0.049097968465292942 0 0.00025529651996728794 -0.049069066957500095 0 0.0010531119661605773 -0.045044904931464555 0 8.6669900889183396e-05 -0.049335521726623095 0 0.00018681905585223241 -0.049237429415707648 0 5.8117227176889896e-05 -0.049164149700872885 0 -3.1141634303106891e-05 -0.049385632372392366 0 8.6669900889183396e-05 -0.049335521726623095 0 5.8117227176889896e-05 -0.049164149700872885 0 -0.00016692875985649134 -0.049231290340829729 0 -3.1141634303106891e-05 -0.049385632372392366 0 5.8117227176889896e-05 -0.049164149700872885 0 -7.0777881668283009e-05 -0.04919219124870277 0 0.00025529651996728794 -0.049069066957500095 0 -0.0001276009240418379 -0.048391723949084982 0 0.00069442291252777468 -0.04886667100134065 0 2.6749819751084695e-06 -0.046254172665771545 0 0.00069442291252777468 -0.04886667100134065 0 2.6749819751084695e-06 -0.046254172665771545 0 0.0027907814963817673 -0.048013783632521574 0 5.680059647912241e-07 -0.04624493518954792 0 8.833799090692418e-06 -0.043933215466727821 0 -5.5216487595743103e-07 -0.04352696599762268 0 8.5826422575154421e-07 -0.046247821679449574 0 0.0010531119661605773 -0.045044904931464555 0 8.833799090692418e-06 -0.043933215466727821 0 -5.5216487595743103e-07 -0.04352696599762268 0 -2.757173694510811e-06 -0.042945783408697286 0 -5.5216487595743103e-07 -0.04352696599762268 0 -2.757173694510811e-06 -0.042945783408697286 0 5.661564312550124e-07 -0.040805990509408141 0 0.001966099845404664 -0.039660349591496918 0 0.0015778891038896159 -0.039682610406555976 0 0.001348852720330105 -0.040010813535286752 0 0.0010531119661605773 -0.045044904931464555 0 0.00065713922974803521 -0.041325458587030857 0 0.0015778891038896159 -0.039682610406555976 0 0.001348852720330105 -0.040010813535286752 0 0.00081548801810578733 -0.039361171613362347 0 0.00065713922974803521 -0.041325458587030857 0 -2.9011840744488447e-07 -0.040805557123428163 0 0.001348852720330105 -0.040010813535286752 0 0.00025760325518798134 -0.039569997477977785 0 0.00081548801810578733 -0.039361171613362347 0 0.001348852720330105 -0.040010813535286752 0 1.6571104461530993e-06 -0.040801796973679735 0 0.00025760325518798134 -0.039569997477977785 0 0.00075884322948201448 -0.038708611525199117 0 0.00016586274874796735 -0.039028479522968174 0 0.00022265662825701399 -0.038514787108528875 0 0.00025760325518798134 -0.039569997477977785 0 0.00081548801810578733 -0.039361171613362347 0 0.00016586274874796735 -0.039028479522968174 0 0.00081548801810578733 -0.039361171613362347 0 0.00075884322948201448 -0.038708611525199117 0 0.00016586274874796735 -0.039028479522968174 0 0.0015778891038896159 -0.039682610406555976 0 0.00081548801810578733 -0.039361171613362347 0 0.00075884322948201448 -0.038708611525199117 0 0.001966099845404664 -0.039660349591496918 0 0.0015778891038896159 -0.039682610406555976 0 0.001146306931213697 -0.039255382336676976 0 0.0010531119661605773 -0.045044904931464555 0 0.00097510104465741462 -0.042360240430260286 0 0.00018681905585223241 -0.049237429415707648 0 0.00018079678633546383 -0.049097968465292942 0 0.00032704814351404779 -0.049200265298473427 0 0.0011118770777523365 -0.038619884740409567 0 0.00097510104465741462 -0.042360240430260286 0 -1.7634855850317136e-06 -0.038475332746311361 0 -0.00014546574470993879 -0.039274521332341994 0 -0.00017883850273174389 -0.038859591475035309 0 -1.7634855850317136e-06 -0.038475332746311361 0 -0.00017883850273174389 -0.038859591475035309 0 5.5515334967415553e-05 -0.037501815317126111 0 1.6571104461530993e-06 -0.040801796973679735 0 -1.7634855850317136e-06 -0.038475332746311361 0 -0.00014546574470993879 -0.039274521332341994 0 1.6571104461530993e-06 -0.040801796973679735 0 0.00025760325518798134 -0.039569997477977785 0 -0.00014546574470993879 -0.039274521332341994 0 0.00025760325518798134 -0.039569997477977785 0 -0.00014546574470993879 -0.039274521332341994 0 0.00016586274874796735 -0.039028479522968174 0 -0.00014546574470993879 -0.039274521332341994 0 0.00016586274874796735 -0.039028479522968174 0 -0.00017883850273174389 -0.038859591475035309 0 0.00016586274874796735 -0.039028479522968174 0 -0.00017883850273174389 -0.038859591475035309 0 0.00022265662825701399 -0.038514787108528875 0 0.0013378487064943706 -0.03783139467971041 0 0.0014902787692213401 -0.038203144959498503 0 0.0015914836041484325 -0.037746212003516647 0 0.0013093946316918507 -0.0375621753044032 0 0.0013378487064943706 -0.03783139467971041 0 0.0015914836041484325 -0.037746212003516647 0 0.0013093946316918507 -0.0375621753044032 0 0.0013378487064943706 -0.03783139467971041 0 0.00093876845975142745 -0.037856714298183235 0 0.00052228511761631062 -0.037958837819463472 0 0.0011594842988734044 -0.040648308241046704 0 0.0013378487064943706 -0.03783139467971041 0 0.00093876845975142745 -0.037856714298183235 0 0.0012155032862079718 -0.038029277732898797 0 0.001741311186374049 -0.042511288520875143 0 0.0015795723196095936 -0.042085984152954892 0 0.0018382599094440505 -0.042448294571979912 0 0.0011594842988734044 -0.040648308241046704 0 0.0014177080586464496 -0.040292169122464076 0 0.001741311186374049 -0.042511288520875143 0 0.0015795723196095936 -0.042085984152954892 0 0.0013651523879753104 -0.042221135723419317 0 0.0015795723196095936 -0.042085984152954892 0 0.0013651523879753104 -0.042221135723419317 0 0.0013210930621620699 -0.041730290061640911 0 0.0011801500515287073 -0.045942875235463088 0 0.0006231656023279428 -0.045395424301214432 0 0.0013378487064943706 -0.03783139467971041 0 0.0012155032862079718 -0.038029277732898797 0 0.0014902787692213401 -0.038203144959498503 0 0.0013651523879753104 -0.042221135723419317 0 0.00099689994795391901 -0.041930760597907797 0 0.0013210930621620699 -0.041730290061640911 0 0.0014177080586464496 -0.040292169122464076 0 0.0020812349446221578 -0.036692781044690405 0 0.00032704814351404779 -0.049200265298473427 0 0.00024822981700426062 -0.049289580882460361 0 0.00031219668041010276 -0.049318715360427659 0 0.00018681905585223241 -0.049237429415707648 0 0.00032704814351404779 -0.049200265298473427 0 0.00024822981700426062 -0.049289580882460361 0 0.00017261575993871017 -0.049324965020635061 0 0.00024822981700426062 -0.049289580882460361 0 0.00021946986802439579 -0.049397975331956084 0 0.00032704814351404779 -0.049200265298473427 0 0.00037186932731621649 -0.049256744624054369 0 0.00031219668041010276 -0.049318715360427659 0 0.00097510104465741462 -0.042360240430260286 0 0.0011594842988734044 -0.040648308241046704 0 0.00097510104465741462 -0.042360240430260286 0 0.0006231656023279428 -0.045395424301214432 0 0.0011893891359348204 -0.042454111130630391 0 0.00088044813802338952 -0.042239903807755538 0 0.00097469208692994825 -0.042176537732740313 0 0.0011594842988734044 -0.040648308241046704 0 0.0006231656023279428 -0.045395424301214432 0 0.0006231656023279428 -0.045395424301214432 0 -0.00050849638464136161 -0.048972271482381119 0 0.00036565277824234698 -0.049249795162070037 0 0.00031219668041010276 -0.049318715360427659 0 0.00036021443283015798 -0.04931886035285702 0 0.00041705951120071908 -0.049317038114249423 0 0.00036565277824234698 -0.049249795162070037 0 0.00036021443283015798 -0.04931886035285702 0 0.00041705951120071908 -0.049317038114249423 0 0.00036021443283015798 -0.04931886035285702 0 0.0003413470860666977 -0.049385707015833835 0 0.00031219668041010276 -0.049318715360427659 0 0.00036021443283015798 -0.04931886035285702 0 0.0003413470860666977 -0.049385707015833835 0 0.00031219668041010276 -0.049318715360427659 0 0.00021946986802439579 -0.049397975331956084 0 0.0003413470860666977 -0.049385707015833835 0 0.00024822981700426062 -0.049289580882460361 0 0.00031219668041010276 -0.049318715360427659 0 0.00021946986802439579 -0.049397975331956084 0 0.00021946986802439579 -0.049397975331956084 0 0.00025773121585000202 -0.049467257320341164 0 0.0003413470860666977 -0.049385707015833835 0 0.0004870162188078926 -0.0488753738469705 0 0.00088325987906626938 -0.04579948601817143 0 0.00025773121585000202 -0.049467257320341164 0 0.0003413470860666977 -0.049385707015833835 0 0.00040069131575212058 -0.049422609788510437 0 0.00097990819137387078 -0.043102680447263599 0 0.0014736638530776884 -0.042777029408179616 0 0.0012941997673337211 -0.043202904105004901 0 0.00076078454060701805 -0.047599722631456946 0 0.00072663208147399493 -0.047472857421898197 0 0.00062310966646740421 -0.047534458819987968 0 0.00099453235476652563 -0.04496545000032276 0 0.00088325987906626938 -0.04579948601817143 0 0.00076078454060701805 -0.047599722631456946 0 0.00072663208147399493 -0.047472857421898197 0 0.00083694337452919795 -0.047529190875797656 0 0.0027160388530002694 -0.035528448473395743 0 0.0029973385015985865 -0.03386880406119968 0 0.0024409934380672104 -0.035176315459961471 0 0.0020812349446221578 -0.036692781044690405 0 0.0020388602903786599 -0.038549483926617709 0 0.0021197165139117085 -0.038961665972314895 0 0.0012638419460346533 -0.039565257308747111 0 0.001827144636015745 -0.040299633174193696 0 0.0020812349446221578 -0.036692781044690405 0 0.0011020643053843144 -0.043931634026947892 0 0.0011020643053843144 -0.043931634026947892 0 0.0020388602903786599 -0.038549483926617709 0 0.00041705951120071908 -0.049317038114249423 0 0.0003413470860666977 -0.049385707015833835 0 0.00040069131575212058 -0.049422609788510437 0 0.00041705951120071908 -0.049317038114249423 0 0.00046713379622949868 -0.049350665962638235 0 0.00040069131575212058 -0.049422609788510437 0 0.0011020643053843144 -0.043931634026947892 0 0.00088325987906626938 -0.04579948601817143 0 0.0011801500515287073 -0.045942875235463088 0 0.0011020643053843144 -0.043931634026947892 0 0.0015205113576440539 -0.042953376580835381 0 0.001701947323618488 -0.042865234589221188 0 0.0017387675909370374 -0.043051872522540155 0 0.0016839072711743515 -0.042696383156188573 0 0.0014922560532306839 -0.042839769206849745 0 0.001701947323618488 -0.042865234589221188 0 0.0014736638530776884 -0.042777029408179616 0 0.0015205113576440539 -0.042953376580835381 0 0.001701947323618488 -0.042865234589221188 0 0.0014736638530776884 -0.042777029408179616 0 0.0015205113576440539 -0.042953376580835381 0 0.0012941997673337211 -0.043202904105004901 0 0.00088325987906626938 -0.04579948601817143 0 0.0015920436759510842 -0.042957732302550164 0 0.001701947323618488 -0.042865234589221188 0 0.0017905312048326514 -0.042825086997672075 0 0.0017387675909370374 -0.043051872522540155 0 0.0020388602903786599 -0.038549483926617709 0 0.0023497999509181668 -0.040223055328271688 0 0.0016839072711743515 -0.042696383156188573 0 0.001701947323618488 -0.042865234589221188 0 0.0017905312048326514 -0.042825086997672075 0 0.0023536801360828511 -0.037802245056930903 0 0.0025741240547404094 -0.036816087817021732 0 0.0017126983090043242 -0.036934948034618609 0 0.0023795769231648935 -0.036657347416116502 0 0.0025741240547404094 -0.036816087817021732 0 0.0017126983090043242 -0.036934948034618609 0 0.0024265899271009093 -0.033248320109688048 0 0.0024012568200391269 -0.036440211843856832 0 0.0021275505372821725 -0.031594133642626428 0 0.0024265899271009093 -0.033248320109688048 0 0.0023591189884666682 -0.034916168951010344 0 0.0024817279212541151 -0.03462274365562492 0 0.0018064808648140776 -0.034923362001040237 0 0.0024265899271009093 -0.033248320109688048 0 0.0024742810282557515 -0.03348187760934037 0 0.0028568419515193136 -0.034915529481095726 0 0.0023591189884666682 -0.034916168951010344 0 0.0024817279212541151 -0.03462274365562492 0 0.0024012568200391269 -0.036440211843856832 0 0.0023497999509181668 -0.040223055328271688 0 0.001989236579795333 -0.043276540918638508 0 0.0019573818002904236 -0.043423195062967788 0 0.0016373297623287493 -0.043307177083946234 0 0.0024975705147498128 -0.038115498502662784 0 0.0023267747031505679 -0.037984272726387339 0 0.002273447455149897 -0.038216934851365555 0 0.0023497999509181668 -0.040223055328271688 0 0.0024937695078397163 -0.038914506674934957 0 0.0024012568200391269 -0.036440211843856832 0 0.0024937695078397163 -0.038914506674934957 0 0.0016373297623287493 -0.043307177083946234 0 0.0014319712775786452 -0.043685622324636846 0 0.0012941997673337211 -0.043202904105004901 0 0.0019573818002904236 -0.043423195062967788 0 0.0016373297623287493 -0.043307177083946234 0 0.0014319712775786452 -0.043685622324636846 0 0.0015205113576440539 -0.042953376580835381 0 0.001989236579795333 -0.043276540918638508 0 0.0016373297623287493 -0.043307177083946234 0 0.0017751109373012829 -0.043579765734296845 0 0.0023497999509181668 -0.040223055328271688 0 0.0015205113576440539 -0.042953376580835381 0 0.0016373297623287493 -0.043307177083946234 0 0.0012941997673337211 -0.043202904105004901 0 0.0022412470265099089 -0.038881445616836811 0 0.003192055615227677 -0.035246200841298578 0 0.0021520743125217163 -0.036752255731451057 0 0.003019963977740246 -0.036295392946450768 0 0.0027603444313010514 -0.037390542970108742 0 0.0043722672422217999 -0.039454727451758514 0 0.001936349001776365 -0.040586909418392603 0 0.0042469749653025355 -0.040031932235634331 0 0.001936349001776365 -0.040586909418392603 0 0.0021196935481915648 -0.041139815483416657 0 0.0042469749653025355 -0.040031932235634331 0 0.0024937695078397163 -0.038914506674934957 0 0.001728608332393319 -0.042085287905755303 0 0.0041646826400873332 -0.029941847639787574 0 0.0033430192280926412 -0.029383910494204697 0 0.0046926707764812893 -0.027488887102944892 0 0.003192055615227677 -0.035246200841298578 0 0.0042302900482028465 -0.030974004264939771 0 0.0023591189884666682 -0.034916168951010344 0 0.0018064808648140776 -0.034923362001040237 0 0.0016752046236996933 -0.035512569261428532 0 0.0024937695078397163 -0.038914506674934957 0 0.003192055615227677 -0.035246200841298578 0 0.0024265899271009093 -0.033248320109688048 0 0.003192055615227677 -0.035246200841298578 0 0.0031373744124930172 -0.030445793235222118 0 0.0041646826400873332 -0.029941847639787574 0 0.0033430192280926412 -0.029383910494204697 0 0.0028599470495550049 -0.034917676620333717 0 0.0023591189884666682 -0.034916168951010344 0 0.0016752046236996933 -0.035512569261428532 0 0.002962138507340983 -0.030303422907707468 0 0.0031373744124930172 -0.030445793235222118 0 0.0033430192280926412 -0.029383910494204697 0 0.00097990819