<?xml version="1.0"?>
<VTKFile type="UnstructuredGrid" version="0.1" byte_order="LittleEndian">
<UnstructuredGrid>
<Piece NumberOfPoints="30972" NumberOfCells="10842">
<Points>
<DataArray type="Float64" NumberOfComponents="3" format="ascii">
-0.5 -0.5 0 -0.4656923782564602 -0.46714357305114512 0 -0.43179662995678308 -0.49219264151174769 0 -0.5 -0.5 0 -0.39077372265239102 -0.5 0 -0.43179662995678308 -0.49219264151174769 0 -0.5 -0.5 0 -0.4656923782564602 -0.46714357305114512 0 -0.47488359933155072 -0.46306371676810659 0 -0.5 -0.5 0 -0.47488359933155072 -0.46306371676810659 0 -0.49999999999999911 -0.46029921021984682 0 -0.43865985116486889 -0.47519983126815218 0 -0.4656923782564602 -0.46714357305114512 0 -0.43179662995678308 -0.49219264151174769 0 -0.43865985116486889 -0.47519983126815218 0 -0.44976719866310222 -0.46582822331636642 0 -0.4656923782564602 -0.46714357305114512 0 -0.44935010497525713 -0.45144061304350308 0 -0.45053224158810362 -0.42642549264287632 0 -0.42402515746288849 -0.44788725249385519 0 -0.44935010497525713 -0.45144061304350308 0 -0.44976719866310222 -0.46582822331636642 0 -0.43645930401940181 -0.45964568633721181 0 -0.44976719866310222 -0.46582822331636642 0 -0.42850439407505569 -0.46407200925224301 0 -0.44976719866310222 -0.46582822331636642 0 -0.42850439407505569 -0.46407200925224301 0 -0.43645930401940181 -0.45964568633721181 0 -0.44935010497525713 -0.45144061304350308 0 -0.46205389600505731 -0.45898406408225118 0 -0.47467505248762559 -0.45499397359315119 0 -0.44976719866310222 -0.46582822331636642 0 -0.46205389600505731 -0.45898406408225118 0 -0.47488359933155072 -0.46306371676810659 0 -0.44976719866310222 -0.46582822331636642 0 -0.4656923782564602 -0.46714357305114512 0 -0.47488359933155072 -0.46306371676810659 0 -0.44976719866310222 -0.46582822331636642 0 -0.47488359933155072 -0.46306371676810659 0 -0.44976719866310222 -0.46582822331636642 0 -0.4656923782564602 -0.46714357305114512 0 -0.44935010497525713 -0.45144061304350308 0 -0.47467505248762559 -0.45499397359315119 0 -0.44935010497525713 -0.45144061304350308 0 -0.44976719866310222 -0.46582822331636642 0 -0.46205389600505731 -0.45898406408225118 0 -0.44935010497525713 -0.45144061304350308 0 -0.47467505248762559 -0.45499397359315119 0 -0.47509574517783992 -0.42810502851887372 0 -0.47467505248762559 -0.45499397359315119 0 -0.5 -0.43825246372684862 0 -0.47509574517783992 -0.42810502851887372 0 -0.47488359933155072 -0.46306371676810659 0 -0.47467505248762559 -0.45499397359315119 0 -0.49999999999999439 -0.45854733414279841 0 -0.46205389600505731 -0.45898406408225118 0 -0.47488359933155072 -0.46306371676810659 0 -0.47467505248762559 -0.45499397359315119 0 -0.47488359933155072 -0.46306371676810659 0 -0.49999999999999911 -0.46029921021984682 0 -0.47488359933155072 -0.46306371676810659 0 -0.49999999999999439 -0.45854733414279841 0 -0.49999999999999911 -0.46029921021984682 0 -0.47467505248762559 -0.45499397359315119 0 -0.49999999999999439 -0.45854733414279841 0 -0.47467505248762559 -0.45499397359315119 0 -0.49999999999999439 -0.45854733414279841 0 -0.5 -0.43825246372684862 0 -0.48643549634406819 -0.40943322291718082 0 -0.47509574517783992 -0.42810502851887372 0 -0.47199362695718039 -0.39660445064681288 0 -0.5 -0.43825246372684862 0 -0.5 -0.41795759331089888 0 -0.47509574517783992 -0.42810502851887372 0 -0.5 -0.41795759331089888 0 -0.48643549634406819 -0.40943322291718082 0 -0.47509574517783992 -0.42810502851887372 0 -0.5 -0.41795759331089888 0 -0.48643549634406819 -0.40943322291718082 0 -0.49999999999999822 -0.39766272289494919 0 -0.49999999999999878 -0.38412199820164061 0 -0.48296735088199949 -0.38227215457928648 0 -0.48986959253786022 -0.36321827667384149 0 -0.49999999999999878 -0.38412199820164061 0 -0.49999999999999822 -0.39766272289494919 0 -0.48296735088199949 -0.38227215457928648 0 -0.48643549634406819 -0.40943322291718082 0 -0.49999999999999822 -0.39766272289494919 0 -0.47199362695718039 -0.39660445064681288 0 -0.49999999999999822 -0.39766272289494919 0 -0.47199362695718039 -0.39660445064681288 0 -0.49999999999999822 -0.39766272289494919 0 -0.47199362695718039 -0.39660445064681288 0 -0.48296735088199949 -0.38227215457928648 0 -0.47199362695718039 -0.39660445064681288 0 -0.48296735088199949 -0.38227215457928648 0 -0.46321688699365088 -0.38112005446674863 0 -0.48296735088199949 -0.38227215457928648 0 -0.46321688699365088 -0.38112005446674863 0 -0.47352554036796501 -0.36993574898521719 0 -0.47199362695718039 -0.39660445064681288 0 -0.46321688699365088 -0.38112005446674863 0 -0.44398725391436261 -0.39554617839867662 0 -0.47199362695718039 -0.39660445064681288 0 -0.44398725391436261 -0.39554617839867662 0 -0.47199362695718039 -0.39660445064681288 0 -0.44398725391436261 -0.39554617839867662 0 -0.45053224158810362 -0.42642549264287632 0 -0.46321688699365088 -0.38112005446674863 0 -0.44398725391436261 -0.39554617839867662 0 -0.44356625432934749 -0.37774813027686421 0 -0.47509574517783992 -0.42810502851887372 0 -0.47199362695718039 -0.39660445064681288 0 -0.45053224158810362 -0.42642549264287632 0 -0.44935010497525713 -0.45144061304350308 0 -0.47509574517783992 -0.42810502851887372 0 -0.45053224158810362 -0.42642549264287632 0 -0.44398725391436261 -0.39554617839867662 0 -0.45053224158810362 -0.42642549264287632 0 -0.4284178561414913 -0.41991993691217783 0 -0.45053224158810362 -0.42642549264287632 0 -0.4284178561414913 -0.41991993691217783 0 -0.42402515746288849 -0.44788725249385519 0 -0.4284178561414913 -0.41991993691217783 0 -0.41598088087154472 -0.3944879061505403 0 -0.40139991859235491 -0.41102035711232282 0 -0.4284178561414913 -0.41991993691217783 0 -0.41015707937411339 -0.42907007189623869 0 -0.40139991859235491 -0.41102035711232282 0 -0.4284178561414913 -0.41991993691217783 0 -0.41015707937411339 -0.42907007189623869 0 -0.42402515746288849 -0.44788725249385519 0 -0.44398725391436261 -0.39554617839867662 0 -0.44356625432934749 -0.37774813027686421 0 -0.42317389780165121 -0.3800376726098959 0 -0.44398725391436261 -0.39554617839867662 0 -0.42317389780165121 -0.3800376726098959 0 -0.41598088087154472 -0.3944879061505403 0 -0.44398725391436261 -0.39554617839867662 0 -0.41598088087154472 -0.3944879061505403 0 -0.44398725391436261 -0.39554617839867662 0 -0.4284178561414913 -0.41991993691217783 0 -0.41598088087154472 -0.3944879061505403 0 -0.42317389780165121 -0.3800376726098959 0 -0.40761490702247438 -0.38390181607978657 0 -0.40649974809747741 -0.36772259419188569 0 -0.42317389780165121 -0.3800376726098959 0 -0.41598088087154472 -0.3944879061505403 0 -0.40761490702247438 -0.38390181607978657 0 -0.42317389780165121 -0.3800376726098959 0 -0.40761490702247438 -0.38390181607978657 0 -0.41598088087154472 -0.3944879061505403 0 -0.40761490702247438 -0.38390181607978657 0 -0.39205591624329778 -0.3877659595496783 0 -0.39205591624329778 -0.3877659595496783 0 -0.40649974809747741 -0.36772259419188569 0 -0.39102284214959621 -0.37422759502820119 0 -0.39205591624329778 -0.3877659595496783 0 -0.40649974809747741 -0.36772259419188569 0 -0.40761490702247438 -0.38390181607978657 0 -0.39205591624329778 -0.3877659595496783 0 -0.40649974809747741 -0.36772259419188569 0 -0.40761490702247438 -0.38390181607978657 0 -0.39205591624329778 -0.3877659595496783 0 -0.41598088087154472 -0.3944879061505403 0 -0.39205591624329778 -0.3877659595496783 0 -0.38797450782872689 -0.39342963390240532 0 -0.41598088087154472 -0.3944879061505403 0 -0.38797450782872689 -0.39342963390240532 0 -0.40139991859235491 -0.41102035711232282 0 -0.41598088087154472 -0.3944879061505403 0 -0.38797450782872689 -0.39342963390240532 0 -0.37968344780272312 -0.40493494267242691 0 -0.38797450782872689 -0.39342963390240532 0 -0.40139991859235491 -0.41102035711232282 0 -0.37968344780272312 -0.40493494267242691 0 -0.38797450782872689 -0.39342963390240532 0 -0.37058365568509732 -0.39309868945467707 0 -0.39205591624329778 -0.3877659595496783 0 -0.38797450782872689 -0.39342963390240532 0 -0.37058365568509732 -0.39309868945467707 0 -0.38797450782872689 -0.39342963390240532 0 -0.37058365568509732 -0.39309868945467707 0 -0.37968344780272312 -0.40493494267242691 0 -0.38797450782872689 -0.39342963390240532 0 -0.38077490902030608 -0.38580170660475638 0 -0.38014804237086358 -0.37436813971595567 0 -0.37058365568509732 -0.39309868945467707 0 -0.38014804237086358 -0.37436813971595567 0 -0.37058365568509732 -0.39309868945467707 0 -0.39205591624329778 -0.3877659595496783 0 -0.37058365568509732 -0.39309868945467707 0 -0.39205591624329778 -0.3877659595496783 0 -0.38077490902030608 -0.38580170660475638 0 -0.37058365568509732 -0.39309868945467707 0 -0.39205591624329778 -0.3877659595496783 0 -0.38797450782872689 -0.39342963390240532 0 -0.39205591624329778 -0.3877659595496783 0 -0.38077490902030608 -0.38580170660475638 0 -0.39102284214959621 -0.37422759502820119 0 -0.38077490902030608 -0.38580170660475638 0 -0.39102284214959621 -0.37422759502820119 0 -0.38014804237086358 -0.37436813971595567 0 -0.41015707937411339 -0.42907007189623869 0 -0.38723460888519051 -0.42419360495579672 0 -0.39870020995051991 -0.44433389194420719 0 -0.41015707937411339 -0.42907007189623869 0 -0.40139991859235491 -0.41102035711232282 0 -0.38723460888519051 -0.42419360495579672 0 -0.37968344780272312 -0.40493494267242691 0 -0.38723460888519051 -0.42419360495579672 0 -0.35931698530543932 -0.41516293014979228 0 -0.37968344780272312 -0.40493494267242691 0 -0.40139991859235491 -0.41102035711232282 0 -0.38723460888519051 -0.42419360495579672 0 -0.38723460888519051 -0.42419360495579672 0 -0.39870020995051991 -0.44433389194420719 0 -0.37337526243815139 -0.44078053139455919 0 -0.37971676225351608 -0.4529634334142939 0 -0.39870020995051991 -0.44433389194420719 0 -0.37337526243815139 -0.44078053139455919 0 -0.39870020995051991 -0.44433389194420719 0 -0.37337526243815139 -0.44078053139455919 0 -0.37971676225351608 -0.4529634334142939 0 -0.39870020995051991 -0.44433389194420719 0 -0.38804485053532151 -0.46073022905112931 0 -0.39870020995051991 -0.44433389194420719 0 -0.38
[...]
<PointData Scalars="" Vectors="displacement," Tensors="">
<DataArray type="Float64" Name="displacement" NumberOfComponents="3" format="ascii">
0.0049993018263791962 0.0050001279237689685 0 0.0050191158596822058 0.0047668246841237119 0 0.0050348235253944232 0.0043415176039116755 0 0.0049993018263791962 0.0050001279237689685 0 0.0050000327628039881 0.0039078968039988303 0 0.0050348235253944232 0.0043415176039116755 0 0.0049993018263791962 0.0050001279237689685 0 0.0050191158596822058 0.0047668246841237119 0 0.0049447111878237436 0.0048507522189520308 0 0.0049993018263791962 0.0050001279237689685 0 0.0049447111878237436 0.0048507522189520308 0 0.0046043301205372878 0.0049994973526574652 0 0.0050980890935213279 0.0044416114732837748 0 0.0050191158596822058 0.0047668246841237119 0 0.0050348235253944232 0.0043415176039116755 0 0.0050980890935213279 0.0044416114732837748 0 0.0051355102305294708 0.0045685357966865668 0 0.0050191158596822058 0.0047668246841237119 0 0.0043751256153582493 0.0052863546451670613 0 0.0042699169056338009 0.005280322649820526 0 0.0043158381162921285 0.0053342420153743427 0 0.0050082780143989938 0.0048640329540928064 0 0.0048647777272089231 0.0048650388752205153 0 0.0049593886438999892 0.0047094211912815159 0 0.0050850455846808956 0.0046945605267141692 0 0.0050780570094268729 0.0045376620421692842 0 0.0048647777272089231 0.0048650388752205153 0 0.0049099734364125153 0.0046120884376124873 0 0.0049593886438999892 0.0047094211912815159 0 0.0050082780143989938 0.0048640329540928064 0 0.0048818718137171773 0.0049507018093726636 0 0.0048379621198264841 0.0050296992697977825 0 0.0048647777272089231 0.0048650388752205153 0 0.0048818718137171773 0.0049507018093726636 0 0.0048213994379502139 0.005030729167803216 0 0.0051541425181511405 0.0046363264256031912 0 0.0050191158596822058 0.0047668246841237119 0 0.0049447111878237436 0.0048507522189520308 0 0.0050850455846808956 0.0046945605267141692 0 0.0048608346995413238 0.0049380422076658673 0 0.0050850455846808956 0.0046945605267141692 0 0.0050615602950962145 0.004720539904660496 0 0.00469292780209149 0.0050643578752211423 0 0.0046487268476055627 0.0050827626528889497 0 0.0050082780143989938 0.0048640329540928064 0 0.0048647777272089231 0.0048650388752205153 0 0.0048818718137171773 0.0049507018093726636 0 0.0043751256153582493 0.0052863546451670613 0 0.0044609690131136217 0.0051782005526419417 0 0.0042760834177071683 0.0051781046836547997 0 0.0044609690131136217 0.0051782005526419417 0 0.0043825162608847794 0.0050000005463786178 0 0.0042760834177071683 0.0051781046836547997 0 0.0048213994379502139 0.005030729167803216 0 0.0048379621198264841 0.0050296992697977825 0 0.0045858671235118869 0.0050000619148729813 0 0.0048818718137171773 0.0049507018093726636 0 0.0048213994379502139 0.005030729167803216 0 0.0048379621198264841 0.0050296992697977825 0 0.0048608346995413238 0.0049380422076658673 0 0.0046031107076089234 0.0049999521370819146 0 0.0048213994379502139 0.005030729167803216 0 0.0045858671235118869 0.0050000619148729813 0 0.0046026895157242663 0.0049999427952377353 0 0.0046487268476055627 0.0050827626528889497 0 0.0045855106230279254 0.0049999665656839587 0 0.0044609690131136217 0.0051782005526419417 0 0.0045853336964706325 0.0049999621212443481 0 0.0043825162608847794 0.0050000005463786178 0 0.0041323955397196653 0.0051038145695014017 0 0.0042760834177071683 0.0051781046836547997 0 0.0040959079734799271 0.0051972432498396982 0 0.0043825162608847794 0.0050000005463786178 0 0.0041795936770696257 0.004999984967664785 0 0.0042760834177071683 0.0051781046836547997 0 0.0041795936770696257 0.004999984967664785 0 0.0041323955397196653 0.0051038145695014017 0 0.0042760834177071683 0.0051781046836547997 0 0.0041795936770696257 0.004999984967664785 0 0.0041323955397196653 0.0051038145695014017 0 0.0039767754572641693 0.0049999985452804626 0 0.0038411724883728369 0.0049999325642872796 0 0.0037963137203106761 0.0051438880952415517 0 0.0036023244076410009 0.0050725694036054389 0 0.0038411724883728369 0.0049999325642872796 0 0.0039765839732150612 0.0050000240129079946 0 0.0037963137203106761 0.0051438880952415517 0 0.0041323955397196653 0.0051038145695014017 0 0.0039767754572641693 0.0049999985452804626 0 0.0040959079734799271 0.0051972432498396982 0 0.0039766398831135507 0.0050000073760626375 0 0.0040029117746991586 0.00520858831453439 0 0.0039765839732150612 0.0050000240129079946 0 0.003910712894223004 0.0052369042217579554 0 0.0037963137203106761 0.0051438880952415517 0 0.003910712894223004 0.0052369042217579554 0 0.0037963137203106761 0.0051438880952415517 0 0.0037623366681535427 0.0053097668834322601 0 0.0037963137203106761 0.0051438880952415517 0 0.0037623366681535427 0.0053097668834322601 0 0.0036625389569906095 0.0052218642681286899 0 0.003910712894223004 0.0052369042217579554 0 0.0037623366681535427 0.0053097668834322601 0 0.0038759398220221692 0.0054739477953827508 0 0.0040029117746991586 0.00520858831453439 0 0.0040204147088299252 0.0053769680661277519 0 0.0040959079734799271 0.0051972432498396982 0 0.0041663186600584164 0.0052957423982003546 0 0.0042699169056338009 0.005280322649820526 0 0.0037623366681535427 0.0053097668834322601 0 0.0038759398220221692 0.0054739477953827508 0 0.0037192976864651979 0.005475283031121196 0 0.0042760834177071683 0.0051781046836547997 0 0.0040959079734799271 0.0051972432498396982 0 0.0042699169056338009 0.005280322649820526 0 0.0043751256153582493 0.0052863546451670613 0 0.0042760834177071683 0.0051781046836547997 0 0.0042699169056338009 0.005280322649820526 0 0.0041663186600584164 0.0052957423982003546 0 0.0042699169056338009 0.005280322649820526 0 0.0042532254320662658 0.0053242531511203907 0 0.0042699169056338009 0.005280322649820526 0 0.0042532254320662658 0.0053242531511203907 0 0.0043158381162921285 0.0053342420153743427 0 0.0042532254320662658 0.0053242531511203907 0 0.0042235131943319749 0.0053355045647400946 0 0.0042551246937836884 0.0053365221687741993 0 0.0042532254320662658 0.0053242531511203907 0 0.004270975026420246 0.0053366311142276522 0 0.0042551246937836884 0.0053365221687741993 0 0.0042532254320662658 0.0053242531511203907 0 0.004270975026420246 0.0053366311142276522 0 0.0043158381162921285 0.0053342420153743427 0 0.0038759398220221692 0.0054739477953827508 0 0.0037192976864651979 0.005475283031121196 0 0.0037359909752602365 0.005650869924094225 0 0.0038759398220221692 0.0054739477953827508 0 0.0037359909752602365 0.005650869924094225 0 0.0038495963007519965 0.0057035277042642241 0 0.0040204147088299252 0.0053769680661277519 0 0.0040422384219917515 0.005535007152895283 0 0.0041663186600584164 0.0052957423982003546 0 0.0042532254320662658 0.0053242531511203907 0 0.0042235131943319749 0.0053355045647400946 0 0.0037359909752602365 0.005650869924094225 0 0.0037620885937243225 0.0057899164733846995 0 0.0036197194749006826 0.0058032292992509366 0 0.0037359909752602365 0.005650869924094225 0 0.0038495963007519965 0.0057035277042642241 0 0.0037767681284909074 0.0057561158874885315 0 0.0037362197150159876 0.0056480781804948881 0 0.0037783471822408986 0.0058257835959561631 0 0.0038495963007519965 0.0057035277042642241 0 0.0037767681284909074 0.0057561158874885315 0 0.0038010596816224515 0.0058486308510892022 0 0.0029694458510061486 0.0052902300287163062 0 0.0029613653055739668 0.0053108881172346427 0 0.0029668707893082832 0.0052922185637808757 0 0.003580173082423011 0.0055698517989961477 0 0.003257644507666857 0.005553763795959287 0 0.0037620885937243225 0.0057899164733846995 0 0.0037928061937902275 0.005917580999299398 0 0.0036197194749006826 0.0058032292992509366 0 0.0037783471822408986 0.0058257835959561631 0 0.003580173082423011 0.0055698517989961477 0 0.0038495963007519965 0.0057035277042642241 0 0.0038010596816224515 0.0058486308510892022 0 0.0038354626477729776 0.0058724243485746182 0 0.0042235131943319749 0.0053355045647400946 0 0.0042586333126901701 0.0053321632768200834 0 0.0042551246937836884 0.0053365221687741993 0 0.0040422384219917515 0.005535007152895283 0 0.0039987996487652099 0.0055144619795495058 0 0.0042678145978057537 0.0053206477431701048 0 0.0042586333126901701 0.0053321632768200834 0 0.0042551246937836884 0.0053365221687741993 0 0.0042678145978057537 0.0053206477431701048 0 0.0042743386384872743 0.0053263235656289681 0 0.004276517517660605 0.0053099761583015699 0 0.0038914462285936282 0.0055588276991327531 0 0.0037125578534717729 0.005428604593225945 0 0.003725555997625534 0.0048737068504681944 0 0.0039987996487652099 0.0055144619795495058 0 0.003825065916192557 0.004778500806079067 0 0.0042632127331578701 0.0053746589207023998 0 0.0039987996487652099 0.0055144619795495058 0 0.0029719345748539469 0.0052879673526253137 0 0.0029682457786595401 0.005287687507536218 0 0.0029775276841571491 0.0052861386360388762 0 0.0027289940957023035 0.0051611468539862647 0 0.003825065916192557 0.004778500806079067 0 0.003580173082423011 0.0055698517989961477 0 0.003825065916192557 0.004778500806079067 0 0.0029694458510061486 0.0052902300287163062 0 0.0029719345748539469 0.0052879673526253137 0 0.0029775276841571491 0.0052861386360388762 0 0.003580173082423011 0.0055698517989961477 0 0.0039987996487652099 0.0055144619795495058 0 0.0029694458510061486 0.0052902300287163062 0 0.0029719345748539469 0.0052879673526253137 0 0.0029668707893082832 0.0052922185637808757 0 0.0029719345748539469 0.0052879673526253137 0 0.0029668707893082832 0.0052922185637808757 0 0.0029682457786595401 0.005287687507536218 0 0.004270975026420246 0.0053366311142276522 0 0.0042655104562196091 0.0053263557925467995 0 0.0042735000574739765 0.0053320950797115128 0 0.004270975026420246 0.0053366311142276522 0 0.0042551246937836884 0.0053365221687741993 0 0.0042655104562196091 0.0053263557925467995 0 0.0042678145978057537 0.0053206477431701048 0 0.0042655104562196091 0.0053263557925467995 0 0.0042741045769492149 0.0052956180221030219 0 0.0042678145978057537 0.0053206477431701048 0 0.0042551246937836884 0.0053365221687741993 0 0.0042655104562196091 0.0053263557925467995 0 0.0042655104562196091 0.0053263557925467995 0 0.0042735000574739765 0.0053320950797115128 0 0.0042585857973222833 0.0053073887414316675 0 0.0052226308503316617 0.003925886512560579 0 0.0052986683902499221 0.004195880274027391 0 0.0054006055424072425 0.0038372934353800977 0 0.0047901794452357323 0.0047377926516333031 0 0.0048096902175313924 0.0046663135999075568 0 0.0052226308503316617 0.003925886512560579 0 0.0052986683902499221 0.004195880274027391 0 0.0050994308806510576 0.0040397179584520573 0 0.0052986683902499221 0.004195880274027391 0 0.0050994308806510576 0.0040397179584520573 0 0.0050199067725223753 0.0043160513378300673 0 0.005169507379513166 0.0038935948500912693 0 0.0050717309374926182 0.0042807067622580046 0 0.0050994308806510576 0.0040397179584520573 0 0.0050602696167638146 0.0039483121173141573 0 0.0050592839729816531 0.0042929001316265617 0 0.0050834436769379258 0.0040760395535214631 0 0.0050717309374926182 0.0042807067622580046 0 0.0052532039999716737 0.0038530161927111182 0 0.0051636344910393371 0.0040287956830715498 0 0.0052764475748016387 0.0041715704637814485 0 0.0052226308503316617 0.003925886512560579 0 0.0050994308806510576 0.0040397179584520573 0 0.0050602696167638146 0.0039483121173141573 0 0.0052226308503316617 0.003925886512560579 0 0.0050602696167638146 0.0039483121173141573 0 0.0052150513088504392 0.0037720329109718403 0 0.0050679295622955232 0.0038995365477223552 0 0.0051860279673026106 0.0040446448798787749 0 0.0051664070623992607 0.0037304165094451621 0 0.0052532039999716737 0.0038530161927111182 0 0.0051636344910393371 0.0040287956830715498 0 0.0051388314895219013 0.0037028836235344443 0 0.0051735021397627517 0.004039083573613305 0 0.0051515958397144014 0.0037132599542009201 0 0.0050679295622955232 0.0038995365477223552 0 0.0050271925279892424 0.0037875300894544555 0 0.0051664070623992607 0.0037304165094451621 0 0.005038304754808179 0.0038532694693074005 0 0.0050000327628039881 0.0039078968039988303 0 0.0050277046090331495 0.0037413534197391712 0 0.0049998345545205491 0.0038726099039928532 0 0.0050210969134023183 0.0037337157973123948 0 0.0050679295622955232 0.0038995365477223552 0 0.0049223839300371521 0.0039272464122192255 0 0.0050271925279892424 0.0037875300894544555 0 0.0050679295622955232 0.0038995365477223552 0 0.0049223839300371521 0.0039272464122192255 0 0.0050345987437915114 0.004020454814367946 0 0.0049998345545205491 0.0038726099039928532 0 0.0050016966079168947 0.0040800685260255027 0 0.0049223839300371521 0.0039272464122192255 0 0.0050345987437915114 0.004020454814367946 0 0.0049611846165253208 0.0041219709840504895 0 0.005038304754808179 0.0038532694693074005 0 0.0050000327628039881 0.0039078968039988303 0 0.005041142919310777 0.0040365483646815012 0 0.0049611846165253208 0.0041219709840504895 0 0.0050600321539892683 0.0040967833966295891 0 0.0050849170000286572 0.004169963909434843 0 0.0050345987437915114 0.004020454814367946 0 0.0049611846165253208 0.0041219709840504895 0 0.0050600321539892683 0.0040967833966295891 0 0.0051860279673026106 0.0040446448798787749 0 0.0051333996820557871 0.0041970272593206846 0 0.0050849170000286572 0.004169963909434843 0 0.0050345987437915114 0.004020454814367946 0 0.0051860279673026106 0.0040446448798787749 0 0.0050600321539892683 0.0040967833966295891 0 0.0050679295622955232 0.0038995365477223552 0 0.0050345987437915114 0.004020454814367946 0 0.0051860279673026106 0.0040446448798787749 0 0.0051860279673026106 0.0040446448798787749 0 0.0050600321539892683 0.0040967833966295891 0 0.0050849170000286572 0.004169963909434843 0 0.0050000327628039881 0.0039078968039988303 0 0.005041142919310777 0.0040365483646815012 0 0.0050348235253944232 0.0043415176039116755 0 0.0051860279673026106 0.0040446448798787749 0 0.0051333996820557871 0.0041970272593206846 0 0.0051857013558830201 0.0042909965675876202 0 0.0051735021397627517 0.004039083573613305 0 0.0051981761562406624 0.0043123208246825216 0 0.0051333996820557871 0.0041970272593206846 0 0.0050849170000286572 0.004169963909434843 0 0.005084019539207129 0.0042753346119558319 0 0.0051333996820557871 0.0041970272593206846 0 0.005084019539207129 0.0042753346119558319 0 0.0051857013558830201 0.0042909965675876202 0 0.0049611846165253208 0.0041219709840504895 0 0.005084019539207129 0.0042753346119558319 0 0.0050348235253944232 0.0043415176039116755 0 0.0049611846165253208 0.0041219709840504895 0 0.0050849170000286572 0.004169963909434843 0 0.005084019539207129 0.0042753346119558319 0 0.0050016966079168947 0.0040800685260255027 0 0.0050315943267960715 0.0043246408776525039 0 0.0050980890935213279 0.0044416114732837748 0 0.0051355102305294708 0.0045685357966865668 0 0.0051857013558830201 0.0042909965675876202 0 0.0050980890935213279 0.0044416114732837748 0 0.005084019539207129 0.0042753346119558319 0 0.0051857013558830201 0.0042909965675876202 0 0.0050980890935213279 0.0044416114732837748 0 0.005084019539207129 0.0042753346119558319 0 0.0050348235253944232 0.0043415176039116755 0 0.0049099734364125153 0.0046120884376124873 0 0.0049593886438999892 0.0047094211912815159 0 0.0049407999585341852 0.0043511549965131978 0 0.0049593886438999892 0.0047094211912815159 0 0.0051645297847295671 0.0045483545424499254 0 0.0050199067725223753 0.0043160513378300673 0 0.0050850455846808956 0.0046945605267141692 0 0.0051981761562406624 0.0043123208246825216 0 0.0052234107687167929 0.0046995295772712716 0 0.0051929824057169987 0.0043634985544898372 0 0.005250155386981939 0.004435335100780001 0 0.00469292780209149 0.0050643578752211423 0 0.0047398418068669941 0.0049378718223568379 0 0.0050082780143989938 0.0048640329540928064 0 0.0049593886438999892 0.0047094211912815159 0 0.0051645297847295671 0.0045483545424499254 0 0.0052986683902499221 0.004195880274027391 0 0.0051645297847295671 0.0045483545424499254 0 0.0050199067725223753 0.0043160513378300673 0 0.004270975026420246 0.0053366311142276522 0 0.0042735000574739765 0.0053320950797115128 0 0.0043158381162921285 0.0053342420153743427 0 0.0047901794452357323 0.0047377926516333031 0 0.0047398418068669941 0.0049378718223568379 0 0.0050780570094268729 0.0045376620421692842 0 0.0050717309374926182 0.0042807067622580046 0 0.0049418679117294697 0.0047199380832712821 0 0.0050717309374926182 0.0042807067622580046 0 0.0051636344910393371 0.0040287956830715498 0 0.0051929824057169987 0.0043634985544898372 0 0.0052764475748016387 0.0041715704637814485 0 0.0051929824057169987 0.0043634985544898372 0 0.005250155386981939 0.004435335100780001 0 0.0052764475748016387 0.0041715704637814485 0 0.0025030246882417843 0.005340822715457696 0 0.0024019682531148823 0.0054661618804857093 0 0.0023385032074907577 0.0053269411792839132 0 0.0027355670227784284 0.0052330640479905733 0 0.0028917265036010539 0.0051962456145033626 0 0.0028062982289976915 0.0053589486462387722 0 0.0026198571775055417 0.0052870753125469705 0 0.002744726983368129 0.0051504045800689199 0 0.0027355670227784284 0.0052330640479905733 0 0.0028362536497250367 0.0051236312330694162 0 0.0028917265036010539 0.0051962456145033626 0 0.0025030246882417843 0.005340822715457696 0 0.0023988129432713683 0.0051935604695392866 0 0.0023385032074907577 0.0053269411792839132 0 0.0025030246882417843 0.005340822715457696 0 0.0026569590021608813 0.005191667259933557 0 0.0023988129432713683 0.0051935604695392866 0 0.0025391823354544217 0.0049999643172807867 0 0.0026569590021608813 0.005191667259933557 0 0.0023988129432713683 0.0051935604695392866 0 0.002744726983368129 0.0051504045800689199 0 0.0028301818071353813 0.005000004337325655 0 0.0025391823354544217 0.0049999643172807867 0 0.0026569590021608813 0.005191667259933557 0 0.0028300919185172309 0.0049999822533156237 0 0.0029162202625514517 0.0051494146658389696 0 0.0029303435071561805 0.0050961602945468172 0 0.0030093254331725497 0.0051871738686283947 0 0.0028362536497250367 0.0051236312330694162 0 0.0029162202625514517 0.0051494146658389696 0 0.0029303435071561805 0.0050961602945468172 0 0.0029303435071561805 0.0050961602945468172 0 0.0028303302716991292 0.0050000020678532889 0 0.0030829088929309307 0.0049999624609610395 0 0.0028362536497250367 0.0051236312330694162 0 0.0029303435071561805 0.0050961602945468172 0 0.0028303302716991292 0.0050000020678532889 0 0.0029303435071561805 0.0050961602945468172 0 0.0030829088929309307 0.0049999624609610395 0 0.0031207037257276805 0.0051738525160002049 0 0.0029303435071561805 0.0050961602945468172 0 0.0031207037257276805 0.0051738525160002049 0 0.0030527962689224377 0.0053459258660355042 0 0.0029391682309319943 0.0051046634468563268 0 0.0030312762315089 0.005263894226145328 0 0.0029162202625514517 0.0051494146658389696 0 0.0030093254331725497 0.0051871738686283947 0 0.0028917265036010539 0.0051962456145033626 0 0.0028362536497250367 0.0051236312330694162 0 0.0029162202625514517 0.0051494146658389696 0 0.0028917265036010539 0.0051962456145033626 0 0.0028917265036010539 0.0051962456145033626 0 0.0029907007242937125 0.0052889551270509311 0 0.0028062982289976915 0.0053589486462387722 0 0.0030093254331725497 0.0051871738686283947 0 0.0028917265036010539 0.0051962456145033626 0 0.0029907007242937125 0.0052889551270509311 0 0.0030527962689224377 0.0053459258660355042 0 0.0031874309281687248 0.0054239992325992494 0 0.0031808653283152727 0.0054910830072225011 0 0.0030312762315089 0.005263894226145328 0 0.0031300455535690675 0.0053897078164999506 0 0.0030093254331725497 0.0051871738686283947 0 0.0029907007242937125 0.0052889551270509311 0 0.0030891609437844469 0.0052988327259165906 0 0.0031874309281687248 0.0054239992325992494 0 0.0031800948072337608 0.0054979924300100694 0 0.0031808653283152727 0.0054910830072225011 0 0.0031874309281687248 0.0054239992325992494 0 0.0032829716426915913 0.0053989042885935964 0 0.0031800948072337608 0.0054979924300100694 0 0.0032829716426915913 0.0053989042885935964 0 0.0034163883110789974 0.0054566217987462706 0 0.0031800948072337608 0.0054979924300100694 0 0.0032829716426915913 0.0053989042885935964 0 0