<?xml version="1.0"?>
<VTKFile type="UnstructuredGrid" version="0.1" byte_order="LittleEndian">
<UnstructuredGrid>
<Piece NumberOfPoints="30972" NumberOfCells="10842">
<Points>
<DataArray type="Float64" NumberOfComponents="3" format="ascii">
-0.5 -0.5 0 -0.4656923782564602 -0.46714357305114512 0 -0.43179662995678308 -0.49219264151174769 0 -0.5 -0.5 0 -0.39077372265239102 -0.5 0 -0.43179662995678308 -0.49219264151174769 0 -0.5 -0.5 0 -0.4656923782564602 -0.46714357305114512 0 -0.47488359933155072 -0.46306371676810659 0 -0.5 -0.5 0 -0.47488359933155072 -0.46306371676810659 0 -0.49999999999999911 -0.46029921021984682 0 -0.43865985116486889 -0.47519983126815218 0 -0.4656923782564602 -0.46714357305114512 0 -0.43179662995678308 -0.49219264151174769 0 -0.43865985116486889 -0.47519983126815218 0 -0.44976719866310222 -0.46582822331636642 0 -0.4656923782564602 -0.46714357305114512 0 -0.44935010497525713 -0.45144061304350308 0 -0.45053224158810362 -0.42642549264287632 0 -0.42402515746288849 -0.44788725249385519 0 -0.44935010497525713 -0.45144061304350308 0 -0.44976719866310222 -0.46582822331636642 0 -0.43645930401940181 -0.45964568633721181 0 -0.44976719866310222 -0.46582822331636642 0 -0.42850439407505569 -0.46407200925224301 0 -0.44976719866310222 -0.46582822331636642 0 -0.42850439407505569 -0.46407200925224301 0 -0.43645930401940181 -0.45964568633721181 0 -0.44935010497525713 -0.45144061304350308 0 -0.46205389600505731 -0.45898406408225118 0 -0.47467505248762559 -0.45499397359315119 0 -0.44976719866310222 -0.46582822331636642 0 -0.46205389600505731 -0.45898406408225118 0 -0.47488359933155072 -0.46306371676810659 0 -0.44976719866310222 -0.46582822331636642 0 -0.4656923782564602 -0.46714357305114512 0 -0.47488359933155072 -0.46306371676810659 0 -0.44976719866310222 -0.46582822331636642 0 -0.47488359933155072 -0.46306371676810659 0 -0.44976719866310222 -0.46582822331636642 0 -0.4656923782564602 -0.46714357305114512 0 -0.44935010497525713 -0.45144061304350308 0 -0.47467505248762559 -0.45499397359315119 0 -0.44935010497525713 -0.45144061304350308 0 -0.44976719866310222 -0.46582822331636642 0 -0.46205389600505731 -0.45898406408225118 0 -0.44935010497525713 -0.45144061304350308 0 -0.47467505248762559 -0.45499397359315119 0 -0.47509574517783992 -0.42810502851887372 0 -0.47467505248762559 -0.45499397359315119 0 -0.5 -0.43825246372684862 0 -0.47509574517783992 -0.42810502851887372 0 -0.47488359933155072 -0.46306371676810659 0 -0.47467505248762559 -0.45499397359315119 0 -0.49999999999999439 -0.45854733414279841 0 -0.46205389600505731 -0.45898406408225118 0 -0.47488359933155072 -0.46306371676810659 0 -0.47467505248762559 -0.45499397359315119 0 -0.47488359933155072 -0.46306371676810659 0 -0.49999999999999911 -0.46029921021984682 0 -0.47488359933155072 -0.46306371676810659 0 -0.49999999999999439 -0.45854733414279841 0 -0.49999999999999911 -0.46029921021984682 0 -0.47467505248762559 -0.45499397359315119 0 -0.49999999999999439 -0.45854733414279841 0 -0.47467505248762559 -0.45499397359315119 0 -0.49999999999999439 -0.45854733414279841 0 -0.5 -0.43825246372684862 0 -0.48643549634406819 -0.40943322291718082 0 -0.47509574517783992 -0.42810502851887372 0 -0.47199362695718039 -0.39660445064681288 0 -0.5 -0.43825246372684862 0 -0.5 -0.41795759331089888 0 -0.47509574517783992 -0.42810502851887372 0 -0.5 -0.41795759331089888 0 -0.48643549634406819 -0.40943322291718082 0 -0.47509574517783992 -0.42810502851887372 0 -0.5 -0.41795759331089888 0 -0.48643549634406819 -0.40943322291718082 0 -0.49999999999999822 -0.39766272289494919 0 -0.49999999999999878 -0.38412199820164061 0 -0.48296735088199949 -0.38227215457928648 0 -0.48986959253786022 -0.36321827667384149 0 -0.49999999999999878 -0.38412199820164061 0 -0.49999999999999822 -0.39766272289494919 0 -0.48296735088199949 -0.38227215457928648 0 -0.48643549634406819 -0.40943322291718082 0 -0.49999999999999822 -0.39766272289494919 0 -0.47199362695718039 -0.39660445064681288 0 -0.49999999999999822 -0.39766272289494919 0 -0.47199362695718039 -0.39660445064681288 0 -0.49999999999999822 -0.39766272289494919 0 -0.47199362695718039 -0.39660445064681288 0 -0.48296735088199949 -0.38227215457928648 0 -0.47199362695718039 -0.39660445064681288 0 -0.48296735088199949 -0.38227215457928648 0 -0.46321688699365088 -0.38112005446674863 0 -0.48296735088199949 -0.38227215457928648 0 -0.46321688699365088 -0.38112005446674863 0 -0.47352554036796501 -0.36993574898521719 0 -0.47199362695718039 -0.39660445064681288 0 -0.46321688699365088 -0.38112005446674863 0 -0.44398725391436261 -0.39554617839867662 0 -0.47199362695718039 -0.39660445064681288 0 -0.44398725391436261 -0.39554617839867662 0 -0.47199362695718039 -0.39660445064681288 0 -0.44398725391436261 -0.39554617839867662 0 -0.45053224158810362 -0.42642549264287632 0 -0.46321688699365088 -0.38112005446674863 0 -0.44398725391436261 -0.39554617839867662 0 -0.44356625432934749 -0.37774813027686421 0 -0.47509574517783992 -0.42810502851887372 0 -0.47199362695718039 -0.39660445064681288 0 -0.45053224158810362 -0.42642549264287632 0 -0.44935010497525713 -0.45144061304350308 0 -0.47509574517783992 -0.42810502851887372 0 -0.45053224158810362 -0.42642549264287632 0 -0.44398725391436261 -0.39554617839867662 0 -0.45053224158810362 -0.42642549264287632 0 -0.4284178561414913 -0.41991993691217783 0 -0.45053224158810362 -0.42642549264287632 0 -0.4284178561414913 -0.41991993691217783 0 -0.42402515746288849 -0.44788725249385519 0 -0.4284178561414913 -0.41991993691217783 0 -0.41598088087154472 -0.3944879061505403 0 -0.40139991859235491 -0.41102035711232282 0 -0.4284178561414913 -0.41991993691217783 0 -0.41015707937411339 -0.42907007189623869 0 -0.40139991859235491 -0.41102035711232282 0 -0.4284178561414913 -0.41991993691217783 0 -0.41015707937411339 -0.42907007189623869 0 -0.42402515746288849 -0.44788725249385519 0 -0.44398725391436261 -0.39554617839867662 0 -0.44356625432934749 -0.37774813027686421 0 -0.42317389780165121 -0.3800376726098959 0 -0.44398725391436261 -0.39554617839867662 0 -0.42317389780165121 -0.3800376726098959 0 -0.41598088087154472 -0.3944879061505403 0 -0.44398725391436261 -0.39554617839867662 0 -0.41598088087154472 -0.3944879061505403 0 -0.44398725391436261 -0.39554617839867662 0 -0.4284178561414913 -0.41991993691217783 0 -0.41598088087154472 -0.3944879061505403 0 -0.42317389780165121 -0.3800376726098959 0 -0.40761490702247438 -0.38390181607978657 0 -0.40649974809747741 -0.36772259419188569 0 -0.42317389780165121 -0.3800376726098959 0 -0.41598088087154472 -0.3944879061505403 0 -0.40761490702247438 -0.38390181607978657 0 -0.42317389780165121 -0.3800376726098959 0 -0.40761490702247438 -0.38390181607978657 0 -0.41598088087154472 -0.3944879061505403 0 -0.40761490702247438 -0.38390181607978657 0 -0.39205591624329778 -0.3877659595496783 0 -0.39205591624329778 -0.3877659595496783 0 -0.40649974809747741 -0.36772259419188569 0 -0.39102284214959621 -0.37422759502820119 0 -0.39205591624329778 -0.3877659595496783 0 -0.40649974809747741 -0.36772259419188569 0 -0.40761490702247438 -0.38390181607978657 0 -0.39205591624329778 -0.3877659595496783 0 -0.40649974809747741 -0.36772259419188569 0 -0.40761490702247438 -0.38390181607978657 0 -0.39205591624329778 -0.3877659595496783 0 -0.41598088087154472 -0.3944879061505403 0 -0.39205591624329778 -0.3877659595496783 0 -0.38797450782872689 -0.39342963390240532 0 -0.41598088087154472 -0.3944879061505403 0 -0.38797450782872689 -0.39342963390240532 0 -0.40139991859235491 -0.41102035711232282 0 -0.41598088087154472 -0.3944879061505403 0 -0.38797450782872689 -0.39342963390240532 0 -0.37968344780272312 -0.40493494267242691 0 -0.38797450782872689 -0.39342963390240532 0 -0.40139991859235491 -0.41102035711232282 0 -0.37968344780272312 -0.40493494267242691 0 -0.38797450782872689 -0.39342963390240532 0 -0.37058365568509732 -0.39309868945467707 0 -0.39205591624329778 -0.3877659595496783 0 -0.38797450782872689 -0.39342963390240532 0 -0.37058365568509732 -0.39309868945467707 0 -0.38797450782872689 -0.39342963390240532 0 -0.37058365568509732 -0.39309868945467707 0 -0.37968344780272312 -0.40493494267242691 0 -0.38797450782872689 -0.39342963390240532 0 -0.38077490902030608 -0.38580170660475638 0 -0.38014804237086358 -0.37436813971595567 0 -0.37058365568509732 -0.39309868945467707 0 -0.38014804237086358 -0.37436813971595567 0 -0.37058365568509732 -0.39309868945467707 0 -0.39205591624329778 -0.3877659595496783 0 -0.37058365568509732 -0.39309868945467707 0 -0.39205591624329778 -0.3877659595496783 0 -0.38077490902030608 -0.38580170660475638 0 -0.37058365568509732 -0.39309868945467707 0 -0.39205591624329778 -0.3877659595496783 0 -0.38797450782872689 -0.39342963390240532 0 -0.39205591624329778 -0.3877659595496783 0 -0.38077490902030608 -0.38580170660475638 0 -0.39102284214959621 -0.37422759502820119 0 -0.38077490902030608 -0.38580170660475638 0 -0.39102284214959621 -0.37422759502820119 0 -0.38014804237086358 -0.37436813971595567 0 -0.41015707937411339 -0.42907007189623869 0 -0.38723460888519051 -0.42419360495579672 0 -0.39870020995051991 -0.44433389194420719 0 -0.41015707937411339 -0.42907007189623869 0 -0.40139991859235491 -0.41102035711232282 0 -0.38723460888519051 -0.42419360495579672 0 -0.37968344780272312 -0.40493494267242691 0 -0.38723460888519051 -0.42419360495579672 0 -0.35931698530543932 -0.41516293014979228 0 -0.37968344780272312 -0.40493494267242691 0 -0.40139991859235491 -0.41102035711232282 0 -0.38723460888519051 -0.42419360495579672 0 -0.38723460888519051 -0.42419360495579672 0 -0.39870020995051991 -0.44433389194420719 0 -0.37337526243815139 -0.44078053139455919 0 -0.37971676225351608 -0.4529634334142939 0 -0.39870020995051991 -0.44433389194420719 0 -0.37337526243815139 -0.44078053139455919 0 -0.39870020995051991 -0.44433389194420719 0 -0.37337526243815139 -0.44078053139455919 0 -0.37971676225351608 -0.4529634334142939 0 -0.39870020995051991 -0.44433389194420719 0 -0.38804485053532151 -0.46073022905112931 0 -0.39870020995051991 -0.44433389194420719 0 -0.38
[...]
<PointData Scalars="" Vectors="displacement," Tensors="">
<DataArray type="Float64" Name="displacement" NumberOfComponents="3" format="ascii">
0.0049998268132120079 3.596044276777141e-08 0 0.004718013357548817 1.0258283154766784e-05 0 0.004336107434143764 -2.9137068152386655e-06 0 0.0049998268132120079 3.596044276777141e-08 0 0.0039079018250468417 -4.008830439540335e-08 0 0.004336107434143764 -2.9137068152386655e-06 0 0.0049998268132120079 3.596044276777141e-08 0 0.004718013357548817 1.0258283154766784e-05 0 0.004795159342975067 1.1851545480819829e-05 0 0.0049998268132120079 3.596044276777141e-08 0 0.004795159342975067 1.1851545480819829e-05 0 0.0049996262584199366 -5.2036752827786776e-09 0 0.0044582840011639672 -7.4736350305377034e-06 0 0.004718013357548817 1.0258283154766784e-05 0 0.004336107434143764 -2.9137068152386655e-06 0 0.0044582840011639672 -7.4736350305377034e-06 0 0.0045730965109791232 4.5622762983715312e-06 0 0.004718013357548817 1.0258283154766784e-05 0 0.0049834410551823343 1.9718715217991158e-05 0 0.0049761614056233099 1.9223593545931753e-05 0 0.0049691045117078404 3.2103759495723068e-05 0 0.0041169321198378708 6.3986490426615815e-05 0 0.0042022798936608499 5.9269592736216505e-05 0 0.0040694115231093781 0.0001445015110440997 0 0.0042265559400900829 4.2331083586538825e-05 0 0.0037875530656042906 0.00010064048554085035 0 0.0042022798936608499 5.9269592736216505e-05 0 0.0040842663945166689 0.00019700497836494741 0 0.0040694115231093781 0.0001445015110440997 0 0.0041169321198378708 6.3986490426615815e-05 0 0.0042898371540877672 1.7853908226128419e-05 0 0.0044132108156523294 -2.2298995578616698e-05 0 0.0042022798936608499 5.9269592736216505e-05 0 0.0042898371540877672 1.7853908226128419e-05 0 0.0044265332818240449 -2.2095923788355122e-05 0 0.0046295272783897883 -1.1605838379872655e-06 0 0.004718013357548817 1.0258283154766784e-05 0 0.004795159342975067 1.1851545480819829e-05 0 0.0042265559400900829 4.2331083586538825e-05 0 0.0046475946662860026 -2.111161200013755e-05 0 0.0042265559400900829 4.2331083586538825e-05 0 0.0046558661429566724 -1.1052802858626424e-05 0 0.0045502198102343001 5.1384043362334686e-05 0 0.0047134997467027148 2.2901817046904956e-05 0 0.0041169321198378708 6.3986490426615815e-05 0 0.0042022798936608499 5.9269592736216505e-05 0 0.0042898371540877672 1.7853908226128419e-05 0 0.0049834410551823343 1.9718715217991158e-05 0 0.0049944849845085532 7.8072382282725546e-06 0 0.0049885219376365371 7.666280997340953e-06 0 0.0049944849845085532 7.8072382282725546e-06 0 0.0049999896594016486 9.3426461786574182e-10 0 0.0049885219376365371 7.666280997340953e-06 0 0.0044265332818240449 -2.2095923788355122e-05 0 0.0044132108156523294 -2.2298995578616698e-05 0 0.0049998919206709303 -1.0532583442675984e-08 0 0.0042898371540877672 1.7853908226128419e-05 0 0.0044265332818240449 -2.2095923788355122e-05 0 0.0044132108156523294 -2.2298995578616698e-05 0 0.0046475946662860026 -2.111161200013755e-05 0 0.0049998220165399032 -6.3100953628900197e-08 0 0.0044265332818240449 -2.2095923788355122e-05 0 0.0049998919206709303 -1.0532583442675984e-08 0 0.0049998835505236589 2.0835060856170827e-09 0 0.0047134997467027148 2.2901817046904956e-05 0 0.0049998648867522026 9.0312713592386124e-08 0 0.0049944849845085532 7.8072382282725546e-06 0 0.0050000047073678212 3.5512705528859319e-09 0 0.0049999896594016486 9.3426461786574182e-10 0 0.0049909951442497092 3.7848453726565759e-06 0 0.0049885219376365371 7.666280997340953e-06 0 0.0049779145619571422 9.079876905394988e-06 0 0.0049999896594016486 9.3426461786574182e-10 0 0.0049999905189783258 2.294333387611032e-09 0 0.0049885219376365371 7.666280997340953e-06 0 0.0049999905189783258 2.294333387611032e-09 0 0.0049909951442497092 3.7848453726565759e-06 0 0.0049885219376365371 7.666280997340953e-06 0 0.0049999905189783258 2.294333387611032e-09 0 0.0049909951442497092 3.7848453726565759e-06 0 0.0049999764596720614 1.3516995806486161e-09 0 0.0049999753486139878 8.8827643800971248e-09 0 0.0049987135993388087 1.0343291298966289e-05 0 0.004985619260864437 7.8930809229800213e-06 0 0.0049999753486139878 8.8827643800971248e-09 0 0.0050000296829610727 -4.6538902870681797e-09 0 0.0049987135993388087 1.0343291298966289e-05 0 0.0049909951442497092 3.7848453726565759e-06 0 0.0049999764596720614 1.3516995806486161e-09 0 0.0049779145619571422 9.079876905394988e-06 0 0.0049999977353170711 7.355758046965069e-09 0 0.0049943039376535506 1.5561260724911247e-05 0 0.0050000296829610727 -4.6538902870681797e-09 0 0.005010465320573418 1.8207621523257225e-05 0 0.0049987135993388087 1.0343291298966289e-05 0 0.005010465320573418 1.8207621523257225e-05 0 0.0049987135993388087 1.0343291298966289e-05 0 0.0049988189006450303 2.6677417336254224e-05 0 0.0049987135993388087 1.0343291298966289e-05 0 0.0049988189006450303 2.6677417336254224e-05 0 0.0049900031389799584 1.7415128458395636e-05 0 0.005010465320573418 1.8207621523257225e-05 0 0.0049988189006450303 2.6677417336254224e-05 0 0.0050149155323086312 4.8083253487291718e-05 0 0.0049943039376535506 1.5561260724911247e-05 0 0.0049877294221817069 3.5143721932789461e-05 0 0.0049779145619571422 9.079876905394988e-06 0 0.0049625673417436813 2.2576656939392352e-05 0 0.0049761614056233099 1.9223593545931753e-05 0 0.0049988189006450303 2.6677417336254224e-05 0 0.0050149155323086312 4.8083253487291718e-05 0 0.0049964437279721987 4.8689190128331211e-05 0 0.0049885219376365371 7.666280997340953e-06 0 0.0049779145619571422 9.079876905394988e-06 0 0.0049761614056233099 1.9223593545931753e-05 0 0.0049834410551823343 1.9718715217991158e-05 0 0.0049885219376365371 7.666280997340953e-06 0 0.0049761614056233099 1.9223593545931753e-05 0 0.0049625673417436813 2.2576656939392352e-05 0 0.0049761614056233099 1.9223593545931753e-05 0 0.0049636954423001693 2.9575781381654828e-05 0 0.0049761614056233099 1.9223593545931753e-05 0 0.0049636954423001693 2.9575781381654828e-05 0 0.0049691045117078404 3.2103759495723068e-05 0 0.0049636954423001693 2.9575781381654828e-05 0 0.0049518906183602003 3.4269118938125055e-05 0 0.0049506671087901017 3.8206643465380046e-05 0 0.0049636954423001693 2.9575781381654828e-05 0 0.004957164761615512 3.6277854871326558e-05 0 0.0049506671087901017 3.8206643465380046e-05 0 0.0049636954423001693 2.9575781381654828e-05 0 0.004957164761615512 3.6277854871326558e-05 0 0.0049691045117078404 3.2103759495723068e-05 0 0.0050149155323086312 4.8083253487291718e-05 0 0.0049964437279721987 4.8689190128331211e-05 0 0.0049985144748887905 7.3857564117519063e-05 0 0.0050149155323086312 4.8083253487291718e-05 0 0.0049985144748887905 7.3857564117519063e-05 0 0.0050123032708073358 8.0487464789272828e-05 0 0.0049877294221817069 3.5143721932789461e-05 0 0.0049889058918691212 6.0779936735273742e-05 0 0.0049625673417436813 2.2576656939392352e-05 0 0.0049636954423001693 2.9575781381654828e-05 0 0.0049518906183602003 3.4269118938125055e-05 0 0.0049985144748887905 7.3857564117519063e-05 0 0.0050016363423732906 9.2631784991214813e-05 0 0.0049839118448267118 9.4624411216810665e-05 0 0.0049985144748887905 7.3857564117519063e-05 0 0.0050123032708073358 8.0487464789272828e-05 0 0.0050029753306954023 8.6866773071515418e-05 0 0.0049982708844623297 7.3702287950816288e-05 0 0.0050012422815681173 9.6732802653485419e-05 0 0.0050123032708073358 8.0487464789272828e-05 0 0.0050029753306954023 8.6866773071515418e-05 0 0.0050048461670323917 9.7949849045955403e-05 0 0.0047986172860804066 6.6752772850701256e-05 0 0.0048041258866232126 6.6612508612924433e-05 0 0.0048019777221319357 6.5895907035224522e-05 0 0.0048990921493241432 8.4187698230102831e-05 0 0.0048942685171468854 8.1332512324073424e-05 0 0.0050016363423732906 9.2631784991214813e-05 0 0.0050047792491720953 0.00010849283603466137 0 0.0049839118448267118 9.4624411216810665e-05 0 0.0050012422815681173 9.6732802653485419e-05 0 0.0048990921493241432 8.4187698230102831e-05 0 0.0050123032708073358 8.0487464789272828e-05 0 0.0050048461670323917 9.7949849045955403e-05 0 0.0050085827243159268 0.00010078753956316537 0 0.0049518906183602003 3.4269118938125055e-05 0 0.0049458040944913191 3.9680349909781e-05 0 0.0049506671087901017 3.8206643465380046e-05 0 0.0049889058918691212 6.0779936735273742e-05 0 0.0049261904751251194 5.4650299650262475e-05 0 0.0049428795586358206 3.9865645234807714e-05 0 0.0049458040944913191 3.9680349909781e-05 0 0.0049506671087901017 3.8206643465380046e-05 0 0.0049428795586358206 3.9865645234807714e-05 0 0.0049390561343871601 3.7618185962870182e-05 0 0.0049386553932060174 4.1220123161383004e-05 0 0.0047516928941391682 0.00011313895911656789 0 0.0047504714948497359 0.00011291034497768626 0 0.0047476511449188507 0.00011197871774951849 0 0.0049261904751251194 5.4650299650262475e-05 0 0.0045334743898191188 0.00015421443189646449 0 0.0049420973102875364 4.2821838247099888e-05 0 0.0049261904751251194 5.4650299650262475e-05 0 0.0047978173669963016 6.3751397602702383e-05 0 0.0048014802054091917 6.3265898854687755e-05 0 0.0047941766599806715 6.1154228316486828e-05 0 0.0047388353020213951 5.1203111338894604e-05 0 0.0045334743898191188 0.00015421443189646449 0 0.0048990921493241432 8.4187698230102831e-05 0 0.0045334743898191188 0.00015421443189646449 0 0.0047986172860804066 6.6752772850701256e-05 0 0.0047978173669963016 6.3751397602702383e-05 0 0.0047941766599806715 6.1154228316486828e-05 0 0.0048990921493241432 8.4187698230102831e-05 0 0.0049261904751251194 5.4650299650262475e-05 0 0.0047986172860804066 6.6752772850701256e-05 0 0.0047978173669963016 6.3751397602702383e-05 0 0.0048019777221319357 6.5895907035224522e-05 0 0.0047978173669963016 6.3751397602702383e-05 0 0.0048019777221319357 6.5895907035224522e-05 0 0.0048014802054091917 6.3265898854687755e-05 0 0.004957164761615512 3.6277854871326558e-05 0 0.0049458642456575658 4.0604596693771087e-05 0 0.0049528013903055055 3.995094838079275e-05 0 0.004957164761615512 3.6277854871326558e-05 0 0.0049506671087901017 3.8206643465380046e-05 0 0.0049458642456575658 4.0604596693771087e-05 0 0.0049428795586358206 3.9865645234807714e-05 0 0.0049458642456575658 4.0604596693771087e-05 0 0.0049368817238402002 3.8867954098371996e-05 0 0.0049428795586358206 3.9865645234807714e-05 0 0.0049506671087901017 3.8206643465380046e-05 0 0.0049458642456575658 4.0604596693771087e-05 0 0.0049458642456575658 4.0604596693771087e-05 0 0.0049528013903055055 3.995094838079275e-05 0 0.0049370614871841511 4.117986453927719e-05 0 0.0036026338173883116 0.00021797779266112476 0 0.0037109937298411152 0.00027109170218140931 0 0.0036219693535599665 0.00019696019304103093 0 0.0043282882463468913 0.00016033671190183256 0 0.0043305215905308113 0.00012153109574320147 0 0.0036026338173883116 0.00021797779266112476 0 0.0037109937298411152 0.00027109170218140931 0 0.0036190324282313257 0.00025468169092981286 0 0.0037109937298411152 0.00027109170218140931 0 0.0036190324282313257 0.00025468169092981286 0 0.0037910417720898423 0.00026256025191183721 0 0.0034896483665557108 3.2694817142439572e-05 0 0.0037595591314555313 0.00020605587597125033 0 0.0036190324282313257 0.00025468169092981286 0 0.0035592534487800327 0.00022084664025186446 0 0.0036701970631683959 0.00036018806611087654 0 0.0036481674382189172 0.00029049949966489333 0 0.0037595591314555313 0.00020605587597125033 0 0.0034681351760719589 -0.0001192221485735742 0 0.0034662319041947401 -8.4975557227030745e-05 0 0.0035066174412632539 -4.9959154701756099e-05 0 0.0036026338173883116 0.00021797779266112476 0 0.0036190324282313257 0.00025468169092981286 0 0.0035592534487800327 0.00022084664025186446 0 0.0036026338173883116 0.00021797779266112476 0 0.0035592534487800327 0.00022084664025186446 0 0.0035315332043697363 0.00016062050928418944 0 0.0039577060888431412 -0.0001990848004210397 0 0.0041247949263528583 -0.00017327957553674693 0 0.003812795567807259 -0.00021314611350069522 0 0.0034681351760719589 -0.0001192221485735742 0 0.0034662319041947401 -8.4975557227030745e-05 0 0.0034411233081843313 -0.00013573144593343565 0 0.0037974343421493628 -0.00011725398688618589 0 0.0036217064725096075 -0.00015378913242569315 0 0.0039577060888431412 -0.0001990848004210397 0 0.0038711507083998582 -0.000202256397467192 0 0.003812795567807259 -0.00021314611350069522 0 0.0038599812263934103 -4.6587298117637639e-07 0 0.0039079018250468417 -4.008830439540335e-08 0 0.0037464459676365162 -3.0404441048181735e-07 0 0.0037498547506723302 -0.00013788412009549763 0 0.0036097505804462003 -5.8701646583247785e-05 0 0.0039577060888431412 -0.0001990848004210397 0 0.0039635695766022799 -0.00020191381245733119 0 0.0038711507083998582 -0.000202256397467192 0 0.0039577060888431412 -0.0001990848004210397 0 0.0039635695766022799 -0.00020191381245733119 0 0.0040428975987312236 -0.00017687582360759126 0 0.0037498547506723302 -0.00013788412009549763 0 0.0040695241342105556 -5.8428480824553082e-05 0 0.0039635695766022799 -0.00020191381245733119 0 0.0040428975987312236 -0.00017687582360759126 0 0.0040742424791644482 -0.00014123304965367047 0 0.0038599812263934103 -4.6587298117637639e-07 0 0.0039079018250468417 -4.008830439540335e-08 0 0.0040402168760640617 -1.1578958713197108e-06 0 0.0040742424791644482 -0.00014123304965367047 0 0.00411331441807012 -0.0001478004110272122 0 0.0041931178830381406 -0.00011170985792558257 0 0.0040428975987312236 -0.00017687582360759126 0 0.0040742424791644482 -0.00014123304965367047 0 0.00411331441807012 -0.0001478004110272122 0 0.0041247949263528583 -0.00017327957553674693 0 0.0042456205869582583 -9.7046541701982511e-05 0 0.0041931178830381406 -0.00011170985792558257 0 0.0040428975987312236 -0.00017687582360759126 0 0.0041247949263528583 -0.00017327957553674693 0 0.00411331441807012 -0.0001478004110272122 0 0.0039577060888431412 -0.0001990848004210397 0 0.0040428975987312236 -0.00017687582360759126 0 0.0041247949263528583 -0.00017327957553674693 0 0.0041247949263528583 -0.00017327957553674693 0 0.00411331441807012 -0.0001478004110272122 0 0.0041931178830381406 -0.00011170985792558257 0 0.0039079018250468417 -4.008830439540335e-08 0 0.0040402168760640617 -1.1578958713197108e-06 0 0.004336107434143764 -2.9137068152386655e-06 0 0.0041247949263528583 -0.00017327957553674693 0 0.0042456205869582583 -9.7046541701982511e-05 0 0.0043678619507575081 -4.8726957648674174e-05 0 0.0037974343421493628 -0.00011725398688618589 0 0.0039134744468750484 -1.7346516359481648e-05 0 0.0042456205869582583 -9.7046541701982511e-05 0 0.0041931178830381406 -0.00011170985792558257 0 0.0042961769182938573 -5.3630097636503659e-05 0 0.0042456205869582583 -9.7046541701982511e-05 0 0.0042961769182938573 -5.3630097636503659e-05 0 0.0043678619507575081 -4.8726957648674174e-05 0 0.0040742424791644482 -0.00014123304965367047 0 0.0042961769182938573 -5.3630097636503659e-05 0 0.004336107434143764 -2.9137068152386655e-06 0 0.0040742424791644482 -0.00014123304965367047 0 0.0041931178830381406 -0.00011170985792558257 0 0.0042961769182938573 -5.3630097636503659e-05 0 0.0040695241342105556 -5.8428480824553082e-05 0 0.0042913340561666581 -6.1289205420048307e-06 0 0.0044582840011639672 -7.4736350305377034e-06 0 0.0045730965109791232 4.5622762983715312e-06 0 0.0043678619507575081 -4.8726957648674174e-05 0 0.0044582840011639672 -7.4736350305377034e-06 0 0.0042961769182938573 -5.3630097636503659e-05 0 0.0043678619507575081 -4.8726957648674174e-05 0 0.0044582840011639672 -7.4736350305377034e-06 0 0.0042961769182938573 -5.3630097636503659e-05 0 0.004336107434143764 -2.9137068152386655e-06 0 0.0040842663945166689 0.00019700497836494741 0 0.0040694115231093781 0.0001445015110440997 0 0.0040480369580231735 0.00033132515788307526 0 0.0040694115231093781 0.0001445015110440997 0 0.0038834190759819212 0.00020857413541615097 0 0.0037910417720898423 0.00026256025191183721 0 0.0042265559400900829 4.2331083586538825e-05 0 0.0039134744468750484 -1.7346516359481648e-05 0 0.0035424896933093477 8.3857756011231177e-05 0 0.003501381797657817 -8.7153476318019031e-07 0 0.0035227222208201684 1.7459383330702535e-05 0 0.0045502198102343001 5.1384043362334686e-05 0 0.0044275183387968535 0.00012822347917504923 0 0.0041169321198378708 6.3986490426615815e-05 0 0.0040694115231093781 0.0001445015110440997 0 0.0038834190759819212 0.00020857413541615097 0 0.0037109937298411152 0.00027109170218140931 0 0.0038834190759819212 0.00020857413541615097 0 0.0037910417720898423 0.00026256025191183721 0 0.004957164761615512 3.6277854871326558e-05 0 0.0049528013903055055 3.995094838079275e-05 0 0.0049691045117078404 3.2103759495723068e-05 0 0.0043282882463468913 0.00016033671190183256 0 0.0044275183387968535 0.00012822347917504923 0 0.0037875530656042906 0.00010064048554085035 0 0.0037595591314555313 0.00020605587597125033 0 0.0040903474693360113 0.00017917365132026825 0 0.0037595591314555313 0.00020605587597125033 0 0.0034662319041947401 -8.4975557227030745e-05 0 0.003501381797657817 -8.7153476318019031e-07 0 0.0035066174412632539 -4.9959154701756099e-05 0 0.003501381797657817 -8.7153476318019031e-07 0 0.0035227222208201684 1.7459383330702535e-05 0 0.0035066174412632539 -4.9959154701756099e-05 0 0.0049843683961355457 -4.5769991322947778e-06 0 0.0049743082783262971 9.2977045289961635e-06 0 0.0049740967300407387 -6.2937003755128977e-06 0 0.0049299455377422247 5.9331963173232196e-05 0 0.0049336297525959076 5.7876660945705108e-05 0 0.0049278093691459317 5.5740214814653795e-05 0 0.0049576258631928646 2.6514576514420503e-05 0 0.0049654040204053533 1.8588833938827345e-05 0 0.0049299455377422247 5.9331963173232196e-05 0 0.0049350478947452559 3.943839245756691e-05 0 0.0049336297525959076 5.7876660945705108e-05 0 0.0049843683961355457 -4.5769991322947778e-06 0 0.0049855159734177625 -7.4032446778926371e-06 0 0.0049740967300407387 -6.2937003755128977e-06 0 0.0049843683961355457 -4.5769991322947778e-06 0 0.0049923404342301341 -5.0837975935353388e-06 0 0.0049855159734177625 -7.4032446778926371e-06 0 0.0049999863457979646 -5.5705848850193529e-09 0 0.0049923404342301341 -5.0837975935353388e-06 0 0.0049855159734177625 -7.4032446778926371e-06 0 0.0049654040204053533 1.8588833938827345e-05 0 0.0049999844796466053 8.5779342677556391e-09 0 0.0049999863457979646 -5.5705848850193529e-09 0 0.0049923404342301341 -5.0837975935353388e-06 0 0.0049999941391154811 5.3420425881634308e-12 0 0.0049473103940777434 4.5704140967389374e-05 0 0.0049797504152928945 1.6153793210742751e-05 0 0.0049344141087173362 6.0046607393933626e-05 0 0.0049350478947452559 3.943839245756691e-05 0 0.0049473103940777434 4.5704140967389374e-05 0 0.0049797504152928945 1.6153793210742751e-05 0 0.0049797504152928945 1.6153793210742751e-05 0 0.0049998938936352301 6.172860193230522e-09 0 0.0049999882707039353 1.2389691380736037e-08 0 0.0049350478947452559 3.943839245756691e-05 0 0.0049797504152928945 1.6153793210742751e-05 0 0.0049998938936352301 6.172860193230522e-09 0 0.0049797504152928945 1.6153793210742751e-05 0 0.0049999882707039353 1.2389691380736037e-08 0 0.0049729638231754466 1.6690986158503905e-05 0 0.0049797504152928945 1.6153793210742751e-05 0 0.0049729638231754466 1.6690986158503905e-05 0 0.0049467514387633981 2.9979046134495105e-05 0 0.004972127695743722 1.8537629715261973e-05 0 0.0049415560124725384 4.3765693358982207e-05 0 0.0049473103940777434 4.5704140967389374e-05 0 0.0049344141087173362 6.0046607393933626e-05 0 0.0049336297525959076 5.7876660945705108e-05 0 0.0049350478947452559 3.943839245756691e-05 0 0.0049473103940777434 4.5704140967389374e-05 0 0.0049336297525959076 5.7876660945705108e-05 0 0.0049336297525959076 5.7876660945705108e-05 0 0.0049141677392313459 6.1023389985882111e-05 0 0.0049278093691459317 5.5740214814653795e-05 0 0.0049344141087173362 6.0046607393933626e-05 0 0.0049336297525959076 5.7876660945705108e-05 0 0.0049141677392313459 6.1023389985882111e-05 0 0.0049467514387633981 2.9979046134495105e-05 0 0.0049299004067774347 4.5018034043815139e-05 0 0.0049092320962809037 6.0810386427372898e-05 0 0.0049415560124725384 4.3765693358982207e-05 0 0.0048960932303985689 6.3497080810968423e-05 0 0.0049344141087173362 6.0046607393933626e-05