<?xml version="1.0"?>
<VTKFile type="UnstructuredGrid" version="0.1" byte_order="LittleEndian">
<UnstructuredGrid>
<Piece NumberOfPoints="30578" NumberOfCells="10723">
<Points>
<DataArray type="Float64" NumberOfComponents="3" format="ascii">
-0.5 -0.5 0 -0.47439485679867832 -0.48072581506667478 0 -0.5 -0.44765434486020428 0 -0.5 -0.5 0 -0.47439485679867832 -0.48072581506667478 0 -0.43702443379937372 -0.49999999999999922 0 -0.47439485679867832 -0.48072581506667478 0 -0.45530669598391149 -0.47718009944797551 0 -0.43702443379937372 -0.49999999999999922 0 -0.47439485679867832 -0.48072581506667478 0 -0.45530669598391149 -0.47718009944797551 0 -0.4597353119515426 -0.45943449384344293 0 -0.45530669598391149 -0.47718009944797551 0 -0.44381084376742141 -0.47114793899167112 0 -0.4597353119515426 -0.45943449384344293 0 -0.45530669598391149 -0.47718009944797551 0 -0.44381084376742141 -0.47114793899167112 0 -0.43702443379937372 -0.49999999999999922 0 -0.44381084376742141 -0.47114793899167112 0 -0.43702443379937372 -0.49999999999999922 0 -0.45059725373546922 -0.44229587798334291 0 -0.4339166039271336 -0.43498117536117131 0 -0.43309128002320102 -0.45351235807576151 0 -0.44381084376742141 -0.47114793899167112 0 -0.45059725373546922 -0.44229587798334291 0 -0.4597353119515426 -0.45943449384344293 0 -0.44381084376742141 -0.47114793899167112 0 -0.45059725373546922 -0.44229587798334291 0 -0.43309128002320102 -0.45351235807576151 0 -0.44381084376742141 -0.47114793899167112 0 -0.45059725373546922 -0.44229587798334291 0 -0.4597353119515426 -0.45943449384344293 0 -0.47505511338101108 -0.44868394208069429 0 -0.46517432262153441 -0.43649963461163338 0 -0.45059725373546922 -0.44229587798334291 0 -0.4597353119515426 -0.45943449384344293 0 -0.46517432262153441 -0.43649963461163338 0 -0.47505511338101108 -0.44868394208069429 0 -0.47820614292347569 -0.42776699273468149 0 -0.46517432262153441 -0.43649963461163338 0 -0.47505511338101108 -0.44868394208069429 0 -0.47820614292347569 -0.42776699273468149 0 -0.47439485679867832 -0.48072581506667478 0 -0.47505511338101108 -0.44868394208069429 0 -0.5 -0.44765434486020428 0 -0.47439485679867832 -0.48072581506667478 0 -0.4597353119515426 -0.45943449384344293 0 -0.47505511338101108 -0.44868394208069429 0 -0.47505511338101108 -0.44868394208069429 0 -0.5 -0.44765434486020428 0 -0.47820614292347569 -0.42776699273468149 0 -0.5 -0.44765434486020428 0 -0.49656450065014057 -0.42151023988558672 0 -0.47820614292347569 -0.42776699273468149 0 -0.5 -0.44765434486020428 0 -0.49656450065014057 -0.42151023988558672 0 -0.50000000000000089 -0.37904661106745707 0 -0.49656450065014057 -0.42151023988558672 0 -0.48135717246594062 -0.40685004338866881 0 -0.47820614292347569 -0.42776699273468149 0 -0.49656450065014057 -0.42151023988558672 0 -0.48135717246594062 -0.40685004338866881 0 -0.48135717246594062 -0.40685004338866881 0 -0.47820614292347569 -0.42776699273468149 0 -0.48135717246594062 -0.40685004338866881 0 -0.47820614292347569 -0.42776699273468149 0 -0.45738366370351707 -0.41344381697501481 0 -0.49656450065014057 -0.42151023988558672 0 -0.48135717246594062 -0.40685004338866881 0 -0.50000000000000089 -0.37904661106745707 0 -0.50000000000000089 -0.37904661106745707 0 -0.48466894952205442 -0.38486603086372417 0 -0.48717439863114548 -0.36823452950912272 0 -0.48135717246594062 -0.40685004338866881 0 -0.50000000000000089 -0.37904661106745707 0 -0.48466894952205442 -0.38486603086372417 0 -0.48466894952205442 -0.38486603086372417 0 -0.48717439863114548 -0.36823452950912272 0 -0.50000000000000089 -0.37904661106745707 0 -0.48466894952205442 -0.38486603086372417 0 -0.48135717246594062 -0.40685004338866881 0 -0.48466894952205442 -0.38486603086372417 0 -0.46593083509403682 -0.39197871725165279 0 -0.48135717246594062 -0.40685004338866881 0 -0.48466894952205442 -0.38486603086372417 0 -0.48135717246594062 -0.40685004338866881 0 -0.46593083509403682 -0.39197871725165279 0 -0.48466894952205442 -0.38486603086372417 0 -0.47195833844942919 -0.37959069520904498 0 -0.46593083509403682 -0.39197871725165279 0 -0.48466894952205442 -0.38486603086372417 0 -0.46593083509403682 -0.39197871725165279 0 -0.48466894952205442 -0.38486603086372417 0 -0.47195833844942919 -0.37959069520904498 0 -0.48717439863114548 -0.36823452950912272 0 -0.46593083509403682 -0.39197871725165279 0 -0.44890944387521442 -0.39029302340116001 0 -0.45132291774153199 -0.37789636588759368 0 -0.47195833844942919 -0.37959069520904498 0 -0.46593083509403682 -0.39197871725165279 0 -0.45132291774153199 -0.37789636588759368 0 -0.46593083509403682 -0.39197871725165279 0 -0.45132291774153199 -0.37789636588759368 0 -0.48135717246594062 -0.40685004338866881 0 -0.46593083509403682 -0.39197871725165279 0 -0.45738366370351707 -0.41344381697501481 0 -0.46593083509403682 -0.39197871725165279 0 -0.44275815558040038 -0.40077469311046232 0 -0.45738366370351707 -0.41344381697501481 0 -0.46593083509403682 -0.39197871725165279 0 -0.44275815558040038 -0.40077469311046232 0 -0.46593083509403682 -0.39197871725165279 0 -0.44275815558040038 -0.40077469311046232 0 -0.44890944387521442 -0.39029302340116001 0 -0.44275815558040038 -0.40077469311046232 0 -0.44064580868350911 -0.39542861624611658 0 -0.44890944387521442 -0.39029302340116001 0 -0.44225344557501872 -0.38376649822575309 0 -0.45132291774153199 -0.37789636588759368 0 -0.43671500038902772 -0.36381401452353412 0 -0.44890944387521442 -0.39029302340116001 0 -0.44225344557501872 -0.38376649822575309 0 -0.45132291774153199 -0.37789636588759368 0 -0.44064580868350911 -0.39542861624611658 0 -0.44225344557501872 -0.38376649822575309 0 -0.43040194378266172 -0.3881600185019185 0 -0.44064580868350911 -0.39542861624611658 0 -0.44890944387521442 -0.39029302340116001 0 -0.44225344557501872 -0.38376649822575309 0 -0.47820614292347569 -0.42776699273468149 0 -0.46517432262153441 -0.43649963461163338 0 -0.45738366370351707 -0.41344381697501481 0 -0.45059725373546922 -0.44229587798334291 0 -0.45738366370351707 -0.41344381697501481 0 -0.45059725373546922 -0.44229587798334291 0 -0.46517432262153441 -0.43649963461163338 0 -0.45738366370351707 -0.41344381697501481 0 -0.44275815558040038 -0.40077469311046232 0 -0.45738366370351707 -0.41344381697501481 0 -0.44164244492799948 -0.42121090558557039 0 -0.45059725373546922 -0.44229587798334291 0 -0.45738366370351707 -0.41344381697501481 0 -0.44164244492799948 -0.42121090558557039 0 -0.45059725373546922 -0.44229587798334291 0 -0.44164244492799948 -0.42121090558557039 0 -0.4339166039271336 -0.43498117536117131 0 -0.4339166039271336 -0.43498117536117131 0 -0.42355654769347711 -0.414558964497861 0 -0.41671115160429401 -0.44095791049380378 0 -0.44164244492799948 -0.42121090558557039 0 -0.4339166039271336 -0.43498117536117131 0 -0.42355654769347711 -0.414558964497861 0 -0.44275815558040038 -0.40077469311046232 0 -0.44164244492799948 -0.42121090558557039 0 -0.42355654769347711 -0.414558964497861 0 -0.42355654769347711 -0.414558964497861 0 -0.41056920252370888 -0.3963363404412637 0 -0.40050668374064252 -0.41734442193795029 0 -0.42355654769347711 -0.414558964497861 0 -0.41671115160429401 -0.44095791049380378 0 -0.42355654769347711 -0.414558964497861 0 -0.40050668374064252 -0.41734442193795029 0 -0.41671115160429401 -0.44095791049380378 0 -0.44225344557501872 -0.38376649822575309 0 -0.43040194378266172 -0.3881600185019185 0 -0.43671500038902772 -0.36381401452353412 0 -0.43040194378266172 -0.3881600185019185 0 -0.43671500038902772 -0.36381401452353412 0 -0.44064580868350911 -0.39542861624611658 0 -0.42355654769347711 -0.414558964497861 0 -0.43040194378266172 -0.3881600185019185 0 -0.42355654769347711 -0.414558964497861 0 -0.43040194378266172 -0.3881600185019185 0 -0.44275815558040038 -0.40077469311046232 0 -0.44064580868350911 -0.39542861624611658 0 -0.42355654769347711 -0.414558964497861 0 -0.44064580868350911 -0.39542861624611658 0 -0.43040194378266172 -0.3881600185019185 0 -0.42355654769347711 -0.414558964497861 0 -0.43040194378266172 -0.3881600185019185 0 -0.41056920252370888 -0.3963363404412637 0 -0.43040194378266172 -0.3881600185019185 0 -0.4079689369259607 -0.37224253963894771 0 -0.43040194378266172 -0.3881600185019185 0 -0.41056920252370888 -0.3963363404412637 0 -0.4079689369259607 -0.37224253963894771 0 -0.41056920252370888 -0.3963363404412637 0 -0.39195929229331972 -0.37982250283040359 0 -0.4079689369259607 -0.37224253963894771 0 -0.41056920252370888 -0.3963363404412637 0 -0.39195929229331972 -0.37982250283040359 0 -0.39357845321732049 -0.39746174547711199 0 -0.41056920252370888 -0.3963363404412637 0 -0.39357845321732049 -0.39746174547711199 0 -0.40050668374064252 -0.41734442193795029 0 -0.39357845321732049 -0.39746174547711199 0 -0.38114412328536468 -0.40833987260765031 0 -0.36544727141479139 -0.39026932065168712 0 -0.39195929229331972 -0.37982250283040359 0 -0.37549160074202448 -0.3732971907138336 0 -0.36544727141479139 -0.39026932065168712 0 -0.39195929229331972 -0.37982250283040359 0 -0.39357845321732049 -0.39746174547711199 0 -0.36544727141479139 -0.39026932065168712 0 -0.40050668374064252 -0.41734442193795029 0 -0.3944977858259317 -0.43926335073686201 0 -0.41671115160429401 -0.44095791049380378 0 -0.40050668374064252 -0.41734442193795029 0 -0.38028594703985957 -0.42392304976487449 0 -0.3944977858259317 -0.43926335073686201 0 -0.39357845321732049 -0.39746174547711199 0 -0.40050668374064252 -0.41734442193795029 0 -0.38114412328536468 -0.40833987260765031 0 -0.40050668374064252 -0.41734442193795029 0 -0.38114412328536468 -0.40833987260765031 0 -0.38028594703985957 -0.42392304976487449 0 -0.38114412328536468 -0.40833987260765031 0 -0.38028594703985957 -0.42392304976487449 0 -0.36590226101420908 -0.41270082520662749 0 -0.38028594703985957 -0.42392304976487449 0 -0.3944977858259317 -0.43926335073686201 0 -0.3723601590800425 -0.44005613486137668 0 -0.3944977858259317 -0.43926335073686201 0 -0.38265619596279349 -0.45813348326120767 0 -0.3723601590800425 -0.44005613486137668 0 -0.40093272222703252 -0.45142790024540502 0 -0.3944977858
[...]
<PointData Scalars="" Vectors="displacement," Tensors="">
<DataArray type="Float64" Name="displacement" NumberOfComponents="3" format="ascii">
8.4637858428873541e-07 0.054996666505939866 0 0.00035040093935240273 0.053820505168475197 0 -9.389082516237401e-08 0.049244954682194204 0 8.4637858428873541e-07 0.054996666505939866 0 0.00035040093935240273 0.053820505168475197 0 4.9337479689797294e-07 0.054997422078496304 0 0.00035040093935240273 0.053820505168475197 0 0.00023875395473109946 0.053976327413772653 0 4.9337479689797294e-07 0.054997422078496304 0 0.00035040093935240273 0.053820505168475197 0 0.00023875395473109946 0.053976327413772653 0 9.161114222297999e-05 0.053179700889342207 0 0.00023875395473109946 0.053976327413772653 0 0.00022328755494241333 0.054000540516709293 0 9.161114222297999e-05 0.053179700889342207 0 0.00023875395473109946 0.053976327413772653 0 0.00022328755494241333 0.054000540516709293 0 4.9337479689797294e-07 0.054997422078496304 0 4.2641708956414605e-05 0.054067343350021675 0 8.927329530998553e-08 0.054999686541157423 0 -0.00021516253146276081 0.053363493980853445 0 -0.00030668147239863085 0.053501418308087807 0 -0.00016694045474769918 0.053845839053955243 0 0.00022328755494241333 0.054000540516709293 0 -0.00037132717034274627 0.05310249239527913 0 9.161114222297999e-05 0.053179700889342207 0 -0.00013422201652529722 0.054107561447470212 0 -0.00021516253146276081 0.053363493980853445 0 -0.00016694045474769918 0.053845839053955243 0 4.2641708956414605e-05 0.054067343350021675 0 -0.00030324909041299616 0.053241910431932112 0 9.161114222297999e-05 0.053179700889342207 0 -9.4367091629161669e-05 0.051688195194683526 0 -0.00050537634102269747 0.052534727591060537 0 -0.00037132717034274627 0.05310249239527913 0 9.161114222297999e-05 0.053179700889342207 0 -0.00050537634102269747 0.052534727591060537 0 -9.4367091629161669e-05 0.051688195194683526 0 -0.0006289466521026165 0.052291910561395379 0 -0.00050537634102269747 0.052534727591060537 0 0.00015236869631996038 0.051500449093344919 0 -0.00044841488161434788 0.051148266359133901 0 0.00035040093935240273 0.053820505168475197 0 -9.4367091629161669e-05 0.051688195194683526 0 -9.389082516237401e-08 0.049244954682194204 0 0.00035040093935240273 0.053820505168475197 0 9.161114222297999e-05 0.053179700889342207 0 -9.4367091629161669e-05 0.051688195194683526 0 -9.4367091629161669e-05 0.051688195194683526 0 -9.389082516237401e-08 0.049244954682194204 0 -0.00012039902360156025 0.049478071514557548 0 -9.389082516237401e-08 0.049244954682194204 0 -0.00010066270231180923 0.046549418542367223 0 -0.00012039902360156025 0.049478071514557548 0 -9.389082516237401e-08 0.049244954682194204 0 -0.00010066270231180923 0.046549418542367223 0 -1.5367952421577766e-06 0.041698618091141434 0 -0.00010066270231180923 0.046549418542367223 0 -0.0026084089426000262 0.048859865527370247 0 -0.00012039902360156025 0.049478071514557548 0 -0.00018642640153668084 0.04620090757963121 0 -0.00082681504003331288 0.047881599326732235 0 -0.00082681504003331288 0.047881599326732235 0 -0.00044841488161434788 0.051148266359133901 0 -0.00076410743261841937 0.052342701490393981 0 -0.0006289466521026165 0.052291910561395379 0 -0.0006750646650039413 0.052700894554021202 0 -0.00010066270231180923 0.046549418542367223 0 7.9291626426996305e-05 0.044694798432381999 0 -1.5367952421577766e-06 0.041698618091141434 0 -3.7058712250059272e-06 0.041690325268535881 0 -0.0013242371961132244 0.039360813906878338 0 -9.615891798463996e-05 0.039037013392655015 0 7.9291626426996305e-05 0.044694798432381999 0 -1.5367952421577766e-06 0.041698618091141434 0 -0.00024630300573269033 0.043299705447727467 0 -0.0011196621744305202 0.041119654754222017 0 -0.00039492560441904294 0.039122862872028749 0 -3.0588134885355362e-07 0.04169540779996566 0 -0.0011196621744305202 0.041119654754222017 0 -0.00018741615470380541 0.045135890211254998 0 -0.0016112520913175821 0.044893422025594432 0 -0.0011485142074434717 0.046129701038593957 0 -0.00082681504003331288 0.047881599326732235 0 -0.0011196621744305202 0.041119654754222017 0 -0.00082681504003331288 0.047881599326732235 0 -0.00075196337791500704 0.047147965911710922 0 -0.0014448649448459254 0.038855333333448656 0 -0.0011065488317994723 0.037955185324272611 0 -0.0018847603495304552 0.037744731482591554 0 -0.0011196621744305202 0.041119654754222017 0 -0.00075196337791500704 0.047147965911710922 0 -0.0014448649448459254 0.038855333333448656 0 -0.0011065488317994723 0.037955185324272611 0 -9.615891798463996e-05 0.039037013392655015 0 -1.2361936394735954e-06 0.053050968545863338 0 -0.00013237900486768816 0.052755712664666408 0 0.00050718451536344283 0.052759288335551199 0 -0.0011065488317994723 0.037955185324272611 0 -0.0018847603495304552 0.037744731482591554 0 -0.00098657748589746916 0.03702962460696288 0 -0.00075196337791500704 0.047147965911710922 0 -0.00020386080039181263 0.044810599718866917 0 -0.00076410743261841937 0.052342701490393981 0 -0.00084567824790224158 0.052559644492541524 0 -0.0006750646650039413 0.052700894554021202 0 -0.00084567824790224158 0.052559644492541524 0 -0.0006129761395500809 0.052757797191421901 0 -0.0006750646650039413 0.052700894554021202 0 -0.00075196337791500704 0.047147965911710922 0 -0.00013012700640633467 0.054926542344110638 0 -1.2361936394735954e-06 0.053050968545863338 0 -0.0006129761395500809 0.052757797191421901 0 -0.00013237900486768816 0.052755712664666408 0 -0.0006129761395500809 0.052757797191421901 0 -0.00053817748083613353 0.052634794146266373 0 -0.00013237900486768816 0.052755712664666408 0 0.00019359612447241681 0.052416442058596788 0 0.00050718451536344283 0.052759288335551199 0 0.001414045480040191 0.05190345592451915 0 -0.00013237900486768816 0.052755712664666408 0 0.00019359612447241681 0.052416442058596788 0 0.00050718451536344283 0.052759288335551199 0 -0.00053817748083613353 0.052634794146266373 0 0.00019359612447241681 0.052416442058596788 0 -7.6528864767260685e-05 0.051730170004503119 0 -0.00053817748083613353 0.052634794146266373 0 -0.00013237900486768816 0.052755712664666408 0 0.00019359612447241681 0.052416442058596788 0 -0.0006289466521026165 0.052291910561395379 0 -0.00050537634102269747 0.052534727591060537 0 -0.0006750646650039413 0.052700894554021202 0 -0.00030324909041299616 0.053241910431932112 0 -0.0006786754453741977 0.052761380828869019 0 -0.00037132717034274627 0.05310249239527913 0 -0.00050537634102269747 0.052534727591060537 0 -0.0006750646650039413 0.052700894554021202 0 -0.0006129761395500809 0.052757797191421901 0 -0.0006750646650039413 0.052700894554021202 0 -0.00049474963555407687 0.053134204655556849 0 -0.00021516253146276081 0.053363493980853445 0 -0.0006750646650039413 0.052700894554021202 0 -0.00049474963555407687 0.053134204655556849 0 -0.00021516253146276081 0.053363493980853445 0 -0.00049474963555407687 0.053134204655556849 0 -0.00030668147239863085 0.053501418308087807 0 -0.00030668147239863085 0.053501418308087807 0 -0.00051247668949603957 0.053302682467944472 0 -0.00021764317753047717 0.053836693533943943 0 -0.00049474963555407687 0.053134204655556849 0 -0.00030668147239863085 0.053501418308087807 0 -0.00051247668949603957 0.053302682467944472 0 -0.0006129761395500809 0.052757797191421901 0 -0.00049474963555407687 0.053134204655556849 0 -0.00051247668949603957 0.053302682467944472 0 0.001678872878017887 0.050875437365724197 0 0.0017720512970444259 0.050819978789103555 0 0.0016667934416285089 0.050806235767208642 0 0.00072038926880637006 0.052434381342301162 0 0.00076899877698915066 0.052144682286569856 0 0.001678872878017887 0.050875437365724197 0 0.0016667934416285089 0.050806235767208642 0 0.0016502809390320512 0.0508401337548667 0 0.00019359612447241681 0.052416442058596788 0 -7.6528864767260685e-05 0.051730170004503119 0 0.001414045480040191 0.05190345592451915 0 0.00027849756114374237 0.04950604040884414 0 0.00048132225123346617 0.04334722459218196 0 -0.00053817748083613353 0.052634794146266373 0 -0.00051247668949603957 0.053302682467944472 0 -0.00067447544132037598 0.052818036587066033 0 0.00072038926880637006 0.052434381342301162 0 0.00027849756114374237 0.04950604040884414 0 -0.0006129761395500809 0.052757797191421901 0 -0.00053817748083613353 0.052634794146266373 0 -0.00051247668949603957 0.053302682467944472 0 -0.0010399852038784846 0.052851319677117044 0 0.00027849756114374237 0.04950604040884414 0 0.001678872878017887 0.050875437365724197 0 0.0018134743492305956 0.050921903239275 0 0.0017720512970444259 0.050819978789103555 0 0.00027849756114374237 0.04950604040884414 0 0.000893083286732503 0.047006389645297873 0 0.0018134743492305956 0.050921903239275 0 0.0017720512970444259 0.050819978789103555 0 0.0019564112390041762 0.050773450773035141 0 0.0017720512970444259 0.050819978789103555 0 0.0019131774622280142 0.050674045269112081 0 0.0019564112390041762 0.050773450773035141 0 0.0017720512970444259 0.050819978789103555 0 0.0019131774622280142 0.050674045269112081 0 0.0017693204115286894 0.050741844662191504 0 0.0017720512970444259 0.050819978789103555 0 0.0017693204115286894 0.050741844662191504 0 0.0016667934416285089 0.050806235767208642 0 0.0017693204115286894 0.050741844662191504 0 0.0016948737566745344 0.050716949075340037 0 0.001865334611449951 0.050418274008601965 0 0.0019131774622280142 0.050674045269112081 0 0.0019764903810385896 0.050514760459684109 0 0.001865334611449951 0.050418274008601965 0 0.0019131774622280142 0.050674045269112081 0 0.0017693204115286894 0.050741844662191504 0 0.001865334611449951 0.050418274008601965 0 0.0016667934416285089 0.050806235767208642 0 0.0016511778070095536 0.050824891156983833 0 0.0016502809390320512 0.0508401337548667 0 0.0016667934416285089 0.050806235767208642 0 0.0016333072445723696 0.050809395710681465 0 0.0016511778070095536 0.050824891156983833 0 0.0017693204115286894 0.050741844662191504 0 0.0016667934416285089 0.050806235767208642 0 0.0016948737566745344 0.050716949075340037 0 0.0016667934416285089 0.050806235767208642 0 0.0016948737566745344 0.050716949075340037 0 0.0016333072445723696 0.050809395710681465 0 0.0016948737566745344 0.050716949075340037 0 0.0016333072445723696 0.050809395710681465 0 0.0016771989581173211 0.050709431415341344 0 0.0016333072445723696 0.050809395710681465 0 0.0016511778070095536 0.050824891156983833 0 0.0016239452410506533 0.05093644655237288 0 0.0016511778070095536 0.050824891156983833 0 0.0017462747653958105 0.050862752522690735 0 0.0016239452410506533 0.05093644655237288 0 0.0016793408421437292 0.050836019291900771 0 0.0016511778070095536 0.050824891156983833 0 0.0017462747653958105 0.050862752522690735 0 0.0016793408421437292 0.050836019291900771 0 0.0016511778070095536 0.050824891156983833 0 0.0016502809390320512 0.0508401337548667 0 0.0015636719525345601 0.052451784343019725 0 0.00030869374189125559 0.05358190576879495 0 0.0011764084795798518 0.05434985809930433 0 0.00021426949644738134 0.054900924414991503 0 0.00045221401661245121 0.055484877258280836 0 0.0016793408421437292 0.050836019291900771 0 0.0017462747653958105 0.050862752522690735 0 0.0016785812811088445 0.050847729339964773 0 0.0011764084795798518 0.05434985809930433 0 0.00012010597541832321 0.054522044856727694 0 0.00021426949644738134 0.054900924414991503 0 0.00012010597541832321 0.054522044856727694 0 2.4994943723170795e-05 0.054854308372305274 0 9.5627377996500458e-05 0.054889090883316685 0 0.00012010597541832321 0.054522044856727694 0 2.4994943723170795e-05 0.054854308372305274 0 0.00021426949644738134 0.054900924414991503 0 1.5630213243106673e-07 0.054999652708569415 0 2.4994943723170795e-05 0.054854308372305274 0 -2.3839751394111112e-07 0.055000063916122666 0 1.5630213243106673e-07 0.054999652708569415 0 2.4994943723170795e-05 0.054854308372305274 0 9.5627377996500458e-05 0.054889090883316685 0 2.4994943723170795e-05 0.054854308372305274 0 -2.3839751394111112e-07 0.055000063916122666 0 3.8413621084936234e-05 0.055139581111652597 0 -6.3158598196061046e-09 0.05500002382927234 0 4.7991340087118028e-05 0.055052786906479641 0 3.8413621084936234e-05 0.055139581111652597 0 0.00021426949644738134 0.054900924414991503 0 0.00045221401661245121 0.055484877258280836 0 2.4994943723170795e-05 0.054854308372305274 0 3.8413621084936234e-05 0.055139581111652597 0 0.00021426949644738134 0.054900924414991503 0 4.7991340087118028e-05 0.055052786906479641 0 0.00030869374189125559 0.05358190576879495 0 -0.00030355299057757359 0.054682796420927646 0 0.00030869374189125559 0.05358190576879495 0 -2.9496877621077655e-05 0.054766693870629483 0 -0.00016272902160239527 0.054355220259034692 0 -0.00031413836495417869 0.054865384069843939 0 -4.6219033100284116e-05 0.054944336224964911 0 -2.9496877621077655e-05 0.054766693870629483 0 -0.00031413836495417869 0.054865384069843939 0 -4.6219033100284116e-05 0.054944336224964911 0 -2.9496877621077655e-05 0.054766693870629483 0 2.1721880765065568e-08 0.054999819528299534 0 -3.9137322572518422e-08 0.055000055572295273 0 -4.6219033100284116e-05 0.054944336224964911 0 2.1721880765065568e-08 0.054999819528299534 0 -2.9496877621077655e-05 0.054766693870629483 0 2.1721880765065568e-08 0.054999819528299534 0 1.5270261764058979e-07 0.054999078528826406 0 -2.9496877621077655e-05 0.054766693870629483 0 1.5270261764058979e-07 0.054999078528826406 0 -0.00016272902160239527 0.054355220259034692 0 -0.00013422201652529722 0.054107561447470212 0 1.5270261764058979e-07 0.054999078528826406 0 -0.00016272902160239527 0.054355220259034692 0 -0.00016272902160239527 0.054355220259034692 0 -0.00014767337726849682 0.054007463173023559 0 -0.00016694045474769918 0.053845839053955243 0 -0.00013422201652529722 0.054107561447470212 0 -0.00016272902160239527 0.054355220259034692 0 -0.00016694045474769918 0.053845839053955243 0 -0.00030668147239863085 0.053501418308087807 0 -0.00016694045474769918 0.053845839053955243 0 -0.00021764317753047717 0.053836693533943943 0 -0.00014767337726849682 0.054007463173023559 0 -0.00016694045474769918 0.053845839053955243 0 -0.00021764317753047717 0.053836693533943943 0 -0.00014767337726849682 0.054007463173023559 0 -0.00021764317753047717 0.053836693533943943 0 -0.00015544541082337222 0.054011730943053039 0 0.00076899877698915066 0.052144682286569856 0 0.00030869374189125559 0.05358190576879495 0 0.0016793408421437292 0.050836019291900771 0 0.0016502809390320512 0.0508401337548667 0 0.0016785812811088445 0.050847729339964773 0 -0.00016272902160239527 0.054355220259034692 0 -0.00014767337726849682 0.054007463173023559 0 -0.00015544541082337222 0.054011730943053039 0 -0.00020678920214242826 0.026323030827917742 0 -0.00023317488262954907 0.026241672521823294 0 -0.00017588886617456945 0.02630629016475455 0 -0.00030296698418825682 0.026281742031405722 0 -0.00020678920214242826 0.026323030827917742 0 -0.00023317488262954907 0.026241672521823294 0 0.00031767189856642857 0.032164879834975617 0 0.00032769467636500129 0.032196738442635063 0 -0.00010273851574289924 0.031897060110150831 0 6.1705362036304005e-05 0.029064981092400168 0 -0.0001405972075122006 0.029104541856705649 0 0.00032769467636500129 0.032196738442635063 0 0.0002638016325591113 0.030883545059185481 0 0.00033487353285745474 0.032380244790728173 0 0.00032769467636500129 0.032196738442635063 0 -0.00010273851574289924 0.031897060110150831 0 0.0002638016325591113 0.030883545059185481 0 -0.0001405972075122006 0.029104541856705649 0 -0.00023729143314165545 0.028021892042645557 0 -0.00010273851574289924 0.031897060110150831 0 0.0002638016325591113 0.030883545059185481 0 -0.00068344557378526699 0.029980475103895111 0 2.2367572819387533e-05 0.029293582993452406 0 0.0002638016325591113 0.030883545059185481 0 -0.00068344557378526699 0.029980475103895111 0 2.2367572819387533e-05 0.029293582993452406 0 -2.4596830606411491e-07 0.027507479974313999 0 7.7532091493834444e-07 0.030345317694690156 0 2.2367572819387533e-05 0.029293582993452406 0 -2.4596830606411491e-07 0.027507479974313999 0 -0.00020307982968712721 0.028008074891220074 0 2.2367572819387533e-05 0.029293582993452406 0 7.7532091493834444e-07 0.030345317694690156 0 0.0002638016325591113 0.030883545059185481 0 7.7532091493834444e-07 0.030345317694690156 0 0.0002638016325591113 0.030883545059185481 0 0.00022171268895680626 0.032077330152500923 0 0.0002638016325591113 0.030883545059185481 0 0.00033487353285745474 0.032380244790728173 0 0.00022171268895680626 0.032077330152500923 0 0.00033487353285745474 0.032380244790728173 0 0.00022171268895680626 0.032077330152500923 0 8.6961751579685054e-05 0.033592200769825407 0 7.7532091493834444e-07 0.030345317694690156 0 0.00022171268895680626 0.032077330152500923 0 3.6029367231508661e-07 0.033182591770535501 0 0.00022171268895680626 0.032077330152500923 0 3.6029367231508661e-07 0.033182591770535501 0 8.6961751579685054e-05 0.033592200769825407 0 3.6029367231508661e-07 0.033182591770535501 0 8.6961751579685054e-05 0.033592200769825407 0 -3.4436553843290601e-07 0.036019265221187306 0 0.00033487353285745474 0.032380244790728173 0 8.6961751579685054e-05 0.033592200769825407 0 6.0931502222664629e-05 0.032770117145321333 0 8.6961751579685054e-05 0.033592200769825407 0 6.0931502222664629e-05 0.032770117145321333 0 -0.00032884386220465245 0.035027958129493976 0 0.00032769467636500129 0.032196738442635063 0 0.00033487353285745474 0.032380244790728173 0 6.0931502222664629e-05 0.032770117145321333 0 0.00032769467636500129 0.032196738442635063 0 6.0931502222664629e-05 0.032770117145321333 0 -5.6640654182355584e-05 0.032170923028594235 0 0.00031767189856642857 0.032164879834975617 0 0.00032769467636500129 0.032196738442635063 0 -5.6640654182355584e-05 0.032170923028594235 0 6.0931502222664629e-05 0.032770117145321333 0 -5.6640654182355584e-05 0.032170923028594235 0 -0.0006477281288867154 0.032124453770644171 0 -0.0006477281288867154 0.032124453770644171 0 -0.001021054386800242 0.03261007459315772 0 -0.00097896782175855125 0.031732972719102248 0 6.0931502222664629e-05 0.032770117145321333 0 -0.0006477281288867154 0.032124453770644171 0 -0.001021054386800242 0.03261007459315772 0 -0.00064579482052050364 0.034686484030561633 0 -0.00061311492002067358 0.034395519023192329 0 -0.00038454172925318802 0.036813821194989924 0 -0.00011345563061129588 0.036894637497989581 0 9.7137105612534928e-05 0.036599005164238363 0 -0.00011345563061129588 0.036894637497989581 0 9.7137105612534928e-05 0.036599005164238363 0 6.2159277281630393e-06 0.036846493272648849 0 -0.00038454172925318802 0.036813821194989924 0 -0.00011345563061129588 0.036894637497989581 0 -0.00022790219579016342 0.036948112254482808 0 6.0931502222664629e-05 0.032770117145321333 0 -0.001021054386800242 0.03261007459315772 0 -0.00032884386220465245 0.035027958129493976 0 -0.00038454172925318802 0.036813821194989924 0 9.7137105612534928e-05 0.036599005164238363 0 -0.00032884386220465245 0.035027958129493976 0 -0.00064579482052050364 0.034686484030561633 0 -0.00041563779848993775 0.03498583654362606 0 8.6961751579685054e-05 0.033592200769825407 0 -0.00032884386220465245 0.035027958129493976 0 -3.4436553843290601e-07 0.036019265221187306 0 -0.00032884386220465245 0.035027958129493976 0 -3.4436553843290601e-07 0.036019265221187306 0 0.00011428850819290308 0.036719619783342469 0 -3.4436553843290601e-07 0.036019265221187306 0 0.00011428850819290308 0.036719619783342469 0 1.422880561520213e-06 0.038857380477896525 0 9.7137105612534928e-05 0.036599005164238363 0 0.00011428850819290308 0.036719619783342469 0 5.2494079187487177e-05 0.037073953316785931 0 9.7137105612534928e-05 0.036599005164238363 0 -0.00032884386220465245 0.035027958129493976 0 0.00011428850819290308 0.036719619783342469 0 0.00011428850819290308 0.036719619783342469 0 2.2411394617901117e-05 0.037801416014100302 0 5.2494079187487177e-05 0.037073953316785931 0 2.2411394617901117e-05 0.037801416014100302 0 -0.00036352753851087336 0.037506075540751541 0 5.2494079187487177e-05 0.037073953316785931 0 2.2411394617901117e-05 0.037801416014100302 0 1.422880561520213e-06 0.038857380477896525 0 -9.615