<?xml version="1.0"?>
<VTKFile type="UnstructuredGrid" version="0.1" byte_order="LittleEndian">
<UnstructuredGrid>
<Piece NumberOfPoints="30578" NumberOfCells="10723">
<Points>
<DataArray type="Float64" NumberOfComponents="3" format="ascii">
-0.5 -0.5 0 -0.47439485679867832 -0.48072581506667478 0 -0.5 -0.44765434486020428 0 -0.5 -0.5 0 -0.47439485679867832 -0.48072581506667478 0 -0.43702443379937372 -0.49999999999999922 0 -0.47439485679867832 -0.48072581506667478 0 -0.45530669598391149 -0.47718009944797551 0 -0.43702443379937372 -0.49999999999999922 0 -0.47439485679867832 -0.48072581506667478 0 -0.45530669598391149 -0.47718009944797551 0 -0.4597353119515426 -0.45943449384344293 0 -0.45530669598391149 -0.47718009944797551 0 -0.44381084376742141 -0.47114793899167112 0 -0.4597353119515426 -0.45943449384344293 0 -0.45530669598391149 -0.47718009944797551 0 -0.44381084376742141 -0.47114793899167112 0 -0.43702443379937372 -0.49999999999999922 0 -0.44381084376742141 -0.47114793899167112 0 -0.43702443379937372 -0.49999999999999922 0 -0.45059725373546922 -0.44229587798334291 0 -0.4339166039271336 -0.43498117536117131 0 -0.43309128002320102 -0.45351235807576151 0 -0.44381084376742141 -0.47114793899167112 0 -0.45059725373546922 -0.44229587798334291 0 -0.4597353119515426 -0.45943449384344293 0 -0.44381084376742141 -0.47114793899167112 0 -0.45059725373546922 -0.44229587798334291 0 -0.43309128002320102 -0.45351235807576151 0 -0.44381084376742141 -0.47114793899167112 0 -0.45059725373546922 -0.44229587798334291 0 -0.4597353119515426 -0.45943449384344293 0 -0.47505511338101108 -0.44868394208069429 0 -0.46517432262153441 -0.43649963461163338 0 -0.45059725373546922 -0.44229587798334291 0 -0.4597353119515426 -0.45943449384344293 0 -0.46517432262153441 -0.43649963461163338 0 -0.47505511338101108 -0.44868394208069429 0 -0.47820614292347569 -0.42776699273468149 0 -0.46517432262153441 -0.43649963461163338 0 -0.47505511338101108 -0.44868394208069429 0 -0.47820614292347569 -0.42776699273468149 0 -0.47439485679867832 -0.48072581506667478 0 -0.47505511338101108 -0.44868394208069429 0 -0.5 -0.44765434486020428 0 -0.47439485679867832 -0.48072581506667478 0 -0.4597353119515426 -0.45943449384344293 0 -0.47505511338101108 -0.44868394208069429 0 -0.47505511338101108 -0.44868394208069429 0 -0.5 -0.44765434486020428 0 -0.47820614292347569 -0.42776699273468149 0 -0.5 -0.44765434486020428 0 -0.49656450065014057 -0.42151023988558672 0 -0.47820614292347569 -0.42776699273468149 0 -0.5 -0.44765434486020428 0 -0.49656450065014057 -0.42151023988558672 0 -0.50000000000000089 -0.37904661106745707 0 -0.49656450065014057 -0.42151023988558672 0 -0.48135717246594062 -0.40685004338866881 0 -0.47820614292347569 -0.42776699273468149 0 -0.49656450065014057 -0.42151023988558672 0 -0.48135717246594062 -0.40685004338866881 0 -0.48135717246594062 -0.40685004338866881 0 -0.47820614292347569 -0.42776699273468149 0 -0.48135717246594062 -0.40685004338866881 0 -0.47820614292347569 -0.42776699273468149 0 -0.45738366370351707 -0.41344381697501481 0 -0.49656450065014057 -0.42151023988558672 0 -0.48135717246594062 -0.40685004338866881 0 -0.50000000000000089 -0.37904661106745707 0 -0.50000000000000089 -0.37904661106745707 0 -0.48466894952205442 -0.38486603086372417 0 -0.48717439863114548 -0.36823452950912272 0 -0.48135717246594062 -0.40685004338866881 0 -0.50000000000000089 -0.37904661106745707 0 -0.48466894952205442 -0.38486603086372417 0 -0.48466894952205442 -0.38486603086372417 0 -0.48717439863114548 -0.36823452950912272 0 -0.50000000000000089 -0.37904661106745707 0 -0.48466894952205442 -0.38486603086372417 0 -0.48135717246594062 -0.40685004338866881 0 -0.48466894952205442 -0.38486603086372417 0 -0.46593083509403682 -0.39197871725165279 0 -0.48135717246594062 -0.40685004338866881 0 -0.48466894952205442 -0.38486603086372417 0 -0.48135717246594062 -0.40685004338866881 0 -0.46593083509403682 -0.39197871725165279 0 -0.48466894952205442 -0.38486603086372417 0 -0.47195833844942919 -0.37959069520904498 0 -0.46593083509403682 -0.39197871725165279 0 -0.48466894952205442 -0.38486603086372417 0 -0.46593083509403682 -0.39197871725165279 0 -0.48466894952205442 -0.38486603086372417 0 -0.47195833844942919 -0.37959069520904498 0 -0.48717439863114548 -0.36823452950912272 0 -0.46593083509403682 -0.39197871725165279 0 -0.44890944387521442 -0.39029302340116001 0 -0.45132291774153199 -0.37789636588759368 0 -0.47195833844942919 -0.37959069520904498 0 -0.46593083509403682 -0.39197871725165279 0 -0.45132291774153199 -0.37789636588759368 0 -0.46593083509403682 -0.39197871725165279 0 -0.45132291774153199 -0.37789636588759368 0 -0.48135717246594062 -0.40685004338866881 0 -0.46593083509403682 -0.39197871725165279 0 -0.45738366370351707 -0.41344381697501481 0 -0.46593083509403682 -0.39197871725165279 0 -0.44275815558040038 -0.40077469311046232 0 -0.45738366370351707 -0.41344381697501481 0 -0.46593083509403682 -0.39197871725165279 0 -0.44275815558040038 -0.40077469311046232 0 -0.46593083509403682 -0.39197871725165279 0 -0.44275815558040038 -0.40077469311046232 0 -0.44890944387521442 -0.39029302340116001 0 -0.44275815558040038 -0.40077469311046232 0 -0.44064580868350911 -0.39542861624611658 0 -0.44890944387521442 -0.39029302340116001 0 -0.44225344557501872 -0.38376649822575309 0 -0.45132291774153199 -0.37789636588759368 0 -0.43671500038902772 -0.36381401452353412 0 -0.44890944387521442 -0.39029302340116001 0 -0.44225344557501872 -0.38376649822575309 0 -0.45132291774153199 -0.37789636588759368 0 -0.44064580868350911 -0.39542861624611658 0 -0.44225344557501872 -0.38376649822575309 0 -0.43040194378266172 -0.3881600185019185 0 -0.44064580868350911 -0.39542861624611658 0 -0.44890944387521442 -0.39029302340116001 0 -0.44225344557501872 -0.38376649822575309 0 -0.47820614292347569 -0.42776699273468149 0 -0.46517432262153441 -0.43649963461163338 0 -0.45738366370351707 -0.41344381697501481 0 -0.45059725373546922 -0.44229587798334291 0 -0.45738366370351707 -0.41344381697501481 0 -0.45059725373546922 -0.44229587798334291 0 -0.46517432262153441 -0.43649963461163338 0 -0.45738366370351707 -0.41344381697501481 0 -0.44275815558040038 -0.40077469311046232 0 -0.45738366370351707 -0.41344381697501481 0 -0.44164244492799948 -0.42121090558557039 0 -0.45059725373546922 -0.44229587798334291 0 -0.45738366370351707 -0.41344381697501481 0 -0.44164244492799948 -0.42121090558557039 0 -0.45059725373546922 -0.44229587798334291 0 -0.44164244492799948 -0.42121090558557039 0 -0.4339166039271336 -0.43498117536117131 0 -0.4339166039271336 -0.43498117536117131 0 -0.42355654769347711 -0.414558964497861 0 -0.41671115160429401 -0.44095791049380378 0 -0.44164244492799948 -0.42121090558557039 0 -0.4339166039271336 -0.43498117536117131 0 -0.42355654769347711 -0.414558964497861 0 -0.44275815558040038 -0.40077469311046232 0 -0.44164244492799948 -0.42121090558557039 0 -0.42355654769347711 -0.414558964497861 0 -0.42355654769347711 -0.414558964497861 0 -0.41056920252370888 -0.3963363404412637 0 -0.40050668374064252 -0.41734442193795029 0 -0.42355654769347711 -0.414558964497861 0 -0.41671115160429401 -0.44095791049380378 0 -0.42355654769347711 -0.414558964497861 0 -0.40050668374064252 -0.41734442193795029 0 -0.41671115160429401 -0.44095791049380378 0 -0.44225344557501872 -0.38376649822575309 0 -0.43040194378266172 -0.3881600185019185 0 -0.43671500038902772 -0.36381401452353412 0 -0.43040194378266172 -0.3881600185019185 0 -0.43671500038902772 -0.36381401452353412 0 -0.44064580868350911 -0.39542861624611658 0 -0.42355654769347711 -0.414558964497861 0 -0.43040194378266172 -0.3881600185019185 0 -0.42355654769347711 -0.414558964497861 0 -0.43040194378266172 -0.3881600185019185 0 -0.44275815558040038 -0.40077469311046232 0 -0.44064580868350911 -0.39542861624611658 0 -0.42355654769347711 -0.414558964497861 0 -0.44064580868350911 -0.39542861624611658 0 -0.43040194378266172 -0.3881600185019185 0 -0.42355654769347711 -0.414558964497861 0 -0.43040194378266172 -0.3881600185019185 0 -0.41056920252370888 -0.3963363404412637 0 -0.43040194378266172 -0.3881600185019185 0 -0.4079689369259607 -0.37224253963894771 0 -0.43040194378266172 -0.3881600185019185 0 -0.41056920252370888 -0.3963363404412637 0 -0.4079689369259607 -0.37224253963894771 0 -0.41056920252370888 -0.3963363404412637 0 -0.39195929229331972 -0.37982250283040359 0 -0.4079689369259607 -0.37224253963894771 0 -0.41056920252370888 -0.3963363404412637 0 -0.39195929229331972 -0.37982250283040359 0 -0.39357845321732049 -0.39746174547711199 0 -0.41056920252370888 -0.3963363404412637 0 -0.39357845321732049 -0.39746174547711199 0 -0.40050668374064252 -0.41734442193795029 0 -0.39357845321732049 -0.39746174547711199 0 -0.38114412328536468 -0.40833987260765031 0 -0.36544727141479139 -0.39026932065168712 0 -0.39195929229331972 -0.37982250283040359 0 -0.37549160074202448 -0.3732971907138336 0 -0.36544727141479139 -0.39026932065168712 0 -0.39195929229331972 -0.37982250283040359 0 -0.39357845321732049 -0.39746174547711199 0 -0.36544727141479139 -0.39026932065168712 0 -0.40050668374064252 -0.41734442193795029 0 -0.3944977858259317 -0.43926335073686201 0 -0.41671115160429401 -0.44095791049380378 0 -0.40050668374064252 -0.41734442193795029 0 -0.38028594703985957 -0.42392304976487449 0 -0.3944977858259317 -0.43926335073686201 0 -0.39357845321732049 -0.39746174547711199 0 -0.40050668374064252 -0.41734442193795029 0 -0.38114412328536468 -0.40833987260765031 0 -0.40050668374064252 -0.41734442193795029 0 -0.38114412328536468 -0.40833987260765031 0 -0.38028594703985957 -0.42392304976487449 0 -0.38114412328536468 -0.40833987260765031 0 -0.38028594703985957 -0.42392304976487449 0 -0.36590226101420908 -0.41270082520662749 0 -0.38028594703985957 -0.42392304976487449 0 -0.3944977858259317 -0.43926335073686201 0 -0.3723601590800425 -0.44005613486137668 0 -0.3944977858259317 -0.43926335073686201 0 -0.38265619596279349 -0.45813348326120767 0 -0.3723601590800425 -0.44005613486137668 0 -0.40093272222703252 -0.45142790024540502 0 -0.3944977858
[...]
<PointData Scalars="" Vectors="displacement," Tensors="">
<DataArray type="Float64" Name="displacement" NumberOfComponents="3" format="ascii">
-2.4351881320770273e-07 -0.014999082760919109 0 -9.2316604685018205e-05 -0.014675178867563568 0 1.0579562151143966e-07 -0.013430402196086681 0 -2.4351881320770273e-07 -0.014999082760919109 0 -9.2316604685018205e-05 -0.014675178867563568 0 -1.3731103399653169e-07 -0.014999339953923729 0 -9.2316604685018205e-05 -0.014675178867563568 0 -6.194937506266231e-05 -0.014732104677411352 0 -1.3731103399653169e-07 -0.014999339953923729 0 -9.2316604685018205e-05 -0.014675178867563568 0 -6.194937506266231e-05 -0.014732104677411352 0 -2.0307332759945789e-06 -0.014519049397618486 0 -6.194937506266231e-05 -0.014732104677411352 0 -5.9191070759708852e-05 -0.014755780413520015 0 -2.0307332759945789e-06 -0.014519049397618486 0 -6.194937506266231e-05 -0.014732104677411352 0 -5.9191070759708852e-05 -0.014755780413520015 0 -1.3731103399653169e-07 -0.014999339953923729 0 5.8945007243429718e-06 -0.014792055144686751 0 -3.1547898064247389e-08 -0.014999931312597485 0 0.00030122608046604917 -0.014623004890458856 0 0.0003860816543938556 -0.014791378142930656 0 0.00020284991825568574 -0.014840885642183074 0 -5.9191070759708852e-05 -0.014755780413520015 0 0.0002075591018432659 -0.014576720746004801 0 -2.0307332759945789e-06 -0.014519049397618486 0 6.6800753632568417e-05 -0.014817732808530357 0 0.00030122608046604917 -0.014623004890458856 0 0.00020284991825568574 -0.014840885642183074 0 5.8945007243429718e-06 -0.014792055144686751 0 0.00026359499589630203 -0.014599694077279865 0 -2.0307332759945789e-06 -0.014519049397618486 0 6.3210621185787338e-05 -0.014060005529645057 0 0.00029734648191650668 -0.014317856138351164 0 0.0002075591018432659 -0.014576720746004801 0 -2.0307332759945789e-06 -0.014519049397618486 0 0.00029734648191650668 -0.014317856138351164 0 6.3210621185787338e-05 -0.014060005529645057 0 0.00043858255338907726 -0.014098202511072399 0 0.00029734648191650668 -0.014317856138351164 0 4.8261643013808155e-06 -0.013997234198755546 0 0.00027302903621271386 -0.01385687708093573 0 -9.2316604685018205e-05 -0.014675178867563568 0 6.3210621185787338e-05 -0.014060005529645057 0 1.0579562151143966e-07 -0.013430402196086681 0 -9.2316604685018205e-05 -0.014675178867563568 0 -2.0307332759945789e-06 -0.014519049397618486 0 6.3210621185787338e-05 -0.014060005529645057 0 6.3210621185787338e-05 -0.014060005529645057 0 1.0579562151143966e-07 -0.013430402196086681 0 3.6237096156646243e-05 -0.013474048616864026 0 1.0579562151143966e-07 -0.013430402196086681 0 2.7227977897394123e-05 -0.01269391078153877 0 3.6237096156646243e-05 -0.013474048616864026 0 1.0579562151143966e-07 -0.013430402196086681 0 2.7227977897394123e-05 -0.01269391078153877 0 3.7728963978414041e-07 -0.011372361579720847 0 2.7227977897394123e-05 -0.01269391078153877 0 0.00069994920595819186 -0.013309457911713108 0 3.6237096156646243e-05 -0.013474048616864026 0 2.0679408596373608e-06 -0.012579388597401349 0 0.00043317115665178138 -0.013015700341582108 0 0.00043317115665178138 -0.013015700341582108 0 0.00027302903621271386 -0.01385687708093573 0 0.00074034837462794688 -0.014062870022610512 0 0.00043858255338907726 -0.014098202511072399 0 0.00064725370054050102 -0.014436821044433676 0 2.7227977897394123e-05 -0.01269391078153877 0 -2.084807886009712e-05 -0.012188652545185821 0 3.7728963978414041e-07 -0.011372361579720847 0 1.0422563291226949e-06 -0.011370067137832741 0 0.00037743847113375214 -0.010698403806032557 0 9.9935149986286752e-06 -0.010612034535123814 0 -2.084807886009712e-05 -0.012188652545185821 0 3.7728963978414041e-07 -0.011372361579720847 0 6.761826692853978e-05 -0.011808531964742471 0 0.0003364142246428848 -0.011208537753502324 0 7.9018375076028797e-05 -0.010633509376900071 0 8.904465611092415e-08 -0.011371466781938361 0 0.0003364142246428848 -0.011208537753502324 0 0.00031041480098276217 -0.01228392727766287 0 0.00064602034931724437 -0.012225917145825937 0 0.00053821376900884169 -0.012518455671428159 0 0.00043317115665178138 -0.013015700341582108 0 0.0003364142246428848 -0.011208537753502324 0 0.00043317115665178138 -0.013015700341582108 0 0.00066921611452329898 -0.012797583232201473 0 0.00036376818636805542 -0.010533979427487614 0 0.00025996469539731808 -0.010271921048982302 0 0.00045908111418900723 -0.01018953525338257 0 0.0003364142246428848 -0.011208537753502324 0 0.00066921611452329898 -0.012797583232201473 0 0.00036376818636805542 -0.010533979427487614 0 0.00025996469539731808 -0.010271921048982302 0 9.9935149986286752e-06 -0.010612034535123814 0 0.00085247713928855598 -0.014428368945306764 0 0.00086867322693503482 -0.014558469131442176 0 0.00092287753528112184 -0.014538792071414243 0 0.00025996469539731808 -0.010271921048982302 0 0.00045908111418900723 -0.01018953525338257 0 0.00019958623449616752 -0.0099894795159806253 0 0.00066921611452329898 -0.012797583232201473 0 0.00057591174493002719 -0.012258489350785492 0 0.00074034837462794688 -0.014062870022610512 0 0.00094429535899459398 -0.014298159836379958 0 0.00064725370054050102 -0.014436821044433676 0 0.00094429535899459398 -0.014298159836379958 0 0.00080132819911593524 -0.014616241076856305 0 0.00064725370054050102 -0.014436821044433676 0 0.00066921611452329898 -0.012797583232201473 0 0.0007530813806780227 -0.01518997576034813 0 0.00085247713928855598 -0.014428368945306764 0 0.00080132819911593524 -0.014616241076856305 0 0.00086867322693503482 -0.014558469131442176 0 0.00080132819911593524 -0.014616241076856305 0 0.00085383700562466141 -0.014625546660665855 0 0.00086867322693503482 -0.014558469131442176 0 0.00089685506145218655 -0.014585153088413343 0 0.00092287753528112184 -0.014538792071414243 0 0.00095122959202568872 -0.01457491750608938 0 0.00086867322693503482 -0.014558469131442176 0 0.00089685506145218655 -0.014585153088413343 0 0.00092287753528112184 -0.014538792071414243 0 0.00085383700562466141 -0.014625546660665855 0 0.00089685506145218655 -0.014585153088413343 0 0.0008811595483839053 -0.014623087017979567 0 0.00085383700562466141 -0.014625546660665855 0 0.00086867322693503482 -0.014558469131442176 0 0.00089685506145218655 -0.014585153088413343 0 0.00043858255338907726 -0.014098202511072399 0 0.00029734648191650668 -0.014317856138351164 0 0.00064725370054050102 -0.014436821044433676 0 0.00026359499589630203 -0.014599694077279865 0 0.00063278328794525362 -0.014449965135604698 0 0.0002075591018432659 -0.014576720746004801 0 0.00029734648191650668 -0.014317856138351164 0 0.00064725370054050102 -0.014436821044433676 0 0.00080132819911593524 -0.014616241076856305 0 0.00064725370054050102 -0.014436821044433676 0 0.00054744962115345537 -0.014669641188892113 0 0.00030122608046604917 -0.014623004890458856 0 0.00064725370054050102 -0.014436821044433676 0 0.00054744962115345537 -0.014669641188892113 0 0.00030122608046604917 -0.014623004890458856 0 0.00054744962115345537 -0.014669641188892113 0 0.0003860816543938556 -0.014791378142930656 0 0.0003860816543938556 -0.014791378142930656 0 0.00062194150384235346 -0.014882123880593135 0 0.00031821104107172446 -0.01498266059481375 0 0.00054744962115345537 -0.014669641188892113 0 0.0003860816543938556 -0.014791378142930656 0 0.00062194150384235346 -0.014882123880593135 0 0.00080132819911593524 -0.014616241076856305 0 0.00054744962115345537 -0.014669641188892113 0 0.00062194150384235346 -0.014882123880593135 0 -4.7568137416414337e-05 -0.014158284746019883 0 2.4831515854944502e-06 -0.014193172868024601 0 -5.7360610383494555e-05 -0.014230498062564439 0 0.00024388567202914482 -0.014604378635746264 0 9.0333548688215933e-05 -0.01455168403254088 0 -4.7568137416414337e-05 -0.014158284746019883 0 -5.7360610383494555e-05 -0.014230498062564439 0 -0.00013617782068278016 -0.014181337448890101 0 0.00089685506145218655 -0.014585153088413343 0 0.0008811595483839053 -0.014623087017979567 0 0.00095122959202568872 -0.01457491750608938 0 0.00062194130982914475 -0.01384884102957871 0 0.00025996527816576724 -0.011971975592584594 0 0.00085383700562466141 -0.014625546660665855 0 0.00062194150384235346 -0.014882123880593135 0 0.00094856571596760547 -0.014758093931261875 0 0.00024388567202914482 -0.014604378635746264 0 0.00062194130982914475 -0.01384884102957871 0 0.00080132819911593524 -0.014616241076856305 0 0.00085383700562466141 -0.014625546660665855 0 0.00062194150384235346 -0.014882123880593135 0 0.0010186200294201274 -0.014748453672923835 0 0.00062194130982914475 -0.01384884102957871 0 -4.7568137416414337e-05 -0.014158284746019883 0 2.7693210450631003e-05 -0.014136613895755226 0 2.4831515854944502e-06 -0.014193172868024601 0 0.00062194130982914475 -0.01384884102957871 0 0.0002330733143653174 -0.013038756622160492 0 2.7693210450631003e-05 -0.014136613895755226 0 2.4831515854944502e-06 -0.014193172868024601 0 6.0907482489814518e-05 -0.014190672803275621 0 2.4831515854944502e-06 -0.014193172868024601 0 4.0178128073676448e-05 -0.014236274959004022 0 6.0907482489814518e-05 -0.014190672803275621 0 2.4831515854944502e-06 -0.014193172868024601 0 4.0178128073676448e-05 -0.014236274959004022 0 -3.153014698212199e-06 -0.014243370470816745 0 2.4831515854944502e-06 -0.014193172868024601 0 -3.153014698212199e-06 -0.014243370470816745 0 -5.7360610383494555e-05 -0.014230498062564439 0 -3.153014698212199e-06 -0.014243370470816745 0 -3.2118577024609327e-05 -0.014287625023335977 0 4.3872858814740211e-06 -0.01430931457933677 0 4.0178128073676448e-05 -0.014236274959004022 0 5.4822796170400432e-05 -0.014276989164215784 0 4.3872858814740211e-06 -0.01430931457933677 0 4.0178128073676448e-05 -0.014236274959004022 0 -3.153014698212199e-06 -0.014243370470816745 0 4.3872858814740211e-06 -0.01430931457933677 0 -5.7360610383494555e-05 -0.014230498062564439 0 -0.00013075348745992675 -0.014255879436466301 0 -0.00013617782068278016 -0.014181337448890101 0 -5.7360610383494555e-05 -0.014230498062564439 0 -7.5563084688466737e-05 -0.014303452795519639 0 -0.00013075348745992675 -0.014255879436466301 0 -3.153014698212199e-06 -0.014243370470816745 0 -5.7360610383494555e-05 -0.014230498062564439 0 -3.2118577024609327e-05 -0.014287625023335977 0 -5.7360610383494555e-05 -0.014230498062564439 0 -3.2118577024609327e-05 -0.014287625023335977 0 -7.5563084688466737e-05 -0.014303452795519639 0 -3.2118577024609327e-05 -0.014287625023335977 0 -7.5563084688466737e-05 -0.014303452795519639 0 -4.4117651418007838e-05 -0.014339264284272298 0 -7.5563084688466737e-05 -0.014303452795519639 0 -0.00013075348745992675 -0.014255879436466301 0 -0.00012870230810361631 -0.014349256317638203 0 -0.00013075348745992675 -0.014255879436466301 0 -0.00020979318209769185 -0.014302462462193547 0 -0.00012870230810361631 -0.014349256317638203 0 -0.00017658199063126144 -0.014235919177945035 0 -0.00013075348745992675 -0.014255879436466301 0 -0.00020979318209769185 -0.014302462462193547 0 -0.00017658199063126144 -0.014235919177945035 0 -0.00013075348745992675 -0.014255879436466301 0 -0.00013617782068278016 -0.014181337448890101 0 -0.0001922472624216485 -0.014558205044513514 0 4.3107597003440015e-06 -0.01477035558408369 0 -0.00013405627494361179 -0.014895133726112545 0 -1.1701543690783047e-05 -0.014973632394601602 0 -4.3503868430254439e-05 -0.015049834680864977 0 -0.00017658199063126144 -0.014235919177945035 0 -0.00020979318209769185 -0.014302462462193547 0 -0.00023053050431440906 -0.014208241241082676 0 -0.00013405627494361179 -0.014895133726112545 0 3.3579853043308552e-06 -0.014923791924812161 0 -1.1701543690783047e-05 -0.014973632394601602 0 3.3579853043308552e-06 -0.014923791924812161 0 4.6930596703199858e-06 -0.014973757458763845 0 -6.5101138752002456e-06 -0.014983328238052479 0 3.3579853043308552e-06 -0.014923791924812161 0 4.6930596703199858e-06 -0.014973757458763845 0 -1.1701543690783047e-05 -0.014973632394601602 0 -1.627321781562522e-08 -0.014999953413112032 0 4.6930596703199858e-06 -0.014973757458763845 0 4.0106981255143721e-08 -0.014999973323725067 0 -1.627321781562522e-08 -0.014999953413112032 0 4.6930596703199858e-06 -0.014973757458763845 0 -6.5101138752002456e-06 -0.014983328238052479 0 4.6930596703199858e-06 -0.014973757458763845 0 4.0106981255143721e-08 -0.014999973323725067 0 5.8770444462985947e-06 -0.015005570763664875 0 1.4151732856170314e-08 -0.015000001315905009 0 3.2086299788684525e-06 -0.015006923492926746 0 5.8770444462985947e-06 -0.015005570763664875 0 -1.1701543690783047e-05 -0.014973632394601602 0 -4.3503868430254439e-05 -0.015049834680864977 0 4.6930596703199858e-06 -0.014973757458763845 0 5.8770444462985947e-06 -0.015005570763664875 0 -1.1701543690783047e-05 -0.014973632394601602 0 3.2086299788684525e-06 -0.015006923492926746 0 4.3107597003440015e-06 -0.01477035558408369 0 8.7582815418790191e-05 -0.015020649267802094 0 4.3107597003440015e-06 -0.01477035558408369 0 2.08632475380279e-05 -0.014976062224651629 0 5.6286326266396952e-05 -0.014923634353462802 0 7.1409357310594449e-05 -0.014995316020137 0 2.2033497137549443e-05 -0.015004095843981085 0 2.08632475380279e-05 -0.014976062224651629 0 7.1409357310594449e-05 -0.014995316020137 0 2.2033497137549443e-05 -0.015004095843981085 0 2.08632475380279e-05 -0.014976062224651629 0 2.3349899162390402e-08 -0.015000000796137178 0 2.0239015695333119e-09 -0.01500002120955748 0 2.2033497137549443e-05 -0.015004095843981085 0 2.3349899162390402e-08 -0.015000000796137178 0 2.08632475380279e-05 -0.014976062224651629 0 2.3349899162390402e-08 -0.015000000796137178 0 -6.5410633502362027e-08 -0.014999823961079321 0 2.08632475380279e-05 -0.014976062224651629 0 -6.5410633502362027e-08 -0.014999823961079321 0 5.6286326266396952e-05 -0.014923634353462802 0 6.6800753632568417e-05 -0.014817732808530357 0 -6.5410633502362027e-08 -0.014999823961079321 0 5.6286326266396952e-05 -0.014923634353462802 0 5.6286326266396952e-05 -0.014923634353462802 0 0.00016304189150395716 -0.014944616605669852 0 0.00020284991825568574 -0.014840885642183074 0 6.6800753632568417e-05 -0.014817732808530357 0 5.6286326266396952e-05 -0.014923634353462802 0 0.00020284991825568574 -0.014840885642183074 0 0.0003860816543938556 -0.014791378142930656 0 0.00020284991825568574 -0.014840885642183074 0 0.00031821104107172446 -0.01498266059481375 0 0.00016304189150395716 -0.014944616605669852 0 0.00020284991825568574 -0.014840885642183074 0 0.00031821104107172446 -0.01498266059481375 0 0.00016304189150395716 -0.014944616605669852 0 0.00031821104107172446 -0.01498266059481375 0 9.550717057446008e-05 -0.015038633991531547 0 9.0333548688215933e-05 -0.01455168403254088 0 4.3107597003440015e-06 -0.01477035558408369 0 -0.00017658199063126144 -0.014235919177945035 0 -0.00013617782068278016 -0.014181337448890101 0 -0.00023053050431440906 -0.014208241241082676 0 5.6286326266396952e-05 -0.014923634353462802 0 0.00016304189150395716 -0.014944616605669852 0 9.550717057446008e-05 -0.015038633991531547 0 0.00011024132961291543 -0.0071171157534610507 0 0.0001046565779701576 -0.0070443873887515952 0 6.8253091419978574e-05 -0.0071092982656623064 0 0.00016807316619301153 -0.0070631049812922815 0 0.00011024132961291543 -0.0071171157534610507 0 0.0001046565779701576 -0.0070443873887515952 0 -0.00010340050221028876 -0.0088321910441359393 0 -0.00011313271163681679 -0.0087996320346432119 0 2.9451567965049032e-05 -0.0087146385091646864 0 4.9918032547403451e-05 -0.0078855842750966774 0 5.9733056189720417e-05 -0.0079204123182317499 0 -0.00011313271163681679 -0.0087996320346432119 0 -7.8031842826995721e-05 -0.008421496231008541 0 -0.00012349391169260159 -0.0088312361050215029 0 -0.00011313271163681679 -0.0087996320346432119 0 2.9451567965049032e-05 -0.0087146385091646864 0 -7.8031842826995721e-05 -0.008421496231008541 0 5.9733056189720417e-05 -0.0079204123182317499 0 7.8702604697998454e-05 -0.0076300476466357441 0 2.9451567965049032e-05 -0.0087146385091646864 0 -7.8031842826995721e-05 -0.008421496231008541 0 0.00018965640149378374 -0.0081778191125007824 0 -7.2997144289447272e-06 -0.007988027758348816 0 -7.8031842826995721e-05 -0.008421496231008541 0 0.00018965640149378374 -0.0081778191125007824 0 -7.2997144289447272e-06 -0.007988027758348816 0 7.5561361959146185e-08 -0.007502037679953018 0 -2.2845398189246348e-07 -0.0082759875530389691 0 -7.2997144289447272e-06 -0.007988027758348816 0 7.5561361959146185e-08 -0.007502037679953018 0 5.6386377398701725e-05 -0.0076380281171218754 0 -7.2997144289447272e-06 -0.007988027758348816 0 -2.2845398189246348e-07 -0.0082759875530389691 0 -7.8031842826995721e-05 -0.008421496231008541 0 -2.2845398189246348e-07 -0.0082759875530389691 0 -7.8031842826995721e-05 -0.008421496231008541 0 -7.5124402056175443e-05 -0.0087431096936844144 0 -7.8031842826995721e-05 -0.008421496231008541 0 -0.00012349391169260159 -0.0088312361050215029 0 -7.5124402056175443e-05 -0.0087431096936844144 0 -0.00012349391169260159 -0.0088312361050215029 0 -7.5124402056175443e-05 -0.0087431096936844144 0 -5.7493683592594592e-05 -0.0091510237387976631 0 -2.2845398189246348e-07 -0.0082759875530389691 0 -7.5124402056175443e-05 -0.0087431096936844144 0 -1.4360179302762143e-07 -0.0090497883888063773 0 -7.5124402056175443e-05 -0.0087431096936844144 0 -1.4360179302762143e-07 -0.0090497883888063773 0 -5.7493683592594592e-05 -0.0091510237387976631 0 -1.4360179302762143e-07 -0.0090497883888063773 0 -5.7493683592594592e-05 -0.0091510237387976631 0 3.9984611635940196e-08 -0.009823429134224711 0 -0.00012349391169260159 -0.0088312361050215029 0 -5.7493683592594592e-05 -0.0091510237387976631 0 -9.2259772232416168e-05 -0.0089495340440521251 0 -5.7493683592594592e-05 -0.0091510237387976631 0 -9.2259772232416168e-05 -0.0089495340440521251 0 3.8727588972314676e-05 -0.0095321728994418251 0 -0.00011313271163681679 -0.0087996320346432119 0 -0.00012349391169260159 -0.0088312361050215029 0 -9.2259772232416168e-05 -0.0089495340440521251 0 -0.00011313271163681679 -0.0087996320346432119 0 -9.2259772232416168e-05 -0.0089495340440521251 0 -6.9413811068701195e-05 -0.0088315475547103058 0 -0.00010340050221028876 -0.0088321910441359393 0 -0.00011313271163681679 -0.0087996320346432119 0 -6.9413811068701195e-05 -0.0088315475547103058 0 -9.2259772232416168e-05 -0.0089495340440521251 0 -6.9413811068701195e-05 -0.0088315475547103058 0 3.2301346240739301e-05 -0.0088237908532024251 0 3.2301346240739301e-05 -0.0088237908532024251 0 0.00014118052842055422 -0.0089227289237990264 0 6.3781363504054024e-05 -0.0087574223783477099 0 -9.2259772232416168e-05 -0.0089495340440521251 0 3.2301346240739301e-05 -0.0088237908532024251 0 0.00014118052842055422 -0.0089227289237990264 0 8.1765249321408802e-05 -0.0094461459430993395 0 4.7142133105969379e-05 -0.0093922989881986066 0 4.9838966030755694e-05 -0.0099714491394873681 0 -1.4379464092438599e-05 -0.009986667374883039 0 -6.6135005087098755e-05 -0.0099224693148378361 0 -1.4379464092438599e-05 -0.009986667374883039 0 -6.6135005087098755e-05 -0.0099224693148378361 0 -4.2749439011002634e-05 -0.0099746483210415102 0 4.9838966030755694e-05 -0.0099714491394873681 0 -1.4379464092438599e-05 -0.009986667374883039 0 1.3083086016781895e-05 -0.0099999429553947975 0 -9.2259772232416168e-05 -0.0089495340440521251 0 0.00014118052842055422 -0.0089227289237990264 0 3.8727588972314676e-05 -0.0095321728994418251 0 4.9838966030755694e-05 -0.0099714491394873681 0 -6.6135005087098755e-05 -0.0099224693148378361 0 3.8727588972314676e-05 -0.0095321728994418251 0 8.1765249321408802e-05 -0.0094461459430993395 0 5.2661969747780276e-05 -0.0095237921390442445 0 -5.7493683592594592e-05 -0.0091510237387976631 0 3.8727588972314676e-05 -0.0095321728994418251 0 3.9984611635940196e-08 -0.009823429134224711 0 3.8727588972314676e-05 -0.0095321728994418251 0 3.9984611635940196e-08 -0.009823429134224711 0 -5.6347698164694996e-05 -0.0099869158778754311 0 3.9984611635940196e-08 -0.009823429134224711 0 -5.6347698164694996e-05 -0.0099869158778754311 0 -4.3761770930592778e-07 -0.010597434508115046 0 -6.6135005087098755e-05 -0.0099224693148378361 0 -5.6347698164694996e-05 -0.0099869158778754311 0 -4.90720