<?xml version="1.0"?>
<VTKFile type="UnstructuredGrid" version="0.1" byte_order="LittleEndian">
<UnstructuredGrid>
<Piece NumberOfPoints="30578" NumberOfCells="10723">
<Points>
<DataArray type="Float64" NumberOfComponents="3" format="ascii">
-0.5 -0.5 0 -0.47439485679867832 -0.48072581506667478 0 -0.5 -0.44765434486020428 0 -0.5 -0.5 0 -0.47439485679867832 -0.48072581506667478 0 -0.43702443379937372 -0.49999999999999922 0 -0.47439485679867832 -0.48072581506667478 0 -0.45530669598391149 -0.47718009944797551 0 -0.43702443379937372 -0.49999999999999922 0 -0.47439485679867832 -0.48072581506667478 0 -0.45530669598391149 -0.47718009944797551 0 -0.4597353119515426 -0.45943449384344293 0 -0.45530669598391149 -0.47718009944797551 0 -0.44381084376742141 -0.47114793899167112 0 -0.4597353119515426 -0.45943449384344293 0 -0.45530669598391149 -0.47718009944797551 0 -0.44381084376742141 -0.47114793899167112 0 -0.43702443379937372 -0.49999999999999922 0 -0.44381084376742141 -0.47114793899167112 0 -0.43702443379937372 -0.49999999999999922 0 -0.45059725373546922 -0.44229587798334291 0 -0.4339166039271336 -0.43498117536117131 0 -0.43309128002320102 -0.45351235807576151 0 -0.44381084376742141 -0.47114793899167112 0 -0.45059725373546922 -0.44229587798334291 0 -0.4597353119515426 -0.45943449384344293 0 -0.44381084376742141 -0.47114793899167112 0 -0.45059725373546922 -0.44229587798334291 0 -0.43309128002320102 -0.45351235807576151 0 -0.44381084376742141 -0.47114793899167112 0 -0.45059725373546922 -0.44229587798334291 0 -0.4597353119515426 -0.45943449384344293 0 -0.47505511338101108 -0.44868394208069429 0 -0.46517432262153441 -0.43649963461163338 0 -0.45059725373546922 -0.44229587798334291 0 -0.4597353119515426 -0.45943449384344293 0 -0.46517432262153441 -0.43649963461163338 0 -0.47505511338101108 -0.44868394208069429 0 -0.47820614292347569 -0.42776699273468149 0 -0.46517432262153441 -0.43649963461163338 0 -0.47505511338101108 -0.44868394208069429 0 -0.47820614292347569 -0.42776699273468149 0 -0.47439485679867832 -0.48072581506667478 0 -0.47505511338101108 -0.44868394208069429 0 -0.5 -0.44765434486020428 0 -0.47439485679867832 -0.48072581506667478 0 -0.4597353119515426 -0.45943449384344293 0 -0.47505511338101108 -0.44868394208069429 0 -0.47505511338101108 -0.44868394208069429 0 -0.5 -0.44765434486020428 0 -0.47820614292347569 -0.42776699273468149 0 -0.5 -0.44765434486020428 0 -0.49656450065014057 -0.42151023988558672 0 -0.47820614292347569 -0.42776699273468149 0 -0.5 -0.44765434486020428 0 -0.49656450065014057 -0.42151023988558672 0 -0.50000000000000089 -0.37904661106745707 0 -0.49656450065014057 -0.42151023988558672 0 -0.48135717246594062 -0.40685004338866881 0 -0.47820614292347569 -0.42776699273468149 0 -0.49656450065014057 -0.42151023988558672 0 -0.48135717246594062 -0.40685004338866881 0 -0.48135717246594062 -0.40685004338866881 0 -0.47820614292347569 -0.42776699273468149 0 -0.48135717246594062 -0.40685004338866881 0 -0.47820614292347569 -0.42776699273468149 0 -0.45738366370351707 -0.41344381697501481 0 -0.49656450065014057 -0.42151023988558672 0 -0.48135717246594062 -0.40685004338866881 0 -0.50000000000000089 -0.37904661106745707 0 -0.50000000000000089 -0.37904661106745707 0 -0.48466894952205442 -0.38486603086372417 0 -0.48717439863114548 -0.36823452950912272 0 -0.48135717246594062 -0.40685004338866881 0 -0.50000000000000089 -0.37904661106745707 0 -0.48466894952205442 -0.38486603086372417 0 -0.48466894952205442 -0.38486603086372417 0 -0.48717439863114548 -0.36823452950912272 0 -0.50000000000000089 -0.37904661106745707 0 -0.48466894952205442 -0.38486603086372417 0 -0.48135717246594062 -0.40685004338866881 0 -0.48466894952205442 -0.38486603086372417 0 -0.46593083509403682 -0.39197871725165279 0 -0.48135717246594062 -0.40685004338866881 0 -0.48466894952205442 -0.38486603086372417 0 -0.48135717246594062 -0.40685004338866881 0 -0.46593083509403682 -0.39197871725165279 0 -0.48466894952205442 -0.38486603086372417 0 -0.47195833844942919 -0.37959069520904498 0 -0.46593083509403682 -0.39197871725165279 0 -0.48466894952205442 -0.38486603086372417 0 -0.46593083509403682 -0.39197871725165279 0 -0.48466894952205442 -0.38486603086372417 0 -0.47195833844942919 -0.37959069520904498 0 -0.48717439863114548 -0.36823452950912272 0 -0.46593083509403682 -0.39197871725165279 0 -0.44890944387521442 -0.39029302340116001 0 -0.45132291774153199 -0.37789636588759368 0 -0.47195833844942919 -0.37959069520904498 0 -0.46593083509403682 -0.39197871725165279 0 -0.45132291774153199 -0.37789636588759368 0 -0.46593083509403682 -0.39197871725165279 0 -0.45132291774153199 -0.37789636588759368 0 -0.48135717246594062 -0.40685004338866881 0 -0.46593083509403682 -0.39197871725165279 0 -0.45738366370351707 -0.41344381697501481 0 -0.46593083509403682 -0.39197871725165279 0 -0.44275815558040038 -0.40077469311046232 0 -0.45738366370351707 -0.41344381697501481 0 -0.46593083509403682 -0.39197871725165279 0 -0.44275815558040038 -0.40077469311046232 0 -0.46593083509403682 -0.39197871725165279 0 -0.44275815558040038 -0.40077469311046232 0 -0.44890944387521442 -0.39029302340116001 0 -0.44275815558040038 -0.40077469311046232 0 -0.44064580868350911 -0.39542861624611658 0 -0.44890944387521442 -0.39029302340116001 0 -0.44225344557501872 -0.38376649822575309 0 -0.45132291774153199 -0.37789636588759368 0 -0.43671500038902772 -0.36381401452353412 0 -0.44890944387521442 -0.39029302340116001 0 -0.44225344557501872 -0.38376649822575309 0 -0.45132291774153199 -0.37789636588759368 0 -0.44064580868350911 -0.39542861624611658 0 -0.44225344557501872 -0.38376649822575309 0 -0.43040194378266172 -0.3881600185019185 0 -0.44064580868350911 -0.39542861624611658 0 -0.44890944387521442 -0.39029302340116001 0 -0.44225344557501872 -0.38376649822575309 0 -0.47820614292347569 -0.42776699273468149 0 -0.46517432262153441 -0.43649963461163338 0 -0.45738366370351707 -0.41344381697501481 0 -0.45059725373546922 -0.44229587798334291 0 -0.45738366370351707 -0.41344381697501481 0 -0.45059725373546922 -0.44229587798334291 0 -0.46517432262153441 -0.43649963461163338 0 -0.45738366370351707 -0.41344381697501481 0 -0.44275815558040038 -0.40077469311046232 0 -0.45738366370351707 -0.41344381697501481 0 -0.44164244492799948 -0.42121090558557039 0 -0.45059725373546922 -0.44229587798334291 0 -0.45738366370351707 -0.41344381697501481 0 -0.44164244492799948 -0.42121090558557039 0 -0.45059725373546922 -0.44229587798334291 0 -0.44164244492799948 -0.42121090558557039 0 -0.4339166039271336 -0.43498117536117131 0 -0.4339166039271336 -0.43498117536117131 0 -0.42355654769347711 -0.414558964497861 0 -0.41671115160429401 -0.44095791049380378 0 -0.44164244492799948 -0.42121090558557039 0 -0.4339166039271336 -0.43498117536117131 0 -0.42355654769347711 -0.414558964497861 0 -0.44275815558040038 -0.40077469311046232 0 -0.44164244492799948 -0.42121090558557039 0 -0.42355654769347711 -0.414558964497861 0 -0.42355654769347711 -0.414558964497861 0 -0.41056920252370888 -0.3963363404412637 0 -0.40050668374064252 -0.41734442193795029 0 -0.42355654769347711 -0.414558964497861 0 -0.41671115160429401 -0.44095791049380378 0 -0.42355654769347711 -0.414558964497861 0 -0.40050668374064252 -0.41734442193795029 0 -0.41671115160429401 -0.44095791049380378 0 -0.44225344557501872 -0.38376649822575309 0 -0.43040194378266172 -0.3881600185019185 0 -0.43671500038902772 -0.36381401452353412 0 -0.43040194378266172 -0.3881600185019185 0 -0.43671500038902772 -0.36381401452353412 0 -0.44064580868350911 -0.39542861624611658 0 -0.42355654769347711 -0.414558964497861 0 -0.43040194378266172 -0.3881600185019185 0 -0.42355654769347711 -0.414558964497861 0 -0.43040194378266172 -0.3881600185019185 0 -0.44275815558040038 -0.40077469311046232 0 -0.44064580868350911 -0.39542861624611658 0 -0.42355654769347711 -0.414558964497861 0 -0.44064580868350911 -0.39542861624611658 0 -0.43040194378266172 -0.3881600185019185 0 -0.42355654769347711 -0.414558964497861 0 -0.43040194378266172 -0.3881600185019185 0 -0.41056920252370888 -0.3963363404412637 0 -0.43040194378266172 -0.3881600185019185 0 -0.4079689369259607 -0.37224253963894771 0 -0.43040194378266172 -0.3881600185019185 0 -0.41056920252370888 -0.3963363404412637 0 -0.4079689369259607 -0.37224253963894771 0 -0.41056920252370888 -0.3963363404412637 0 -0.39195929229331972 -0.37982250283040359 0 -0.4079689369259607 -0.37224253963894771 0 -0.41056920252370888 -0.3963363404412637 0 -0.39195929229331972 -0.37982250283040359 0 -0.39357845321732049 -0.39746174547711199 0 -0.41056920252370888 -0.3963363404412637 0 -0.39357845321732049 -0.39746174547711199 0 -0.40050668374064252 -0.41734442193795029 0 -0.39357845321732049 -0.39746174547711199 0 -0.38114412328536468 -0.40833987260765031 0 -0.36544727141479139 -0.39026932065168712 0 -0.39195929229331972 -0.37982250283040359 0 -0.37549160074202448 -0.3732971907138336 0 -0.36544727141479139 -0.39026932065168712 0 -0.39195929229331972 -0.37982250283040359 0 -0.39357845321732049 -0.39746174547711199 0 -0.36544727141479139 -0.39026932065168712 0 -0.40050668374064252 -0.41734442193795029 0 -0.3944977858259317 -0.43926335073686201 0 -0.41671115160429401 -0.44095791049380378 0 -0.40050668374064252 -0.41734442193795029 0 -0.38028594703985957 -0.42392304976487449 0 -0.3944977858259317 -0.43926335073686201 0 -0.39357845321732049 -0.39746174547711199 0 -0.40050668374064252 -0.41734442193795029 0 -0.38114412328536468 -0.40833987260765031 0 -0.40050668374064252 -0.41734442193795029 0 -0.38114412328536468 -0.40833987260765031 0 -0.38028594703985957 -0.42392304976487449 0 -0.38114412328536468 -0.40833987260765031 0 -0.38028594703985957 -0.42392304976487449 0 -0.36590226101420908 -0.41270082520662749 0 -0.38028594703985957 -0.42392304976487449 0 -0.3944977858259317 -0.43926335073686201 0 -0.3723601590800425 -0.44005613486137668 0 -0.3944977858259317 -0.43926335073686201 0 -0.38265619596279349 -0.45813348326120767 0 -0.3723601590800425 -0.44005613486137668 0 -0.40093272222703252 -0.45142790024540502 0 -0.3944977858
[...]
<PointData Scalars="" Vectors="displacement," Tensors="">
<DataArray type="Float64" Name="displacement" NumberOfComponents="3" format="ascii">
-4.0586468867950452e-07 -0.02499847126819851 0 -0.00015386100780836112 -0.024458631445939287 0 1.7632603585239624e-07 -0.022384003660144484 0 -4.0586468867950452e-07 -0.02499847126819851 0 -0.00015386100780836112 -0.024458631445939287 0 -2.2885172332755179e-07 -0.024998899923206221 0 -0.00015386100780836112 -0.024458631445939287 0 -0.00010324895843776941 -0.024553507795685589 0 -2.2885172332755179e-07 -0.024998899923206221 0 -0.00015386100780836112 -0.024458631445939287 0 -0.00010324895843776941 -0.024553507795685589 0 -3.3845554599919468e-06 -0.024198415662697474 0 -0.00010324895843776941 -0.024553507795685589 0 -9.8651784599514171e-05 -0.024592967355866691 0 -3.3845554599919468e-06 -0.024198415662697474 0 -0.00010324895843776941 -0.024553507795685589 0 -9.8651784599514171e-05 -0.024592967355866691 0 -2.2885172332755179e-07 -0.024998899923206221 0 9.8241678739037695e-06 -0.02465342524114459 0 -5.2579830107087659e-08 -0.024999885520995808 0 0.00050204346744340644 -0.024371674817431434 0 0.00064346942398975165 -0.024652296904884428 0 0.00033808319709280159 -0.024734809403638459 0 -9.8651784599514171e-05 -0.024592967355866691 0 0.0003459318364054403 -0.024294534576674666 0 -3.3845554599919468e-06 -0.024198415662697474 0 0.0001113345893876102 -0.024696221347550597 0 0.00050204346744340644 -0.024371674817431434 0 0.00033808319709280159 -0.024734809403638459 0 9.8241678739037695e-06 -0.02465342524114459 0 0.00043932499316049736 -0.024332823462133106 0 -3.3845554599919468e-06 -0.024198415662697474 0 0.00010535103530964503 -0.023433342549408428 0 0.00049557746986084162 -0.023863093563918612 0 0.0003459318364054403 -0.024294534576674666 0 -3.3845554599919468e-06 -0.024198415662697474 0 0.00049557746986084162 -0.023863093563918612 0 0.00010535103530964503 -0.023433342549408428 0 0.00073097092231512342 -0.023497004185120671 0 0.00049557746986084162 -0.023863093563918612 0 8.0436071689668958e-06 -0.023328723664592578 0 0.0004550483936878525 -0.023094795134892886 0 -0.00015386100780836112 -0.024458631445939287 0 0.00010535103530964503 -0.023433342549408428 0 1.7632603585239624e-07 -0.022384003660144484 0 -0.00015386100780836112 -0.024458631445939287 0 -3.3845554599919468e-06 -0.024198415662697474 0 0.00010535103530964503 -0.023433342549408428 0 0.00010535103530964503 -0.023433342549408428 0 1.7632603585239624e-07 -0.022384003660144484 0 6.0395160261073686e-05 -0.02245674769477338 0 1.7632603585239624e-07 -0.022384003660144484 0 4.5379963162323173e-05 -0.021156517969231285 0 6.0395160261073686e-05 -0.02245674769477338 0 1.7632603585239624e-07 -0.022384003660144484 0 4.5379963162323173e-05 -0.021156517969231285 0 6.2881606630690107e-07 -0.018953935966201398 0 4.5379963162323173e-05 -0.021156517969231285 0 0.0011665820099303226 -0.022182429852855189 0 6.0395160261073686e-05 -0.02245674769477338 0 3.446568099395579e-06 -0.020965647662335583 0 0.00072195192775296568 -0.021692833902636852 0 0.00072195192775296568 -0.021692833902636852 0 0.0004550483936878525 -0.023094795134892886 0 0.0012339139577132348 -0.023438116704350864 0 0.00073097092231512342 -0.023497004185120671 0 0.001078756167567493 -0.024061368407389466 0 4.5379963162323173e-05 -0.021156517969231285 0 -3.4746798100162763e-05 -0.020314420908643036 0 6.2881606630690107e-07 -0.018953935966201398 0 1.7370938818711492e-06 -0.018950111896387897 0 0.0006290641185562522 -0.017830673010054261 0 1.6655858331049471e-05 -0.017686724225206358 0 -3.4746798100162763e-05 -0.020314420908643036 0 6.2881606630690107e-07 -0.018953935966201398 0 0.0001126971115475671 -0.019680886607904111 0 0.00056069037440480856 -0.018680896255837205 0 0.00013169729179338203 -0.017722515628166784 0 1.4840776018487359e-07 -0.018952444636563932 0 0.00056069037440480856 -0.018680896255837205 0 0.0005173580016379273 -0.020473212129438118 0 0.0010767005821954042 -0.020376528576376562 0 0.00089702294834806569 -0.020864092785713603 0 0.00072195192775296568 -0.021692833902636852 0 0.00056069037440480856 -0.018680896255837205 0 0.00072195192775296568 -0.021692833902636852 0 0.00111536019087216 -0.021329305387002458 0 0.00060628031061342371 -0.017556632379146033 0 0.00043327449232886229 -0.017119868414970509 0 0.00076513519031501376 -0.01698255875563762 0 0.00056069037440480856 -0.018680896255837205 0 0.00111536019087216 -0.021329305387002458 0 0.00060628031061342371 -0.017556632379146033 0 0.00043327449232886229 -0.017119868414970509 0 1.6655858331049471e-05 -0.017686724225206358 0 0.0014207952321475857 -0.024047281575511288 0 0.0014477887115583834 -0.024264115219070299 0 0.0015381292254685278 -0.02423132011902375 0 0.00043327449232886229 -0.017119868414970509 0 0.00076513519031501376 -0.01698255875563762 0 0.00033264372416027822 -0.016649132526634382 0 0.00111536019087216 -0.021329305387002458 0 0.00095985290821670516 -0.020430815584642506 0 0.0012339139577132348 -0.023438116704350864 0 0.0015738255983243133 -0.023830266393966602 0 0.001078756167567493 -0.024061368407389466 0 0.0015738255983243133 -0.023830266393966602 0 0.0013355469985265511 -0.024360401794760511 0 0.001078756167567493 -0.024061368407389466 0 0.00111536019087216 -0.021329305387002458 0 0.0012551356344633626 -0.025316626267246886 0 0.0014207952321475857 -0.024047281575511288 0 0.0013355469985265511 -0.024360401794760511 0 0.0014477887115583834 -0.024264115219070299 0 0.0013355469985265511 -0.024360401794760511 0 0.0014230616760410948 -0.024375911101109766 0 0.0014477887115583834 -0.024264115219070299 0 0.001494758435753636 -0.024308588480688911 0 0.0015381292254685278 -0.02423132011902375 0 0.0015853826533761383 -0.024291529176815641 0 0.0014477887115583834 -0.024264115219070299 0 0.001494758435753636 -0.024308588480688911 0 0.0015381292254685278 -0.02423132011902375 0 0.0014230616760410948 -0.024375911101109766 0 0.001494758435753636 -0.024308588480688911 0 0.0014685992473065005 -0.024371811696632616 0 0.0014230616760410948 -0.024375911101109766 0 0.0014477887115583834 -0.024264115219070299 0 0.001494758435753636 -0.024308588480688911 0 0.00073097092231512342 -0.023497004185120671 0 0.00049557746986084162 -0.023863093563918612 0 0.001078756167567493 -0.024061368407389466 0 0.00043932499316049736 -0.024332823462133106 0 0.0010546388132420819 -0.024083275226007839 0 0.0003459318364054403 -0.024294534576674666 0 0.00049557746986084162 -0.023863093563918612 0 0.001078756167567493 -0.024061368407389466 0 0.0013355469985265511 -0.024360401794760511 0 0.001078756167567493 -0.024061368407389466 0 0.00091241603525575024 -0.02444940198148686 0 0.00050204346744340644 -0.024371674817431434 0 0.001078756167567493 -0.024061368407389466 0 0.00091241603525575024 -0.02444940198148686 0 0.00050204346744340644 -0.024371674817431434 0 0.00091241603525575024 -0.02444940198148686 0 0.00064346942398975165 -0.024652296904884428 0 0.00064346942398975165 -0.024652296904884428 0 0.0010365691730705798 -0.02480353980098856 0 0.00053035173511953293 -0.024971100991356254 0 0.00091241603525575024 -0.02444940198148686 0 0.00064346942398975165 -0.024652296904884428 0 0.0010365691730705798 -0.02480353980098856 0 0.0013355469985265511 -0.024360401794760511 0 0.00091241603525575024 -0.02444940198148686 0 0.0010365691730705798 -0.02480353980098856 0 -7.9280229027370297e-05 -0.023597141243366478 0 4.1385859758095434e-06 -0.023655288113374345 0 -9.560101730583768e-05 -0.023717496770940743 0 0.00040647612004856979 -0.024340631059577112 0 0.00015055591448035196 -0.024252806720901476 0 -7.9280229027370297e-05 -0.023597141243366478 0 -9.560101730583768e-05 -0.023717496770940743 0 -0.00022696303447131087 -0.02363556241481685 0 0.001494758435753636 -0.024308588480688911 0 0.0014685992473065005 -0.024371811696632616 0 0.0015853826533761383 -0.024291529176815641 0 0.0010365688497152332 -0.023081401715964529 0 0.00043327546360961213 -0.019953292654307651 0 0.0014230616760410948 -0.024375911101109766 0 0.0010365691730705798 -0.02480353980098856 0 0.0015809428599459997 -0.024596823218769801 0 0.00040647612004856979 -0.024340631059577112 0 0.0010365688497152332 -0.023081401715964529 0 0.0013355469985265511 -0.024360401794760511 0 0.0014230616760410948 -0.024375911101109766 0 0.0010365691730705798 -0.02480353980098856 0 0.0016977000490335362 -0.024580756121539728 0 0.0010365688497152332 -0.023081401715964529 0 -7.9280229027370297e-05 -0.023597141243366478 0 4.615535075103757e-05 -0.023561023159592052 0 4.1385859758095434e-06 -0.023655288113374345 0 0.0010365688497152332 -0.023081401715964529 0 0.00038845552394219611 -0.021731261036934159 0 4.615535075103757e-05 -0.023561023159592052 0 4.1385859758095434e-06 -0.023655288113374345 0 0.00010151247081634042 -0.023651121338792699 0 4.1385859758095434e-06 -0.023655288113374345 0 6.6963546789443681e-05 -0.023727124931673373 0 0.00010151247081634042 -0.023651121338792699 0 4.1385859758095434e-06 -0.023655288113374345 0 6.6963546789443681e-05 -0.023727124931673373 0 -5.2550244970351535e-06 -0.023738950784694582 0 4.1385859758095434e-06 -0.023655288113374345 0 -5.2550244970351535e-06 -0.023738950784694582 0 -9.560101730583768e-05 -0.023717496770940743 0 -5.2550244970351535e-06 -0.023738950784694582 0 -5.3530961707696454e-05 -0.023812708372226637 0 7.3121431357756189e-06 -0.023848857632227952 0 6.6963546789443681e-05 -0.023727124931673373 0 9.1371326950651574e-05 -0.023794981940359641 0 7.3121431357756189e-06 -0.023848857632227952 0 6.6963546789443681e-05 -0.023727124931673373 0 -5.2550244970351535e-06 -0.023738950784694582 0 7.3121431357756189e-06 -0.023848857632227952 0 -9.560101730583768e-05 -0.023717496770940743 0 -0.00021792247909988829 -0.023759799060777159 0 -0.00022696303447131087 -0.02363556241481685 0 -9.560101730583768e-05 -0.023717496770940743 0 -0.00012593847448079059 -0.023839087992532735 0 -0.00021792247909988829 -0.023759799060777159 0 -5.2550244970351535e-06 -0.023738950784694582 0 -9.560101730583768e-05 -0.023717496770940743 0 -5.3530961707696454e-05 -0.023812708372226637 0 -9.560101730583768e-05 -0.023717496770940743 0 -5.3530961707696454e-05 -0.023812708372226637 0 -0.00012593847448079059 -0.023839087992532735 0 -5.3530961707696454e-05 -0.023812708372226637 0 -0.00012593847448079059 -0.023839087992532735 0 -7.3529419030026992e-05 -0.023898773807120504 0 -0.00012593847448079059 -0.023839087992532735 0 -0.00021792247909988829 -0.023759799060777159 0 -0.0002145038468393696 -0.023915427196063665 0 -0.00021792247909988829 -0.023759799060777159 0 -0.00034965530349616097 -0.023837437436989236 0 -0.0002145038468393696 -0.023915427196063665 0 -0.00029430331771877321 -0.023726531963241721 0 -0.00021792247909988829 -0.023759799060777159 0 -0.00034965530349616097 -0.023837437436989236 0 -0.00029430331771877321 -0.023726531963241721 0 -0.00021792247909988829 -0.023759799060777159 0 -0.00022696303447131087 -0.02363556241481685 0 -0.00032041210403609149 -0.024263675074189198 0 7.1845995005662171e-06 -0.024617259306806142 0 -0.00022342712490603707 -0.024825222876854253 0 -1.9502572817982013e-05 -0.024956053991002689 0 -7.2506447383768419e-05 -0.025083057801441655 0 -0.00029430331771877321 -0.023726531963241721 0 -0.00034965530349616097 -0.023837437436989236 0 -0.00038421750719067695 -0.023680402068471124 0 -0.00022342712490603707 -0.024825222876854253 0 5.5966421738730329e-06 -0.024872986541353597 0 -1.9502572817982013e-05 -0.024956053991002689 0 5.5966421738730329e-06 -0.024872986541353597 0 7.8217661171940002e-06 -0.024956262431273083 0 -1.0850189792004771e-05 -0.024972213730087459 0 5.5966421738730329e-06 -0.024872986541353597 0 7.8217661171940002e-06 -0.024956262431273083 0 -1.9502572817982013e-05 -0.024956053991002689 0 -2.7122029692701912e-08 -0.024999922355186725 0 7.8217661171940002e-06 -0.024956262431273083 0 6.684496875856654e-08 -0.024999955539541794 0 -2.7122029692701912e-08 -0.024999922355186725 0 7.8217661171940002e-06 -0.024956262431273083 0 -1.0850189792004771e-05 -0.024972213730087459 0 7.8217661171940002e-06 -0.024956262431273083 0 6.684496875856654e-08 -0.024999955539541794 0 9.7950740771568996e-06 -0.025009284606108146 0 2.3586221426951769e-08 -0.025000002193175015 0 5.347716631440682e-06 -0.025011539154877919 0 9.7950740771568996e-06 -0.025009284606108146 0 -1.9502572817982013e-05 -0.024956053991002689 0 -7.2506447383768419e-05 -0.025083057801441655 0 7.8217661171940002e-06 -0.024956262431273083 0 9.7950740771568996e-06 -0.025009284606108146 0 -1.9502572817982013e-05 -0.024956053991002689 0 5.347716631440682e-06 -0.025011539154877919 0 7.1845995005662171e-06 -0.024617259306806142 0 0.0001459713590313155 -0.025034415446336829 0 7.1845995005662171e-06 -0.024617259306806142 0 3.4772079230042684e-05 -0.024960103707752711 0 9.3810543777322946e-05 -0.024872723922438004 0 0.0001190155955176545 -0.024992193366894993 0 3.672249522924868e-05 -0.025006826406635145 0 3.4772079230042684e-05 -0.024960103707752711 0 0.0001190155955176545 -0.024992193366894993 0 3.672249522924868e-05 -0.025006826406635145 0 3.4772079230042684e-05 -0.024960103707752711 0 3.8916498603990477e-08 -0.025000001326895296 0 3.3731692825314435e-09 -0.02500003534926248 0 3.672249522924868e-05 -0.025006826406635145 0 3.8916498603990477e-08 -0.025000001326895296 0 3.4772079230042684e-05 -0.024960103707752711 0 3.8916498603990477e-08 -0.025000001326895296 0 -1.0901772250393524e-07 -0.024999706601798889 0 3.4772079230042684e-05 -0.024960103707752711 0 -1.0901772250393524e-07 -0.024999706601798889 0 9.3810543777322946e-05 -0.024872723922438004 0 0.0001113345893876102 -0.024696221347550597 0 -1.0901772250393524e-07 -0.024999706601798889 0 9.3810543777322946e-05 -0.024872723922438004 0 9.3810543777322946e-05 -0.024872723922438004 0 0.00027173648583992148 -0.024907694342783088 0 0.00033808319709280159 -0.024734809403638459 0 0.0001113345893876102 -0.024696221347550597 0 9.3810543777322946e-05 -0.024872723922438004 0 0.00033808319709280159 -0.024734809403638459 0 0.00064346942398975165 -0.024652296904884428 0 0.00033808319709280159 -0.024734809403638459 0 0.00053035173511953293 -0.024971100991356254 0 0.00027173648583992148 -0.024907694342783088 0 0.00033808319709280159 -0.024734809403638459 0 0.00053035173511953293 -0.024971100991356254 0 0.00027173648583992148 -0.024907694342783088 0 0.00053035173511953293 -0.024971100991356254 0 0.00015917861762409379 -0.025064389985885911 0 0.00015055591448035196 -0.024252806720901476 0 7.1845995005662171e-06 -0.024617259306806142 0 -0.00029430331771877321 -0.023726531963241721 0 -0.00022696303447131087 -0.02363556241481685 0 -0.00038421750719067695 -0.023680402068471124 0 9.3810543777322946e-05 -0.024872723922438004 0 0.00027173648583992148 -0.024907694342783088 0 0.00015917861762409379 -0.025064389985885911 0 0.00018373554935486366 -0.011861859589101745 0 0.00017442762995026852 -0.011740645647919318 0 0.00011375515236663616 -0.011848830442770505 0 0.00028012194365502552 -0.01177184163548713 0 0.00018373554935486366 -0.011861859589101745 0 0.00017442762995026852 -0.011740645647919318 0 -0.0001723341703504814 -0.014720318406893234 0 -0.00018855451939469496 -0.014666053391072015 0 4.9085946608416451e-05 -0.014524397515274469 0 8.3196720912340425e-05 -0.013142640458494455 0 9.9555093649538107e-05 -0.01320068719705291 0 -0.00018855451939469496 -0.014666053391072015 0 -0.00013005307137832617 -0.014035827051680893 0 -0.00020582318615433622 -0.014718726841702504 0 -0.00018855451939469496 -0.014666053391072015 0 4.9085946608416451e-05 -0.014524397515274469 0 -0.00013005307137832617 -0.014035827051680893 0 9.9555093649538107e-05 -0.01320068719705291 0 0.00013117100783000023 -0.01271674607772624 0 4.9085946608416451e-05 -0.014524397515274469 0 -0.00013005307137832617 -0.014035827051680893 0 0.00031609400248963919 -0.013629698520834631 0 -1.216619071490806e-05 -0.01331337959724802 0 -0.00013005307137832617 -0.014035827051680893 0 0.00031609400248963919 -0.013629698520834631 0 -1.216619071490806e-05 -0.01331337959724802 0 1.2593560326524351e-07 -0.01250339613325503 0 -3.8075663648743904e-07 -0.013793312588398275 0 -1.216619071490806e-05 -0.01331337959724802 0 1.2593560326524351e-07 -0.01250339613325503 0 9.3977295664502482e-05 -0.012730046861869787 0 -1.216619071490806e-05 -0.01331337959724802 0 -3.8075663648743904e-07 -0.013793312588398275 0 -0.00013005307137832617 -0.014035827051680893 0 -3.8075663648743904e-07 -0.013793312588398275 0 -0.00013005307137832617 -0.014035827051680893 0 -0.00012520733676029289 -0.01457184948947402 0 -0.00013005307137832617 -0.014035827051680893 0 -0.00020582318615433622 -0.014718726841702504 0 -0.00012520733676029289 -0.01457184948947402 0 -0.00020582318615433622 -0.014718726841702504 0 -0.00012520733676029289 -0.01457184948947402 0 -9.582280598765485e-05 -0.015251706231329437 0 -3.8075663648743904e-07 -0.013793312588398275 0 -0.00012520733676029289 -0.01457184948947402 0 -2.3933632171270069e-07 -0.015082980648010632 0 -0.00012520733676029289 -0.01457184948947402 0 -2.3933632171270069e-07 -0.015082980648010632 0 -9.582280598765485e-05 -0.015251706231329437 0 -2.3933632171270069e-07 -0.015082980648010632 0 -9.582280598765485e-05 -0.015251706231329437 0 6.6641019393236181e-08 -0.016372381890374505 0 -0.00020582318615433622 -0.014718726841702504 0 -9.582280598765485e-05 -0.015251706231329437 0 -0.00015376628705402579 -0.014915890073420207 0 -9.582280598765485e-05 -0.015251706231329437 0 -0.00015376628705402579 -0.014915890073420207 0 6.4545981620525952e-05 -0.015886954832403044 0 -0.00018855451939469496 -0.014666053391072015 0 -0.00020582318615433622 -0.014718726841702504 0 -0.00015376628705402579 -0.014915890073420207 0 -0.00018855451939469496 -0.014666053391072015 0 -0.00015376628705402579 -0.014915890073420207 0 -0.00011568968511450089 -0.014719245924517175 0 -0.0001723341703504814 -0.014720318406893234 0 -0.00018855451939469496 -0.014666053391072015 0 -0.00011568968511450089 -0.014719245924517175 0 -0.00015376628705402579 -0.014915890073420207 0 -0.00011568968511450089 -0.014719245924517175 0 5.3835577067900262e-05 -0.014706318088670706 0 5.3835577067900262e-05 -0.014706318088670706 0 0.0002353008807009256 -0.014871214872998376 0 0.00010630227250675712 -0.014595703963912847 0 -0.00015376628705402579 -0.014915890073420207 0 5.3835577067900262e-05 -0.014706318088670706 0 0.0002353008807009256 -0.014871214872998376 0 0.00013627541553568322 -0.015743576571832237 0 7.8570221843282718e-05 -0.015653831646997678 0 8.3064943384594757e-05 -0.016619081899145613 0 -2.3965773487396473e-05 -0.01664444562480507 0 -0.00011022500847849798 -0.016537448858063061 0 -2.3965773487396473e-05 -0.01664444562480507 0 -0.00011022500847849798 -0.016537448858063061 0 -7.1249065018336535e-05 -0.016624413868402521 0 8.3064943384594757e-05 -0.016619081899145613 0 -2.3965773487396473e-05 -0.01664444562480507 0 2.1805143361305919e-05 -0.01666657159232467 0 -0.00015376628705402579 -0.014915890073420207 0 0.0002353008807009256 -0.014871214872998376 0 6.4545981620525952e-05 -0.015886954832403044 0 8.3064943384594757e-05 -0.016619081899145613 0 -0.00011022500847849798 -0.016537448858063061 0 6.4545981620525952e-05 -0.015886954832403044 0 0.00013627541553568322 -0.015743576571832237 0 8.7769949579635456e-05 -0.015872986898407073 0 -9.582280598765485e-05 -0.015251706231329437 0 6.4545981620525952e-05 -0.015886954832403044 0 6.6641019393236181e-08 -0.016372381890374505 0 6.4545981620525952e-05 -0.015886954832403044 0 6.6641019393236181e-08 -0.016372381890374505 0 -9.3912830274492365e-05 -0.016644859796459056 0 6.6641019393236181e-08 -0.016372381890374505 0 -9.3912830274492365e-05 -0.016644859796459056 0 -7.2936284884321174e-07 -0.017662390846858413 0 -0.00011022500847849798 -0.016537448858063061 0 -9.3912830274492365e-05 -0.016644859796459056 0 -8.1786686588145434e-05 -0.016747669677199203 0 -0.00011022500847849798 -0.016537448858063061 0 6.4545981620525952e-05 -0.015886954832403044 0 -9.3912830274492365e-05 -0.016644859796459