<?xml version="1.0"?>
<VTKFile type="UnstructuredGrid" version="0.1" byte_order="LittleEndian">
<UnstructuredGrid>
<Piece NumberOfPoints="31434" NumberOfCells="11010">
<Points>
<DataArray type="Float64" NumberOfComponents="3" format="ascii">
-0.5 -0.5 0 -0.44207127893691361 -0.44661186867661518 0 -0.46650555671861921 -0.43215933576015159 0 -0.5 -0.5 0 -0.5 -0.41645358869357257 0 -0.46650555671861921 -0.43215933576015159 0 -0.5 -0.5 0 -0.44207127893691361 -0.44661186867661518 0 -0.3985604456371149 -0.45968649078593998 0 -0.5 -0.41645358869357257 0 -0.45437877764365608 -0.39720952244282448 0 -0.46650555671861921 -0.43215933576015159 0 -0.5 -0.41645358869357257 0 -0.47712702305940069 -0.37980279090385022 0 -0.5 -0.3554717095780705 0 -0.5 -0.41645358869357257 0 -0.47712702305940069 -0.37980279090385022 0 -0.45437877764365608 -0.39720952244282448 0 -0.47712702305940069 -0.37980279090385022 0 -0.45870721580702289 -0.37896124243867929 0 -0.45437877764365608 -0.39720952244282448 0 -0.45437877764365608 -0.39720952244282448 0 -0.43218510119287817 -0.39024395878024792 0 -0.45437877764365608 -0.39720952244282448 0 -0.43640953449749792 -0.41645286829564149 0 -0.43218510119287817 -0.39024395878024792 0 -0.45870721580702289 -0.37896124243867929 0 -0.45437877764365608 -0.39720952244282448 0 -0.43218510119287817 -0.39024395878024792 0 -0.45870721580702289 -0.37896124243867929 0 -0.43218510119287817 -0.39024395878024792 0 -0.44485312580113529 -0.36849041383979569 0 -0.45437877764365608 -0.39720952244282448 0 -0.46650555671861921 -0.43215933576015159 0 -0.43640953449749792 -0.41645286829564149 0 -0.44207127893691361 -0.44661186867661518 0 -0.46650555671861921 -0.43215933576015159 0 -0.43640953449749792 -0.41645286829564149 0 -0.44207127893691361 -0.44661186867661518 0 -0.43640953449749792 -0.41645286829564149 0 -0.40986968630193088 -0.42903485496367422 0 -0.43640953449749792 -0.41645286829564149 0 -0.40986968630193088 -0.42903485496367422 0 -0.41527567728444859 -0.40422605848494092 0 -0.40986968630193088 -0.42903485496367422 0 -0.41527567728444859 -0.40422605848494092 0 -0.39973317942544651 -0.41331412382939742 0 -0.43218510119287817 -0.39024395878024792 0 -0.44485312580113529 -0.36849041383979569 0 -0.41843677448093852 -0.36877603182403679 0 -0.43640953449749792 -0.41645286829564149 0 -0.43218510119287817 -0.39024395878024792 0 -0.41527567728444859 -0.40422605848494092 0 -0.41527567728444859 -0.40422605848494092 0 -0.40999142474210049 -0.38327839511767131 0 -0.40326418592949059 -0.39762201224450422 0 -0.43218510119287817 -0.39024395878024792 0 -0.41527567728444859 -0.40422605848494092 0 -0.40999142474210049 -0.38327839511767131 0 -0.43218510119287817 -0.39024395878024792 0 -0.40999142474210049 -0.38327839511767131 0 -0.43218510119287817 -0.39024395878024792 0 -0.40999142474210049 -0.38327839511767131 0 -0.41843677448093852 -0.36877603182403679 0 -0.40999142474210049 -0.38327839511767131 0 -0.39606310876164108 -0.38900308997113509 0 -0.38779774829132269 -0.3763128314550947 0 -0.40999142474210049 -0.38327839511767131 0 -0.38779774829132269 -0.3763128314550947 0 -0.39202042316074159 -0.36906164980827783 0 -0.40999142474210049 -0.38327839511767131 0 -0.38779774829132269 -0.3763128314550947 0 -0.40999142474210049 -0.38327839511767131 0 -0.39606310876164108 -0.38900308997113509 0 -0.40326418592949059 -0.39762201224450422 0 -0.41527567728444859 -0.40422605848494092 0 -0.40326418592949059 -0.39762201224450422 0 -0.39973317942544651 -0.41331412382939742 0 -0.40326418592949059 -0.39762201224450422 0 -0.39217901818048551 -0.40048294554677177 0 -0.39973317942544651 -0.41331412382939742 0 -0.39606310876164108 -0.38900308997113509 0 -0.39217901818048551 -0.40048294554677177 0 -0.38519442549941779 -0.38919816131986978 0 -0.39606310876164108 -0.38900308997113509 0 -0.40326418592949059 -0.39762201224450422 0 -0.39217901818048551 -0.40048294554677177 0 -0.39217901818048551 -0.40048294554677177 0 -0.37647375533617761 -0.40283702630238649 0 -0.38519442549941779 -0.38919816131986978 0 -0.37647375533617761 -0.40283702630238649 0 -0.38519442549941779 -0.38919816131986978 0 -0.37137247577989668 -0.38855020055113848 0 -0.38779774829132269 -0.3763128314550947 0 -0.36560407184054478 -0.36934726779251847 0 -0.37488312704920029 -0.38066116407694611 0 -0.39606310876164108 -0.38900308997113509 0 -0.38519442549941779 -0.38919816131986978 0 -0.38779774829132269 -0.3763128314550947 0 -0.38519442549941779 -0.38919816131986978 0 -0.37488312704920029 -0.38066116407694611 0 -0.37137247577989668 -0.38855020055113848 0 -0.38519442549941779 -0.38919816131986978 0 -0.38779774829132269 -0.3763128314550947 0 -0.37488312704920029 -0.38066116407694611 0 -0.40986968630193088 -0.42903485496367422 0 -0.3841722700262109 -0.42157329572555052 0 -0.39220673734266981 -0.43852804317244171 0 -0.39217901818048551 -0.40048294554677177 0 -0.39973317942544651 -0.41331412382939742 0 -0.3841722700262109 -0.42157329572555052 0 -0.40986968630193088 -0.42903485496367422 0 -0.39973317942544651 -0.41331412382939742 0 -0.3841722700262109 -0.42157329572555052 0 -0.37647375533617761 -0.40283702630238649 0 -0.3841722700262109 -0.42157329572555052 0 -0.36780195338745458 -0.41386650202690478 0 -0.39217901818048551 -0.40048294554677177 0 -0.37647375533617761 -0.40283702630238649 0 -0.3841722700262109 -0.42157329572555052 0 -0.3841722700262109 -0.42157329572555052 0 -0.37622454740542211 -0.44381753121460182 0 -0.39220673734266981 -0.43852804317244171 0 -0.5 -0.5 0 -0.3985604456371149 -0.45968649078593998 0 -0.38001839990558578 -0.5 0 -0.37622454740542211 -0.44381753121460182 0 -0.39220673734266981 -0.43852804317244171 0 -0.3985604456371149 -0.45968649078593998 0 -0.37622454740542211 -0.44381753121460182 0 -0.3985604456371149 -0.45968649078593998 0 -0.35991803792309313 -0.46288504522957741 0 -0.40986968630193088 -0.42903485496367422 0 -0.39220673734266981 -0.43852804317244171 0 -0.3985604456371149 -0.45968649078593998 0 -0.3985604456371149 -0.45968649078593998 0 -0.38001839990558578 -0.5 0 -0.35991803792309313 -0.46288504522957741 0 -0.44207127893691361 -0.44661186867661518 0 -0.40986968630193088 -0.42903485496367422 0 -0.3985604456371149 -0.45968649078593998 0 -0.45418930477229102 -0.26659737814071499 0 -0.43309198030049539 -0.25372594078729771 0 -0.45776820485501402 -0.24168441926058409 0 -0.44059230514221209 -0.28028307485966131 0 -0.45418930477229102 -0.26659737814071499 0 -0.43309198030049539 -0.25372594078729771 0 -0.44059230514221209 -0.28028307485966131 0 -0.45418930477229102 -0.26659737814071499 0 -0.45290240820352368 -0.28506682612547429 0 -0.45418930477229102 -0.26659737814071499 0 -0.46881414978114261 -0.27742822002170853 0 -0.45290240820352368 -0.28506682612547429 0 -0.45418930477229102 -0.26659737814071499 0 -0.4754602138998667 -0.25818553091138791 0 -0.46881414978114261 -0.27742822002170853 0 -0.45418930477229102 -0.26659737814071499 0 -0.4754602138998667 -0.25818553091138791 0 -0.45776820485501402 -0.24168441926058409 0 -0.4754602138998667 -0.25818553091138791 0 -0.5 -0.25260159032666712 0 -0.48076974558635038 -0.2393307241689957 0 -0.4754602138998667 -0.25818553091138791 0 -0.5 -0.25260159032666712 0 -0.50000000000000033 -0.27846709257732061 0 -0.4754602138998667 -0.25818553091138791 0 -0.50000000000000033 -0.27846709257732061 0 -0.46881414978114261 -0.27742822002170853 0 -0.46881414978114261 -0.27742822002170853 0 -0.48112261836320308 -0.29047493108051892 0 -0.46224523672640577 -0.30248276958371689 0 -0.48112261836320308 -0.29047493108051892 0 -0.46224523672640577 -0.30248276958371689 0 -0.50000000000000033 -0.27846709257732061 0 -0.48112261836320308 -0.29047493108051892 0 -0.48004840456285902 -0.31306386609292891 0 -0.50000000000000033 -0.27846709257732061 0 -0.46881414978114261 -0.27742822002170853 0 -0.48112261836320308 -0.29047493108051892 0 -0.50000000000000033 -0.27846709257732061 0 -0.48112261836320308 -0.29047493108051892 0 -0.46224523672640577 -0.30248276958371689 0 -0.46409436510767138 -0.31793228146620939 0 -0.48004840456285902 -0.31306386609292891 0 -0.48112261836320308 -0.29047493108051892 0 -0.46224523672640577 -0.30248276958371689 0 -0.48004840456285902 -0.31306386609292891 0 -0.46881414978114261 -0.27742822002170853 0 -0.46224523672640577 -0.30248276958371689 0 -0.45290240820352368 -0.28506682612547429 0 -0.46224523672640577 -0.30248276958371689 0 -0.45290240820352368 -0.28506682612547429 0 -0.44740480145474798 -0.29999466993270768 0 -0.44059230514221209 -0.28028307485966131 0 -0.44740480145474798 -0.29999466993270768 0 -0.43261627662862778 -0.29721461734456461 0 -0.44059230514221209 -0.28028307485966131 0 -0.45290240820352368 -0.28506682612547429 0 -0.44740480145474798 -0.29999466993270768 0 -0.4390087893423002 -0.30546657027058099 0 -0.44740480145474798 -0.29999466993270768 0 -0.43261627662862778 -0.29721461734456461 0 -0.46224523672640577 -0.30248276958371689 0 -0.44921478769649809 -0.3188336058496275 0 -0.44336785508960852 -0.31449060808691498 0 -0.46224523672640577 -0.30248276958371689 0 -0.44336785508960852 -0.31449060808691498 0 -0.46224523672640577 -0.30248276958371689 0 -0.44740480145474798 -0.29999466993270768 0 -0.44336785508960852 -0.31449060808691498 0 -0.4390087893423002 -0.30546657027058099 0 -0.44336785508960852 -0.31449060808691498 0 -0.43198606058649469 -0.30914922671724332 0 -0.4390087893423002 -0.30546657027058099 0 -0.44740480145474798 -0.29999466993270768 0 -0.44336785508960852 -0.31449060808691498 0 -0.50000000000000033 -0.27846709257732061 0 -0.48004840456285902 -0.31306386609292891 0 -0.5 -0.3554717095780705 0 -0.44921478769649809 -0.3188336058496275 0 -0.4313312431852574 -0.32410224501703577 0 -0.44921478769649809 -0.3188336058496275 0 -0.44534905651039502 -0.33962665608065712 0 -0.4313312431852574 -0.32410224501703577 0 -0.44921478769649809 -0.3188336058496275 0 -0.44336785508960852 -0.31449060808691498 0 -0.4313312431852574 -0.32410224501703577 0 -0.44921478769649809 -0.3188336058496275 0 -0.44534905651039502 -0.33962665608065712 0 -0.45814
[...]
<PointData Scalars="" Vectors="displacement," Tensors="">
<DataArray type="Float64" Name="displacement" NumberOfComponents="3" format="ascii">
0.034995547037207364 0.034997546201749268 0 0.032494425655132671 0.032092769448520859 0 0.03126080665302803 0.033885312535934208 0 0.034995547037207364 0.034997546201749268 0 0.029156810245864757 0.034996317579108725 0 0.03126080665302803 0.033885312535934208 0 0.034995547037207364 0.034997546201749268 0 0.032494425655132671 0.032092769448520859 0 0.033594450164826185 0.028859811868733397 0 0.029156810245864757 0.034996317579108725 0 0.030114552428562081 0.03462420994377341 0 0.03126080665302803 0.033885312535934208 0 0.029156810245864757 0.034996317579108725 0 0.027532778888791496 0.035141341693883159 0 0.024884547558244041 0.034998295421551313 0 0.029156810245864757 0.034996317579108725 0 0.027532778888791496 0.035141341693883159 0 0.030114552428562081 0.03462420994377341 0 0.027532778888791496 0.035141341693883159 0 0.027728430258823988 0.035365565687689837 0 0.030114552428562081 0.03462420994377341 0 0.030211231592771504 0.034499207834897842 0 0.030334235055191495 0.034346499924759563 0 0.030114552428562081 0.03462420994377341 0 0.031306840200598034 0.032345422302896533 0 0.032250554982884795 0.031959720823315232 0 0.027728430258823988 0.035365565687689837 0 0.030114552428562081 0.03462420994377341 0 0.028512141816459623 0.036899947634298394 0 0.027728430258823988 0.035365565687689837 0 0.028512141816459623 0.036899947634298394 0 0.026897147674613566 0.036137913061926048 0 0.030114552428562081 0.03462420994377341 0 0.03126080665302803 0.033885312535934208 0 0.031306840200598034 0.032345422302896533 0 0.032494425655132671 0.032092769448520859 0 0.03126080665302803 0.033885312535934208 0 0.031306840200598034 0.032345422302896533 0 0.032494425655132671 0.032092769448520859 0 0.031306840200598034 0.032345422302896533 0 0.032211777834604001 0.030020858193063941 0 0.031306840200598034 0.032345422302896533 0 0.032211777834604001 0.030020858193063941 0 0.031865341639469302 0.030473107456627818 0 0.032211777834604001 0.030020858193063941 0 0.031865341639469302 0.030473107456627818 0 0.031982081643849428 0.029455230928104491 0 0.028512141816459623 0.036899947634298394 0 0.026897147674613566 0.036137913061926048 0 0.027548240467807579 0.037329223896589679 0 0.031306840200598034 0.032345422302896533 0 0.032250554982884795 0.031959720823315232 0 0.031865341639469302 0.030473107456627818 0 0.031865341639469302 0.030473107456627818 0 0.032522912805153403 0.029988278723815157 0 0.031936025773322954 0.029609035965986619 0 0.032250554982884795 0.031959720823315232 0 0.031865341639469302 0.030473107456627818 0 0.032522912805153403 0.029988278723815157 0 0.030334235055191495 0.034346499924759563 0 0.03014095415437577 0.033636577482768139 0 0.028512141816459623 0.036899947634298394 0 0.027813859067423282 0.037343947993925174 0 0.027548240467807579 0.037329223896589679 0 0.032522912805153403 0.029988278723815157 0 0.031883327597975762 0.029204439595744387 0 0.031647535487142206 0.0287513914511607 0 0.027813859067423282 0.037343947993925174 0 0.027701785924747608 0.036760552568244023 0 0.027966109188139205 0.036963934851710616 0 0.03014095415437577 0.033636577482768139 0 0.029667338186668966 0.033058212492392228 0 0.032522912805153403 0.029988278723815157 0 0.031883327597975762 0.029204439595744387 0 0.031936025773322954 0.029609035965986619 0 0.031865341639469302 0.030473107456627818 0 0.031936025773322954 0.029609035965986619 0 0.031982081643849428 0.029455230928104491 0 0.031936025773322954 0.029609035965986619 0 0.03177025432836502 0.02904312567775728 0 0.031982081643849428 0.029455230928104491 0 0.031883327597975762 0.029204439595744387 0 0.03177025432836502 0.02904312567775728 0 0.031525364085734343 0.028748842767623232 0 0.031883327597975762 0.029204439595744387 0 0.031936025773322954 0.029609035965986619 0 0.03177025432836502 0.02904312567775728 0 0.03177025432836502 0.02904312567775728 0 0.031498002119289811 0.02853930350952227 0 0.031525364085734343 0.028748842767623232 0 0.031498002119289811 0.02853930350952227 0 0.031525364085734343 0.028748842767623232 0 0.031021717315484566 0.028460504949832915 0 0.031647535487142206 0.0287513914511607 0 0.03024811003328692 0.028333576462507497 0 0.031014936607250188 0.028498318315040839 0 0.031883327597975762 0.029204439595744387 0 0.031525364085734343 0.028748842767623232 0 0.031647535487142206 0.0287513914511607 0 0.031525364085734343 0.028748842767623232 0 0.031014936607250188 0.028498318315040839 0 0.031021717315484566 0.028460504949832915 0 0.031525364085734343 0.028748842767623232 0 0.031647535487142206 0.0287513914511607 0 0.031014936607250188 0.028498318315040839 0 0.032211777834604001 0.030020858193063941 0 0.032112513126185828 0.028607710620508826 0 0.03276227812571729 0.028853263631124726 0 0.03177025432836502 0.02904312567775728 0 0.031982081643849428 0.029455230928104491 0 0.032112513126185828 0.028607710620508826 0 0.032211777834604001 0.030020858193063941 0 0.031982081643849428 0.029455230928104491 0 0.032112513126185828 0.028607710620508826 0 0.031498002119289811 0.02853930350952227 0 0.032112513126185828 0.028607710620508826 0 0.031643245335221143 0.028369436125693828 0 0.03177025432836502 0.02904312567775728 0 0.031498002119289811 0.02853930350952227 0 0.032112513126185828 0.028607710620508826 0 0.032112513126185828 0.028607710620508826 0 0.033161000780804827 0.027968588723336574 0 0.03276227812571729 0.028853263631124726 0 0.034995547037207364 0.034997546201749268 0 0.033594450164826185 0.028859811868733397 0 0.034994268297158543 0.026605877587370558 0 0.033161000780804827 0.027968588723336574 0 0.03276227812571729 0.028853263631124726 0 0.033594450164826185 0.028859811868733397 0 0.033161000780804827 0.027968588723336574 0 0.033594450164826185 0.028859811868733397 0 0.034689613602938943 0.026522248217398993 0 0.032211777834604001 0.030020858193063941 0 0.03276227812571729 0.028853263631124726 0 0.033594450164826185 0.028859811868733397 0 0.033594450164826185 0.028859811868733397 0 0.034994268297158543 0.026605877587370558 0 0.034689613602938943 0.026522248217398993 0 0.032494425655132671 0.032092769448520859 0 0.032211777834604001 0.030020858193063941 0 0.033594450164826185 0.028859811868733397 0 0.018416213990931397 0.03610395088068892 0 0.017702110850628429 0.036695847373075227 0 0.017242541211181069 0.035587217974410147 0 0.019257755894610248 0.036971978633748001 0 0.018416213990931397 0.03610395088068892 0 0.017702110850628429 0.036695847373075227 0 0.019257755894610248 0.036971978633748001 0 0.018416213990931397 0.03610395088068892 0 0.019519463611197843 0.036354643407517012 0 0.018416213990931397 0.03610395088068892 0 0.019038822107565582 0.035661158020983331 0 0.019519463611197843 0.036354643407517012 0 0.018416213990931397 0.03610395088068892 0 0.017987376190810145 0.035531496087121667 0 0.019038822107565582 0.035661158020983331 0 0.018416213990931397 0.03610395088068892 0 0.017987376190810145 0.035531496087121667 0 0.017242541211181069 0.035587217974410147 0 0.017987376190810145 0.035531496087121667 0 0.01768252185055752 0.03499947112821674 0 0.016923502668937287 0.035377064627162301 0 0.017987376190810145 0.035531496087121667 0 0.01768252185055752 0.03499947112821674 0 0.019490888693316857 0.034999205945347382 0 0.017987376190810145 0.035531496087121667 0 0.019490888693316857 0.034999205945347382 0 0.019038822107565582 0.035661158020983331 0 0.019038822107565582 0.035661158020983331 0 0.019652220556437117 0.035271495661408199 0 0.020556121750899773 0.035840949039595789 0 0.020116144076731807 0.035576707337674089 0 0.021043156118490631 0.03638047525260131 0 0.019493359541190757 0.034999740939716611 0 0.020546996392627477 0.03592734089293359 0 0.022117660364048521 0.035873568974938735 0 0.019490888693316857 0.034999205945347382 0 0.019038822107565582 0.035661158020983331 0 0.019652220556437117 0.035271495661408199 0 0.019492812369039689 0.035000039033458878 0 0.020116144076731807 0.035576707337674089 0 0.021523039518914884 0.036818124706245181 0 0.022403556484029662 0.036611583787512197 0 0.022117660364048521 0.035873568974938735 0 0.020546996392627477 0.03592734089293359 0 0.021523039518914884 0.036818124706245181 0 0.022117660364048521 0.035873568974938735 0 0.019038822107565582 0.035661158020983331 0 0.020556121750899773 0.035840949039595789 0 0.019519463611197843 0.036354643407517012 0 0.020556121750899773 0.035840949039595789 0 0.019519463611197843 0.036354643407517012 0 0.020584978675560042 0.03685266706473387 0 0.019257755894610248 0.036971978633748001 0 0.020584978675560042 0.03685266706473387 0 0.020509247312943939 0.037724632636144596 0 0.019257755894610248 0.036971978633748001 0 0.019519463611197843 0.036354643407517012 0 0.020584978675560042 0.03685266706473387 0 0.021126693405370045 0.037473494735057303 0 0.020584978675560042 0.03685266706473387 0 0.020509247312943939 0.037724632636144596 0 0.021523039518914884 0.036818124706245181 0 0.022236360989029258 0.037323142405827729 0 0.021934816967221889 0.037397496050701792 0 0.021043156118490631 0.03638047525260131 0 0.021853518881280263 0.037340968105070441 0 0.020556121750899773 0.035840949039595789 0 0.020584978675560042 0.03685266706473387 0 0.021934816967221889 0.037397496050701792 0 0.021126693405370045 0.037473494735057303 0 0.021934816967221889 0.037397496050701792 0 0.021407511613154039 0.037871653259328467 0 0.021126693405370045 0.037473494735057303 0 0.020584978675560042 0.03685266706473387 0 0.021934816967221889 0.037397496050701792 0 0.019493359541190757 0.034999740939716611 0 0.022117660364048521 0.035873568974938735 0 0.024884547558244041 0.034998295421551313 0 0.022264961694733982 0.03786544558391762 0 0.024419017269193394 0.036789141438679077 0 0.022236360989029258 0.037323142405827729 0 0.024334577935824643 0.037952200694591445 0 0.022779293104264478 0.039214756694537944 0 0.022236360989029258 0.037323142405827729 0 0.021934816967221889 0.037397496050701792 0 0.02230866054044681 0.03789475263398092 0 0.022236360989029258 0.037323142405827729 0 0.024334577935824643 0.037952200694591445 0 0.023626756008280538 0.036835816251352675 0 0.026290797077521216 0.036834458580089914 0 0.024419017269193394 0.036789141438679077 0 0.027854840703751865 0.035995660249013114 0 0.027325680292725373 0.035491555718126559 0 0.028251994539478239 0.035285832623102455 0 0.024334577935824643 0.037952200694591445 0 0.023626756008280538 0.036835816251352675 0 0.026150731465097426 0.036323332682876935 0 0.023626756008280538 0.036835816251352675 0 0.023687801914843782 0.036002030459072104 0 0.026150731465097426 0.036323332682876935 0 0.023626756008280538 0.036835816251352675 0 0.022403556484029662 0.036611583787512197 0 0.023687801914843782 0.036002030459072104 0 0.021523039518914884 0.036818124706245181 0 0.022236360989029258 0.037323142405827729 0 0.022403556484029662 0.036611583787512197 0 0.022236360989029258 0.037323142405827729 0 0.023626756008280538 0.036835816251352675 0 0.022403556484029662 0.036611583787512197 0 0.022117660364048521 0.035873568974938735 0 0.023687801914843782 0.036002030459072104 0 0.024884547558244041 0.034998295421551313 0 0.022403556484029662 0.036611583787512197 0 0.022117660364048521 0.035873568974938735 0 0.023687801914843782 0.036002030459072104 0 0.023687801914843782 0.036002030459072104 0 0.024884547558244041 0.034998295421551313 0 0.026150731465097426 0.036323332682876935 0 0.027532778888791496 0.035141341693883159 0 0.024884547558244041 0.034998295421551313 0 0.026150731465097426 0.036323332682876935 0 0.027532778888791496 0.035141341693883159 0 0.027728430258823988 0.035365565687689837 0 0.026150731465097426 0.036323332682876935 0 0.027728430258823988 0.035365565687689837 0 0.026150731465097426 0.036323332682876935 0 0.026897147674613566 0.036137913061926048 0 0.026150731465097426 0.036323332682876935 0 0.026897147674613566 0.036137913061926048 0 0.027325680292725373 0.035491555718126559 0 0.027854840703751865 0.035995660249013114 0 0.026150731465097426 0.036323332682876935 0 0.027325680292725373 0.035491555718126559 0 0.026290797077521216 0.036834458580089914 0 0.026184652247992116 0.0364414982610681 0 0.026897147674613566 0.036137913061926048 0 0.026942175370353549 0.034890874551956309 0 0.027325680292725373 0.035491555718126559 0 0.026892472657934818 0.03611162824158453 0 0.026947050050682531 0.035698675570122289 0 0.026897147674613566 0.036137913061926048 0 0.026942175370353549 0.034890874551956309 0 0.026281155886579602 0.034402854710391277 0 0.027325680292725373 0.035491555718126559 0 0.027487900242331584 0.034121454923056849 0 0.028156967283188047 0.034481418841852692 0 0.026942175370353549 0.034890874551956309 0 0.027325680292725373 0.035491555718126559 0 0.027487900242331584 0.034121454923056849 0 0.026942175370353549 0.034890874551956309 0 0.027487900242331584 0.034121454923056849 0 0.026949536975082306 0.033938836522606833 0 0.027487900242331584 0.034121454923056849 0 0.028209030652806399 0.033469033628265449 0 0.028156967283188047 0.034481418841852692 0 0.027487900242331584 0.034121454923056849 0 0.027745132752952241 0.033249798803074077 0 0.028209030652806399 0.033469033628265449 0 0.027487900242331584 0.034121454923056849 0 0.026949536975082306 0.033938836522606833 0 0.027271876235408075 0.033340689757999573 0 0.027487900242331584 0.034121454923056849 0 0.027271876235408075 0.033340689757999573 0 0.027745132752952241 0.033249798803074077 0 0.026949536975082306 0.033938836522606833 0 0.026748264364031972 0.032838927847425294 0 0.027271876235408075 0.033340689757999573 0 0.026949536975082306 0.033938836522606833 0 0.026281155886579602 0.034402854710391277 0 0.026748264364031972 0.032838927847425294 0 0.027813859067423282 0.037343947993925174 0 0.027548240467807579 0.037329223896589679 0 0.027966109188139205 0.036963934851710616 0 0.026942175370353549 0.034890874551956309 0 0.026949536975082306 0.033938836522606833 0 0.026281155886579602 0.034402854710391277 0 0.026947050050682531 0.035698675570122289 0 0.026991807164618058 0.034983562561975864 0 0.026281155886579602 0.034402854710391277 0 0.026748264364031972 0.032838927847425294 0 0.02627832581744104 0.032140908351305668 0 0.026748264364031972 0.032838927847425294 0 0.02627832581744104 0.032140908351305668 0 0.027323519286419993 0.032177399266150493 0 0.027701785924747608 0.036760552568244023 0 0.027966109188139205 0.036963934851710616 0 0.028112036490744299 0.03547370649543409 0 0.02627832581744104 0.032140908351305668 0 0.027044888479449299 0.030980608749074309 0 0.026750790191231201 0.029857538985943559 0 0.026991807164618058 0.034983562561975864 0 0.028608763953821576 0.030711305497818992 0 0.029667338186668966 0.033058212492392228 0 0.028608763953821576 0.030711305497818992 0 0.02627832581744104 0.032140908351305668 0 0.027100689518596652 0.031593502446804422 0 0.027323519286419993 0.032177399266150493 0 0.02627832581744104 0.032140908351305668 0 0.027100689518596652 0.031593502446804422 0 0.027044888479449299 0.030980608749074309 0 0.027887784688740685 0.031962070299834319 0 0.028176159697030551 0.032613571862722769 0 0.028681801128665269 0.031190916366594636 0 0.027100689518596652 0.031593502446804422 0 0.027044888479449299 0.030980608749074309 0 0.027706205833979758 0.03110429143942646 0 0.027044888479449299 0.030980608749074309 0 0.027706205833979758 0.03110429143942646 0 0.027434257212247834 0.030149040748883551 0 0.027706205833979758 0.03110429143942646 0 0.027887784688740685 0.031962070299834319 0 0.027323519286419993 0.032177399266150493 0 0.027100689518596652 0.031593502446804422 0 0.027706205833979758 0.03110429143942646 0 0.027323519286419993 0.032177399266150493 0 0.027706205833979758 0.03110429143942646 0 0.027887784688740685 0.031962070299834319 0 0.028681801128665269 0.031190916366594636 0 0.027887784688740685 0.031962070299834319 0 0.028176159697030551 0.032613571862722769 0 0.027539124375414711 0.032715527653229645 0 0.026748264364031972 0.032838927847425294 0 0.027323519286419993 0.032177399266150493 0 0.027539124375414711 0.032715527653229645 0 0.027887784688740685 0.031962070299834319 0 0.027323519286419993 0.032177399266150493 0 0.027539124375414711 0.032715527653229645 0 0.026748264364031972 0.032838927847425294 0 0.027539124375414711 0.032715527653229645 0 0.027271876235408075 0.033340689757999573 0 0.027539124375414711 0.032715527653229645 0 0.027271876235408075 0.033340689757999573 0 0.027745132752952241 0.033249798803074077 0 0.028176159697030551 0.032613571862722769 0 0.027745132752952241 0.033249798803074077 0 0.028209030652806399 0.033469033628265449 0 0.028176159697030551 0.032613571862722769 0 0.027539124375414711 0.032715527653229645 0 0.027745132752952241 0.033249798803074077 0 0.028176159697030551 0.032613571862722769 0 0.028808401593533543 0.033021654825279564 0 0.028681801128665269 0.031190916366594636 0 0.02500601376715799 0.030999083655456346 0 0.025148308972663558 0.030969956338148648 0 0.024891875618882755 0.031122485335666753 0 0.026309790083564804 0.032638895993044523 0 0.026967497726806056 0.03097806783361131 0 0.028932014066711077 0.033092652695677925 0 0.028808401593533543 0.033021654825279564 0 0.028209030652806399 0.033469033628265449 0 0.028176159697030551 0.032613571862722769 0 0.028808401593533543 0.033021654825279564 0 0.028209030652806399 0.033469033628265449 0 0.028967756287687843 0.03309156712529733 0 0.028808401593533543 0.033021654825279564 0 0.028681801128665269 0.031190916366594636 0 0.026309790083564804 0.032638895993044523 0 0.026731893893848568 0.032773433786602149 0 0.025148308972663558 0.030969956338148648 0 0.024891875618882755 0.031122485335666753 0 0.025352516331537005 0.030771254807747141 0 0.024891875618882755 0.031122485335666753 0 0.02448811247078431 0.031295795844143416 0 0.025352516331537005 0.030771254807747141 0 0.02500601376715799 0.030999083655456346 0 0.024891875618882755 0.031122485335666753 0 0.024538499952459311 0.031178344772988385 0 0.02500601376715799 0.030999083655456346 0 0.024538499952459311 0.031178344772988385 0 0.024108113720882816 0.03080919644916601 0 0.024891875618882755 0.031122485335666753 0 0.024538499952459311 0.031178344772988385 0 0.02448811247078431 0.031295795844143416 0 0.024304849705511406 0.034451452989257024 0 0.024368033380810537 0.03473127424233885 0 0.024536793195720091 0.034558715020610357 0 0.026309790083564804 0.032638895993044523 0 0.022700191069560158 0.034101773649832419 0 0.028932014066711077 0.033092652695677925 0 0.028156967283188047 0.034481418841852692 0 0.029164009580112338 0.035208248763064276 0 0.028932014066711077 0.033092652695677925 0 0.028209030652806399 0.033469033628265449 0 0.028156967283188047 0.034481418841852692 0 0.026309790083564804 0.032638895993044523 0 0.024419017269193394 0.036789141438679077 0 0.028156967283188047 0.034481418841852692 0 0.028251994539478239 0.035285832623102455 0 0.029164009580112338 0.035208248763064276 0 0.027325680292725373 0.035491555718126559 0 0.028156967283188047 0.034481418841852692 0 0.028251994539478239 0.035285832623102455 0 0.027854840703751865 0.035995660249013114 0 0.028251994539478239 0.035285832623102455 0 0.029164009580112338 0.035208248763064276 0 0.02230866054044681 0.03789475263398092 0 0.021407511613154039 0.037871653259328467 0 0.021066363100374134 0.038990570528543676 0 0.024419017269193394 0.036789141438679077 0 0.022700191069560158 0.034101773649832419 0 0.021934816967221889 0.037397496050701792 0 0.02230866054044681 0.03789475263398092 0 0.021407511613154039 0.037871653259328467 0 0.021407511613154039 0.037871653259328467 0 0.020509247312943939 0.037724632636144596 0 0.021066363100374134 0.038990570528543676 0 0.021126693405370045 0.037473494735057303 0 0.021407511613154039 0.037871653259328467 0 0.020509247312943939 0.037724632636144596 0 0.019257755894610248 0.036971978633748001 0 0.020509247312943939 0.037724632636144596 0 0.0192378755745133 0.038113970015252414 0 0.02050924731294393