<?xml version="1.0"?>
<VTKFile type="UnstructuredGrid" version="0.1" byte_order="LittleEndian">
<UnstructuredGrid>
<Piece NumberOfPoints="30247" NumberOfCells="10644">
<Points>
<DataArray type="Float64" NumberOfComponents="3" format="ascii">
-0.5 -0.5 0 -0.475794567466164 -0.47412012637101919 0 -0.44096451214561599 -0.5 0 -0.49999999999999861 -0.47438368540536052 0 -0.475794567466164 -0.47412012637101919 0 -0.5 -0.5 0 -0.49999999999999861 -0.47438368540536052 0 -0.475794567466164 -0.47412012637101919 0 -0.475794567466164 -0.47412012637101919 0 -0.45158913493232938 -0.47385656733667791 0 -0.44096451214561599 -0.5 0 -0.475794567466164 -0.47412012637101919 0 -0.45158913493232938 -0.47385656733667791 0 -0.45158913493232938 -0.47385656733667791 0 -0.44096451214561599 -0.5 0 -0.43131701676670958 -0.47179869612788822 0 -0.44678276159224162 -0.44217934081764237 0 -0.44208371587439849 -0.45845917859596008 0 -0.42838425961033028 -0.43518485389794243 0 -0.44678276159224162 -0.44217934081764237 0 -0.44208371587439849 -0.45845917859596008 0 -0.46198097286348749 -0.45407305060710268 0 -0.45158913493232938 -0.47385656733667791 0 -0.44208371587439849 -0.45845917859596008 0 -0.46198097286348749 -0.45407305060710268 0 -0.45158913493232938 -0.47385656733667791 0 -0.44208371587439849 -0.45845917859596008 0 -0.43131701676670958 -0.47179869612788822 0 -0.475794567466164 -0.47412012637101919 0 -0.45158913493232938 -0.47385656733667791 0 -0.46198097286348749 -0.45407305060710268 0 -0.44678276159224162 -0.44217934081764237 0 -0.46198097286348749 -0.45407305060710268 0 -0.45983201989259359 -0.43514128396949259 0 -0.46198097286348749 -0.45407305060710268 0 -0.48005487705845368 -0.43739902810602332 0 -0.45983201989259359 -0.43514128396949259 0 -0.46198097286348749 -0.45407305060710268 0 -0.48356608347762098 -0.45758115104362551 0 -0.48005487705845368 -0.43739902810602332 0 -0.475794567466164 -0.47412012637101919 0 -0.46198097286348749 -0.45407305060710268 0 -0.48356608347762098 -0.45758115104362551 0 -0.49999999999999861 -0.47438368540536052 0 -0.475794567466164 -0.47412012637101919 0 -0.48356608347762098 -0.45758115104362551 0 -0.49999999999999861 -0.47438368540536052 0 -0.48356608347762098 -0.45758115104362551 0 -0.5 -0.44792986472862228 0 -0.48356608347762098 -0.45758115104362551 0 -0.5 -0.44792986472862228 0 -0.48005487705845368 -0.43739902810602332 0 -0.5 -0.44792986472862228 0 -0.500000000000002 -0.42147604405188399 0 -0.48005487705845368 -0.43739902810602332 0 -0.500000000000002 -0.42147604405188399 0 -0.47082535152706589 -0.4142448152088557 0 -0.500000000000002 -0.42147604405188399 0 -0.50000000000000222 -0.41222112955913182 0 -0.47082535152706589 -0.4142448152088557 0 -0.50000000000000222 -0.41222112955913182 0 -0.47082535152706589 -0.4142448152088557 0 -0.47914437046051739 -0.39385776636265091 0 -0.500000000000002 -0.42147604405188399 0 -0.47082535152706589 -0.4142448152088557 0 -0.48005487705845368 -0.43739902810602332 0 -0.47082535152706589 -0.4142448152088557 0 -0.48005487705845368 -0.43739902810602332 0 -0.45983201989259359 -0.43514128396949259 0 -0.5 -0.38507919177018268 0 -0.47914437046051739 -0.39385776636265091 0 -0.48068091792958578 -0.37571411203574329 0 -0.5 -0.38507919177018268 0 -0.48068091792958578 -0.37571411203574329 0 -0.4906890405849309 -0.36705710283026688 0 -0.50000000000000222 -0.41222112955913182 0 -0.5 -0.38507919177018268 0 -0.47914437046051739 -0.39385776636265091 0 -0.50000000000000222 -0.41222112955913182 0 -0.47914437046051739 -0.39385776636265091 0 -0.47082535152706589 -0.4142448152088557 0 -0.47914437046051739 -0.39385776636265091 0 -0.45740850641890118 -0.39471348492776381 0 -0.47914437046051739 -0.39385776636265091 0 -0.48068091792958578 -0.37571411203574329 0 -0.45828874092103178 -0.37549440316617111 0 -0.47914437046051739 -0.39385776636265091 0 -0.45828874092103178 -0.37549440316617111 0 -0.45740850641890118 -0.39471348492776381 0 -0.47914437046051739 -0.39385776636265091 0 -0.45828874092103178 -0.37549440316617111 0 -0.47082535152706589 -0.4142448152088557 0 -0.45740850641890118 -0.39471348492776381 0 -0.44165070305412979 -0.40701358636582802 0 -0.45740850641890118 -0.39471348492776381 0 -0.44165070305412979 -0.40701358636582802 0 -0.43713336613176068 -0.38295685353531322 0 -0.45828874092103178 -0.37549440316617111 0 -0.43713336613176068 -0.38295685353531322 0 -0.4342769323192508 -0.36877450656140948 0 -0.45828874092103178 -0.37549440316617111 0 -0.45740850641890118 -0.39471348492776381 0 -0.43713336613176068 -0.38295685353531322 0 -0.47082535152706589 -0.4142448152088557 0 -0.45983201989259359 -0.43514128396949259 0 -0.44598916534362759 -0.42553920764367148 0 -0.47082535152706589 -0.4142448152088557 0 -0.44165070305412979 -0.40701358636582802 0 -0.47082535152706589 -0.4142448152088557 0 -0.44165070305412979 -0.40701358636582802 0 -0.44598916534362759 -0.42553920764367148 0 -0.44165070305412979 -0.40701358636582802 0 -0.44598916534362759 -0.42553920764367148 0 -0.43190374440294882 -0.41570650403319132 0 -0.44678276159224162 -0.44217934081764237 0 -0.45983201989259359 -0.43514128396949259 0 -0.44598916534362759 -0.42553920764367148 0 -0.44678276159224162 -0.44217934081764237 0 -0.44598916534362759 -0.42553920764367148 0 -0.42838425961033028 -0.43518485389794243 0 -0.44598916534362759 -0.42553920764367148 0 -0.42838425961033028 -0.43518485389794243 0 -0.43190374440294882 -0.41570650403319132 0 -0.44165070305412979 -0.40701358636582802 0 -0.43190374440294882 -0.41570650403319132 0 -0.42723775290039312 -0.39946410965797552 0 -0.42838425961033028 -0.43518485389794243 0 -0.43190374440294882 -0.41570650403319132 0 -0.41468480334626168 -0.41191052919992499 0 -0.43190374440294882 -0.41570650403319132 0 -0.41468480334626168 -0.41191052919992499 0 -0.42723775290039312 -0.39946410965797552 0 -0.42838425961033028 -0.43518485389794243 0 -0.41468480334626168 -0.41191052919992499 0 -0.41510495958242721 -0.43784490073428939 0 -0.41468480334626168 -0.41191052919992499 0 -0.4048412495787071 -0.42793356543364958 0 -0.41510495958242721 -0.43784490073428939 0 -0.41468480334626168 -0.41191052919992499 0 -0.41510495958242721 -0.43784490073428939 0 -0.4048412495787071 -0.42793356543364958 0 -0.40258665582750369 -0.4441387487595978 0 -0.41510495958242721 -0.43784490073428939 0 -0.42838425961033028 -0.43518485389794243 0 -0.41468480334626168 -0.41191052919992499 0 -0.43713336613176068 -0.38295685353531322 0 -0.42365817812256262 -0.38513033720826972 0 -0.42723775290039312 -0.39946410965797552 0 -0.43713336613176068 -0.38295685353531322 0 -0.42365817812256262 -0.38513033720826972 0 -0.42384537013283269 -0.37352047583139453 0 -0.43713336613176068 -0.38295685353531322 0 -0.42384537013283269 -0.37352047583139453 0 -0.4342769323192508 -0.36877450656140948 0 -0.44165070305412979 -0.40701358636582802 0 -0.43713336613176068 -0.38295685353531322 0 -0.42723775290039312 -0.39946410965797552 0 -0.41468480334626168 -0.41191052919992499 0 -0.41439572234469552 -0.3940668476053254 0 -0.41468480334626168 -0.41191052919992499 0 -0.40344193864534311 -0.39280976501329151 0 -0.41468480334626168 -0.41191052919992499 0 -0.42723775290039312 -0.39946410965797552 0 -0.41439572234469552 -0.3940668476053254 0 -0.41468480334626168 -0.41191052919992499 0 -0.41439572234469552 -0.3940668476053254 0 -0.40344193864534311 -0.39280976501329151 0 -0.42365817812256262 -0.38513033720826972 0 -0.42723775290039312 -0.39946410965797552 0 -0.41439572234469552 -0.3940668476053254 0 -0.410151353239675 -0.38360922281931298 0 -0.40344193864534311 -0.39280976501329151 0 -0.40866111062553179 -0.37133711264790947 0 -0.41439572234469552 -0.3940668476053254 0 -0.410151353239675 -0.38360922281931298 0 -0.41410664134312969 -0.37622316601072592 0 -0.41439572234469552 -0.3940668476053254 0 -0.41410664134312969 -0.37622316601072592 0 -0.42365817812256262 -0.38513033720826972 0 -0.41439572234469552 -0.3940668476053254 0 -0.41410664134312969 -0.37622316601072592 0 -0.41439572234469552 -0.3940668476053254 0 -0.410151353239675 -0.38360922281931298 0 -0.40344193864534311 -0.39280976501329151 0 -0.410151353239675 -0.38360922281931298 0 -0.41410664134312969 -0.37622316601072592 0 -0.40866111062553179 -0.37133711264790947 0 -0.42365817812256262 -0.38513033720826972 0 -0.41410664134312969 -0.37622316601072592 0 -0.42384537013283269 -0.37352047583139453 0 -0.40344193864534311 -0.39280976501329151 0 -0.39195193034847742 -0.37328912282652171 0 -0.40344193864534311 -0.39280976501329151 0 -0.40866111062553179 -0.37133711264790947 0 -0.40344193864534311 -0.39280976501329151 0 -0.38918736380383201 -0.38615957485792579 0 -0.39195193034847742 -0.37328912282652171 0 -0.40344193864534311 -0.39280976501329151 0 -0.40866111062553179 -0.37133711264790947 0 -0.39195193034847742 -0.37328912282652171 0 -0.41468480334626168 -0.41191052919992499 0 -0.40344193864534311 -0.39280976501329151 0 -0.39862864106669182 -0.41261257397030759 0 -0.40344193864534311 -0.39280976501329151 0 -0.38398644147778171 -0.39925946087582259 0 -0.39862864106669182 -0.41261257397030759 0 -0.40344193864534311 -0.39280976501329151 0 -0.38398644147778171 -0.39925946087582259 0 -0.38918736380383201 -0.38615957485792579 0 -0.40344193864534311 -0.39280976501329151 0 -0.39862864106669182 -0.41261257397030759 0 -0.38398644147778171 -0.39925946087582259 0 -0.38918736380383201 -0.38615957485792579 0 -0.37828650139295439 -0.37888340612094668 0 -0.38398644147778171 -0.39925946087582259 0 -0.37828650139295439 -0.37888340612094668 0 -0.36611497707635249 -0.39032039295861171 0 -0.38918736380383201 -0.38615957485792579 0 -0.37828650139295439 -0.37888340612094668 0 -0.39195193034847742 -0.37328912282652171 0 -0.4048412495787071 -0.42793356543364958 0 -0.39381534348804109 -0.4324153829273239 0 -0.39862864106669182 -0.41261257397030759 0 -0.4048412495787071 -0.42793356543364958 0 -0.39381534348804109 -0.4324153829273239 0 -0.40258665582750369 -0.4441387487595978 0 -0.39381534348804109 -0.4324153829273239 0 -0.39862864106669182 -0.4126125739703075
[...]
<PointData Scalars="" Vectors="displacement," Tensors="">
<DataArray type="Float64" Name="displacement" NumberOfComponents="3" format="ascii">
-0.024997645730891083 -0.024999709899400101 0 -0.024849352799344211 -0.024125030509920105 0 -0.024998796555539375 -0.022050123408967517 0 -0.023719356940546114 -0.024999566179418665 0 -0.02417277834450644 -0.024233447529984124 0 -0.024997645730891083 -0.024999709899400101 0 -0.023723742703540773 -0.024998481679790005 0 -0.024849352799344211 -0.024125030509920105 0 -0.024849352799344211 -0.024125030509920105 0 -0.024694662960408776 -0.023244994671621701 0 -0.024998796555539375 -0.022050123408967517 0 -0.02417277834450644 -0.024233447529984124 0 -0.024579499009018482 -0.023427285794460174 0 -0.024694662960408776 -0.023244994671621701 0 -0.024998796555539375 -0.022050123408967517 0 -0.024978063430872725 -0.022292419966723917 0 -0.023616200231285297 -0.024017272884413927 0 -0.024860571975011982 -0.02349043168253806 0 -0.023155962991713699 -0.025089611688158008 0 -0.023616200231285297 -0.024017272884413927 0 -0.024860571975011982 -0.02349043168253806 0 -0.023830870701614354 -0.023957052885249408 0 -0.024694662960408776 -0.023244994671621701 0 -0.024860571975011982 -0.02349043168253806 0 -0.023830870701614354 -0.023957052885249408 0 -0.024694662960408776 -0.023244994671621701 0 -0.024860571975011982 -0.02349043168253806 0 -0.024978063430872725 -0.022292419966723917 0 -0.02344993706200359 -0.024435509574180773 0 -0.024694662960408776 -0.023244994671621701 0 -0.023830870701614354 -0.023957052885249408 0 -0.023616200231285297 -0.024017272884413927 0 -0.023830870701614354 -0.023957052885249408 0 -0.023052589081445553 -0.024143755411428731 0 -0.023830870701614354 -0.023957052885249408 0 -0.022572582860548137 -0.024608653004770328 0 -0.023052589081445553 -0.024143755411428731 0 -0.023830870701614354 -0.023957052885249408 0 -0.023190741471503563 -0.024719237001979484 0 -0.022572582860548137 -0.024608653004770328 0 -0.02344993706200359 -0.024435509574180773 0 -0.023830870701614354 -0.023957052885249408 0 -0.023190741471503563 -0.024719237001979484 0 -0.023717879574189766 -0.024999484376633945 0 -0.02344993706200359 -0.024435509574180773 0 -0.023190741471503563 -0.024719237001979484 0 -0.023717879574189766 -0.024999484376633945 0 -0.023190741471503563 -0.024719237001979484 0 -0.022396954518301967 -0.024999108115333943 0 -0.023190741471503563 -0.024719237001979484 0 -0.022396954518301967 -0.024999108115333943 0 -0.022572582860548137 -0.024608653004770328 0 -0.022396954518301967 -0.024999108115333943 0 -0.021077418491664363 -0.024999132824526021 0 -0.022572582860548137 -0.024608653004770328 0 -0.021074130402779192 -0.024999678747613108 0 -0.021830118402237388 -0.024533037162937522 0 -0.021070801606787554 -0.024999938132903386 0 -0.020614723467002549 -0.024999950694472063 0 -0.021211620235855912 -0.024808413890660304 0 -0.020614723467002549 -0.024999950694472063 0 -0.021211620235855912 -0.024808413890660304 0 -0.021466881759901978 -0.024849659223307393 0 -0.021077418491664363 -0.024999132824526021 0 -0.022515370699956953 -0.024275470763438705 0 -0.022572582860548137 -0.024608653004770328 0 -0.022515370699956953 -0.024275470763438705 0 -0.022572582860548137 -0.024608653004770328 0 -0.023052589081445553 -0.024143755411428731 0 -0.019253868921593097 -0.024999943330078534 0 -0.019625152405440705 -0.025948313397048794 0 -0.018772708094671648 -0.025859977427608968 0 -0.019253868921593097 -0.024999943330078534 0 -0.018772708094671648 -0.025859977427608968 0 -0.018371050202545945 -0.025435300292134519 0 -0.020610992393491293 -0.024999994332378917 0 -0.019253868921593097 -0.024999943330078534 0 -0.019625152405440705 -0.025948313397048794 0 -0.020611166405240862 -0.025000015841830425 0 -0.020546700604898865 -0.025362439828566175 0 -0.021211620235855912 -0.024808413890660304 0 -0.021466881759901978 -0.024849659223307393 0 -0.021646541518431803 -0.02465697597966587 0 -0.019625152405440705 -0.025948313397048794 0 -0.018772708094671648 -0.025859977427608968 0 -0.018717782997505119 -0.026709210805564786 0 -0.021466881759901978 -0.024849659223307393 0 -0.021588370894035255 -0.024657565196083378 0 -0.021646541518431803 -0.02465697597966587 0 -0.020546700604898865 -0.025362439828566175 0 -0.020124355321878666 -0.025689196725908525 0 -0.021211620235855912 -0.024808413890660304 0 -0.021646541518431803 -0.02465697597966587 0 -0.021993792905375856 -0.024633350607053715 0 -0.021646541518431803 -0.02465697597966587 0 -0.021993792905375856 -0.024633350607053715 0 -0.021621679078432474 -0.024817013963640069 0 -0.021588370894035255 -0.024657565196083378 0 -0.021621679078432474 -0.024817013963640069 0 -0.021462704355868053 -0.024865798608255947 0 -0.021588370894035255 -0.024657565196083378 0 -0.021646541518431803 -0.02465697597966587 0 -0.021621679078432474 -0.024817013963640069 0 -0.022515370699956953 -0.024275470763438705 0 -0.023052589081445553 -0.024143755411428731 0 -0.022742923174259209 -0.024387069805891108 0 -0.021830118402237388 -0.024533037162937522 0 -0.021966974603098741 -0.024694801592474298 0 -0.022515370699956953 -0.024275470763438705 0 -0.021993792905375856 -0.024633350607053715 0 -0.022742923174259209 -0.024387069805891108 0 -0.021993792905375856 -0.024633350607053715 0 -0.022742923174259209 -0.024387069805891108 0 -0.022355397397868116 -0.024908132534800714 0 -0.023616200231285297 -0.024017272884413927 0 -0.023052589081445553 -0.024143755411428731 0 -0.022742923174259209 -0.024387069805891108 0 -0.023616200231285297 -0.024017272884413927 0 -0.022742923174259209 -0.024387069805891108 0 -0.023155962991713699 -0.025089611688158008 0 -0.022742923174259209 -0.024387069805891108 0 -0.023155962991713699 -0.025089611688158008 0 -0.022355397397868116 -0.024908132534800714 0 -0.021993792905375856 -0.024633350607053715 0 -0.022355397397868116 -0.024908132534800714 0 -0.021895573897501533 -0.024989980005041781 0 -0.023155962991713699 -0.025089611688158008 0 -0.022355397397868116 -0.024908132534800714 0 -0.022239305621646496 -0.02537315489964696 0 -0.022355397397868116 -0.024908132534800714 0 -0.022239305621646496 -0.02537315489964696 0 -0.021895573897501533 -0.024989980005041781 0 -0.026922245035490528 -0.022231661281622701 0 -0.028001800672322961 -0.021531547747467999 0 -0.02668442037821888 -0.021507294442540285 0 -0.027641761517733322 -0.020910348322428229 0 -0.027181187966213136 -0.02062771689276556 0 -0.026854736592358586 -0.021040006838174665 0 -0.025445842972526046 -0.023288169440506459 0 -0.027287100745465694 -0.021020968531243918 0 -0.027181187966213136 -0.02062771689276556 0 -0.026588062284357818 -0.020510780626169844 0 -0.026854736592358586 -0.021040006838174665 0 -0.024941827431825912 -0.023670257310773626 0 -0.025445842972526046 -0.023288169440506459 0 -0.021621679078432474 -0.024817013963640069 0 -0.021679485932119085 -0.025038265781216994 0 -0.021895573897501533 -0.024989980005041781 0 -0.021621679078432474 -0.024817013963640069 0 -0.021679485932119085 -0.025038265781216994 0 -0.02153480736483979 -0.025010621937550569 0 -0.021621679078432474 -0.024817013963640069 0 -0.02153480736483979 -0.025010621937550569 0 -0.021462704355868053 -0.024865798608255947 0 -0.021993792905375856 -0.024633350607053715 0 -0.021621679078432474 -0.024817013963640069 0 -0.021895573897501533 -0.024989980005041781 0 -0.025445842972526046 -0.023288169440506459 0 -0.021764506345107043 -0.025134761903746944 0 -0.025445842972526046 -0.023288169440506459 0 -0.025124382498596508 -0.021030363449473833 0 -0.022239305621646496 -0.02537315489964696 0 -0.021895573897501533 -0.024989980005041781 0 -0.021801404118538099 -0.025228066418376726 0 -0.023729158149619428 -0.024926142657936908 0 -0.022596895027947626 -0.024966615401505639 0 -0.022507336384021151 -0.02560613791052779 0 -0.021679485932119085 -0.025038265781216994 0 -0.021895573897501533 -0.024989980005041781 0 -0.021801404118538099 -0.025228066418376726 0 -0.022027569979367469 -0.025259015543025429 0 -0.022507336384021151 -0.02560613791052779 0 -0.021461232479047649 -0.025279721192487524 0 -0.022596895027947626 -0.024966615401505639 0 -0.022027569979367469 -0.025259015543025429 0 -0.021620743880348677 -0.02511895492307354 0 -0.021764506345107043 -0.025134761903746944 0 -0.021853790750425095 -0.025110660043650566 0 -0.021679485932119085 -0.025038265781216994 0 -0.021801404118538099 -0.025228066418376726 0 -0.021620743880348677 -0.02511895492307354 0 -0.022596895027947626 -0.024966615401505639 0 -0.022027569979367469 -0.025259015543025429 0 -0.022507336384021151 -0.02560613791052779 0 -0.022027569979367469 -0.025259015543025429 0 -0.021620743880348677 -0.02511895492307354 0 -0.021461232479047649 -0.025279721192487524 0 -0.021679485932119085 -0.025038265781216994 0 -0.021620743880348677 -0.02511895492307354 0 -0.02153480736483979 -0.025010621937550569 0 -0.025124382498596508 -0.021030363449473833 0 -0.025386566239062425 -0.019062486932046506 0 -0.025124382498596508 -0.021030363449473833 0 -0.023230988845271024 -0.022260951450958064 0 -0.025600436076356738 -0.019213304835198484 0 -0.025412860384464664 -0.019560575258489997 0 -0.025040274465030161 -0.019511440400096721 0 -0.025421597427513921 -0.019290975204165669 0 -0.024967313991832728 -0.019157637453324425 0 -0.025040274465030161 -0.019511440400096721 0 -0.027641761517733322 -0.020910348322428229 0 -0.028073249944575794 -0.020610343380241241 0 -0.027623096417171172 -0.020466260579647122 0 -0.025600436076356738 -0.019213304835198484 0 -0.025767922228943644 -0.019654680010936822 0 -0.026061035646614432 -0.019371121517275814 0 -0.025600436076356738 -0.019213304835198484 0 -0.025767922228943644 -0.019654680010936822 0 -0.025412860384464664 -0.019560575258489997 0 -0.025124382498596508 -0.021030363449473833 0 -0.027112374801968205 -0.019906234110532328 0 -0.025767922228943644 -0.019654680010936822 0 -0.025412860384464664 -0.019560575258489997 0 -0.0252200797407264 -0.019837874611636341 0 -0.025767922228943644 -0.019654680010936822 0 -0.0252200797407264 -0.019837874611636341 0 -0.025542532215882364 -0.020085831488789143 0 -0.025412860384464664 -0.019560575258489997 0 -0.0252200797407264 -0.019837874611636341 0 -0.025040274465030161 -0.019511440400096721 0 -0.027181187966213136 -0.02062771689276556 0 -0.027044124735106114 -0.020198964399699041 0 -0.027623096417171172 -0.020466260579647122 0 -0.027181187966213136 -0.02062771689276556 0 -0.027044124735106114 -0.020198964399699041 0 -0.026588062284357818 -0.020510780626169844 0 -0.026586143309791654 -0.019868492493023186 0 -0.027112374801968205 -0.019906234110532328 0 -0.026317373785370631 -0.019575957876029049 0 -0.026061035646614432 -0.019371121517275814 0 -0.026175512551874752 -0.019613320066109906 0 -0.027641761517733322 -0.020910348322428229 0 -0.027181187966213136 -0.02062771689276556 0 -0.027623096417171172 -0.020466260579647122 0 -0.025767922228943644 -0.019654680010936822 0 -0.026061035646614432 -0.019371121517275814 0 -0.026175512551874752 -0.019613320066109906 0 -0.025767922228943644 -0.019654680010936822 0 -0.026175512551874752 -0.019613320066109906 0 -0.026187888606950649 -0.019853674053467833 0 -0.026175512551874752 -0.019613320066109906 0 -0.026328482821377019 -0.019613973441371772 0 -0.026187888606950649 -0.019853674053467833 0 -0.026317373785370631 -0.019575957876029049 0 -0.026175512551874752 -0.019613320066109906 0 -0.026328482821377019 -0.019613973441371772 0 -0.026317373785370631 -0.019575957876029049 0 -0.026328482821377019 -0.019613973441371772 0 -0.026250169086388553 -0.019790179072266597 0 -0.026328482821377019 -0.019613973441371772 0 -0.026250169086388553 -0.019790179072266597 0 -0.026322447104750818 -0.019392768552985891 0 -0.027044124735106114 -0.020198964399699041 0 -0.026250169086388553 -0.019790179072266597 0 -0.026588062284357818 -0.020510780626169844 0 -0.026586143309791654 -0.019868492493023186 0 -0.026285868936242338 -0.019796488705834381 0 -0.026250169086388553 -0.019790179072266597 0 -0.026588062284357818 -0.020510780626169844 0 -0.02558163922115456 -0.021248244867905056 0 -0.026250169086388553 -0.019790179072266597 0 -0.025504176847159225 -0.020006621863403153 0 -0.02558163922115456 -0.021248244867905056 0 -0.026250169086388553 -0.019790179072266597 0 -0.025504176847159225 -0.020006621863403153 0 -0.02572118224224804 -0.018919546378635573 0 -0.024999235124816666 -0.019881501694751818 0 -0.025504176847159225 -0.020006621863403153 0 -0.024999982217108457 -0.018292348251586227 0 -0.025504176847159225 -0.020006621863403153 0 -0.024999982217108457 -0.018292348251586227 0 -0.02572118224224804 -0.018919546378635573 0 -0.024999235124816666 -0.019881501694751818 0 -0.025504176847159225 -0.020006621863403153 0 -0.025128061614451313 -0.021149261469031583 0 -0.024998796555539375 -0.022050123408967517 0 -0.024999235124816666 -0.019881501694751818 0 -0.025128061614451313 -0.021149261469031583 0 -0.025504176847159225 -0.020006621863403153 0 -0.025128061614451313 -0.021149261469031583 0 -0.02558163922115456 -0.021248244867905056 0 -0.025128061614451313 -0.021149261469031583 0 -0.024978063430872725 -0.022292419966723917 0 -0.02558163922115456 -0.021248244867905056 0 -0.024998796555539375 -0.022050123408967517 0 -0.025128061614451313 -0.021149261469031583 0 -0.024978063430872725 -0.022292419966723917 0 -0.024860571975011982 -0.02349043168253806 0 -0.024978063430872725 -0.022292419966723917 0 -0.025921717122385564 -0.021954172471211054 0 -0.024978063430872725 -0.022292419966723917 0 -0.025921717122385564 -0.021954172471211054 0 -0.02558163922115456 -0.021248244867905056 0 -0.024860571975011982 -0.02349043168253806 0 -0.026922245035490528 -0.022231661281622701 0 -0.025921717122385564 -0.021954172471211054 0 -0.024890207891207477 -0.023531575704194892 0 -0.024941827431825912 -0.023670257310773626 0 -0.026922245035490528 -0.022231661281622701 0 -0.025921717122385564 -0.021954172471211054 0 -0.02668442037821888 -0.021507294442540285 0 -0.025921717122385564 -0.021954172471211054 0 -0.02668442037821888 -0.021507294442540285 0 -0.02558163922115456 -0.021248244867905056 0 -0.026588062284357818 -0.020510780626169844 0 -0.026854736592358586 -0.021040006838174665 0 -0.02558163922115456 -0.021248244867905056 0 -0.027287100745465694 -0.021020968531243918 0 -0.025394109314332305 -0.021314764938501454 0 -0.013259112056327512 -0.026591934156066113 0 -0.012703985639509497 -0.026971677510309416 0 -0.012123047458002989 -0.026589595975962898 0 -0.013259112056327512 -0.026591934156066113 0 -0.013511561272582977 -0.026987969302330227 0 -0.012703985639509497 -0.026971677510309416 0 -0.013259112056327512 -0.026591934156066113 0 -0.014024593680347164 -0.02667381878667497 0 -0.013511561272582977 -0.026987969302330227 0 -0.013259112056327512 -0.026591934156066113 0 -0.01335633536449298 -0.025766794272802401 0 -0.013975052579999633 -0.026123192545467095 0 -0.013259112056327512 -0.026591934156066113 0 -0.012440004028581439 -0.02604991406424341 0 -0.012123047458002989 -0.026589595975962898 0 -0.013259112056327512 -0.026591934156066113 0 -0.01335633536449298 -0.025766794272802401 0 -0.012440004028581439 -0.02604991406424341 0 -0.01335633536449298 -0.025766794272802401 0 -0.012457588412585414 -0.024999898550212573 0 -0.012440004028581439 -0.02604991406424341 0 -0.013820060103601492 -0.024999842114687042 0 -0.01335633536449298 -0.025766794272802401 0 -0.012457588412585414 -0.024999898550212573 0 -0.013820060103601492 -0.024999842114687042 0 -0.01335633536449298 -0.025766794272802401 0 -0.014303097537471625 -0.025552610159651129 0 -0.014303097537471625 -0.025552610159651129 0 -0.014824717131626608 -0.025758597019470773 0 -0.013975052579999633 -0.026123192545467095 0 -0.01335633536449298 -0.025766794272802401 0 -0.014303097537471625 -0.025552610159651129 0 -0.013975052579999633 -0.026123192545467095 0 -0.013820060103601492 -0.024999842114687042 0 -0.014303097537471625 -0.025552610159651129 0 -0.015181591866594001 -0.024999995685915526 0 -0.014303097537471625 -0.025552610159651129 0 -0.015181591866594001 -0.024999995685915526 0 -0.014824717131626608 -0.025758597019470773 0 -0.015182572422941649 -0.025000141061138507 0 -0.015132120852466133 -0.025834886702817739 0 -0.014824717131626608 -0.025758597019470773 0 -0.013975052579999633 -0.026123192545467095 0 -0.014668653068791162 -0.026355311646238312 0 -0.015132120852466133 -0.025834886702817739 0 -0.015171102990185977 -0.026686463319250901 0 -0.013975052579999633 -0.026123192545467095 0 -0.014024593680347164 -0.02667381878667497 0 -0.014668653068791162 -0.026355311646238312 0 -0.013259112056327512 -0.026591934156066113 0 -0.013975052579999633 -0.026123192545467095 0 -0.014024593680347164 -0.02667381878667497 0 -0.014024593680347164 -0.02667381878667497 0 -0.014587920609535805 -0.026869915216361909 0 -0.014668653068791162 -0.026355311646238312 0 -0.014024593680347164 -0.02667381878667497 0 -0.014587920609535805 -0.026869915216361909 0 -0.013936131569466334 -0.027060328702026848 0 -0.015324682684312549 -0.027200299720473591 0 -0.015171102990185977 -0.026686463319250901 0 -0.015896033113219486 -0.027939733352046078 0 -0.016538267422866341 -0.027075016884001171 0 -0.015669888427465514 -0.026978020077102809 0 -0.015324682684312549 -0.027200299720473591 0 -0.016952641438507932 -0.0268769506161286 0 -0.017165092791395296 -0.026679484796263322 0 -0.017788092316523865 -0.026697846611231799 0 -0.017337165555352332 -0.027363684456167978 0 -0.016790369568556167 -0.027236311235466305 0 -0.017165092791395296 -0.026679484796263322 0 -0.017337165555352332 -0.027363684456167978 0 -0.017165092791395296 -0.026679484796263322 0 -0.017542478490742319 -0.026053945190536675 0 -0.017788092316523865 -0.026697846611231799 0 -0.016952641438507932 -0.0268769506161286 0 -0.017368155267121023 -0.026108371094473479 0 -0.016538267422866341 -0.027075016884001171 0 -0.015669888427465514 -0.026978020077102809 0 -0.016415553868160696 -0.026123106612839085 0 -0.01542874998307335 -0.025997899179433986 0 -0.015669888427465514 -0.026978020077102809 0 -0.016415553868160696 -0.026123106612839085 0 -0.015182721771122093 -0.024999991068975009 0 -0.01542874998307335 -0.025997899179433986 0 -0.016539714185201428 -0.024999995311165719 0 -0.01542874998307335 -0.025997899179433986 0 -0.016539714185201428 -0.024999995311165719 0 -0.016415553868160696 -0.026123106612839085 0 -0.016539714185201428 -0.024999995311165719 0 -0.017133073400297742 -0.025456418400536807 0 -0.016415553868160696 -0.026123106612839085 0 -0.016538267422866341 -0.027075016884001171 0 -0.016415553868160696 -0.026123106612839085 0 -0.017199567318860708 -0.026198114334999963 0 -0.017133073400297742 -0.025456418400536807 0 -0.016415553868160696 -0.026123106612839085 0 -0.017199567318860708 -0.026198114334999963 0 -0.017542478490742319 -0.026053945190536675 0 -0.018072807052710735 -0.025936258464713521 0 -0.017892995019191855 -0.025296597387249199 0 -0.017542478490742319 -0.026053945190536675 0 -0.018072807052710735 -0.025936258464713521 0 -0.017788092316523865 -0.026697846611231799 0 -0.016539714185201428 -0.024999995311165719 0 -0.017133073400297742 -0.025456418400536807 0 -0.017897037634238968 -0.024999989738837596 0 -0.017133073400297742 -0.025456418400536807 0 -0.017199567318860708 -0.026198114334999963 0 -0.017892995019191855 -0.025296597387249199 0 -0.017368155267121023 -0.026108371094473479 0 -0.017872465852388081 -0.025352773908895104 0 -0.017133073400297742 -0.025456418400536807 0 -0.017892995019191855 -0.025296597387249199 0 -0.017897037634238968 -0.024999989738837596 0 -0.019253868921593097 -0.024999943330078534 0 -0.017897037634238968 -0.024999989738837596 0 -0.018371050202545945 -0.025435300292134519 0 -0.017892995019191855 -0.025296597387249199 0 -0.017897037634238968 -0.024999989738837596 0 -0.018371050202545945 -0.025435300292134519 0 -0.018072807052710735 -0.025936258464713521 0 -0.017892995019191855 -0.025296597387249199 0 -0.018371050202545945 -0.025435300292134519 0 -0.018772708094671648 -0.025859977427608968 0 -0.018717782