<?xml version="1.0"?>
<VTKFile type="UnstructuredGrid" version="0.1" byte_order="LittleEndian">
<UnstructuredGrid>
<Piece NumberOfPoints="30247" NumberOfCells="10644">
<Points>
<DataArray type="Float64" NumberOfComponents="3" format="ascii">
-0.5 -0.5 0 -0.475794567466164 -0.47412012637101919 0 -0.44096451214561599 -0.5 0 -0.49999999999999861 -0.47438368540536052 0 -0.475794567466164 -0.47412012637101919 0 -0.5 -0.5 0 -0.49999999999999861 -0.47438368540536052 0 -0.475794567466164 -0.47412012637101919 0 -0.475794567466164 -0.47412012637101919 0 -0.45158913493232938 -0.47385656733667791 0 -0.44096451214561599 -0.5 0 -0.475794567466164 -0.47412012637101919 0 -0.45158913493232938 -0.47385656733667791 0 -0.45158913493232938 -0.47385656733667791 0 -0.44096451214561599 -0.5 0 -0.43131701676670958 -0.47179869612788822 0 -0.44678276159224162 -0.44217934081764237 0 -0.44208371587439849 -0.45845917859596008 0 -0.42838425961033028 -0.43518485389794243 0 -0.44678276159224162 -0.44217934081764237 0 -0.44208371587439849 -0.45845917859596008 0 -0.46198097286348749 -0.45407305060710268 0 -0.45158913493232938 -0.47385656733667791 0 -0.44208371587439849 -0.45845917859596008 0 -0.46198097286348749 -0.45407305060710268 0 -0.45158913493232938 -0.47385656733667791 0 -0.44208371587439849 -0.45845917859596008 0 -0.43131701676670958 -0.47179869612788822 0 -0.475794567466164 -0.47412012637101919 0 -0.45158913493232938 -0.47385656733667791 0 -0.46198097286348749 -0.45407305060710268 0 -0.44678276159224162 -0.44217934081764237 0 -0.46198097286348749 -0.45407305060710268 0 -0.45983201989259359 -0.43514128396949259 0 -0.46198097286348749 -0.45407305060710268 0 -0.48005487705845368 -0.43739902810602332 0 -0.45983201989259359 -0.43514128396949259 0 -0.46198097286348749 -0.45407305060710268 0 -0.48356608347762098 -0.45758115104362551 0 -0.48005487705845368 -0.43739902810602332 0 -0.475794567466164 -0.47412012637101919 0 -0.46198097286348749 -0.45407305060710268 0 -0.48356608347762098 -0.45758115104362551 0 -0.49999999999999861 -0.47438368540536052 0 -0.475794567466164 -0.47412012637101919 0 -0.48356608347762098 -0.45758115104362551 0 -0.49999999999999861 -0.47438368540536052 0 -0.48356608347762098 -0.45758115104362551 0 -0.5 -0.44792986472862228 0 -0.48356608347762098 -0.45758115104362551 0 -0.5 -0.44792986472862228 0 -0.48005487705845368 -0.43739902810602332 0 -0.5 -0.44792986472862228 0 -0.500000000000002 -0.42147604405188399 0 -0.48005487705845368 -0.43739902810602332 0 -0.500000000000002 -0.42147604405188399 0 -0.47082535152706589 -0.4142448152088557 0 -0.500000000000002 -0.42147604405188399 0 -0.50000000000000222 -0.41222112955913182 0 -0.47082535152706589 -0.4142448152088557 0 -0.50000000000000222 -0.41222112955913182 0 -0.47082535152706589 -0.4142448152088557 0 -0.47914437046051739 -0.39385776636265091 0 -0.500000000000002 -0.42147604405188399 0 -0.47082535152706589 -0.4142448152088557 0 -0.48005487705845368 -0.43739902810602332 0 -0.47082535152706589 -0.4142448152088557 0 -0.48005487705845368 -0.43739902810602332 0 -0.45983201989259359 -0.43514128396949259 0 -0.5 -0.38507919177018268 0 -0.47914437046051739 -0.39385776636265091 0 -0.48068091792958578 -0.37571411203574329 0 -0.5 -0.38507919177018268 0 -0.48068091792958578 -0.37571411203574329 0 -0.4906890405849309 -0.36705710283026688 0 -0.50000000000000222 -0.41222112955913182 0 -0.5 -0.38507919177018268 0 -0.47914437046051739 -0.39385776636265091 0 -0.50000000000000222 -0.41222112955913182 0 -0.47914437046051739 -0.39385776636265091 0 -0.47082535152706589 -0.4142448152088557 0 -0.47914437046051739 -0.39385776636265091 0 -0.45740850641890118 -0.39471348492776381 0 -0.47914437046051739 -0.39385776636265091 0 -0.48068091792958578 -0.37571411203574329 0 -0.45828874092103178 -0.37549440316617111 0 -0.47914437046051739 -0.39385776636265091 0 -0.45828874092103178 -0.37549440316617111 0 -0.45740850641890118 -0.39471348492776381 0 -0.47914437046051739 -0.39385776636265091 0 -0.45828874092103178 -0.37549440316617111 0 -0.47082535152706589 -0.4142448152088557 0 -0.45740850641890118 -0.39471348492776381 0 -0.44165070305412979 -0.40701358636582802 0 -0.45740850641890118 -0.39471348492776381 0 -0.44165070305412979 -0.40701358636582802 0 -0.43713336613176068 -0.38295685353531322 0 -0.45828874092103178 -0.37549440316617111 0 -0.43713336613176068 -0.38295685353531322 0 -0.4342769323192508 -0.36877450656140948 0 -0.45828874092103178 -0.37549440316617111 0 -0.45740850641890118 -0.39471348492776381 0 -0.43713336613176068 -0.38295685353531322 0 -0.47082535152706589 -0.4142448152088557 0 -0.45983201989259359 -0.43514128396949259 0 -0.44598916534362759 -0.42553920764367148 0 -0.47082535152706589 -0.4142448152088557 0 -0.44165070305412979 -0.40701358636582802 0 -0.47082535152706589 -0.4142448152088557 0 -0.44165070305412979 -0.40701358636582802 0 -0.44598916534362759 -0.42553920764367148 0 -0.44165070305412979 -0.40701358636582802 0 -0.44598916534362759 -0.42553920764367148 0 -0.43190374440294882 -0.41570650403319132 0 -0.44678276159224162 -0.44217934081764237 0 -0.45983201989259359 -0.43514128396949259 0 -0.44598916534362759 -0.42553920764367148 0 -0.44678276159224162 -0.44217934081764237 0 -0.44598916534362759 -0.42553920764367148 0 -0.42838425961033028 -0.43518485389794243 0 -0.44598916534362759 -0.42553920764367148 0 -0.42838425961033028 -0.43518485389794243 0 -0.43190374440294882 -0.41570650403319132 0 -0.44165070305412979 -0.40701358636582802 0 -0.43190374440294882 -0.41570650403319132 0 -0.42723775290039312 -0.39946410965797552 0 -0.42838425961033028 -0.43518485389794243 0 -0.43190374440294882 -0.41570650403319132 0 -0.41468480334626168 -0.41191052919992499 0 -0.43190374440294882 -0.41570650403319132 0 -0.41468480334626168 -0.41191052919992499 0 -0.42723775290039312 -0.39946410965797552 0 -0.42838425961033028 -0.43518485389794243 0 -0.41468480334626168 -0.41191052919992499 0 -0.41510495958242721 -0.43784490073428939 0 -0.41468480334626168 -0.41191052919992499 0 -0.4048412495787071 -0.42793356543364958 0 -0.41510495958242721 -0.43784490073428939 0 -0.41468480334626168 -0.41191052919992499 0 -0.41510495958242721 -0.43784490073428939 0 -0.4048412495787071 -0.42793356543364958 0 -0.40258665582750369 -0.4441387487595978 0 -0.41510495958242721 -0.43784490073428939 0 -0.42838425961033028 -0.43518485389794243 0 -0.41468480334626168 -0.41191052919992499 0 -0.43713336613176068 -0.38295685353531322 0 -0.42365817812256262 -0.38513033720826972 0 -0.42723775290039312 -0.39946410965797552 0 -0.43713336613176068 -0.38295685353531322 0 -0.42365817812256262 -0.38513033720826972 0 -0.42384537013283269 -0.37352047583139453 0 -0.43713336613176068 -0.38295685353531322 0 -0.42384537013283269 -0.37352047583139453 0 -0.4342769323192508 -0.36877450656140948 0 -0.44165070305412979 -0.40701358636582802 0 -0.43713336613176068 -0.38295685353531322 0 -0.42723775290039312 -0.39946410965797552 0 -0.41468480334626168 -0.41191052919992499 0 -0.41439572234469552 -0.3940668476053254 0 -0.41468480334626168 -0.41191052919992499 0 -0.40344193864534311 -0.39280976501329151 0 -0.41468480334626168 -0.41191052919992499 0 -0.42723775290039312 -0.39946410965797552 0 -0.41439572234469552 -0.3940668476053254 0 -0.41468480334626168 -0.41191052919992499 0 -0.41439572234469552 -0.3940668476053254 0 -0.40344193864534311 -0.39280976501329151 0 -0.42365817812256262 -0.38513033720826972 0 -0.42723775290039312 -0.39946410965797552 0 -0.41439572234469552 -0.3940668476053254 0 -0.410151353239675 -0.38360922281931298 0 -0.40344193864534311 -0.39280976501329151 0 -0.40866111062553179 -0.37133711264790947 0 -0.41439572234469552 -0.3940668476053254 0 -0.410151353239675 -0.38360922281931298 0 -0.41410664134312969 -0.37622316601072592 0 -0.41439572234469552 -0.3940668476053254 0 -0.41410664134312969 -0.37622316601072592 0 -0.42365817812256262 -0.38513033720826972 0 -0.41439572234469552 -0.3940668476053254 0 -0.41410664134312969 -0.37622316601072592 0 -0.41439572234469552 -0.3940668476053254 0 -0.410151353239675 -0.38360922281931298 0 -0.40344193864534311 -0.39280976501329151 0 -0.410151353239675 -0.38360922281931298 0 -0.41410664134312969 -0.37622316601072592 0 -0.40866111062553179 -0.37133711264790947 0 -0.42365817812256262 -0.38513033720826972 0 -0.41410664134312969 -0.37622316601072592 0 -0.42384537013283269 -0.37352047583139453 0 -0.40344193864534311 -0.39280976501329151 0 -0.39195193034847742 -0.37328912282652171 0 -0.40344193864534311 -0.39280976501329151 0 -0.40866111062553179 -0.37133711264790947 0 -0.40344193864534311 -0.39280976501329151 0 -0.38918736380383201 -0.38615957485792579 0 -0.39195193034847742 -0.37328912282652171 0 -0.40344193864534311 -0.39280976501329151 0 -0.40866111062553179 -0.37133711264790947 0 -0.39195193034847742 -0.37328912282652171 0 -0.41468480334626168 -0.41191052919992499 0 -0.40344193864534311 -0.39280976501329151 0 -0.39862864106669182 -0.41261257397030759 0 -0.40344193864534311 -0.39280976501329151 0 -0.38398644147778171 -0.39925946087582259 0 -0.39862864106669182 -0.41261257397030759 0 -0.40344193864534311 -0.39280976501329151 0 -0.38398644147778171 -0.39925946087582259 0 -0.38918736380383201 -0.38615957485792579 0 -0.40344193864534311 -0.39280976501329151 0 -0.39862864106669182 -0.41261257397030759 0 -0.38398644147778171 -0.39925946087582259 0 -0.38918736380383201 -0.38615957485792579 0 -0.37828650139295439 -0.37888340612094668 0 -0.38398644147778171 -0.39925946087582259 0 -0.37828650139295439 -0.37888340612094668 0 -0.36611497707635249 -0.39032039295861171 0 -0.38918736380383201 -0.38615957485792579 0 -0.37828650139295439 -0.37888340612094668 0 -0.39195193034847742 -0.37328912282652171 0 -0.4048412495787071 -0.42793356543364958 0 -0.39381534348804109 -0.4324153829273239 0 -0.39862864106669182 -0.41261257397030759 0 -0.4048412495787071 -0.42793356543364958 0 -0.39381534348804109 -0.4324153829273239 0 -0.40258665582750369 -0.4441387487595978 0 -0.39381534348804109 -0.4324153829273239 0 -0.39862864106669182 -0.4126125739703075
[...]
<PointData Scalars="" Vectors="displacement," Tensors="">
<DataArray type="Float64" Name="displacement" NumberOfComponents="3" format="ascii">
-0.024999259118723038 -1.2396154383251056e-07 0 -0.023957653533374267 -9.0297818774403115e-05 0 -0.02204918291926276 -1.0809403481804187e-07 0 -0.024999625029895525 -8.9415491075862393e-08 0 -0.024032599833355314 -0.00013408743690288173 0 -0.024999259118723038 -1.2396154383251056e-07 0 -0.024998634091713851 -1.0320669675444722e-08 0 -0.023957653533374267 -9.0297818774403115e-05 0 -0.023957653533374267 -9.0297818774403115e-05 0 -0.023025654497352725 -3.1246483947835465e-05 0 -0.02204918291926276 -1.0809403481804187e-07 0 -0.024032599833355314 -0.00013408743690288173 0 -0.023244002480041312 -2.6286666897467041e-05 0 -0.023025654497352725 -3.1246483947835465e-05 0 -0.02204918291926276 -1.0809403481804187e-07 0 -0.022262422247432294 2.3255488482708862e-05 0 -0.0239665225509486 5.8484416879572086e-05 0 -0.023003527297634253 0.00010469601502732941 0 -0.024245264764673848 0.0006281984914051497 0 -0.0239665225509486 5.8484416879572086e-05 0 -0.023003527297634253 0.00010469601502732941 0 -0.02390336111915442 -0.00016916436325673488 0 -0.023025654497352725 -3.1246483947835465e-05 0 -0.023003527297634253 0.00010469601502732941 0 -0.02390336111915442 -0.00016916436325673488 0 -0.023025654497352725 -3.1246483947835465e-05 0 -0.023003527297634253 0.00010469601502732941 0 -0.022262422247432294 2.3255488482708862e-05 0 -0.024171906604704581 -0.00019055150959972528 0 -0.023025654497352725 -3.1246483947835465e-05 0 -0.02390336111915442 -0.00016916436325673488 0 -0.0239665225509486 5.8484416879572086e-05 0 -0.02390336111915442 -0.00016916436325673488 0 -0.024325969076421306 -8.7361152633014144e-05 0 -0.02390336111915442 -0.00016916436325673488 0 -0.024618957447277656 -0.00015327951226690376 0 -0.024325969076421306 -8.7361152633014144e-05 0 -0.02390336111915442 -0.00016916436325673488 0 -0.024514890727659066 -0.0001381430934258603 0 -0.024618957447277656 -0.00015327951226690376 0 -0.024171906604704581 -0.00019055150959972528 0 -0.02390336111915442 -0.00016916436325673488 0 -0.024514890727659066 -0.0001381430934258603 0 -0.024999206769781596 -1.5597092567135139e-07 0 -0.024171906604704581 -0.00019055150959972528 0 -0.024514890727659066 -0.0001381430934258603 0 -0.024999206769781596 -1.5597092567135139e-07 0 -0.024514890727659066 -0.0001381430934258603 0 -0.024999386589382395 -1.3182300779073032e-07 0 -0.024514890727659066 -0.0001381430934258603 0 -0.024999386589382395 -1.3182300779073032e-07 0 -0.024618957447277656 -0.00015327951226690376 0 -0.024999386589382395 -1.3182300779073032e-07 0 -0.024999327764297186 -2.4421096486188587e-07 0 -0.024618957447277656 -0.00015327951226690376 0 -0.024999901796776833 -4.5237131912158368e-08 0 -0.024767570324499576 -2.0239955569841083e-05 0 -0.024999960193478211 -3.5816687776977259e-08 0 -0.024999888828715615 8.2346695249212546e-08 0 -0.024860972919731314 0.00010708504008386184 0 -0.024999888828715615 8.2346695249212546e-08 0 -0.024860972919731314 0.00010708504008386184 0 -0.024921166962451249 8.3888778761994582e-05 0 -0.024999327764297186 -2.4421096486188587e-07 0 -0.024649141117902226 -0.00016082575714417303 0 -0.024618957447277656 -0.00015327951226690376 0 -0.024649141117902226 -0.00016082575714417303 0 -0.024618957447277656 -0.00015327951226690376 0 -0.024325969076421306 -8.7361152633014144e-05 0 -0.025000003823566468 -4.7979026946570762e-10 0 -0.025002922281375992 -2.3291017132787671e-06 0 -0.025000244580209247 -2.6511056280825192e-06 0 -0.025000003823566468 -4.7979026946570762e-10 0 -0.025000244580209247 -2.6511056280825192e-06 0 -0.024998487617843589 1.4301218738528559e-07 0 -0.025000001588927765 -3.7765482776533512e-10 0 -0.025000003823566468 -4.7979026946570762e-10 0 -0.025002922281375992 -2.3291017132787671e-06 0 -0.02499996455616868 -6.7268468206940055e-09 0 -0.024964841390916089 3.8267072966138433e-05 0 -0.024860972919731314 0.00010708504008386184 0 -0.024921166962451249 8.3888778761994582e-05 0 -0.024880457342051424 0.00019160709562652839 0 -0.025002922281375992 -2.3291017132787671e-06 0 -0.025000244580209247 -2.6511056280825192e-06 0 -0.02500330675123353 -1.5609792883714026e-05 0 -0.024921166962451249 8.3888778761994582e-05 0 -0.02498053608331215 0.00020043120428363484 0 -0.024880457342051424 0.00019160709562652839 0 -0.024964841390916089 3.8267072966138433e-05 0 -0.024978788360982579 8.0021859809101628e-05 0 -0.024860972919731314 0.00010708504008386184 0 -0.024880457342051424 0.00019160709562652839 0 -0.024761450598516876 0.0002845565560285788 0 -0.024880457342051424 0.00019160709562652839 0 -0.024761450598516876 0.0002845565560285788 0 -0.024925925302101682 0.00035443549756213402 0 -0.02498053608331215 0.00020043120428363484 0 -0.024925925302101682 0.00035443549756213402 0 -0.025006465871774561 0.00037776639326669707 0 -0.02498053608331215 0.00020043120428363484 0 -0.024880457342051424 0.00019160709562652839 0 -0.024925925302101682 0.00035443549756213402 0 -0.024649141117902226 -0.00016082575714417303 0 -0.024325969076421306 -8.7361152633014144e-05 0 -0.024457236993685506 0.00016351237822136719 0 -0.024767570324499576 -2.0239955569841083e-05 0 -0.024766135278379786 0.00027534695938353566 0 -0.024649141117902226 -0.00016082575714417303 0 -0.024761450598516876 0.0002845565560285788 0 -0.024457236993685506 0.00016351237822136719 0 -0.024761450598516876 0.0002845565560285788 0 -0.024457236993685506 0.00016351237822136719 0 -0.024618038805165575 0.00044674259626800668 0 -0.0239665225509486 5.8484416879572086e-05 0 -0.024325969076421306 -8.7361152633014144e-05 0 -0.024457236993685506 0.00016351237822136719 0 -0.0239665225509486 5.8484416879572086e-05 0 -0.024457236993685506 0.00016351237822136719 0 -0.024245264764673848 0.0006281984914051497 0 -0.024457236993685506 0.00016351237822136719 0 -0.024245264764673848 0.0006281984914051497 0 -0.024618038805165575 0.00044674259626800668 0 -0.024761450598516876 0.0002845565560285788 0 -0.024618038805165575 0.00044674259626800668 0 -0.024804969120962628 0.00045974434848047993 0 -0.024245264764673848 0.0006281984914051497 0 -0.024618038805165575 0.00044674259626800668 0 -0.024666113236353669 0.00064112297412871437 0 -0.024618038805165575 0.00044674259626800668 0 -0.024666113236353669 0.00064112297412871437 0 -0.024804969120962628 0.00045974434848047993 0 -0.022561944416536205 3.3176564448953522e-05 0 -0.022891137095881756 0.00019815921675440273 0 -0.022618273870796211 0.0001939698286489881 0 -0.021663310953068424 9.0290558542293747e-05 0 -0.021573563095300573 0.00014238335978234047 0 -0.021518683139612409 0.00013099798055900559 0 -0.023249915520519505 0.00038415401802307576 0 -0.021842165434986936 0.00011970862852742332 0 -0.021573563095300573 0.00014238335978234047 0 -0.021512419732702303 0.00010535516150403334 0 -0.021518683139612409 0.00013099798055900559 0 -0.023500838843002209 0.00034268430795963539 0 -0.023249915520519505 0.00038415401802307576 0 -0.024925925302101682 0.00035443549756213402 0 -0.024890982133843276 0.00047254290177436037 0 -0.024804969120962628 0.00045974434848047993 0 -0.024925925302101682 0.00035443549756213402 0 -0.024890982133843276 0.00047254290177436037 0 -0.024957723483078946 0.00045362434772120097 0 -0.024925925302101682 0.00035443549756213402 0 -0.024957723483078946 0.00045362434772120097 0 -0.025006465871774561 0.00037776639326669707 0 -0.024761450598516876 0.0002845565560285788 0 -0.024925925302101682 0.00035443549756213402 0 -0.024804969120962628 0.00045974434848047993 0 -0.023249915520519505 0.00038415401802307576 0 -0.024740827281355401 0.00052182268383263127 0 -0.023249915520519505 0.00038415401802307576 0 -0.022118733649943337 0.00049269069595822394 0 -0.024666113236353669 0.00064112297412871437 0 -0.024804969120962628 0.00045974434848047993 0 -0.024842867467558028 0.00055777006346169203 0 -0.023673372779110687 0.00045507930718735856 0 -0.024315943767992943 0.000464176299286068 0 -0.024366640333676519 0.00083768435899156174 0 -0.024890982133843276 0.00047254290177436037 0 -0.024804969120962628 0.00045974434848047993 0 -0.024842867467558028 0.00055777006346169203 0 -0.024653069518648006 0.00061715924297754113 0 -0.024366640333676519 0.00083768435899156174 0 -0.024987498462211377 0.00061427844811148325 0 -0.024315943767992943 0.000464176299286068 0 -0.024653069518648006 0.00061715924297754113 0 -0.02489874105096259 0.00051465492454248643 0 -0.024740827281355401 0.00052182268383263127 0 -0.024801856202882378 0.0005134005319763342 0 -0.024890982133843276 0.00047254290177436037 0 -0.024842867467558028 0.00055777006346169203 0 -0.02489874105096259 0.00051465492454248643 0 -0.024315943767992943 0.000464176299286068 0 -0.024653069518648006 0.00061715924297754113 0 -0.024366640333676519 0.00083768435899156174 0 -0.024653069518648006 0.00061715924297754113 0 -0.02489874105096259 0.00051465492454248643 0 -0.024987498462211377 0.00061427844811148325 0 -0.024890982133843276 0.00047254290177436037 0 -0.02489874105096259 0.00051465492454248643 0 -0.024957723483078946 0.00045362434772120097 0 -0.022118733649943337 0.00049269069595822394 0 -0.020445984453544733 0.00034872164745135758 0 -0.022118733649943337 0.00049269069595822394 0 -0.022856240982443439 0.00068892504405555386 0 -0.020979563095360764 0.00054164264505412638 0 -0.02090958796548617 0.0004164569289036144 0 -0.020792757288800562 0.00044216736963392377 0 -0.02105621647622976 0.00057351941518644488 0 -0.020787863155942266 0.00062835417305153027 0 -0.020792757288800562 0.00044216736963392377 0 -0.021663310953068424 9.0290558542293747e-05 0 -0.021785444467712238 0.00015724237817656652 0 -0.021654617257665702 0.00018046578526843531 0 -0.020979563095360764 0.00054164264505412638 0 -0.021035805325119398 0.00037002337055650522 0 -0.021162637408235947 0.00048198247884075632 0 -0.020979563095360764 0.00054164264505412638 0 -0.021035805325119398 0.00037002337055650522 0 -0.02090958796548617 0.0004164569289036144 0 -0.022118733649943337 0.00049269069595822394 0 -0.021274916231539317 0.00034312138115073906 0 -0.021035805325119398 0.00037002337055650522 0 -0.02090958796548617 0.0004164569289036144 0 -0.020828053868761083 0.00031340692756068512 0 -0.021035805325119398 0.00037002337055650522 0 -0.020828053868761083 0.00031340692756068512 0 -0.020927037698190213 0.00020397011827627331 0 -0.02090958796548617 0.0004164569289036144 0 -0.020828053868761083 0.00031340692756068512 0 -0.020792757288800562 0.00044216736963392377 0 -0.021573563095300573 0.00014238335978234047 0 -0.02156614327934837 0.00017776185223550764 0 -0.021654617257665702 0.00018046578526843531 0 -0.021573563095300573 0.00014238335978234047 0 -0.02156614327934837 0.00017776185223550764 0 -0.021512419732702303 0.00010535516150403334 0 -0.021447060834563842 0.00026430406556619341 0 -0.021274916231539317 0.00034312138115073906 0 -0.02130313468879921 0.0003774947757001716 0 -0.021162637408235947 0.00048198247884075632 0 -0.021218018362254377 0.00036575658963634421 0 -0.021663310953068424 9.0290558542293747e-05 0 -0.021573563095300573 0.00014238335978234047 0 -0.021654617257665702 0.00018046578526843531 0 -0.021035805325119398 0.00037002337055650522 0 -0.021162637408235947 0.00048198247884075632 0 -0.021218018362254377 0.00036575658963634421 0 -0.021035805325119398 0.00037002337055650522 0 -0.021218018362254377 0.00036575658963634421 0 -0.02120955934554495 0.00025688281579729235 0 -0.021218018362254377 0.00036575658963634421 0 -0.021311319943960252 0.00034429933101175404 0 -0.02120955934554495 0.00025688281579729235 0 -0.02130313468879921 0.0003774947757001716 0 -0.021218018362254377 0.00036575658963634421 0 -0.021311319943960252 0.00034429933101175404 0 -0.02130313468879921 0.0003774947757001716 0 -0.021311319943960252 0.00034429933101175404 0 -0.021341220284406253 0.00018013124326182866 0 -0.021311319943960252 0.00034429933101175404 0 -0.021341220284406253 0.00018013124326182866 0 -0.021296159650095448 0.00048236532072606025 0 -0.02156614327934837 0.00017776185223550764 0 -0.021341220284406253 0.00018013124326182866 0 -0.021512419732702303 0.00010535516150403334 0 -0.021447060834563842 0.00026430406556619341 0 -0.021337855849373769 0.00021389449418804455 0 -0.021341220284406253 0.00018013124326182866 0 -0.021512419732702303 0.00010535516150403334 0 -0.021822222355439961 6.2420015083739164e-05 0 -0.021341220284406253 0.00018013124326182866 0 -0.020866371170698551 2.778393131634324e-05 0 -0.021822222355439961 6.2420015083739164e-05 0 -0.021341220284406253 0.00018013124326182866 0 -0.020866371170698551 2.778393131634324e-05 0 -0.020585804388718248 0.00065770849414112744 0 -0.019881460101058443 -6.5370168307024217e-07 0 -0.020866371170698551 2.778393131634324e-05 0 -0.018294156379999472 2.3743679487555829e-06 0 -0.020866371170698551 2.778393131634324e-05 0 -0.018294156379999472 2.3743679487555829e-06 0 -0.020585804388718248 0.00065770849414112744 0 -0.019881460101058443 -6.5370168307024217e-07 0 -0.020866371170698551 2.778393131634324e-05 0 -0.021383630408198125 -2.2361303494527169e-05 0 -0.02204918291926276 -1.0809403481804187e-07 0 -0.019881460101058443 -6.5370168307024217e-07 0 -0.021383630408198125 -2.2361303494527169e-05 0 -0.020866371170698551 2.778393131634324e-05 0 -0.021383630408198125 -2.2361303494527169e-05 0 -0.021822222355439961 6.2420015083739164e-05 0 -0.021383630408198125 -2.2361303494527169e-05 0 -0.022262422247432294 2.3255488482708862e-05 0 -0.021822222355439961 6.2420015083739164e-05 0 -0.02204918291926276 -1.0809403481804187e-07 0 -0.021383630408198125 -2.2361303494527169e-05 0 -0.022262422247432294 2.3255488482708862e-05 0 -0.023003527297634253 0.00010469601502732941 0 -0.022262422247432294 2.3255488482708862e-05 0 -0.022459986181230039 1.2484736308097988e-05 0 -0.022262422247432294 2.3255488482708862e-05 0 -0.022459986181230039 1.2484736308097988e-05 0 -0.021822222355439961 6.2420015083739164e-05 0 -0.023003527297634253 0.00010469601502732941 0 -0.022561944416536205 3.3176564448953522e-05 0 -0.022459986181230039 1.2484736308097988e-05 0 -0.02296631038086407 9.2213533182333875e-05 0 -0.023500838843002209 0.00034268430795963539 0 -0.022561944416536205 3.3176564448953522e-05 0 -0.022459986181230039 1.2484736308097988e-05 0 -0.022618273870796211 0.0001939698286489881 0 -0.022459986181230039 1.2484736308097988e-05 0 -0.022618273870796211 0.0001939698286489881 0 -0.021822222355439961 6.2420015083739164e-05 0 -0.021512419732702303 0.00010535516150403334 0 -0.021518683139612409 0.00013099798055900559 0 -0.021822222355439961 6.2420015083739164e-05 0 -0.021842165434986936 0.00011970862852742332 0 -0.021933470240724978 9.059720148893235e-05 0 -0.024886850866905841 -4.6307335890244569e-05 0 -0.024853132234588987 -6.4011993357015209e-05 0 -0.024896287694857112 -4.4576964435683579e-05 0 -0.024886850866905841 -4.6307335890244569e-05 0 -0.024843039154478323 -6.2444186470588171e-05 0 -0.024853132234588987 -6.4011993357015209e-05 0 -0.024886850866905841 -4.6307335890244569e-05 0 -0.024877493147925697 -4.7484595074606481e-05 0 -0.024843039154478323 -6.2444186470588171e-05 0 -0.024886850866905841 -4.6307335890244569e-05 0 -0.024952982904158337 -1.9581933564791086e-05 0 -0.024926003246623928 -2.946995442709231e-05 0 -0.024886850866905841 -4.6307335890244569e-05 0 -0.024935921405243647 -2.7615294114468791e-05 0 -0.024896287694857112 -4.4576964435683579e-05 0 -0.024886850866905841 -4.6307335890244569e-05 0 -0.024952982904158337 -1.9581933564791086e-05 0 -0.024935921405243647 -2.7615294114468791e-05 0 -0.024952982904158337 -1.9581933564791086e-05 0 -0.024999940630143561 -1.4524509772851653e-08 0 -0.024935921405243647 -2.7615294114468791e-05 0 -0.024999937742170426 -1.1748832717409724e-08 0 -0.024952982904158337 -1.9581933564791086e-05 0 -0.024999940630143561 -1.4524509772851653e-08 0 -0.024999937742170426 -1.1748832717409724e-08 0 -0.024952982904158337 -1.9581933564791086e-05 0 -0.024967706162147277 -1.3292272095569989e-05 0 -0.024967706162147277 -1.3292272095569989e-05 0 -0.024953941916751536 -1.9625313697681813e-05 0 -0.024926003246623928 -2.946995442709231e-05 0 -0.024952982904158337 -1.9581933564791086e-05 0 -0.024967706162147277 -1.3292272095569989e-05 0 -0.024926003246623928 -2.946995442709231e-05 0 -0.024999937742170426 -1.1748832717409724e-08 0 -0.024967706162147277 -1.3292272095569989e-05 0 -0.02499993581262271 -1.660889641609309e-08 0 -0.024967706162147277 -1.3292272095569989e-05 0 -0.02499993581262271 -1.660889641609309e-08 0 -0.024953941916751536 -1.9625313697681813e-05 0 -0.024999986368076352 4.6600632031496923e-09 0 -0.024975806576308827 -7.1038748368247819e-06 0 -0.024953941916751536 -1.9625313697681813e-05 0 -0.024926003246623928 -2.946995442709231e-05 0 -0.024911349240209952 -3.559730717556699e-05 0 -0.024975806576308827 -7.1038748368247819e-06 0 -0.024956048975006213 -1.3490491584953036e-05 0 -0.024926003246623928 -2.946995442709231e-05 0 -0.024877493147925697 -4.7484595074606481e-05 0 -0.024911349240209952 -3.559730717556699e-05 0 -0.024886850866905841 -4.6307335890244569e-05 0 -0.024926003246623928 -2.946995442709231e-05 0 -0.024877493147925697 -4.7484595074606481e-05 0 -0.024877493147925697 -4.7484595074606481e-05 0 -0.024879374305938853 -5.5587640633190859e-05 0 -0.024911349240209952 -3.559730717556699e-05 0 -0.024877493147925697 -4.7484595074606481e-05 0 -0.024879374305938853 -5.5587640633190859e-05 0 -0.024835780057671758 -6.603090580081275e-05 0 -0.024904082528046129 -5.0734349188931377e-05 0 -0.024956048975006213 -1.3490491584953036e-05 0 -0.024997090719124173 -5.3425071609192228e-06 0 -0.024999434914631156 -2.2085258056610597e-06 0 -0.024997556184106727 -1.9802701515545001e-06 0 -0.024904082528046129 -5.0734349188931377e-05 0 -0.024983921856698846 -3.4390936897791192e-06 0 -0.02495192448125225 -1.8558839366189164e-05 0 -0.02498065488711617 -1.9621408142334464e-05 0 -0.024955274062534592 -5.1578848301981638e-05 0 -0.024924624419261708 -4.5054442276045918e-05 0 -0.02495192448125225 -1.8558839366189164e-05 0 -0.024955274062534592 -5.1578848301981638e-05 0 -0.02495192448125225 -1.8558839366189164e-05 0 -0.024977096500054516 -2.1066045283740449e-06 0 -0.02498065488711617 -1.9621408142334464e-05 0 -0.024983921856698846 -3.4390936897791192e-06 0 -0.024986650816545653 -3.9041852752966808e-06 0 -0.024999434914631156 -2.2085258056610597e-06 0 -0.024997556184106727 -1.9802701515545001e-06 0 -0.024999398852740683 -3.267548624958193e-07 0 -0.024998834920532658 -3.1039865388104154e-07 0 -0.024997556184106727 -1.9802701515545001e-06 0 -0.024999398852740683 -3.267548624958193e-07 0 -0.024999996613892413 -2.3893736139321155e-10 0 -0.024998834920532658 -3.1039865388104154e-07 0 -0.025000002351019589 -6.3857962169270608e-11 0 -0.024998834920532658 -3.1039865388104154e-07 0 -0.025000002351019589 -6.3857962169270608e-11 0 -0.024999398852740683 -3.267548624958193e-07 0 -0.025000002351019589 -6.3857962169270608e-11 0 -0.024999760382686472 1.7895749924581178e-07 0 -0.024999398852740683 -3.267548624958193e-07 0 -0.024999434914631156 -2.2085258056610597e-06 0 -0.024999398852740683 -3.267548624958193e-07 0 -0.024999995764043284 -1.6645994622091211e-07 0 -0.024999760382686472 1.7895749924581178e-07 0 -0.024999398852740683 -3.267548624958193e-07 0 -0.024999995764043284 -1.6645994622091211e-07 0 -0.024977096500054516 -2.1066045283740449e-06 0 -0.02499235590814811 -2.5170731810918332e-06 0 -0.024998155021779173 1.054758323515507e-06 0 -0.024977096500054516 -2.1066045283740449e-06 0 -0.02499235590814811 -2.5170731810918332e-06 0 -0.02498065488711617 -1.9621408142334464e-05 0 -0.025000002351019589 -6.3857962169270608e-11 0 -0.024999760382686472 1.7895749924581178e-07 0 -0.024999989892890866 2.059396250528768e-09 0 -0.024999760382686472 1.7895749924581178e-07 0 -0.024999995764043284 -1.6645994622091211e-07 0 -0.024998155021779173 1.054758323515507e-06 0 -0.024986650816545653 -3.9041852752966808e-06 0 -0.024996622253185739 1.4998613992708721e-06 0 -0.024999760382686472 1.7895749924581178e-07 0 -0