<?xml version="1.0"?>
<VTKFile type="UnstructuredGrid" version="0.1" byte_order="LittleEndian">
<UnstructuredGrid>
<Piece NumberOfPoints="30247" NumberOfCells="10644">
<Points>
<DataArray type="Float64" NumberOfComponents="3" format="ascii">
-0.5 -0.5 0 -0.475794567466164 -0.47412012637101919 0 -0.44096451214561599 -0.5 0 -0.49999999999999861 -0.47438368540536052 0 -0.475794567466164 -0.47412012637101919 0 -0.5 -0.5 0 -0.49999999999999861 -0.47438368540536052 0 -0.475794567466164 -0.47412012637101919 0 -0.475794567466164 -0.47412012637101919 0 -0.45158913493232938 -0.47385656733667791 0 -0.44096451214561599 -0.5 0 -0.475794567466164 -0.47412012637101919 0 -0.45158913493232938 -0.47385656733667791 0 -0.45158913493232938 -0.47385656733667791 0 -0.44096451214561599 -0.5 0 -0.43131701676670958 -0.47179869612788822 0 -0.44678276159224162 -0.44217934081764237 0 -0.44208371587439849 -0.45845917859596008 0 -0.42838425961033028 -0.43518485389794243 0 -0.44678276159224162 -0.44217934081764237 0 -0.44208371587439849 -0.45845917859596008 0 -0.46198097286348749 -0.45407305060710268 0 -0.45158913493232938 -0.47385656733667791 0 -0.44208371587439849 -0.45845917859596008 0 -0.46198097286348749 -0.45407305060710268 0 -0.45158913493232938 -0.47385656733667791 0 -0.44208371587439849 -0.45845917859596008 0 -0.43131701676670958 -0.47179869612788822 0 -0.475794567466164 -0.47412012637101919 0 -0.45158913493232938 -0.47385656733667791 0 -0.46198097286348749 -0.45407305060710268 0 -0.44678276159224162 -0.44217934081764237 0 -0.46198097286348749 -0.45407305060710268 0 -0.45983201989259359 -0.43514128396949259 0 -0.46198097286348749 -0.45407305060710268 0 -0.48005487705845368 -0.43739902810602332 0 -0.45983201989259359 -0.43514128396949259 0 -0.46198097286348749 -0.45407305060710268 0 -0.48356608347762098 -0.45758115104362551 0 -0.48005487705845368 -0.43739902810602332 0 -0.475794567466164 -0.47412012637101919 0 -0.46198097286348749 -0.45407305060710268 0 -0.48356608347762098 -0.45758115104362551 0 -0.49999999999999861 -0.47438368540536052 0 -0.475794567466164 -0.47412012637101919 0 -0.48356608347762098 -0.45758115104362551 0 -0.49999999999999861 -0.47438368540536052 0 -0.48356608347762098 -0.45758115104362551 0 -0.5 -0.44792986472862228 0 -0.48356608347762098 -0.45758115104362551 0 -0.5 -0.44792986472862228 0 -0.48005487705845368 -0.43739902810602332 0 -0.5 -0.44792986472862228 0 -0.500000000000002 -0.42147604405188399 0 -0.48005487705845368 -0.43739902810602332 0 -0.500000000000002 -0.42147604405188399 0 -0.47082535152706589 -0.4142448152088557 0 -0.500000000000002 -0.42147604405188399 0 -0.50000000000000222 -0.41222112955913182 0 -0.47082535152706589 -0.4142448152088557 0 -0.50000000000000222 -0.41222112955913182 0 -0.47082535152706589 -0.4142448152088557 0 -0.47914437046051739 -0.39385776636265091 0 -0.500000000000002 -0.42147604405188399 0 -0.47082535152706589 -0.4142448152088557 0 -0.48005487705845368 -0.43739902810602332 0 -0.47082535152706589 -0.4142448152088557 0 -0.48005487705845368 -0.43739902810602332 0 -0.45983201989259359 -0.43514128396949259 0 -0.5 -0.38507919177018268 0 -0.47914437046051739 -0.39385776636265091 0 -0.48068091792958578 -0.37571411203574329 0 -0.5 -0.38507919177018268 0 -0.48068091792958578 -0.37571411203574329 0 -0.4906890405849309 -0.36705710283026688 0 -0.50000000000000222 -0.41222112955913182 0 -0.5 -0.38507919177018268 0 -0.47914437046051739 -0.39385776636265091 0 -0.50000000000000222 -0.41222112955913182 0 -0.47914437046051739 -0.39385776636265091 0 -0.47082535152706589 -0.4142448152088557 0 -0.47914437046051739 -0.39385776636265091 0 -0.45740850641890118 -0.39471348492776381 0 -0.47914437046051739 -0.39385776636265091 0 -0.48068091792958578 -0.37571411203574329 0 -0.45828874092103178 -0.37549440316617111 0 -0.47914437046051739 -0.39385776636265091 0 -0.45828874092103178 -0.37549440316617111 0 -0.45740850641890118 -0.39471348492776381 0 -0.47914437046051739 -0.39385776636265091 0 -0.45828874092103178 -0.37549440316617111 0 -0.47082535152706589 -0.4142448152088557 0 -0.45740850641890118 -0.39471348492776381 0 -0.44165070305412979 -0.40701358636582802 0 -0.45740850641890118 -0.39471348492776381 0 -0.44165070305412979 -0.40701358636582802 0 -0.43713336613176068 -0.38295685353531322 0 -0.45828874092103178 -0.37549440316617111 0 -0.43713336613176068 -0.38295685353531322 0 -0.4342769323192508 -0.36877450656140948 0 -0.45828874092103178 -0.37549440316617111 0 -0.45740850641890118 -0.39471348492776381 0 -0.43713336613176068 -0.38295685353531322 0 -0.47082535152706589 -0.4142448152088557 0 -0.45983201989259359 -0.43514128396949259 0 -0.44598916534362759 -0.42553920764367148 0 -0.47082535152706589 -0.4142448152088557 0 -0.44165070305412979 -0.40701358636582802 0 -0.47082535152706589 -0.4142448152088557 0 -0.44165070305412979 -0.40701358636582802 0 -0.44598916534362759 -0.42553920764367148 0 -0.44165070305412979 -0.40701358636582802 0 -0.44598916534362759 -0.42553920764367148 0 -0.43190374440294882 -0.41570650403319132 0 -0.44678276159224162 -0.44217934081764237 0 -0.45983201989259359 -0.43514128396949259 0 -0.44598916534362759 -0.42553920764367148 0 -0.44678276159224162 -0.44217934081764237 0 -0.44598916534362759 -0.42553920764367148 0 -0.42838425961033028 -0.43518485389794243 0 -0.44598916534362759 -0.42553920764367148 0 -0.42838425961033028 -0.43518485389794243 0 -0.43190374440294882 -0.41570650403319132 0 -0.44165070305412979 -0.40701358636582802 0 -0.43190374440294882 -0.41570650403319132 0 -0.42723775290039312 -0.39946410965797552 0 -0.42838425961033028 -0.43518485389794243 0 -0.43190374440294882 -0.41570650403319132 0 -0.41468480334626168 -0.41191052919992499 0 -0.43190374440294882 -0.41570650403319132 0 -0.41468480334626168 -0.41191052919992499 0 -0.42723775290039312 -0.39946410965797552 0 -0.42838425961033028 -0.43518485389794243 0 -0.41468480334626168 -0.41191052919992499 0 -0.41510495958242721 -0.43784490073428939 0 -0.41468480334626168 -0.41191052919992499 0 -0.4048412495787071 -0.42793356543364958 0 -0.41510495958242721 -0.43784490073428939 0 -0.41468480334626168 -0.41191052919992499 0 -0.41510495958242721 -0.43784490073428939 0 -0.4048412495787071 -0.42793356543364958 0 -0.40258665582750369 -0.4441387487595978 0 -0.41510495958242721 -0.43784490073428939 0 -0.42838425961033028 -0.43518485389794243 0 -0.41468480334626168 -0.41191052919992499 0 -0.43713336613176068 -0.38295685353531322 0 -0.42365817812256262 -0.38513033720826972 0 -0.42723775290039312 -0.39946410965797552 0 -0.43713336613176068 -0.38295685353531322 0 -0.42365817812256262 -0.38513033720826972 0 -0.42384537013283269 -0.37352047583139453 0 -0.43713336613176068 -0.38295685353531322 0 -0.42384537013283269 -0.37352047583139453 0 -0.4342769323192508 -0.36877450656140948 0 -0.44165070305412979 -0.40701358636582802 0 -0.43713336613176068 -0.38295685353531322 0 -0.42723775290039312 -0.39946410965797552 0 -0.41468480334626168 -0.41191052919992499 0 -0.41439572234469552 -0.3940668476053254 0 -0.41468480334626168 -0.41191052919992499 0 -0.40344193864534311 -0.39280976501329151 0 -0.41468480334626168 -0.41191052919992499 0 -0.42723775290039312 -0.39946410965797552 0 -0.41439572234469552 -0.3940668476053254 0 -0.41468480334626168 -0.41191052919992499 0 -0.41439572234469552 -0.3940668476053254 0 -0.40344193864534311 -0.39280976501329151 0 -0.42365817812256262 -0.38513033720826972 0 -0.42723775290039312 -0.39946410965797552 0 -0.41439572234469552 -0.3940668476053254 0 -0.410151353239675 -0.38360922281931298 0 -0.40344193864534311 -0.39280976501329151 0 -0.40866111062553179 -0.37133711264790947 0 -0.41439572234469552 -0.3940668476053254 0 -0.410151353239675 -0.38360922281931298 0 -0.41410664134312969 -0.37622316601072592 0 -0.41439572234469552 -0.3940668476053254 0 -0.41410664134312969 -0.37622316601072592 0 -0.42365817812256262 -0.38513033720826972 0 -0.41439572234469552 -0.3940668476053254 0 -0.41410664134312969 -0.37622316601072592 0 -0.41439572234469552 -0.3940668476053254 0 -0.410151353239675 -0.38360922281931298 0 -0.40344193864534311 -0.39280976501329151 0 -0.410151353239675 -0.38360922281931298 0 -0.41410664134312969 -0.37622316601072592 0 -0.40866111062553179 -0.37133711264790947 0 -0.42365817812256262 -0.38513033720826972 0 -0.41410664134312969 -0.37622316601072592 0 -0.42384537013283269 -0.37352047583139453 0 -0.40344193864534311 -0.39280976501329151 0 -0.39195193034847742 -0.37328912282652171 0 -0.40344193864534311 -0.39280976501329151 0 -0.40866111062553179 -0.37133711264790947 0 -0.40344193864534311 -0.39280976501329151 0 -0.38918736380383201 -0.38615957485792579 0 -0.39195193034847742 -0.37328912282652171 0 -0.40344193864534311 -0.39280976501329151 0 -0.40866111062553179 -0.37133711264790947 0 -0.39195193034847742 -0.37328912282652171 0 -0.41468480334626168 -0.41191052919992499 0 -0.40344193864534311 -0.39280976501329151 0 -0.39862864106669182 -0.41261257397030759 0 -0.40344193864534311 -0.39280976501329151 0 -0.38398644147778171 -0.39925946087582259 0 -0.39862864106669182 -0.41261257397030759 0 -0.40344193864534311 -0.39280976501329151 0 -0.38398644147778171 -0.39925946087582259 0 -0.38918736380383201 -0.38615957485792579 0 -0.40344193864534311 -0.39280976501329151 0 -0.39862864106669182 -0.41261257397030759 0 -0.38398644147778171 -0.39925946087582259 0 -0.38918736380383201 -0.38615957485792579 0 -0.37828650139295439 -0.37888340612094668 0 -0.38398644147778171 -0.39925946087582259 0 -0.37828650139295439 -0.37888340612094668 0 -0.36611497707635249 -0.39032039295861171 0 -0.38918736380383201 -0.38615957485792579 0 -0.37828650139295439 -0.37888340612094668 0 -0.39195193034847742 -0.37328912282652171 0 -0.4048412495787071 -0.42793356543364958 0 -0.39381534348804109 -0.4324153829273239 0 -0.39862864106669182 -0.41261257397030759 0 -0.4048412495787071 -0.42793356543364958 0 -0.39381534348804109 -0.4324153829273239 0 -0.40258665582750369 -0.4441387487595978 0 -0.39381534348804109 -0.4324153829273239 0 -0.39862864106669182 -0.4126125739703075
[...]
<PointData Scalars="" Vectors="displacement," Tensors="">
<DataArray type="Float64" Name="displacement" NumberOfComponents="3" format="ascii">
-5.9547526391878998e-07 -0.024998053335693306 0 -7.0560763554660121e-05 -0.024668617318896538 0 -9.5014212923756366e-08 -0.02499938415103373 0 -7.620474043615939e-08 -0.023719258273582833 0 -0.00015985205861189413 -0.023975753032013294 0 -5.9547526391878998e-07 -0.024998053335693306 0 9.0068066443460759e-07 -0.023722729717970167 0 -7.0560763554660121e-05 -0.024668617318896538 0 -7.0560763554660121e-05 -0.024668617318896538 0 -0.00020864346354565732 -0.024454289187211927 0 -9.5014212923756366e-08 -0.02499938415103373 0 -0.00015985205861189413 -0.023975753032013294 0 -0.00020350785793075537 -0.024402942409438088 0 -0.00020864346354565732 -0.024454289187211927 0 -9.5014212923756366e-08 -0.02499938415103373 0 -0.00011583465846800732 -0.024685530379786148 0 0.0002192368239826876 -0.023936995297555736 0 1.3254202369711551e-05 -0.024316340068842618 0 0.00029525714454833689 -0.024069919150871259 0 0.0002192368239826876 -0.023936995297555736 0 1.3254202369711551e-05 -0.024316340068842618 0 1.3453522590344543e-05 -0.023646746656267526 0 -0.00020864346354565732 -0.024454289187211927 0 1.3254202369711551e-05 -0.024316340068842618 0 1.3453522590344543e-05 -0.023646746656267526 0 -0.00020864346354565732 -0.024454289187211927 0 1.3254202369711551e-05 -0.024316340068842618 0 -0.00011583465846800732 -0.024685530379786148 0 -0.00027622798121934122 -0.02324617557187807 0 -0.00020864346354565732 -0.024454289187211927 0 1.3453522590344543e-05 -0.023646746656267526 0 0.0002192368239826876 -0.023936995297555736 0 1.3453522590344543e-05 -0.023646746656267526 0 0.00027709479885217769 -0.023534679458292469 0 1.3453522590344543e-05 -0.023646746656267526 0 1.8936598969106152e-05 -0.022733738213760624 0 0.00027709479885217769 -0.023534679458292469 0 1.3453522590344543e-05 -0.023646746656267526 0 -0.00015603876739833967 -0.023020368832013985 0 1.8936598969106152e-05 -0.022733738213760624 0 -0.00027622798121934122 -0.02324617557187807 0 1.3453522590344543e-05 -0.023646746656267526 0 -0.00015603876739833967 -0.023020368832013985 0 9.7017710493052964e-08 -0.023717437184801328 0 -0.00027622798121934122 -0.02324617557187807 0 -0.00015603876739833967 -0.023020368832013985 0 9.7017710493052964e-08 -0.023717437184801328 0 -0.00015603876739833967 -0.023020368832013985 0 -1.0016595877165474e-06 -0.022396605726506692 0 -0.00015603876739833967 -0.023020368832013985 0 -1.0016595877165474e-06 -0.022396605726506692 0 1.8936598969106152e-05 -0.022733738213760624 0 -1.0016595877165474e-06 -0.022396605726506692 0 2.2547848479140631e-06 -0.021076552909322355 0 1.8936598969106152e-05 -0.022733738213760624 0 1.1711818067930489e-07 -0.02107416580546289 0 0.00045073335795778238 -0.022630575421895706 0 -2.1934788804070356e-06 -0.021069457015638404 0 2.3432103044246172e-06 -0.020615603558302768 0 6.1304677263138713e-05 -0.022105274374563735 0 2.3432103044246172e-06 -0.020615603558302768 0 6.1304677263138713e-05 -0.022105274374563735 0 0.0011208064732446627 -0.021723507415081944 0 2.2547848479140631e-06 -0.021076552909322355 0 0.00084659255720515817 -0.023141401382046331 0 1.8936598969106152e-05 -0.022733738213760624 0 0.00084659255720515817 -0.023141401382046331 0 1.8936598969106152e-05 -0.022733738213760624 0 0.00027709479885217769 -0.023534679458292469 0 -6.3315469783709822e-07 -0.019254096950825129 0 7.3770730113187336e-05 -0.018900451174209 0 -5.8432878001253027e-05 -0.018650272064136546 0 -6.3315469783709822e-07 -0.019254096950825129 0 -5.8432878001253027e-05 -0.018650272064136546 0 -5.696419672516752e-05 -0.018378203587571678 0 9.6024305563217684e-07 -0.020609183049764532 0 -6.3315469783709822e-07 -0.019254096950825129 0 7.3770730113187336e-05 -0.018900451174209 0 7.253653024567223e-08 -0.020610737758410328 0 0.00053823309081386375 -0.020331850805479439 0 6.1304677263138713e-05 -0.022105274374563735 0 0.0011208064732446627 -0.021723507415081944 0 0.0011261351479234267 -0.02286791795008504 0 7.3770730113187336e-05 -0.018900451174209 0 -5.8432878001253027e-05 -0.018650272064136546 0 -4.6091473045263752e-06 -0.018631843296124415 0 0.0011208064732446627 -0.021723507415081944 0 0.0018899617411089781 -0.022837739950403273 0 0.0011261351479234267 -0.02286791795008504 0 0.00053823309081386375 -0.020331850805479439 0 0.00093074099868815821 -0.020681982090649049 0 6.1304677263138713e-05 -0.022105274374563735 0 0.0011261351479234267 -0.02286791795008504 0 0.00071826914228848569 -0.023684182072942934 0 0.0011261351479234267 -0.02286791795008504 0 0.00071826914228848569 -0.023684182072942934 0 0.0015562247134414695 -0.023663892644362465 0 0.0018899617411089781 -0.022837739950403273 0 0.0015562247134414695 -0.023663892644362465 0 0.0020356433786365784 -0.023723482864824189 0 0.0018899617411089781 -0.022837739950403273 0 0.0011261351479234267 -0.02286791795008504 0 0.0015562247134414695 -0.023663892644362465 0 0.00084659255720515817 -0.023141401382046331 0 0.00027709479885217769 -0.023534679458292469 0 0.00046398846387039937 -0.023774634474241666 0 0.00045073335795778238 -0.022630575421895706 0 0.00070090006653322464 -0.023609110141808297 0 0.00084659255720515817 -0.023141401382046331 0 0.00071826914228848569 -0.023684182072942934 0 0.00046398846387039937 -0.023774634474241666 0 0.00071826914228848569 -0.023684182072942934 0 0.00046398846387039937 -0.023774634474241666 0 0.00059769600920747863 -0.023948454684238618 0 0.0002192368239826876 -0.023936995297555736 0 0.00027709479885217769 -0.023534679458292469 0 0.00046398846387039937 -0.023774634474241666 0 0.0002192368239826876 -0.023936995297555736 0 0.00046398846387039937 -0.023774634474241666 0 0.00029525714454833689 -0.024069919150871259 0 0.00046398846387039937 -0.023774634474241666 0 0.00029525714454833689 -0.024069919150871259 0 0.00059769600920747863 -0.023948454684238618 0 0.00071826914228848569 -0.023684182072942934 0 0.00059769600920747863 -0.023948454684238618 0 0.00098977083763813123 -0.024024929351702775 0 0.00029525714454833689 -0.024069919150871259 0 0.00059769600920747863 -0.023948454684238618 0 0.00067802925301542092 -0.02431865869756733 0 0.00059769600920747863 -0.023948454684238618 0 0.00067802925301542092 -0.02431865869756733 0 0.00098977083763813123 -0.024024929351702775 0 0.00045545147859239987 -0.024631937089689308 0 0.00081711370239722226 -0.02485148291816747 0 0.00039938656867781838 -0.024851783472782177 0 0.00013563546706624072 -0.024787636780648842 0 7.2981131856488128e-05 -0.024830026463224922 0 4.1401117066137334e-05 -0.024808136997384253 0 0.00054773831294488168 -0.02460119039353665 0 0.00020388639962503675 -0.024856475839787485 0 7.2981131856488128e-05 -0.024830026463224922 0 2.7521739997040718e-05 -0.024837113127585225 0 4.1401117066137334e-05 -0.024808136997384253 0 0.00039927907450270424 -0.024369034166384449 0 0.00054773831294488168 -0.02460119039353665 0 0.0015562247134414695 -0.023663892644362465 0 0.0014648664306712617 -0.02408893434417712 0 0.00098977083763813123 -0.024024929351702775 0 0.0015562247134414695 -0.023663892644362465 0 0.0014648664306712617 -0.02408893434417712 0 0.0018555748696018877 -0.024054304921812111 0 0.0015562247134414695 -0.023663892644362465 0 0.0018555748696018877 -0.024054304921812111 0 0.0020356433786365784 -0.023723482864824189 0 0.00071826914228848569 -0.023684182072942934 0 0.0015562247134414695 -0.023663892644362465 0 0.00098977083763813123 -0.024024929351702775 0 0.00054773831294488168 -0.02460119039353665 0 0.0011662673694009119 -0.024357372913571054 0 0.00054773831294488168 -0.02460119039353665 0 0.00062547317333835287 -0.024518100081670907 0 0.00067802925301542092 -0.02431865869756733 0 0.00098977083763813123 -0.024024929351702775 0 0.0011644474523255315 -0.024375427176552437 0 0.00049503511048929307 -0.024346207338763144 0 0.0011228783889389176 -0.024353849881031956 0 0.0011673716990115851 -0.024737886590636918 0 0.0014648664306712617 -0.02408893434417712 0 0.00098977083763813123 -0.024024929351702775 0 0.0011644474523255315 -0.024375427176552437 0 0.001489644655035726 -0.024502147531847401 0 0.0011673716990115851 -0.024737886590636918 0 0.0019119923682559771 -0.024544914199076361 0 0.0011228783889389176 -0.024353849881031956 0 0.001489644655035726 -0.024502147531847401 0 0.0017503422435783461 -0.024366731781949657 0 0.0011662673694009119 -0.024357372913571054 0 0.0016767510467558871 -0.024368166832620015 0 0.0014648664306712617 -0.02408893434417712 0 0.0011644474523255315 -0.024375427176552437 0 0.0017503422435783461 -0.024366731781949657 0 0.0011228783889389176 -0.024353849881031956 0 0.001489644655035726 -0.024502147531847401 0 0.0011673716990115851 -0.024737886590636918 0 0.001489644655035726 -0.024502147531847401 0 0.0017503422435783461 -0.024366731781949657 0 0.0019119923682559771 -0.024544914199076361 0 0.0014648664306712617 -0.02408893434417712 0 0.0017503422435783461 -0.024366731781949657 0 0.0018555748696018877 -0.024054304921812111 0 0.00062547317333835287 -0.024518100081670907 0 0.00056859521102291689 -0.02432517141105103 0 0.00062547317333835287 -0.024518100081670907 0 0.0010815729255991785 -0.024581181863715027 0 0.00047626247090882173 -0.02438332538736019 0 0.00054229233910872612 -0.024481079245845191 0 0.00067354499693140298 -0.024390929410017151 0 0.00037270910526149487 -0.024213870846620383 0 0.000700456174097312 -0.024126809395742566 0 0.00067354499693140298 -0.024390929410017151 0 0.00013563546706624072 -0.024787636780648842 0 0.00022527744086116961 -0.024830666148635539 0 0.00013249786940877496 -0.024853194333335278 0 0.00047626247090882173 -0.02438332538736019 0 0.00041249600991535504 -0.024583731415866679 0 0.00028895612528180651 -0.024494507614110282 0 0.00047626247090882173 -0.02438332538736019 0 0.00041249600991535504 -0.024583731415866679 0 0.00054229233910872612 -0.024481079245845191 0 0.00062547317333835287 -0.024518100081670907 0 0.0001630945511519362 -0.024688509372480513 0 0.00041249600991535504 -0.024583731415866679 0 0.00054229233910872612 -0.024481079245845191 0 0.00061785528024157512 -0.024564586239764499 0 0.00041249600991535504 -0.024583731415866679 0 0.00061785528024157512 -0.024564586239764499 0 0.00049770336610985614 -0.024727608849746952 0 0.00054229233910872612 -0.024481079245845191 0 0.00061785528024157512 -0.024564586239764499 0 0.00067354499693140298 -0.024390929410017151 0 7.2981131856488128e-05 -0.024830026463224922 0 5.5298510333498569e-05 -0.024858394382039659 0 0.00013249786940877496 -0.024853194333335278 0 7.2981131856488128e-05 -0.024830026463224922 0 5.5298510333498569e-05 -0.024858394382039659 0 2.7521739997040718e-05 -0.024837113127585225 0 0.00011072208806764423 -0.024750415470232625 0 0.0001630945511519362 -0.024688509372480513 0 0.00012241594773278541 -0.024646240350261087 0 0.00028895612528180651 -0.024494507614110282 0 0.0002277831569794653 -0.024663987690830481 0 0.00013563546706624072 -0.024787636780648842 0 7.2981131856488128e-05 -0.024830026463224922 0 0.00013249786940877496 -0.024853194333335278 0 0.00041249600991535504 -0.024583731415866679 0 0.00028895612528180651 -0.024494507614110282 0 0.0002277831569794653 -0.024663987690830481 0 0.00041249600991535504 -0.024583731415866679 0 0.0002277831569794653 -0.024663987690830481 0 0.0002338595222772943 -0.024810042447965482 0 0.0002277831569794653 -0.024663987690830481 0 0.00011303329548048721 -0.024765208186383583 0 0.0002338595222772943 -0.024810042447965482 0 0.00012241594773278541 -0.024646240350261087 0 0.0002277831569794653 -0.024663987690830481 0 0.00011303329548048721 -0.024765208186383583 0 0.00012241594773278541 -0.024646240350261087 0 0.00011303329548048721 -0.024765208186383583 0 1.9598925225823102e-05 -0.024837770436672256 0 0.00011303329548048721 -0.024765208186383583 0 1.9598925225823102e-05 -0.024837770436672256 0 4.7260268529945158e-05 -0.024865767031727926 0 5.5298510333498569e-05 -0.024858394382039659 0 1.9598925225823102e-05 -0.024837770436672256 0 2.7521739997040718e-05 -0.024837113127585225 0 0.00011072208806764423 -0.024750415470232625 0 3.0062399637284929e-05 -0.024816671937172387 0 1.9598925225823102e-05 -0.024837770436672256 0 2.7521739997040718e-05 -0.024837113127585225 0 -3.8563978771097143e-06 -0.024849197461527039 0 1.9598925225823102e-05 -0.024837770436672256 0 -1.5599082078421856e-05 -0.024913989744457986 0 -3.8563978771097143e-06 -0.024849197461527039 0 1.9598925225823102e-05 -0.024837770436672256 0 -1.5599082078421856e-05 -0.024913989744457986 0 -5.7756246195212351e-06 -0.024927094703341625 0 -5.89035056808921e-08 -0.024999883569156795 0 -1.5599082078421856e-05 -0.024913989744457986 0 5.4115161356203604e-09 -0.024999913059062111 0 -1.5599082078421856e-05 -0.024913989744457986 0 5.4115161356203604e-09 -0.024999913059062111 0 -5.7756246195212351e-06 -0.024927094703341625 0 -5.89035056808921e-08 -0.024999883569156795 0 -1.5599082078421856e-05 -0.024913989744457986 0 -6.2133179151337655e-05 -0.024880694136026366 0 -9.5014212923756366e-08 -0.02499938415103373 0 -5.89035056808921e-08 -0.024999883569156795 0 -6.2133179151337655e-05 -0.024880694136026366 0 -1.5599082078421856e-05 -0.024913989744457986 0 -6.2133179151337655e-05 -0.024880694136026366 0 -3.8563978771097143e-06 -0.024849197461527039 0 -6.2133179151337655e-05 -0.024880694136026366 0 -0.00011583465846800732 -0.024685530379786148 0 -3.8563978771097143e-06 -0.024849197461527039 0 -9.5014212923756366e-08 -0.02499938415103373 0 -6.2133179151337655e-05 -0.024880694136026366 0 -0.00011583465846800732 -0.024685530379786148 0 1.3254202369711551e-05 -0.024316340068842618 0 -0.00011583465846800732 -0.024685530379786148 0 0.0001805440923416289 -0.024702486128658926 0 -0.00011583465846800732 -0.024685530379786148 0 0.0001805440923416289 -0.024702486128658926 0 -3.8563978771097143e-06 -0.024849197461527039 0 1.3254202369711551e-05 -0.024316340068842618 0 0.00045545147859239987 -0.024631937089689308 0 0.0001805440923416289 -0.024702486128658926 0 6.9917259615485004e-06 -0.024281215612776116 0 0.00039927907450270424 -0.024369034166384449 0 0.00045545147859239987 -0.024631937089689308 0 0.0001805440923416289 -0.024702486128658926 0 0.00039938656867781838 -0.024851783472782177 0 0.0001805440923416289 -0.024702486128658926 0 0.00039938656867781838 -0.024851783472782177 0 -3.8563978771097143e-06 -0.024849197461527039 0 2.7521739997040718e-05 -0.024837113127585225 0 4.1401117066137334e-05 -0.024808136997384253 0 -3.8563978771097143e-06 -0.024849197461527039 0 0.00020388639962503675 -0.024856475839787485 0 1.7484202600471865e-05 -0.02483930644875796 0 0.00020571440235613245 -0.011399527639019589 0 4.1568563576815924e-05 -0.010649996544930172 0 -0.00027369172273635645 -0.01114066690032841 0 0.00020571440235613245 -0.011399527639019589 0 0.00053872678021828235 -0.010787593221912643 0 4.1568563576815924e-05 -0.010649996544930172 0 0.00020571440235613245 -0.011399527639019589 0 0.0008558423138761525 -0.011354606985919611 0 0.00053872678021828235 -0.010787593221912643 0 0.00020571440235613245 -0.011399527639019589 0 -2.1398458493190582e-05 -0.012616997555405478 0 0.00041382824154409612 -0.012316324728408205 0 0.00020571440235613245 -0.011399527639019589 0 -0.00016724516188273153 -0.011845234605491112 0 -0.00027369172273635645 -0.01114066690032841 0 0.00020571440235613245 -0.011399527639019589 0 -2.1398458493190582e-05 -0.012616997555405478 0 -0.00016724516188273153 -0.011845234605491112 0 -2.1398458493190582e-05 -0.012616997555405478 0 -2.4685236039100089e-07 -0.012457446554895427 0 -0.00016724516188273153 -0.011845234605491112 0 -6.6906148403970935e-07 -0.013819782559548818 0 -2.1398458493190582e-05 -0.012616997555405478 0 -2.4685236039100089e-07 -0.012457446554895427 0 -6.6906148403970935e-07 -0.013819782559548818 0 -2.1398458493190582e-05 -0.012616997555405478 0 0.00019776486078111431 -0.013549399638925012 0 0.00019776486078111431 -0.013549399638925012 0 0.0012850832534496662 -0.013152778866553892 0 0.00041382824154409612 -0.012316324728408205 0 -2.1398458493190582e-05 -0.012616997555405478 0 0.00019776486078111431 -0.013549399638925012 0 0.00041382824154409612 -0.012316324728408205 0 -6.6906148403970935e-07 -0.013819782559548818 0 0.00019776486078111431 -0.013549399638925012 0 3.1017963360351692e-06 -0.015180135531132215 0 0.00019776486078111431 -0.013549399638925012 0 3.1017963360351692e-06 -0.015180135531132215 0 0.0012850832534496662 -0.013152778866553892 0 3.2014284446800211e-07 -0.015182448637436292 0 0.00057544612290521429 -0.014689251760165781 0 0.0012850832534496662 -0.013152778866553892 0 0.00041382824154409612 -0.012316324728408205 0 0.0016170285769244259 -0.011961667148244112 0 0.00057544612290521429 -0.014689251760165781 0 0.00078940327342240184 -0.014064491491324065 0 0.00041382824154409612 -0.012316324728408205 0 0.0008558423138761525 -0.011354606985919611 0 0.0016170285769244259 -0.011961667148244112 0 0.00020571440235613245 -0.011399527639019589 0 0.00041382824154409612 -0.012316324728408205 0 0.0008558423138761525 -0.011354606985919611 0 0.0008558423138761525 -0.011354606985919611 0 0.0017364860711013876 -0.011086950422077569 0 0.0016170285769244259 -0.011961667148244112 0 0.0008558423138761525 -0.011354606985919611 0 0.0017364860711013876 -0.011086950422077569 0 0.00093586029682798759 -0.010729935299973462 0 0.00085470533073724552 -0.014359329432508281 0 0.00078940327342240184 -0.014064491491324065 0 -4.679226342415713e-05 -0.016300457536761914 0 -5.8871658386437722e-06 -0.016411405611617816 0 -6.7030007151413861e-05 -0.016408382016023546 0 0.00085470533073724552 -0.014359329432508281 0 0.00020393721930814178 -0.017960158169827285 0 0.00022484327297312429 -0.018607320877186855 0 0.00017935533193249925 -0.018625720077016787 0 0.00021688300172174711 -0.018603513810030708 0 0.00018283778584772835 -0.018589264394923592 0 0.00022484327297312429 -0.018607320877186855 0 0.00021688300172174711 -0.018603513810030708 0 0.00022484327297312429 -0.018607320877186855 0 0.00026767045005330389 -0.018531247783559825 0 0.00017935533193249925 -0.018625720077016787 0 0.00020393721930814178 -0.017960158169827285 0 9.1274967823041497e-05 -0.017495019951513594 0 -5.8871658386437722e-06 -0.016411405611617816 0 -6.7030007151413861e-05 -0.016408382016023546 0 -6.087297400583086e-05 -0.016542113719475095 0 -1.2175244196053718e-05 -0.016254845731890864 0 -6.7030007151413861e-05 -0.016408382016023546 0 -6.087297400583086e-05 -0.016542113719475095 0 1.0013667690837924e-06 -0.015185181906357169 0 -1.2175244196053718e-05 -0.016254845731890864 0 -7.89886297541082e-07 -0.016539138296788714 0 -1.2175244196053718e-05 -0.016254845731890864 0 -7.89886297541082e-07 -0.016539138296788714 0 -6.087297400583086e-05 -0.016542113719475095 0 -7.89886297541082e-07 -0.016539138296788714 0 -2.0781595302286225e-05 -0.017062771019660888 0 -6.087297400583086e-05 -0.016542113719475095 0 -5.8871658386437722e-06 -0.016411405611617816 0 -6.087297400583086e-05 -0.016542113719475095 0 8.5382848789021724e-05 -0.016619441336555463 0 -2.0781595302286225e-05 -0.017062771019660888 0 -6.087297400583086e-05 -0.016542113719475095 0 8.5382848789021724e-05 -0.016619441336555463 0 0.00026767045005330389 -0.018531247783559825 0 2.6740472849857937e-05 -0.018497722858045813 0 6.4744263344902826e-05 -0.01786813165365533 0 0.00026767045005330389 -0.018531247783559825 0 2.6740472849857937e-05 -0.018497722858045813 0 0.00017935533193249925 -0.018625720077016787 0 -7.89886297541082e-07 -0.016539138296788714 0 -2.0781595302286225e-05 -0.017062771019660888 0 5.1377393632210531e-07 -0.017896981969695153 0 -2.0781595302286225e-05 -0.017062771019660888 0 8.5382848789021724e-05 -0.016619441336555463 0 6.4744263344902826e-05 -0.01786813165365533 0 9.1274967823041497e-05 -0.017495019951513594 0 9.1773368868616211e-05 -0.01779716274330341 0 -2.0781595302286225e-05 -0.017062771019660888 0 6.4744263344902826e-05 -0.01786813165365533 0 5.1377393632210531e-07 -0.017896981969695153 0 -6.3315469783709822e-07 -0.