<?xml version="1.0"?>
<VTKFile type="UnstructuredGrid" version="0.1" byte_order="LittleEndian">
<UnstructuredGrid>
<Piece NumberOfPoints="30890" NumberOfCells="10788">
<Points>
<DataArray type="Float64" NumberOfComponents="3" format="ascii">
-0.5 -0.5 0 -0.4534101453725693 -0.47967677867322323 0 -0.41515072818903881 -0.49609119914418598 0 -0.5 -0.5 0 -0.47942257299033608 -0.47104120105954839 0 -0.49999999999999972 -0.45484594530914307 0 -0.5 -0.5 0 -0.40065594060627813 -0.5 0 -0.41515072818903881 -0.49609119914418598 0 -0.5 -0.5 0 -0.47942257299033608 -0.47104120105954839 0 -0.4534101453725693 -0.47967677867322323 0 -0.47942257299033608 -0.47104120105954839 0 -0.4534101453725693 -0.47967677867322323 0 -0.46231789334964429 -0.46429534392115762 0 -0.4534101453725693 -0.47967677867322323 0 -0.4394267817550308 -0.46983919624086579 0 -0.46231789334964429 -0.46429534392115762 0 -0.4534101453725693 -0.47967677867322323 0 -0.4394267817550308 -0.46983919624086579 0 -0.427288754972035 -0.4829651976925261 0 -0.4534101453725693 -0.47967677867322323 0 -0.4394267817550308 -0.46983919624086579 0 -0.43893881706024579 -0.44294091527266372 0 -0.45793857953458028 -0.44982063071359391 0 -0.45803846376390978 -0.43234866672468047 0 -0.4394267817550308 -0.46983919624086579 0 -0.45793857953458028 -0.44982063071359391 0 -0.4394267817550308 -0.46983919624086579 0 -0.43893881706024579 -0.44294091527266372 0 -0.45793857953458028 -0.44982063071359391 0 -0.4394267817550308 -0.46983919624086579 0 -0.46231789334964429 -0.46429534392115762 0 -0.45793857953458028 -0.44982063071359391 0 -0.46231789334964429 -0.46429534392115762 0 -0.45793857953458028 -0.44982063071359391 0 -0.47304607662549669 -0.44680543903429609 0 -0.45793857953458028 -0.44982063071359391 0 -0.47645037731412959 -0.42980206518632158 0 -0.47304607662549669 -0.44680543903429609 0 -0.48822518865706482 -0.44232400524773219 0 -0.47645037731412959 -0.42980206518632158 0 -0.45793857953458028 -0.44982063071359391 0 -0.47304607662549669 -0.44680543903429609 0 -0.47645037731412959 -0.42980206518632158 0 -0.47304607662549669 -0.44680543903429609 0 -0.48251771109945979 -0.45509874884696511 0 -0.48822518865706482 -0.44232400524773219 0 -0.46231789334964429 -0.46429534392115762 0 -0.47304607662549669 -0.44680543903429609 0 -0.48251771109945979 -0.45509874884696511 0 -0.47942257299033608 -0.47104120105954839 0 -0.46231789334964429 -0.46429534392115762 0 -0.48251771109945979 -0.45509874884696511 0 -0.47942257299033608 -0.47104120105954839 0 -0.48251771109945979 -0.45509874884696511 0 -0.49999999999999972 -0.45484594530914307 0 -0.49999999999999972 -0.45484594530914307 0 -0.48822518865706482 -0.44232400524773219 0 -0.5 -0.42841714439079709 0 -0.48251771109945979 -0.45509874884696511 0 -0.49999999999999972 -0.45484594530914307 0 -0.48822518865706482 -0.44232400524773219 0 -0.49999999999999972 -0.45484594530914307 0 -0.48822518865706482 -0.44232400524773219 0 -0.48822518865706482 -0.44232400524773219 0 -0.48894783211533049 -0.43043121942531098 0 -0.5 -0.42841714439079709 0 -0.48822518865706482 -0.44232400524773219 0 -0.48894783211533049 -0.43043121942531098 0 -0.47645037731412959 -0.42980206518632158 0 -0.48912395650182722 -0.42418883195365592 0 -0.48287075687156561 -0.41978031582437991 0 -0.48390651897944947 -0.4270347451113049 0 -0.48894783211533049 -0.43043121942531098 0 -0.48912395650182722 -0.42418883195365592 0 -0.48390651897944947 -0.4270347451113049 0 -0.48894783211533049 -0.43043121942531098 0 -0.48912395650182722 -0.42418883195365592 0 -0.5 -0.42841714439079709 0 -0.48912395650182722 -0.42418883195365592 0 -0.5 -0.42841714439079709 0 -0.4898946745427904 -0.41528073501648649 0 -0.5 -0.42841714439079709 0 -0.4898946745427904 -0.41528073501648649 0 -0.5 -0.40198834347245122 0 -0.4898946745427904 -0.41528073501648649 0 -0.5 -0.40198834347245122 0 -0.47620299808399169 -0.40228923046207338 0 -0.48912395650182722 -0.42418883195365592 0 -0.4898946745427904 -0.41528073501648649 0 -0.48287075687156561 -0.41978031582437991 0 -0.47634275776510698 -0.42680233103840892 0 -0.47620299808399169 -0.40228923046207338 0 -0.46507163553287201 -0.41770132587004449 0 -0.47634275776510698 -0.42680233103840892 0 -0.47620299808399169 -0.40228923046207338 0 -0.4898946745427904 -0.41528073501648649 0 -0.48287075687156561 -0.41978031582437991 0 -0.47620299808399169 -0.40228923046207338 0 -0.48287075687156561 -0.41978031582437991 0 -0.47634275776510698 -0.42680233103840892 0 -0.47620299808399169 -0.40228923046207338 0 -0.47634275776510698 -0.42680233103840892 0 -0.47645037731412959 -0.42980206518632158 0 -0.46507163553287201 -0.41770132587004449 0 -0.47645037731412959 -0.42980206518632158 0 -0.46507163553287201 -0.41770132587004449 0 -0.48822518865706482 -0.44232400524773219 0 -0.47645037731412959 -0.42980206518632158 0 -0.48390651897944947 -0.4270347451113049 0 -0.48026476333471407 -0.42545241167639469 0 -0.47793901972273473 -0.42819225473148498 0 -0.48894783211533049 -0.43043121942531098 0 -0.47645037731412959 -0.42980206518632158 0 -0.48390651897944947 -0.4270347451113049 0 -0.48287075687156561 -0.41978031582437991 0 -0.48390651897944947 -0.4270347451113049 0 -0.48026476333471407 -0.42545241167639469 0 -0.48287075687156561 -0.41978031582437991 0 -0.47634275776510698 -0.42680233103840892 0 -0.48026476333471407 -0.42545241167639469 0 -0.47645037731412959 -0.42980206518632158 0 -0.48390651897944947 -0.4270347451113049 0 -0.47793901972273473 -0.42819225473148498 0 -0.47634275776510698 -0.42680233103840892 0 -0.48026476333471407 -0.42545241167639469 0 -0.47793901972273473 -0.42819225473148498 0 -0.47634275776510698 -0.42680233103840892 0 -0.47645037731412959 -0.42980206518632158 0 -0.47793901972273473 -0.42819225473148498 0 -0.47645037731412959 -0.42980206518632158 0 -0.47793901972273473 -0.42819225473148498 0 -0.48806655912171698 -0.38940331159359193 0 -0.5 -0.37555954255410517 0 -0.5 -0.40198834347245122 0 -0.48806655912171698 -0.38940331159359193 0 -0.5 -0.37555954255410517 0 -0.47606323840287618 -0.37777612988573778 0 -0.48806655912171698 -0.38940331159359193 0 -0.5 -0.40198834347245122 0 -0.47620299808399169 -0.40228923046207338 0 -0.47620299808399169 -0.40228923046207338 0 -0.47606323840287618 -0.37777612988573778 0 -0.4626693618143809 -0.39238071900487342 0 -0.48806655912171698 -0.38940331159359193 0 -0.47620299808399169 -0.40228923046207338 0 -0.47606323840287618 -0.37777612988573778 0 -0.47620299808399169 -0.40228923046207338 0 -0.47606323840287618 -0.37777612988573778 0 -0.4626693618143809 -0.39238071900487342 0 -0.44616602825503998 -0.39393495663749678 0 -0.45309614157734079 -0.37950385027520978 0 -0.47606323840287618 -0.37777612988573778 0 -0.4626693618143809 -0.39238071900487342 0 -0.45309614157734079 -0.37950385027520978 0 -0.4626693618143809 -0.39238071900487342 0 -0.4536928937516137 -0.40560058655376802 0 -0.44616602825503998 -0.39393495663749678 0 -0.47620299808399169 -0.40228923046207338 0 -0.4626693618143809 -0.39238071900487342 0 -0.4536928937516137 -0.40560058655376802 0 -0.4536928937516137 -0.40560058655376802 0 -0.44616602825503998 -0.39393495663749678 0 -0.43861015859495039 -0.41118252673888361 0 -0.44616602825503998 -0.39393495663749678 0 -0.43861015859495039 -0.41118252673888361 0 -0.43170047212621332 -0.39341833100653628 0 -0.44616602825503998 -0.39393495663749678 0 -0.43766974259788682 -0.38149256198204151 0 -0.45309614157734079 -0.37950385027520978 0 -0.44616602825503998 -0.39393495663749678 0 -0.43766974259788682 -0.38149256198204151 0 -0.43170047212621332 -0.39341833100653628 0 -0.45793857953458028 -0.44982063071359391 0 -0.47645037731412959 -0.42980206518632158 0 -0.45803846376390978 -0.43234866672468047 0 -0.47645037731412959 -0.42980206518632158 0 -0.45803846376390978 -0.43234866672468047 0 -0.46507163553287201 -0.41770132587004449 0 -0.45803846376390978 -0.43234866672468047 0 -0.46507163553287201 -0.41770132587004449 0 -0.45269353257574202 -0.41796591965123431 0 -0.47620299808399169 -0.40228923046207338 0 -0.4536928937516137 -0.40560058655376802 0 -0.46507163553287201 -0.41770132587004449 0 -0.4536928937516137 -0.40560058655376802 0 -0.46507163553287201 -0.41770132587004449 0 -0.4536928937516137 -0.40560058655376802 0 -0.46507163553287201 -0.41770132587004449 0 -0.45269353257574202 -0.41796591965123431 0 -0.45269353257574202 -0.41796591965123431 0 -0.43861015859495039 -0.41118252673888361 0 -0.44410444512570629 -0.42707059933241159 0 -0.4536928937516137 -0.40560058655376802 0 -0.45269353257574202 -0.41796591965123431 0 -0.43861015859495039 -0.41118252673888361 0 -0.43893881706024579 -0.44294091527266372 0 -0.44410444512570629 -0.42707059933241159 0 -0.43163875528248502 -0.42805608896678538 0 -0.43893881706024579 -0.44294091527266372 0 -0.45803846376390978 -0.43234866672468047 0 -0.44410444512570629 -0.42707059933241159 0 -0.43861015859495039 -0.41118252673888361 0 -0.44410444512570629 -0.42707059933241159 0 -0.43163875528248502 -0.42805608896678538 0 -0.45803846376390978 -0.43234866672468047 0 -0.45269353257574202 -0.41796591965123431 0 -0.44410444512570629 -0.42707059933241159 0 -0.43163875528248502 -0.42805608896678538 0 -0.42333669654958378 -0.41713185753449522 0 -0.41982351631528891 -0.43536083395331182 0 -0.43893881706024579 -0.44294091527266372 0 -0.43163875528248502 -0.42805608896678538 0 -0.41982351631528891 -0.43536083395331182 0 -0.43861015859495039 -0.41118252673888361 0 -0.43163875528248502 -0.42805608896678538 0 -0.42333669654958378 -0.41713185753449522 0 -0.43861015859495039 -0.41118252673888361 0 -0.42333669654958378 -0.41713185753449522 0 -0.42599970140639598 -0.40550896613534049 0 -0.42333669654958378 -0.41713185753449522 0 -0.4105189759936072 -0.41774094497167358 0 -0.41374759550686752 -0.40436386972615113 0 -0.42333669654958378 -0.41713185753449522 0 -0.42599970140639598 -0.40550896613534049 0 -0.41374759550686752 -0.40436386972615113 0 -0.4105189759936072 -0.41774094497167358 0 -0.41374759550686752 -0.40436386972615113 0 -0.40015224873140709 -0.41237124113365442 
[...]
<PointData Scalars="" Vectors="displacement," Tensors="">
<DataArray type="Float64" Name="displacement" NumberOfComponents="3" format="ascii">
-1.3123912445925791e-06 -0.034997185100675267 0 -8.6743188518373065e-05 -0.034722521948482278 0 3.8034064192015282e-06 -0.03491455319860657 0 -1.3123912445925791e-06 -0.034997185100675267 0 -6.9996791860549285e-05 -0.034078318546570292 0 2.163181627206351e-06 -0.031844878777961133 0 -1.3123912445925791e-06 -0.034997185100675267 0 5.0528270604458517e-07 -0.034997377527481548 0 3.8034064192015282e-06 -0.03491455319860657 0 -1.3123912445925791e-06 -0.034997185100675267 0 -6.9996791860549285e-05 -0.034078318546570292 0 -8.6743188518373065e-05 -0.034722521948482278 0 -6.9996791860549285e-05 -0.034078318546570292 0 -8.6743188518373065e-05 -0.034722521948482278 0 0.00019119003608553429 -0.03448293719619263 0 -8.6743188518373065e-05 -0.034722521948482278 0 8.3216963385520498e-05 -0.035037812271155482 0 0.00019119003608553429 -0.03448293719619263 0 -8.6743188518373065e-05 -0.034722521948482278 0 -7.9690852006994884e-06 -0.034772551975411126 0 -2.1575463162098974e-05 -0.034841149563467448 0 0.00058167046541024697 -0.035645360394094196 0 -0.00031095603468350957 -0.031043283350039714 0 -0.0019282870110943389 -0.023491762581593779 0 -0.0020487644893419396 -0.023139059244085651 0 -0.0016301170021753525 -0.023134815152043832 0 -0.00031095603468350957 -0.031043283350039714 0 -0.00069933018781866423 -0.028540395104360992 0 -0.002551736278550743 -0.023556971805858428 0 -0.0019282870110943389 -0.023491762581593779 0 -0.0020487644893419396 -0.023139059244085651 0 8.3216963385520498e-05 -0.035037812271155482 0 0.00019119003608553429 -0.03448293719619263 0 0.00070516666318214984 -0.034611248330855368 0 0.00019119003608553429 -0.03448293719619263 0 0.00070516666318214984 -0.034611248330855368 0 0.00088838865644208195 -0.033954738123848034 0 -0.00069933018781866423 -0.028540395104360992 0 -2.9616621769448756e-05 -0.028704421793492387 0 0.00088838865644208195 -0.033954738123848034 0 0.0012215174262246976 -0.033073145907239969 0 0.0017857255681464233 -0.033748347441046926 0 0.00070516666318214984 -0.034611248330855368 0 0.00088838865644208195 -0.033954738123848034 0 0.0017857255681464233 -0.033748347441046926 0 0.00088838865644208195 -0.033954738123848034 0 0.00042516608891771292 -0.033540238091001096 0 0.0012215174262246976 -0.033073145907239969 0 0.00019119003608553429 -0.03448293719619263 0 0.00088838865644208195 -0.033954738123848034 0 0.00042516608891771292 -0.033540238091001096 0 -6.9996791860549285e-05 -0.034078318546570292 0 0.00019119003608553429 -0.03448293719619263 0 0.00042516608891771292 -0.033540238091001096 0 -6.9996791860549285e-05 -0.034078318546570292 0 0.00042516608891771292 -0.033540238091001096 0 2.163181627206351e-06 -0.031844878777961133 0 1.6763709466243497e-06 -0.031837319849676263 0 0.00047888826156108823 -0.029712510110612669 0 2.1928573830994111e-07 -0.029988319155946311 0 0.00042516608891771292 -0.033540238091001096 0 2.163181627206351e-06 -0.031844878777961133 0 0.0012215174262246976 -0.033073145907239969 0 -2.2248235426362657e-08 -0.031838472025246527 0 0.00095364473193517688 -0.031519362877098951 0 0.00047888826156108823 -0.029712510110612669 0 0.00026106942271236972 -0.029094755658814312 0 2.1928573830994111e-07 -0.029988319155946311 0 0.00047888826156108823 -0.029712510110612669 0 0.00026106942271236972 -0.029094755658814312 0 0.00062219528146313728 -0.027582702538982533 0 9.106488699198219e-05 -0.028793466465910498 0 4.5851716989468135e-05 -0.028012498991523336 0 0.00028848210875108101 -0.028345639272021734 0 0.00026106942271236972 -0.029094755658814312 0 9.106488699198219e-05 -0.028793466465910498 0 0.00028848210875108101 -0.028345639272021734 0 0.00026106942271236972 -0.029094755658814312 0 9.106488699198219e-05 -0.028793466465910498 0 2.1928573830994111e-07 -0.029988319155946311 0 9.106488699198219e-05 -0.028793466465910498 0 2.1928573830994111e-07 -0.029988319155946311 0 -9.2689135945282354e-05 -0.028427373001076582 0 2.1928573830994111e-07 -0.029988319155946311 0 -9.2689135945282354e-05 -0.028427373001076582 0 -6.1895206215185806e-07 -0.028138558223263211 0 -9.2689135945282354e-05 -0.028427373001076582 0 -6.1895206215185806e-07 -0.028138558223263211 0 -0.00030738469598539509 -0.027446884332535188 0 9.106488699198219e-05 -0.028793466465910498 0 -9.2689135945282354e-05 -0.028427373001076582 0 4.5851716989468135e-05 -0.028012498991523336 0 0.0003800721303766361 -0.027193060524090804 0 -0.0011739328011046144 -0.024578809066868663 0 -0.00026419527759357736 -0.024635715947713417 0 0.00046707566857792822 -0.026955620547115759 0 -0.0006090352406771392 -0.026030846841130207 0 -9.2689135945282354e-05 -0.028427373001076582 0 4.5851716989468135e-05 -0.028012498991523336 0 -0.00030738469598539509 -0.027446884332535188 0 4.5851716989468135e-05 -0.028012498991523336 0 0.0003800721303766361 -0.027193060524090804 0 -0.00030738469598539509 -0.027446884332535188 0 0.0003800721303766361 -0.027193060524090804 0 0.00076687538478550422 -0.027311453593885149 0 -0.00026419527759357736 -0.024635715947713417 0 -2.9616621769448756e-05 -0.028704421793492387 0 -0.001227189783938234 -0.023549888836971528 0 0.00095364473193517688 -0.031519362877098951 0 -2.9616621769448756e-05 -0.028704421793492387 0 0.00028848210875108101 -0.028345639272021734 0 0.00030410511126292096 -0.027810660921073777 0 0.00050555008582135524 -0.0276430311933205 0 0.00026106942271236972 -0.029094755658814312 0 0.00062219528146313728 -0.027582702538982533 0 0.00028848210875108101 -0.028345639272021734 0 4.5851716989468135e-05 -0.028012498991523336 0 0.00028848210875108101 -0.028345639272021734 0 0.00030410511126292096 -0.027810660921073777 0 4.5851716989468135e-05 -0.028012498991523336 0 0.0003800721303766361 -0.027193060524090804 0 0.00030410511126292096 -0.027810660921073777 0 0.00062219528146313728 -0.027582702538982533 0 0.00028848210875108101 -0.028345639272021734 0 0.00050555008582135524 -0.0276430311933205 0 0.0003800721303766361 -0.027193060524090804 0 0.00030410511126292096 -0.027810660921073777 0 0.00050555008582135524 -0.0276430311933205 0 0.0003800721303766361 -0.027193060524090804 0 0.00076687538478550422 -0.027311453593885149 0 0.00050555008582135524 -0.0276430311933205 0 -2.9616621769448756e-05 -0.028704421793492387 0 0.00010055464395370067 -0.028557330048853611 0 -0.00012942698434527088 -0.027000358604001001 0 -1.1249073957395957e-07 -0.026288940276067214 0 -6.1895206215185806e-07 -0.028138558223263211 0 -0.00012942698434527088 -0.027000358604001001 0 -1.1249073957395957e-07 -0.026288940276067214 0 -6.6830527456118505e-05 -0.026198648427280501 0 -0.00012942698434527088 -0.027000358604001001 0 -6.1895206215185806e-07 -0.028138558223263211 0 -0.00030738469598539509 -0.027446884332535188 0 -0.0011739328011046144 -0.024578809066868663 0 -0.0011800338577337745 -0.023362382377171829 0 -0.0012021947263187228 -0.023630061813132066 0 -0.00012942698434527088 -0.027000358604001001 0 -0.00030738469598539509 -0.027446884332535188 0 -6.6830527456118505e-05 -0.026198648427280501 0 -0.0006090352406771392 -0.026030846841130207 0 -0.00067758375724807994 -0.024786962920887983 0 -0.0012021947263187228 -0.023630061813132066 0 -0.0010385600696770207 -0.023265514673321532 0 -0.0010863485644227796 -0.023234316753025858 0 -0.0011800338577337745 -0.023362382377171829 0 -0.0012021947263187228 -0.023630061813132066 0 -0.0010863485644227796 -0.023234316753025858 0 -0.0012021947263187228 -0.023630061813132066 0 -0.00097326839821394175 -0.023407184832006721 0 -0.0010385600696770207 -0.023265514673321532 0 -0.0011739328011046144 -0.024578809066868663 0 -0.0012021947263187228 -0.023630061813132066 0 -0.00097326839821394175 -0.023407184832006721 0 -0.00097326839821394175 -0.023407184832006721 0 -0.0010385600696770207 -0.023265514673321532 0 -0.0011247304860118857 -0.023378049187949199 0 -0.0010385600696770207 -0.023265514673321532 0 -0.0011247304860118857 -0.023378049187949199 0 -0.00099039264086775913 -0.023234267487120253 0 -0.0010385600696770207 -0.023265514673321532 0 -0.00098080137245826248 -0.023100006244306446 0 -0.0010863485644227796 -0.023234316753025858 0 -0.0010385600696770207 -0.023265514673321532 0 -0.00098080137245826248 -0.023100006244306446 0 -0.00099039264086775913 -0.023234267487120253 0 -0.0020487644893419396 -0.023139059244085651 0 -0.0015545617756305397 -0.022767550062358349 0 -0.0016301170021753525 -0.023134815152043832 0 -0.0015545617756305397 -0.022767550062358349 0 -0.0016301170021753525 -0.023134815152043832 0 -0.0012756676318380826 -0.022998933912434443 0 -0.0016301170021753525 -0.023134815152043832 0 -0.0012756676318380826 -0.022998933912434443 0 -0.0012702849608367262 -0.023288882133157902 0 -0.0011739328011046144 -0.024578809066868663 0 -0.00097326839821394175 -0.023407184832006721 0 -0.00026419527759357736 -0.024635715947713417 0 -0.00089224151672138107 -0.023565082557216534 0 -0.001227189783938234 -0.023549888836971528 0 -0.00097326839821394175 -0.023407184832006721 0 -0.0012756676318380826 -0.022998933912434443 0 -0.0012702849608367262 -0.023288882133157902 0 -0.0012702849608367262 -0.023288882133157902 0 -0.0011247304860118857 -0.023378049187949199 0 -0.0015007085147667166 -0.023376705051691173 0 -0.00097326839821394175 -0.023407184832006721 0 -0.0012702849608367262 -0.023288882133157902 0 -0.0011247304860118857 -0.023378049187949199 0 -0.0019282870110943389 -0.023491762581593779 0 -0.0015007085147667166 -0.023376705051691173 0 -0.0015536846647657061 -0.02355821806037876 0 -0.0019282870110943389 -0.023491762581593779 0 -0.0016301170021753525 -0.023134815152043832 0 -0.0015007085147667166 -0.023376705051691173 0 -0.0011247304860118857 -0.023378049187949199 0 -0.0015007085147667166 -0.023376705051691173 0 -0.0015536846647657061 -0.02355821806037876 0 -0.0016301170021753525 -0.023134815152043832 0 -0.0012702849608367262 -0.023288882133157902 0 -0.0015007085147667166 -0.023376705051691173 0 -0.0015536846647657061 -0.02355821806037876 0 -0.0012694977000944747 -0.023610050271501298 0 -0.0018198577822465536 -0.023847932319152967 0 -0.0019282870110943389 -0.023491762581593779 0 -0.0015536846647657061 -0.02355821806037876 0 -0.0018198577822465536 -0.023847932319152967 0 -0.0011247304860118857 -0.023378049187949199 0 -0.0015536846647657061 -0.02355821806037876 0 -0.0012694977000944747 -0.023610050271501298 0 -0.0011247304860118857 -0.023378049187949199 0 -0.0012694977000944747 -0.023610050271501298 0 -0.0010780506637980154 -0.023422175397125163 0 -0.0012694977000944747 -0.023610050271501298 0 -0.0012667562697966876 -0.023952119082687399 0 -0.0010422131594812593 -0.023575808035208045 0 -0.0012694977000944747 -0.023610050271501298 0 -0.0010780506637980154 -0.023422175397125163 0 -0.0010422131594812593 -0.023575808035208045 0 -0.0012667562697966876 -0.023952119082687399 0 -0.0010422131594812593 -0.023575808035208045 0 -0.0011518534237077536 -0.0241065239933634 0 -0.0012667562697966876 -0.023952119082687399 0 -0.0018198577822465536 -0.023847932319152967 0 -0.0015399501537422702 -0.024433205956771915 0 -0.0018198577822465536 -0.023847932319152967 0 -0.0015399501537422702 -0.024433205956771915 0 -0.0023885012071671961 -0.024440170647238871 0 -0.0012694977000944747 -0.023610050271501298 0 -0.0012667562697966876 -0.023952119082687399 0 -0.0018198577822465536 -0.023847932319152967 0 -0.00098080137245826248 -0.023100006244306446 0 -0.00089485826009237657 -0.022983604875673778 0 -0.00099039264086775913 -0.023234267487120253 0 -0.00089485826009237657 -0.022983604875673778 0 -0.00099039264086775913 -0.023234267487120253 0 -0.00095983423859634744 -0.023279333621974613 0 -0.0011247304860118857 -0.023378049187949199 0 -0.00099039264086775913 -0.023234267487120253 0 -0.0010780506637980154 -0.023422175397125163 0 -0.00099039264086775913 -0.023234267487120253 0 -0.0010780506637980154 -0.023422175397125163 0 -0.00095983423859634744 -0.023279333621974613 0 -0.0010780506637980154 -0.023422175397125163 0 -0.0010422131594812593 -0.023575808035208045 0 -0.00095983423859634744 -0.023279333621974613 0 -0.0010422131594812593 -0.023575808035208045 0 -0.00091740981329217416 -0.023217817061538963 0 -0.0010265574722877026 -0.023620845969779872 0 -0.0010422131594812593 -0.023575808035208045 0 -0.00095983423859634744 -0.023279333621974613 0 -0.00091740981329217416 -0.023217817061538963 0 -0.00089485826009237657 -0.022983604875673778 0 -0.00091740981329217416 -0.023217817061538963 0 -0.00083688106459055799 -0.022801275856733708 0 -0.00089485826009237657 -0.022983604875673778 0 -0.00095983423859634744 -0.023279333621974613 0 -0.00091740981329217416 -0.023217817061538963 0 -0.00091740981329217416 -0.023217817061538963 0 -0.00091760507478158473 -0.023087018063262653 0 -0.00083688106459055799 -0.022801275856733708 0 -0.00091760507478158473 -0.023087018063262653 0 -0.0010265574722877026 -0.023620845969779872 0 -0.0010830348917307147 -0.023548571029811931 0 -0.00091740981329217416 -0.023217817061538963 0 -0.00091760507478158473 -0.023087018063262653 0 -0.0010265574722877026 -0.023620845969779872 0 -0.0010422131594812593 -0.023575808035208045 0 -0.0010265574722877026 -0.023620845969779872 0 -0.0011518534237077536 -0.0241065239933634 0 -0.0010265574722877026 -0.023620845969779872 0 -0.0010830348917307147 -0.023548571029811931 0 -0.0012106724970536028 -0.024153408832812594 0 -0.0010830348917307147 -0.023548571029811931 0 -0.00098121261340386999 -0.02294075444845127 0 -0.0012317079265540276 -0.023607825258720787 0 -0.0010830348917307147 -0.023548571029811931 0 -0.0012106724970536028 -0.024153408832812594 0 -0.0012317079265540276 -0.023607825258720787 0 -0.00091760507478158473 -0.023087018063262653 0 -0.0010830348917307147 -0.023548571029811931 0 -0.00098121261340386999 -0.02294075444845127 0 -0.00091760507478158473 -0.023087018063262653 0 -0.00074801404505051223 -0.022375380830256038 0 -0.00098121261340386999 -0.02294075444845127 0 -0.0015399501537422702 -0.024433205956771915 0 -0.001840083883233766 -0.026432106470639188 0 -0.0023885012071671961 -0.024440170647238871 0 -0.0015399501537422702 -0.024433205956771915 0 -0.0013553918203157123 -0.02498867500471617 0 -0.001840083883233766 -0.026432106470639188 0 -0.0015399501537422702 -0.024433205956771915 0 -0.0011518534237077536 -0.0241065239933634 0 -0.0013553918203157123 -0.02498867500471617 0 -0.0012667562697966876 -0.023952119082687399 0 -0.0015399501537422702 -0.024433205956771915 0 -0.0011518534237077536 -0.0241065239933634 0 -0.0010265574722877026 -0.023620845969779872 0 -0.0011518534237077536 -0.0241065239933634 0 -0.0012106724970536028 -0.024153408832812594 0 -0.0011518534237077536 -0.0241065239933634 0 -0.0013553918203157123 -0.02498867500471617 0 -0.0012106724970536028 -0.024153408832812594 0 -0.0013553918203157123 -0.02498867500471617 0 -0.0012106724970536028 -0.024153408832812594 0 -0.0013640810315251187 -0.02426057311893666 0 -0.0012106724970536028 -0.024153408832812594 0 -0.0013640810315251187 -0.02426057311893666 0 -0.0012317079265540276 -0.023607825258720787 0 -0.0013553918203157123 -0.02498867500471617 0 -0.0013640810315251187 -0.02426057311893666 0 -0.0014832621532197983 -0.024669794780104747 0 -0.0013553918203157123 -0.02498867500471617 0 -0.0014832621532197983 -0.024669794780104747 0 -0.001840083883233766 -0.026432106470639188 0 -0.0014832621532197983 -0.024669794780104747 0 -0.001840083883233766 -0.026432106470639188 0 -0.00071698658346938324 -0.024846290673498018 0 3.7026392512357895e-06 -0.029509622229438159 0 0.00076354232598822521 -0.0315456766641488 0 0.0009541824750151736 -0.033950318390430806 0 0.00085762671702849507 -0.032085174578174114 0 0.00038997939914690215 -0.034070958243022038 0 -0.001840083883233766 -0.026432106470639188 0 -0.00071698658346938324 -0.024846290673498018 0 0.00085762671702849507 -0.032085174578174114 0 -0.0018173393042674297 -0.026911654750844009 0 -0.0011728828037625763 -0.028759460629681054 0 -0.001840083883233766 -0.026432106470639188 0 -0.00031328944962174306 -0.033120630390974432 0 0.00085762671702849507 -0.032085174578174114 0 -0.00031328944962174306 -0.033120630390974432 0 0.00085762671702849507 -0.032085174578174114 0 0.00061160231486707191 -0.033423411010077939 0 0.00085762671702849507 -0.032085174578174114 0 0.00025896124662037662 -0.033740876895658849 0 0.00061160231486707191 -0.033423411010077939 0 0.00025896124662037662 -0.033740876895658849 0 1.7300828244510367e-05 -0.034590307099210557 0 0.00038997939914690215 -0.034070958243022038 0 0.00085762671702849507 -0.032085174578174114 0 0.00025896124662037662 -0.033740876895658849 0 0.00038997939914690215 -0.034070958243022038 0 5.0528270604458517e-07 -0.034997377527481548 0 0.00025896124662037662 -0.033740876895658849 0 1.7300828244510367e-05 -0.034590307099210557 0 0.00025896124662037662 -0.033740876895658849 0 0.00029671604389312095 -0.034185887598462 0 0.00061160231486707191 -0.033423411010077939 0 5.0528270604458517e-07 -0.034997377527481548 0 0.00025896124662037662 -0.033740876895658849 0 0.00029671604389312095 -0.034185887598462 0 -8.6743188518373065e-05 -0.034722521948482278 0 3.8034064192015282e-06 -0.03491455319860657 0 -2.1575463162098974e-05 -0.034841149563467448 0 0.00029671604389312095 -0.034185887598462 0 0.00046306961362860207 -0.033973136293652527 0 0.00032524863121364601 -0.034058673117264272 0 0.00029671604389312095 -0.034185887598462 0 0.00046306961362860207 -0.033973136293652527 0 0.00061160231486707191 -0.033423411010077939 0 5.0528270604458517e-07 -0.034997377527481548 0 0.00029671604389312095 -0.034185887598462 0 3.8034064192015282e-06 -0.03491455319860657 0 0.00029671604389312095 -0.034185887598462 0 3.8034064192015282e-06 -0.03491455319860657 0 0.00032524863121364601 -0.034058673117264272 0 9.7949460608748253e-05 -0.034720930159433623 0 -6.9645231357018397e-05 -0.034744610767497172 0 0.00041043043941639318 -0.033993303401098574 0 0.00046306961362860207 -0.033973136293652527 0 0.00032524863121364601 -0.034058673117264272 0 -0.00031095603468350957 -0.031043283350039714 0 -6.9645231357018397e-05 -0.034744610767497172 0 -0.002551736278550743 -0.023556971805858428 0 -0.0019282870110943389 -0.023491762581593779 0 -0.0023676967753906925 -0.023894422799660583 0 0.00041043043941639318 -0.033993303401098574 0 0.00046306961362860207 -0.033973136293652527 0 0.00034951202101879202 -0.033979856239353526 0 -0.00031095603468350957 -0.031043283350039714 0 -0.0012644635915364673 -0.028548656241570557 0 -0.0019282870110943389 -0.023491762581593779 0 -0.0018198577822465536 -0.023847932319152967 0 -0.0023676967753906925 -0.023894422799660583 0 -0.0011728828037625763 -0.028759460629681054 0 -0.0012644635915364673 -0.028548656241570557 0 -0.0018198577822465536 -0.023847932319152967 0 -0.0023885012071671961 -0.024440170647238871 0 -0.0023676967753906925 -0.023894422799660583 0 -0.00031328944962174306 -0.033120630390974432 0 0.00034951202101879202 -0.033979856239353526 0 0.00061160231486707191 -0.033423411010077939 0 0.00046306961362860207 -0.033973136293652527 0 0.00034951202101879202 -0.033979856239353526 0 0.00061160231486707191 -0.033423411010077939 0 0.00057394311147503162 -0.021688070233435712 0 -0.00036646767747457203 -0.021361499219609982 0 -0.00032423888655526575 -0.022002823119951474 0 -0.00036646767747457203 -0.021361499219609982 0 7.3611092255127451e-06 -0.02054538248192719 0 -0.00031737742918864354 -0.020495046923096612 0 0.00057394311147503162 -0.021688070233435712 0 7.3611092255127451e-06 -0.02054538248192719 0 0.00094473611983164477 -0.020761096044023087 0 0.00057394311147503162 -0.021688070233435712 0 -0.00036646767747457203 -0.021361499219609982 0 7.3611092255127451e-06 -0.02054538248192719 0 7.3611092255127451e-06 -0.02054538248192719 0 0.00017549826673349955 -0.019142679909940365 0 0.00094473611983164477 -0.020761096044023087 0 7.3611092255127451e-06 -0.02054538248192719 0 0.00017549826673349955 -0.019142679909940365 0 -0.00031737742918864354 -0.020495046923096612 0 0.00017549826673