<?xml version="1.0"?>
<VTKFile type="UnstructuredGrid" version="0.1" byte_order="LittleEndian">
<UnstructuredGrid>
<Piece NumberOfPoints="30890" NumberOfCells="10788">
<Points>
<DataArray type="Float64" NumberOfComponents="3" format="ascii">
-0.5 -0.5 0 -0.4534101453725693 -0.47967677867322323 0 -0.41515072818903881 -0.49609119914418598 0 -0.5 -0.5 0 -0.47942257299033608 -0.47104120105954839 0 -0.49999999999999972 -0.45484594530914307 0 -0.5 -0.5 0 -0.40065594060627813 -0.5 0 -0.41515072818903881 -0.49609119914418598 0 -0.5 -0.5 0 -0.47942257299033608 -0.47104120105954839 0 -0.4534101453725693 -0.47967677867322323 0 -0.47942257299033608 -0.47104120105954839 0 -0.4534101453725693 -0.47967677867322323 0 -0.46231789334964429 -0.46429534392115762 0 -0.4534101453725693 -0.47967677867322323 0 -0.4394267817550308 -0.46983919624086579 0 -0.46231789334964429 -0.46429534392115762 0 -0.4534101453725693 -0.47967677867322323 0 -0.4394267817550308 -0.46983919624086579 0 -0.427288754972035 -0.4829651976925261 0 -0.4534101453725693 -0.47967677867322323 0 -0.4394267817550308 -0.46983919624086579 0 -0.43893881706024579 -0.44294091527266372 0 -0.45793857953458028 -0.44982063071359391 0 -0.45803846376390978 -0.43234866672468047 0 -0.4394267817550308 -0.46983919624086579 0 -0.45793857953458028 -0.44982063071359391 0 -0.4394267817550308 -0.46983919624086579 0 -0.43893881706024579 -0.44294091527266372 0 -0.45793857953458028 -0.44982063071359391 0 -0.4394267817550308 -0.46983919624086579 0 -0.46231789334964429 -0.46429534392115762 0 -0.45793857953458028 -0.44982063071359391 0 -0.46231789334964429 -0.46429534392115762 0 -0.45793857953458028 -0.44982063071359391 0 -0.47304607662549669 -0.44680543903429609 0 -0.45793857953458028 -0.44982063071359391 0 -0.47645037731412959 -0.42980206518632158 0 -0.47304607662549669 -0.44680543903429609 0 -0.48822518865706482 -0.44232400524773219 0 -0.47645037731412959 -0.42980206518632158 0 -0.45793857953458028 -0.44982063071359391 0 -0.47304607662549669 -0.44680543903429609 0 -0.47645037731412959 -0.42980206518632158 0 -0.47304607662549669 -0.44680543903429609 0 -0.48251771109945979 -0.45509874884696511 0 -0.48822518865706482 -0.44232400524773219 0 -0.46231789334964429 -0.46429534392115762 0 -0.47304607662549669 -0.44680543903429609 0 -0.48251771109945979 -0.45509874884696511 0 -0.47942257299033608 -0.47104120105954839 0 -0.46231789334964429 -0.46429534392115762 0 -0.48251771109945979 -0.45509874884696511 0 -0.47942257299033608 -0.47104120105954839 0 -0.48251771109945979 -0.45509874884696511 0 -0.49999999999999972 -0.45484594530914307 0 -0.49999999999999972 -0.45484594530914307 0 -0.48822518865706482 -0.44232400524773219 0 -0.5 -0.42841714439079709 0 -0.48251771109945979 -0.45509874884696511 0 -0.49999999999999972 -0.45484594530914307 0 -0.48822518865706482 -0.44232400524773219 0 -0.49999999999999972 -0.45484594530914307 0 -0.48822518865706482 -0.44232400524773219 0 -0.48822518865706482 -0.44232400524773219 0 -0.48894783211533049 -0.43043121942531098 0 -0.5 -0.42841714439079709 0 -0.48822518865706482 -0.44232400524773219 0 -0.48894783211533049 -0.43043121942531098 0 -0.47645037731412959 -0.42980206518632158 0 -0.48912395650182722 -0.42418883195365592 0 -0.48287075687156561 -0.41978031582437991 0 -0.48390651897944947 -0.4270347451113049 0 -0.48894783211533049 -0.43043121942531098 0 -0.48912395650182722 -0.42418883195365592 0 -0.48390651897944947 -0.4270347451113049 0 -0.48894783211533049 -0.43043121942531098 0 -0.48912395650182722 -0.42418883195365592 0 -0.5 -0.42841714439079709 0 -0.48912395650182722 -0.42418883195365592 0 -0.5 -0.42841714439079709 0 -0.4898946745427904 -0.41528073501648649 0 -0.5 -0.42841714439079709 0 -0.4898946745427904 -0.41528073501648649 0 -0.5 -0.40198834347245122 0 -0.4898946745427904 -0.41528073501648649 0 -0.5 -0.40198834347245122 0 -0.47620299808399169 -0.40228923046207338 0 -0.48912395650182722 -0.42418883195365592 0 -0.4898946745427904 -0.41528073501648649 0 -0.48287075687156561 -0.41978031582437991 0 -0.47634275776510698 -0.42680233103840892 0 -0.47620299808399169 -0.40228923046207338 0 -0.46507163553287201 -0.41770132587004449 0 -0.47634275776510698 -0.42680233103840892 0 -0.47620299808399169 -0.40228923046207338 0 -0.4898946745427904 -0.41528073501648649 0 -0.48287075687156561 -0.41978031582437991 0 -0.47620299808399169 -0.40228923046207338 0 -0.48287075687156561 -0.41978031582437991 0 -0.47634275776510698 -0.42680233103840892 0 -0.47620299808399169 -0.40228923046207338 0 -0.47634275776510698 -0.42680233103840892 0 -0.47645037731412959 -0.42980206518632158 0 -0.46507163553287201 -0.41770132587004449 0 -0.47645037731412959 -0.42980206518632158 0 -0.46507163553287201 -0.41770132587004449 0 -0.48822518865706482 -0.44232400524773219 0 -0.47645037731412959 -0.42980206518632158 0 -0.48390651897944947 -0.4270347451113049 0 -0.48026476333471407 -0.42545241167639469 0 -0.47793901972273473 -0.42819225473148498 0 -0.48894783211533049 -0.43043121942531098 0 -0.47645037731412959 -0.42980206518632158 0 -0.48390651897944947 -0.4270347451113049 0 -0.48287075687156561 -0.41978031582437991 0 -0.48390651897944947 -0.4270347451113049 0 -0.48026476333471407 -0.42545241167639469 0 -0.48287075687156561 -0.41978031582437991 0 -0.47634275776510698 -0.42680233103840892 0 -0.48026476333471407 -0.42545241167639469 0 -0.47645037731412959 -0.42980206518632158 0 -0.48390651897944947 -0.4270347451113049 0 -0.47793901972273473 -0.42819225473148498 0 -0.47634275776510698 -0.42680233103840892 0 -0.48026476333471407 -0.42545241167639469 0 -0.47793901972273473 -0.42819225473148498 0 -0.47634275776510698 -0.42680233103840892 0 -0.47645037731412959 -0.42980206518632158 0 -0.47793901972273473 -0.42819225473148498 0 -0.47645037731412959 -0.42980206518632158 0 -0.47793901972273473 -0.42819225473148498 0 -0.48806655912171698 -0.38940331159359193 0 -0.5 -0.37555954255410517 0 -0.5 -0.40198834347245122 0 -0.48806655912171698 -0.38940331159359193 0 -0.5 -0.37555954255410517 0 -0.47606323840287618 -0.37777612988573778 0 -0.48806655912171698 -0.38940331159359193 0 -0.5 -0.40198834347245122 0 -0.47620299808399169 -0.40228923046207338 0 -0.47620299808399169 -0.40228923046207338 0 -0.47606323840287618 -0.37777612988573778 0 -0.4626693618143809 -0.39238071900487342 0 -0.48806655912171698 -0.38940331159359193 0 -0.47620299808399169 -0.40228923046207338 0 -0.47606323840287618 -0.37777612988573778 0 -0.47620299808399169 -0.40228923046207338 0 -0.47606323840287618 -0.37777612988573778 0 -0.4626693618143809 -0.39238071900487342 0 -0.44616602825503998 -0.39393495663749678 0 -0.45309614157734079 -0.37950385027520978 0 -0.47606323840287618 -0.37777612988573778 0 -0.4626693618143809 -0.39238071900487342 0 -0.45309614157734079 -0.37950385027520978 0 -0.4626693618143809 -0.39238071900487342 0 -0.4536928937516137 -0.40560058655376802 0 -0.44616602825503998 -0.39393495663749678 0 -0.47620299808399169 -0.40228923046207338 0 -0.4626693618143809 -0.39238071900487342 0 -0.4536928937516137 -0.40560058655376802 0 -0.4536928937516137 -0.40560058655376802 0 -0.44616602825503998 -0.39393495663749678 0 -0.43861015859495039 -0.41118252673888361 0 -0.44616602825503998 -0.39393495663749678 0 -0.43861015859495039 -0.41118252673888361 0 -0.43170047212621332 -0.39341833100653628 0 -0.44616602825503998 -0.39393495663749678 0 -0.43766974259788682 -0.38149256198204151 0 -0.45309614157734079 -0.37950385027520978 0 -0.44616602825503998 -0.39393495663749678 0 -0.43766974259788682 -0.38149256198204151 0 -0.43170047212621332 -0.39341833100653628 0 -0.45793857953458028 -0.44982063071359391 0 -0.47645037731412959 -0.42980206518632158 0 -0.45803846376390978 -0.43234866672468047 0 -0.47645037731412959 -0.42980206518632158 0 -0.45803846376390978 -0.43234866672468047 0 -0.46507163553287201 -0.41770132587004449 0 -0.45803846376390978 -0.43234866672468047 0 -0.46507163553287201 -0.41770132587004449 0 -0.45269353257574202 -0.41796591965123431 0 -0.47620299808399169 -0.40228923046207338 0 -0.4536928937516137 -0.40560058655376802 0 -0.46507163553287201 -0.41770132587004449 0 -0.4536928937516137 -0.40560058655376802 0 -0.46507163553287201 -0.41770132587004449 0 -0.4536928937516137 -0.40560058655376802 0 -0.46507163553287201 -0.41770132587004449 0 -0.45269353257574202 -0.41796591965123431 0 -0.45269353257574202 -0.41796591965123431 0 -0.43861015859495039 -0.41118252673888361 0 -0.44410444512570629 -0.42707059933241159 0 -0.4536928937516137 -0.40560058655376802 0 -0.45269353257574202 -0.41796591965123431 0 -0.43861015859495039 -0.41118252673888361 0 -0.43893881706024579 -0.44294091527266372 0 -0.44410444512570629 -0.42707059933241159 0 -0.43163875528248502 -0.42805608896678538 0 -0.43893881706024579 -0.44294091527266372 0 -0.45803846376390978 -0.43234866672468047 0 -0.44410444512570629 -0.42707059933241159 0 -0.43861015859495039 -0.41118252673888361 0 -0.44410444512570629 -0.42707059933241159 0 -0.43163875528248502 -0.42805608896678538 0 -0.45803846376390978 -0.43234866672468047 0 -0.45269353257574202 -0.41796591965123431 0 -0.44410444512570629 -0.42707059933241159 0 -0.43163875528248502 -0.42805608896678538 0 -0.42333669654958378 -0.41713185753449522 0 -0.41982351631528891 -0.43536083395331182 0 -0.43893881706024579 -0.44294091527266372 0 -0.43163875528248502 -0.42805608896678538 0 -0.41982351631528891 -0.43536083395331182 0 -0.43861015859495039 -0.41118252673888361 0 -0.43163875528248502 -0.42805608896678538 0 -0.42333669654958378 -0.41713185753449522 0 -0.43861015859495039 -0.41118252673888361 0 -0.42333669654958378 -0.41713185753449522 0 -0.42599970140639598 -0.40550896613534049 0 -0.42333669654958378 -0.41713185753449522 0 -0.4105189759936072 -0.41774094497167358 0 -0.41374759550686752 -0.40436386972615113 0 -0.42333669654958378 -0.41713185753449522 0 -0.42599970140639598 -0.40550896613534049 0 -0.41374759550686752 -0.40436386972615113 0 -0.4105189759936072 -0.41774094497167358 0 -0.41374759550686752 -0.40436386972615113 0 -0.40015224873140709 -0.41237124113365442 
[...]
<PointData Scalars="" Vectors="displacement," Tensors="">
<DataArray type="Float64" Name="displacement" NumberOfComponents="3" format="ascii">
-0.034995279269992879 -0.035000353299044003 0 -0.035060944198095571 -0.032437506736317907 0 -0.035103714611590314 -0.029101081097741534 0 -0.034995279269992879 -0.035000353299044003 0 -0.033926851543313638 -0.034009548128510959 0 -0.031848995358279418 -0.034996502845232855 0 -0.034995279269992879 -0.035000353299044003 0 -0.034999016928699139 -0.028046935711347275 0 -0.035103714611590314 -0.029101081097741534 0 -0.034995279269992879 -0.035000353299044003 0 -0.033926851543313638 -0.034009548128510959 0 -0.035060944198095571 -0.032437506736317907 0 -0.033926851543313638 -0.034009548128510959 0 -0.035060944198095571 -0.032437506736317907 0 -0.034225993202067012 -0.033160283290837901 0 -0.035060944198095571 -0.032437506736317907 0 -0.03453156868106301 -0.033142198378824705 0 -0.034225993202067012 -0.033160283290837901 0 -0.035060944198095571 -0.032437506736317907 0 -0.036171882661639496 -0.031261728329464354 0 -0.035473363503530871 -0.030227624222084293 0 -0.035288097432331474 -0.032149743109371048 0 -0.033464744793023887 -0.031987450942834436 0 -0.027464232568046518 -0.034487000530888684 0 -0.027422217709453248 -0.034655674772966681 0 -0.027512781577226569 -0.034661185452108653 0 -0.033464744793023887 -0.031987450942834436 0 -0.030460601919460369 -0.034105352307875293 0 -0.02720567826832021 -0.034443680484909311 0 -0.027464232568046518 -0.034487000530888684 0 -0.027422217709453248 -0.034655674772966681 0 -0.03453156868106301 -0.033142198378824705 0 -0.034225993202067012 -0.033160283290837901 0 -0.033971471761134707 -0.03329287399768488 0 -0.034225993202067012 -0.033160283290837901 0 -0.033971471761134707 -0.03329287399768488 0 -0.033834668182125792 -0.033648202511098013 0 -0.030460601919460369 -0.034105352307875293 0 -0.029983710934427067 -0.034682885103789654 0 -0.033834668182125792 -0.033648202511098013 0 -0.033807316763049225 -0.034277723271410203 0 -0.034199515566616864 -0.033783671507041889 0 -0.033971471761134707 -0.03329287399768488 0 -0.033834668182125792 -0.033648202511098013 0 -0.034199515566616864 -0.033783671507041889 0 -0.033834668182125792 -0.033648202511098013 0 -0.033337283518692869 -0.034064019557665103 0 -0.033807316763049225 -0.034277723271410203 0 -0.034225993202067012 -0.033160283290837901 0 -0.033834668182125792 -0.033648202511098013 0 -0.033337283518692869 -0.034064019557665103 0 -0.033926851543313638 -0.034009548128510959 0 -0.034225993202067012 -0.033160283290837901 0 -0.033337283518692869 -0.034064019557665103 0 -0.033926851543313638 -0.034009548128510959 0 -0.033337283518692869 -0.034064019557665103 0 -0.031848995358279418 -0.034996502845232855 0 -0.031838991025509356 -0.034999997427781745 0 -0.030743677870954556 -0.035603930412335019 0 -0.029988557084695638 -0.034999608154278918 0 -0.033337283518692869 -0.034064019557665103 0 -0.031848995358279418 -0.034996502845232855 0 -0.033807316763049225 -0.034277723271410203 0 -0.031839437882982269 -0.03499999717437053 0 -0.032397990591380633 -0.034669341734557511 0 -0.030743677870954556 -0.035603930412335019 0 -0.029906280077868792 -0.035470815837759746 0 -0.029988557084695638 -0.034999608154278918 0 -0.030743677870954556 -0.035603930412335019 0 -0.029906280077868792 -0.035470815837759746 0 -0.029555192406241517 -0.035743403514615808 0 -0.029526467567873093 -0.035464860188481342 0 -0.029174733597056048 -0.035670689288692957 0 -0.029554067214641665 -0.035564888453859522 0 -0.029906280077868792 -0.035470815837759746 0 -0.029526467567873093 -0.035464860188481342 0 -0.029554067214641665 -0.035564888453859522 0 -0.029906280077868792 -0.035470815837759746 0 -0.029526467567873093 -0.035464860188481342 0 -0.029988557084695638 -0.034999608154278918 0 -0.029526467567873093 -0.035464860188481342 0 -0.029988557084695638 -0.034999608154278918 0 -0.02901472966427137 -0.03548725574722774 0 -0.029988557084695638 -0.034999608154278918 0 -0.02901472966427137 -0.03548725574722774 0 -0.028139408113969037 -0.034999810570804653 0 -0.02901472966427137 -0.03548725574722774 0 -0.028139408113969037 -0.034999810570804653 0 -0.028281281060954431 -0.036317093343938595 0 -0.029526467567873093 -0.035464860188481342 0 -0.02901472966427137 -0.03548725574722774 0 -0.029174733597056048 -0.035670689288692957 0 -0.029336163533979408 -0.035493190817446396 0 -0.027565157529656905 -0.034242447302758112 0 -0.028466468797729003 -0.035052633627735703 0 -0.029122955356389785 -0.035446348637470322 0 -0.027875641108889258 -0.035299088342954803 0 -0.02901472966427137 -0.03548725574722774 0 -0.029174733597056048 -0.035670689288692957 0 -0.028281281060954431 -0.036317093343938595 0 -0.029174733597056048 -0.035670689288692957 0 -0.029336163533979408 -0.035493190817446396 0 -0.028281281060954431 -0.036317093343938595 0 -0.029336163533979408 -0.035493190817446396 0 -0.029471824056359442 -0.035578551683511768 0 -0.028466468797729003 -0.035052633627735703 0 -0.029983710934427067 -0.034682885103789654 0 -0.027907487657479725 -0.035015598741949601 0 -0.032397990591380633 -0.034669341734557511 0 -0.029983710934427067 -0.034682885103789654 0 -0.029554067214641665 -0.035564888453859522 0 -0.029367644092871733 -0.035602992774314716 0 -0.029461665166905827 -0.035655214386569885 0 -0.029906280077868792 -0.035470815837759746 0 -0.029555192406241517 -0.035743403514615808 0 -0.029554067214641665 -0.035564888453859522 0 -0.029174733597056048 -0.035670689288692957 0 -0.029554067214641665 -0.035564888453859522 0 -0.029367644092871733 -0.035602992774314716 0 -0.029174733597056048 -0.035670689288692957 0 -0.029336163533979408 -0.035493190817446396 0 -0.029367644092871733 -0.035602992774314716 0 -0.029555192406241517 -0.035743403514615808 0 -0.029554067214641665 -0.035564888453859522 0 -0.029461665166905827 -0.035655214386569885 0 -0.029336163533979408 -0.035493190817446396 0 -0.029367644092871733 -0.035602992774314716 0 -0.029461665166905827 -0.035655214386569885 0 -0.029336163533979408 -0.035493190817446396 0 -0.029471824056359442 -0.035578551683511768 0 -0.029461665166905827 -0.035655214386569885 0 -0.029983710934427067 -0.034682885103789654 0 -0.029991245995010362 -0.034756979394673267 0 -0.027293970916466976 -0.03567299929968841 0 -0.026289146232092372 -0.034999802427313771 0 -0.028139408113969037 -0.034999810570804653 0 -0.027293970916466976 -0.03567299929968841 0 -0.026289146232092372 -0.034999802427313771 0 -0.026443373731885558 -0.036415650280010696 0 -0.027293970916466976 -0.03567299929968841 0 -0.028139408113969037 -0.034999810570804653 0 -0.028281281060954431 -0.036317093343938595 0 -0.027565157529656905 -0.034242447302758112 0 -0.026338462157545747 -0.034010073452793728 0 -0.02704857343301633 -0.034545180972988296 0 -0.027293970916466976 -0.03567299929968841 0 -0.028281281060954431 -0.036317093343938595 0 -0.026443373731885558 -0.036415650280010696 0 -0.027875641108889258 -0.035299088342954803 0 -0.026397713063582452 -0.035216149280867054 0 -0.02704857343301633 -0.034545180972988296 0 -0.027084221049540457 -0.034795078358255078 0 -0.026438172938183468 -0.03478542510272592 0 -0.026338462157545747 -0.034010073452793728 0 -0.02704857343301633 -0.034545180972988296 0 -0.026438172938183468 -0.03478542510272592 0 -0.02704857343301633 -0.034545180972988296 0 -0.027503437905721663 -0.034819687670115389 0 -0.027084221049540457 -0.034795078358255078 0 -0.027565157529656905 -0.034242447302758112 0 -0.02704857343301633 -0.034545180972988296 0 -0.027503437905721663 -0.034819687670115389 0 -0.027503437905721663 -0.034819687670115389 0 -0.027084221049540457 -0.034795078358255078 0 -0.027487880838714365 -0.03459521006992524 0 -0.027084221049540457 -0.034795078358255078 0 -0.027487880838714365 -0.03459521006992524 0 -0.027039388260250756 -0.034719641036547025 0 -0.027084221049540457 -0.034795078358255078 0 -0.026556536491141355 -0.034900788815865919 0 -0.026438172938183468 -0.03478542510272592 0 -0.027084221049540457 -0.034795078358255078 0 -0.026556536491141355 -0.034900788815865919 0 -0.027039388260250756 -0.034719641036547025 0 -0.027422217709453248 -0.034655674772966681 0 -0.02753380250265533 -0.034728316931615058 0 -0.027512781577226569 -0.034661185452108653 0 -0.02753380250265533 -0.034728316931615058 0 -0.027512781577226569 -0.034661185452108653 0 -0.027533439265752167 -0.034690145155017914 0 -0.027512781577226569 -0.034661185452108653 0 -0.027533439265752167 -0.034690145155017914 0 -0.027518768536531169 -0.034691089270833787 0 -0.027565157529656905 -0.034242447302758112 0 -0.027503437905721663 -0.034819687670115389 0 -0.028466468797729003 -0.035052633627735703 0 -0.027728025141550722 -0.034792764810632884 0 -0.027907487657479725 -0.035015598741949601 0 -0.027503437905721663 -0.034819687670115389 0 -0.027533439265752167 -0.034690145155017914 0 -0.027518768536531169 -0.034691089270833787 0 -0.027518768536531169 -0.034691089270833787 0 -0.027487880838714365 -0.03459521006992524 0 -0.027532336441284774 -0.034571965038139668 0 -0.027503437905721663 -0.034819687670115389 0 -0.027518768536531169 -0.034691089270833787 0 -0.027487880838714365 -0.03459521006992524 0 -0.027464232568046518 -0.034487000530888684 0 -0.027532336441284774 -0.034571965038139668 0 -0.027576916722351085 -0.034418214968226592 0 -0.027464232568046518 -0.034487000530888684 0 -0.027512781577226569 -0.034661185452108653 0 -0.027532336441284774 -0.034571965038139668 0 -0.027487880838714365 -0.03459521006992524 0 -0.027532336441284774 -0.034571965038139668 0 -0.027576916722351085 -0.034418214968226592 0 -0.027512781577226569 -0.034661185452108653 0 -0.027518768536531169 -0.034691089270833787 0 -0.027532336441284774 -0.034571965038139668 0 -0.027576916722351085 -0.034418214968226592 0 -0.027616647823037681 -0.034348203734557915 0 -0.027629691656917092 -0.034207272364945814 0 -0.027464232568046518 -0.034487000530888684 0 -0.027576916722351085 -0.034418214968226592 0 -0.027629691656917092 -0.034207272364945814 0 -0.027487880838714365 -0.03459521006992524 0 -0.027576916722351085 -0.034418214968226592 0 -0.027616647823037681 -0.034348203734557915 0 -0.027487880838714365 -0.03459521006992524 0 -0.027616647823037681 -0.034348203734557915 0 -0.0273849773302072 -0.034514084806396804 0 -0.027616647823037681 -0.034348203734557915 0 -0.027792926972348683 -0.034034940238512508 0 -0.027441450729153726 -0.034323176198448963 0 -0.027616647823037681 -0.034348203734557915 0 -0.0273849773302072 -0.034514084806396804 0 -0.027441450729153726 -0.034323176198448963 0 -0.027792926972348683 -0.034034940238512508 0 -0.027441450729153726 -0.034323176198448963 0 -0.027810915074252408 -0.033892165776941555 0 -0.027792926972348683 -0.034034940238512508 0 -0.027629691656917092 -0.034207272364945814 0 -0.028061061001648836 -0.033695320447702938 0 -0.027629691656917092 -0.034207272364945814 0 -0.028061061001648836 -0.033695320447702938 0 -0.027427240142378975 -0.033742256010198604 0 -0.027616647823037681 -0.034348203734557915 0 -0.027792926972348683 -0.034034940238512508 0 -0.027629691656917092 -0.034207272364945814 0 -0.026556536491141355 -0.034900788815865919 0 -0.026449057617519617 -0.034926182721073097 0 -0.027039388260250756 -0.034719641036547025 0 -0.026449057617519617 -0.034926182721073097 0 -0.027039388260250756 -0.034719641036547025 0 -0.027050318832736127 -0.03461230097964231 0 -0.027487880838714365 -0.03459521006992524 0 -0.027039388260250756 -0.034719641036547025 0 -0.0273849773302072 -0.034514084806396804 0 -0.027039388260250756 -0.034719641036547025 0 -0.0273849773302072 -0.034514084806396804 0 -0.027050318832736127 -0.03461230097964231 0 -0.0273849773302072 -0.034514084806396804 0 -0.027441450729153726 -0.034323176198448963 0 -0.027050318832736127 -0.03461230097964231 0 -0.027441450729153726 -0.034323176198448963 0 -0.026922393677136478 -0.034576105328516279 0 -0.027349120275632657 -0.03421558016814312 0 -0.027441450729153726 -0.034323176198448963 0 -0.027050318832736127 -0.03461230097964231 0 -0.026922393677136478 -0.034576105328516279 0 -0.026449057617519617 -0.034926182721073097 0 -0.026922393677136478 -0.034576105328516279 0 -0.026317218147361529 -0.034910338070035303 0 -0.026449057617519617 -0.034926182721073097 0 -0.027050318832736127 -0.03461230097964231 0 -0.026922393677136478 -0.034576105328516279 0 -0.026922393677136478 -0.034576105328516279 0 -0.026780897802805223 -0.034540836182260073 0 -0.026317218147361529 -0.034910338070035303 0 -0.026780897802805223 -0.034540836182260073 0 -0.027349120275632657 -0.03421558016814312 0 -0.02729509413629929 -0.034157387709755432 0 -0.026922393677136478 -0.034576105328516279 0 -0.026780897802805223 -0.034540836182260073 0 -0.027349120275632657 -0.03421558016814312 0 -0.027441450729153726 -0.034323176198448963 0 -0.027349120275632657 -0.03421558016814312 0 -0.027810915074252408 -0.033892165776941555 0 -0.027349120275632657 -0.03421558016814312 0 -0.02729509413629929 -0.034157387709755432 0 -0.027759139309524554 -0.033835444799745422 0 -0.02729509413629929 -0.034157387709755432 0 -0.026813605237233317 -0.034334175646164262 0 -0.027613007068428647 -0.034045417110315897 0 -0.02729509413629929 -0.034157387709755432 0 -0.027759139309524554 -0.033835444799745422 0 -0.027613007068428647 -0.034045417110315897 0 -0.026780897802805223 -0.034540836182260073 0 -0.02729509413629929 -0.034157387709755432 0 -0.026813605237233317 -0.034334175646164262 0 -0.026780897802805223 -0.034540836182260073 0 -0.026005180855971519 -0.035002367901997851 0 -0.026813605237233317 -0.034334175646164262 0 -0.028061061001648836 -0.033695320447702938 0 -0.028762579828764696 -0.032524810264633768 0 -0.027427240142378975 -0.033742256010198604 0 -0.028061061001648836 -0.033695320447702938 0 -0.028200960270902055 -0.033348382851512245 0 -0.028762579828764696 -0.032524810264633768 0 -0.028061061001648836 -0.033695320447702938 0 -0.027810915074252408 -0.033892165776941555 0 -0.028200960270902055 -0.033348382851512245 0 -0.027792926972348683 -0.034034940238512508 0 -0.028061061001648836 -0.033695320447702938 0 -0.027810915074252408 -0.033892165776941555 0 -0.027349120275632657 -0.03421558016814312 0 -0.027810915074252408 -0.033892165776941555 0 -0.027759139309524554 -0.033835444799745422 0 -0.027810915074252408 -0.033892165776941555 0 -0.028200960270902055 -0.033348382851512245 0 -0.027759139309524554 -0.033835444799745422 0 -0.028200960270902055 -0.033348382851512245 0 -0.027759139309524554 -0.033835444799745422 0 -0.028097465481227119 -0.033820823575470213 0 -0.027759139309524554 -0.033835444799745422 0 -0.028097465481227119 -0.033820823575470213 0 -0.027613007068428647 -0.034045417110315897 0 -0.028200960270902055 -0.033348382851512245 0 -0.028097465481227119 -0.033820823575470213 0 -0.028603180089431635 -0.033793275799858476 0 -0.028200960270902055 -0.033348382851512245 0 -0.028603180089431635 -0.033793275799858476 0 -0.028762579828764696 -0.032524810264633768 0 -0.028603180089431635 -0.033793275799858476 0 -0.028762579828764696 -0.032524810264633768 0 -0.02998517154029828 -0.034327564584252901 0 -0.033406365986908965 -0.030525913287044074 0 -0.035154621575975056 -0.028973873331242326 0 -0.036684444585591468 -0.027008709275507924 0 -0.035340833862480284 -0.028911900469741819 0 -0.035878692191037863 -0.026928652714623819 0 -0.028762579828764696 -0.032524810264633768 0 -0.02998517154029828 -0.034327564584252901 0 -0.035340833862480284 -0.028911900469741819 0 -0.028925181920797238 -0.032453756199871731 0 -0.030504443230010406 -0.030845480507229201 0 -0.028762579828764696 -0.032524810264633768 0 -0.033728392437085683 -0.027532676041665517 0 -0.035340833862480284 -0.028911900469741819 0 -0.033728392437085683 -0.027532676041665517 0 -0.035340833862480284 -0.028911900469741819 0 -0.035422372997334424 -0.028156405852296923 0 -0.035340833862480284 -0.028911900469741819 0 -0.035531041981440331 -0.027894632208392497 0 -0.035422372997334424 -0.028156405852296923 0 -0.035531041981440331 -0.027894632208392497 0 -0.035543187493255413 -0.02602343153776648 0 -0.035878692191037863 -0.026928652714623819 0 -0.035340833862480284 -0.028911900469741819 0 -0.035531041981440331 -0.027894632208392497 0 -0.035878692191037863 -0.026928652714623819 0 -0.034999016928699139 -0.028046935711347275 0 -0.035531041981440331 -0.027894632208392497 0 -0.035543187493255413 -0.02602343153776648 0 -0.035531041981440331 -0.027894632208392497 0 -0.035421721327580577 -0.028351086801566658 0 -0.035422372997334424 -0.028156405852296923 0 -0.034999016928699139 -0.028046935711347275 0 -0.035531041981440331 -0.027894632208392497 0 -0.035421721327580577 -0.028351086801566658 0 -0.035060944198095571 -0.032437506736317907 0 -0.035103714611590314 -0.029101081097741534 0 -0.035473363503530871 -0.030227624222084293 0 -0.035421721327580577 -0.028351086801566658 0 -0.03536560146043026 -0.028239237610121998 0 -0.035305477974007592 -0.028454130012528653 0 -0.035421721327580577 -0.028351086801566658 0 -0.03536560146043026 -0.028239237610121998 0 -0.035422372997334424 -0.028156405852296923 0 -0.034999016928699139 -0.028046935711347275 0 -0.035421721327580577 -0.028351086801566658 0 -0.035103714611590314 -0.029101081097741534 0 -0.035421721327580577 -0.028351086801566658 0 -0.035103714611590314 -0.029101081097741534 0 -0.035305477974007592 -0.028454130012528653 0 -0.035059766859948313 -0.02905313136184956 0 -0.035384754195989944 -0.029313331754556866 0 -0.035327909969691824 -0.028310468891961243 0 -0.03536560146043026 -0.028239237610121998 0 -0.035305477974007592 -0.028454130012528653 0 -0.033464744793023887 -0.031987450942834436 0 -0.035384754195989944 -0.029313331754556866 0 -0.02720567826832021 -0.034443680484909311 0 -0.027464232568046518 -0.034487000530888684 0 -0.027273020566602545 -0.034215795813091678 0 -0.035327909969691824 -0.028310468891961243 0 -0.03536560146043026 -0.028239237610121998 0 -0.035236260480022839 -0.027962134155822074 0 -0.033464744793023887 -0.031987450942834436 0 -0.030973624488825603 -0.031109495449905402 0 -0.027464232568046518 -0.034487000530888684 0 -0.027629691656917092 -0.034207272364945814 0 -0.027273020566602545 -0.034215795813091678 0 -0.030504443230010406 -0.030845480507229201 0 -0.030973624488825603 -0.031109495449905402 0 -0.027629691656917092 -0.034207272364945814 0 -0.027427240142378975 -0.033742256010198604 0 -0.027273020566602545 -0.034215795813091678 0 -0.033728392437085683 -0.027532676041665517 0 -0.035236260480022839 -0.027962134155822074 0 -0.035422372997334424 -0.028156405852296923 0 -0.03536560146043026 -0.028239237610121998 0 -0.035236260480022839 -0.027962134155822074 0 -0.035422372997334424 -0.028156405852296923 0 -0.018500201177530585 -0.037074899529443234 0 -0.020163882190476958 -0.036384944757263518 0 -0.020198553593485647 -0.037306365060490322 0 -0.020163882190476958 -0.036384944757263518 0 -0.019057502176246899 -0.03602406641586104 0 -0.020020632097903397 -0.035587529314239495 0 -0.018500201177530585 -0.037074899529443234 0 -0.019057502176246899 -0.03602406641586104 0 -0.018053506042231628 -0.036306096868208217 0 -0.018500201177530585 -0.037074899529443234 0 -0.020163882190476958 -0.036384944757263518 0 -0.019057502176246899 -0.03602406641586104 0 -0.019057502176246899 -0.03602406641586104 0 -0.018086418081263433 -0.035541483548835538 0 -0.018053506042231628 -0.036306096868208217 0 -0.019057502176246899 -0.03602406641586104 0 -0.018086418081263433 -0.035541483548835538 0 -0.020020632097903397 -0.035587529314239495 0 -0.018086418081263433 -0.035541483548835538 0 -0.018889316610258205 -0.034999508621441924 0 -0.017041277850915044 -0.034999569275897834 0 -0.018086418081263433 -0.035541483548835538 0 -0.018889316610258205 -0.034999508621441924 0 -0.020020632097903397 -0.035587529314239495 0 -0.020020632097903397 -0.035587529314239495 0 -0.021838859476787244 -0.035417401618687734 0 -0.021366057357732123 -0.035854755585769858 0 -0.020020632097903397 -0.035587529314239495 0 -0.020739702576788477 -0.034999402701189966 0 -0.02183885947678724