<?xml version="1.0"?>
<VTKFile type="UnstructuredGrid" version="0.1" byte_order="LittleEndian">
<UnstructuredGrid>
<Piece NumberOfPoints="30890" NumberOfCells="10788">
<Points>
<DataArray type="Float64" NumberOfComponents="3" format="ascii">
-0.5 -0.5 0 -0.4534101453725693 -0.47967677867322323 0 -0.41515072818903881 -0.49609119914418598 0 -0.5 -0.5 0 -0.47942257299033608 -0.47104120105954839 0 -0.49999999999999972 -0.45484594530914307 0 -0.5 -0.5 0 -0.40065594060627813 -0.5 0 -0.41515072818903881 -0.49609119914418598 0 -0.5 -0.5 0 -0.47942257299033608 -0.47104120105954839 0 -0.4534101453725693 -0.47967677867322323 0 -0.47942257299033608 -0.47104120105954839 0 -0.4534101453725693 -0.47967677867322323 0 -0.46231789334964429 -0.46429534392115762 0 -0.4534101453725693 -0.47967677867322323 0 -0.4394267817550308 -0.46983919624086579 0 -0.46231789334964429 -0.46429534392115762 0 -0.4534101453725693 -0.47967677867322323 0 -0.4394267817550308 -0.46983919624086579 0 -0.427288754972035 -0.4829651976925261 0 -0.4534101453725693 -0.47967677867322323 0 -0.4394267817550308 -0.46983919624086579 0 -0.43893881706024579 -0.44294091527266372 0 -0.45793857953458028 -0.44982063071359391 0 -0.45803846376390978 -0.43234866672468047 0 -0.4394267817550308 -0.46983919624086579 0 -0.45793857953458028 -0.44982063071359391 0 -0.4394267817550308 -0.46983919624086579 0 -0.43893881706024579 -0.44294091527266372 0 -0.45793857953458028 -0.44982063071359391 0 -0.4394267817550308 -0.46983919624086579 0 -0.46231789334964429 -0.46429534392115762 0 -0.45793857953458028 -0.44982063071359391 0 -0.46231789334964429 -0.46429534392115762 0 -0.45793857953458028 -0.44982063071359391 0 -0.47304607662549669 -0.44680543903429609 0 -0.45793857953458028 -0.44982063071359391 0 -0.47645037731412959 -0.42980206518632158 0 -0.47304607662549669 -0.44680543903429609 0 -0.48822518865706482 -0.44232400524773219 0 -0.47645037731412959 -0.42980206518632158 0 -0.45793857953458028 -0.44982063071359391 0 -0.47304607662549669 -0.44680543903429609 0 -0.47645037731412959 -0.42980206518632158 0 -0.47304607662549669 -0.44680543903429609 0 -0.48251771109945979 -0.45509874884696511 0 -0.48822518865706482 -0.44232400524773219 0 -0.46231789334964429 -0.46429534392115762 0 -0.47304607662549669 -0.44680543903429609 0 -0.48251771109945979 -0.45509874884696511 0 -0.47942257299033608 -0.47104120105954839 0 -0.46231789334964429 -0.46429534392115762 0 -0.48251771109945979 -0.45509874884696511 0 -0.47942257299033608 -0.47104120105954839 0 -0.48251771109945979 -0.45509874884696511 0 -0.49999999999999972 -0.45484594530914307 0 -0.49999999999999972 -0.45484594530914307 0 -0.48822518865706482 -0.44232400524773219 0 -0.5 -0.42841714439079709 0 -0.48251771109945979 -0.45509874884696511 0 -0.49999999999999972 -0.45484594530914307 0 -0.48822518865706482 -0.44232400524773219 0 -0.49999999999999972 -0.45484594530914307 0 -0.48822518865706482 -0.44232400524773219 0 -0.48822518865706482 -0.44232400524773219 0 -0.48894783211533049 -0.43043121942531098 0 -0.5 -0.42841714439079709 0 -0.48822518865706482 -0.44232400524773219 0 -0.48894783211533049 -0.43043121942531098 0 -0.47645037731412959 -0.42980206518632158 0 -0.48912395650182722 -0.42418883195365592 0 -0.48287075687156561 -0.41978031582437991 0 -0.48390651897944947 -0.4270347451113049 0 -0.48894783211533049 -0.43043121942531098 0 -0.48912395650182722 -0.42418883195365592 0 -0.48390651897944947 -0.4270347451113049 0 -0.48894783211533049 -0.43043121942531098 0 -0.48912395650182722 -0.42418883195365592 0 -0.5 -0.42841714439079709 0 -0.48912395650182722 -0.42418883195365592 0 -0.5 -0.42841714439079709 0 -0.4898946745427904 -0.41528073501648649 0 -0.5 -0.42841714439079709 0 -0.4898946745427904 -0.41528073501648649 0 -0.5 -0.40198834347245122 0 -0.4898946745427904 -0.41528073501648649 0 -0.5 -0.40198834347245122 0 -0.47620299808399169 -0.40228923046207338 0 -0.48912395650182722 -0.42418883195365592 0 -0.4898946745427904 -0.41528073501648649 0 -0.48287075687156561 -0.41978031582437991 0 -0.47634275776510698 -0.42680233103840892 0 -0.47620299808399169 -0.40228923046207338 0 -0.46507163553287201 -0.41770132587004449 0 -0.47634275776510698 -0.42680233103840892 0 -0.47620299808399169 -0.40228923046207338 0 -0.4898946745427904 -0.41528073501648649 0 -0.48287075687156561 -0.41978031582437991 0 -0.47620299808399169 -0.40228923046207338 0 -0.48287075687156561 -0.41978031582437991 0 -0.47634275776510698 -0.42680233103840892 0 -0.47620299808399169 -0.40228923046207338 0 -0.47634275776510698 -0.42680233103840892 0 -0.47645037731412959 -0.42980206518632158 0 -0.46507163553287201 -0.41770132587004449 0 -0.47645037731412959 -0.42980206518632158 0 -0.46507163553287201 -0.41770132587004449 0 -0.48822518865706482 -0.44232400524773219 0 -0.47645037731412959 -0.42980206518632158 0 -0.48390651897944947 -0.4270347451113049 0 -0.48026476333471407 -0.42545241167639469 0 -0.47793901972273473 -0.42819225473148498 0 -0.48894783211533049 -0.43043121942531098 0 -0.47645037731412959 -0.42980206518632158 0 -0.48390651897944947 -0.4270347451113049 0 -0.48287075687156561 -0.41978031582437991 0 -0.48390651897944947 -0.4270347451113049 0 -0.48026476333471407 -0.42545241167639469 0 -0.48287075687156561 -0.41978031582437991 0 -0.47634275776510698 -0.42680233103840892 0 -0.48026476333471407 -0.42545241167639469 0 -0.47645037731412959 -0.42980206518632158 0 -0.48390651897944947 -0.4270347451113049 0 -0.47793901972273473 -0.42819225473148498 0 -0.47634275776510698 -0.42680233103840892 0 -0.48026476333471407 -0.42545241167639469 0 -0.47793901972273473 -0.42819225473148498 0 -0.47634275776510698 -0.42680233103840892 0 -0.47645037731412959 -0.42980206518632158 0 -0.47793901972273473 -0.42819225473148498 0 -0.47645037731412959 -0.42980206518632158 0 -0.47793901972273473 -0.42819225473148498 0 -0.48806655912171698 -0.38940331159359193 0 -0.5 -0.37555954255410517 0 -0.5 -0.40198834347245122 0 -0.48806655912171698 -0.38940331159359193 0 -0.5 -0.37555954255410517 0 -0.47606323840287618 -0.37777612988573778 0 -0.48806655912171698 -0.38940331159359193 0 -0.5 -0.40198834347245122 0 -0.47620299808399169 -0.40228923046207338 0 -0.47620299808399169 -0.40228923046207338 0 -0.47606323840287618 -0.37777612988573778 0 -0.4626693618143809 -0.39238071900487342 0 -0.48806655912171698 -0.38940331159359193 0 -0.47620299808399169 -0.40228923046207338 0 -0.47606323840287618 -0.37777612988573778 0 -0.47620299808399169 -0.40228923046207338 0 -0.47606323840287618 -0.37777612988573778 0 -0.4626693618143809 -0.39238071900487342 0 -0.44616602825503998 -0.39393495663749678 0 -0.45309614157734079 -0.37950385027520978 0 -0.47606323840287618 -0.37777612988573778 0 -0.4626693618143809 -0.39238071900487342 0 -0.45309614157734079 -0.37950385027520978 0 -0.4626693618143809 -0.39238071900487342 0 -0.4536928937516137 -0.40560058655376802 0 -0.44616602825503998 -0.39393495663749678 0 -0.47620299808399169 -0.40228923046207338 0 -0.4626693618143809 -0.39238071900487342 0 -0.4536928937516137 -0.40560058655376802 0 -0.4536928937516137 -0.40560058655376802 0 -0.44616602825503998 -0.39393495663749678 0 -0.43861015859495039 -0.41118252673888361 0 -0.44616602825503998 -0.39393495663749678 0 -0.43861015859495039 -0.41118252673888361 0 -0.43170047212621332 -0.39341833100653628 0 -0.44616602825503998 -0.39393495663749678 0 -0.43766974259788682 -0.38149256198204151 0 -0.45309614157734079 -0.37950385027520978 0 -0.44616602825503998 -0.39393495663749678 0 -0.43766974259788682 -0.38149256198204151 0 -0.43170047212621332 -0.39341833100653628 0 -0.45793857953458028 -0.44982063071359391 0 -0.47645037731412959 -0.42980206518632158 0 -0.45803846376390978 -0.43234866672468047 0 -0.47645037731412959 -0.42980206518632158 0 -0.45803846376390978 -0.43234866672468047 0 -0.46507163553287201 -0.41770132587004449 0 -0.45803846376390978 -0.43234866672468047 0 -0.46507163553287201 -0.41770132587004449 0 -0.45269353257574202 -0.41796591965123431 0 -0.47620299808399169 -0.40228923046207338 0 -0.4536928937516137 -0.40560058655376802 0 -0.46507163553287201 -0.41770132587004449 0 -0.4536928937516137 -0.40560058655376802 0 -0.46507163553287201 -0.41770132587004449 0 -0.4536928937516137 -0.40560058655376802 0 -0.46507163553287201 -0.41770132587004449 0 -0.45269353257574202 -0.41796591965123431 0 -0.45269353257574202 -0.41796591965123431 0 -0.43861015859495039 -0.41118252673888361 0 -0.44410444512570629 -0.42707059933241159 0 -0.4536928937516137 -0.40560058655376802 0 -0.45269353257574202 -0.41796591965123431 0 -0.43861015859495039 -0.41118252673888361 0 -0.43893881706024579 -0.44294091527266372 0 -0.44410444512570629 -0.42707059933241159 0 -0.43163875528248502 -0.42805608896678538 0 -0.43893881706024579 -0.44294091527266372 0 -0.45803846376390978 -0.43234866672468047 0 -0.44410444512570629 -0.42707059933241159 0 -0.43861015859495039 -0.41118252673888361 0 -0.44410444512570629 -0.42707059933241159 0 -0.43163875528248502 -0.42805608896678538 0 -0.45803846376390978 -0.43234866672468047 0 -0.45269353257574202 -0.41796591965123431 0 -0.44410444512570629 -0.42707059933241159 0 -0.43163875528248502 -0.42805608896678538 0 -0.42333669654958378 -0.41713185753449522 0 -0.41982351631528891 -0.43536083395331182 0 -0.43893881706024579 -0.44294091527266372 0 -0.43163875528248502 -0.42805608896678538 0 -0.41982351631528891 -0.43536083395331182 0 -0.43861015859495039 -0.41118252673888361 0 -0.43163875528248502 -0.42805608896678538 0 -0.42333669654958378 -0.41713185753449522 0 -0.43861015859495039 -0.41118252673888361 0 -0.42333669654958378 -0.41713185753449522 0 -0.42599970140639598 -0.40550896613534049 0 -0.42333669654958378 -0.41713185753449522 0 -0.4105189759936072 -0.41774094497167358 0 -0.41374759550686752 -0.40436386972615113 0 -0.42333669654958378 -0.41713185753449522 0 -0.42599970140639598 -0.40550896613534049 0 -0.41374759550686752 -0.40436386972615113 0 -0.4105189759936072 -0.41774094497167358 0 -0.41374759550686752 -0.40436386972615113 0 -0.40015224873140709 -0.41237124113365442 
[...]
<PointData Scalars="" Vectors="displacement," Tensors="">
<DataArray type="Float64" Name="displacement" NumberOfComponents="3" format="ascii">
-0.034999631212069893 -5.4084029355428906e-07 0 -0.032517804681543902 7.5152065582024974e-05 0 -0.029102666950627052 8.0334055671657246e-05 0 -0.034999631212069893 -5.4084029355428906e-07 0 -0.03417512779628977 -0.00013416569601336904 0 -0.034997160054851616 -1.6117090600108932e-07 0 -0.034999631212069893 -5.4084029355428906e-07 0 -0.028045513728517116 1.4203983600175221e-06 0 -0.029102666950627052 8.0334055671657246e-05 0 -0.034999631212069893 -5.4084029355428906e-07 0 -0.03417512779628977 -0.00013416569601336904 0 -0.032517804681543902 7.5152065582024974e-05 0 -0.03417512779628977 -0.00013416569601336904 0 -0.032517804681543902 7.5152065582024974e-05 0 -0.033833047156165981 -5.9679281212065455e-06 0 -0.032517804681543902 7.5152065582024974e-05 0 -0.033332871630625052 0.0010474726788899363 0 -0.033833047156165981 -5.9679281212065455e-06 0 -0.032517804681543902 7.5152065582024974e-05 0 -0.031876957987988341 0.00017102955879319049 0 -0.030882025274216865 0.00023253895579207067 0 -0.032728794560213874 0.00054199234824115665 0 -0.030200835135775116 0.00039083205043138105 0 -0.029717992470912748 -0.00010254507786127641 0 -0.029436346441979882 -0.00094656243622836102 0 -0.030242353162881281 -0.00097172257878901862 0 -0.030200835135775116 0.00039083205043138105 0 -0.031980843360329782 -0.00048055205440910019 0 -0.028623099853254789 -0.00013769802355240862 0 -0.029717992470912748 -0.00010254507786127641 0 -0.029436346441979882 -0.00094656243622836102 0 -0.033332871630625052 0.0010474726788899363 0 -0.033833047156165981 -5.9679281212065455e-06 0 -0.034393863313636558 0.00019554294259413341 0 -0.033833047156165981 -5.9679281212065455e-06 0 -0.034393863313636558 0.00019554294259413341 0 -0.034476191198178303 -7.1891414219165132e-05 0 -0.031980843360329782 -0.00048055205440910019 0 -0.033026536889435534 -0.00037828580993701764 0 -0.034476191198178303 -7.1891414219165132e-05 0 -0.034541150832074041 -0.00014011573913001274 0 -0.034666155472444837 -0.00010827020041124556 0 -0.034393863313636558 0.00019554294259413341 0 -0.034476191198178303 -7.1891414219165132e-05 0 -0.034666155472444837 -0.00010827020041124556 0 -0.034476191198178303 -7.1891414219165132e-05 0 -0.034495315553945062 -0.00013505862057098804 0 -0.034541150832074041 -0.00014011573913001274 0 -0.033833047156165981 -5.9679281212065455e-06 0 -0.034476191198178303 -7.1891414219165132e-05 0 -0.034495315553945062 -0.00013505862057098804 0 -0.03417512779628977 -0.00013416569601336904 0 -0.033833047156165981 -5.9679281212065455e-06 0 -0.034495315553945062 -0.00013505862057098804 0 -0.03417512779628977 -0.00013416569601336904 0 -0.034495315553945062 -0.00013505862057098804 0 -0.034997160054851616 -1.6117090600108932e-07 0 -0.035000068628552428 -1.9364149627345018e-08 0 -0.0349220915230785 3.5098346903487281e-05 0 -0.034999534655289648 1.0180929247895017e-07 0 -0.034495315553945062 -0.00013505862057098804 0 -0.034997160054851616 -1.6117090600108932e-07 0 -0.034541150832074041 -0.00014011573913001274 0 -0.034999701785582552 -1.6304030550184966e-07 0 -0.034928842396169876 0.00012394382347493516 0 -0.0349220915230785 3.5098346903487281e-05 0 -0.034853141104701668 4.725209515562613e-05 0 -0.034999534655289648 1.0180929247895017e-07 0 -0.0349220915230785 3.5098346903487281e-05 0 -0.034853141104701668 4.725209515562613e-05 0 -0.03467259566476695 0.00014167304882862223 0 -0.03484851990422802 3.7273469016643815e-05 0 -0.034757590842946433 5.9413045509428259e-05 0 -0.034740542319783463 9.0611695343094549e-05 0 -0.034853141104701668 4.725209515562613e-05 0 -0.03484851990422802 3.7273469016643815e-05 0 -0.034740542319783463 9.0611695343094549e-05 0 -0.034853141104701668 4.725209515562613e-05 0 -0.03484851990422802 3.7273469016643815e-05 0 -0.034999534655289648 1.0180929247895017e-07 0 -0.03484851990422802 3.7273469016643815e-05 0 -0.034999534655289648 1.0180929247895017e-07 0 -0.034899366114910561 6.2546250190432788e-06 0 -0.034999534655289648 1.0180929247895017e-07 0 -0.034899366114910561 6.2546250190432788e-06 0 -0.03499999445026708 -7.4328394402943276e-08 0 -0.034899366114910561 6.2546250190432788e-06 0 -0.03499999445026708 -7.4328394402943276e-08 0 -0.035020068232166184 7.2495615028837744e-05 0 -0.03484851990422802 3.7273469016643815e-05 0 -0.034899366114910561 6.2546250190432788e-06 0 -0.034757590842946433 5.9413045509428259e-05 0 -0.034491385615375417 0.00016391760001094091 0 -0.032070204849858203 -0.00013380693575517903 0 -0.033224878269272659 -0.00063639508756508669 0 -0.034423925105998433 0.00012795768662867874 0 -0.033607495995175235 -4.1352155724201288e-05 0 -0.034899366114910561 6.2546250190432788e-06 0 -0.034757590842946433 5.9413045509428259e-05 0 -0.035020068232166184 7.2495615028837744e-05 0 -0.034757590842946433 5.9413045509428259e-05 0 -0.034491385615375417 0.00016391760001094091 0 -0.035020068232166184 7.2495615028837744e-05 0 -0.034491385615375417 0.00016391760001094091 0 -0.034818113568845011 0.00012707465602058572 0 -0.033224878269272659 -0.00063639508756508669 0 -0.033026536889435534 -0.00037828580993701764 0 -0.032085189589034176 -0.00098783160464844741 0 -0.034928842396169876 0.00012394382347493516 0 -0.033026536889435534 -0.00037828580993701764 0 -0.034740542319783463 9.0611695343094549e-05 0 -0.03464354937188982 0.00011981977189320114 0 -0.034651016569572306 0.00014686678109507661 0 -0.034853141104701668 4.725209515562613e-05 0 -0.03467259566476695 0.00014167304882862223 0 -0.034740542319783463 9.0611695343094549e-05 0 -0.034757590842946433 5.9413045509428259e-05 0 -0.034740542319783463 9.0611695343094549e-05 0 -0.03464354937188982 0.00011981977189320114 0 -0.034757590842946433 5.9413045509428259e-05 0 -0.034491385615375417 0.00016391760001094091 0 -0.03464354937188982 0.00011981977189320114 0 -0.03467259566476695 0.00014167304882862223 0 -0.034740542319783463 9.0611695343094549e-05 0 -0.034651016569572306 0.00014686678109507661 0 -0.034491385615375417 0.00016391760001094091 0 -0.03464354937188982 0.00011981977189320114 0 -0.034651016569572306 0.00014686678109507661 0 -0.034491385615375417 0.00016391760001094091 0 -0.034818113568845011 0.00012707465602058572 0 -0.034651016569572306 0.00014686678109507661 0 -0.033026536889435534 -0.00037828580993701764 0 -0.033188356381918811 -0.00043232534142901338 0 -0.035014885665657046 5.5473978553421759e-06 0 -0.035000064091372171 4.2510731988015597e-09 0 -0.03499999445026708 -7.4328394402943276e-08 0 -0.035014885665657046 5.5473978553421759e-06 0 -0.035000064091372171 4.2510731988015597e-09 0 -0.03499807613066333 -5.4459684183201828e-05 0 -0.035014885665657046 5.5473978553421759e-06 0 -0.03499999445026708 -7.4328394402943276e-08 0 -0.035020068232166184 7.2495615028837744e-05 0 -0.032070204849858203 -0.00013380693575517903 0 -0.032283348714124763 -0.0006331924379517122 0 -0.032004091088417223 -0.00041213276554608535 0 -0.035014885665657046 5.5473978553421759e-06 0 -0.035020068232166184 7.2495615028837744e-05 0 -0.03499807613066333 -5.4459684183201828e-05 0 -0.033607495995175235 -4.1352155724201288e-05 0 -0.033652684326920645 -0.0003220228131869744 0 -0.032004091088417223 -0.00041213276554608535 0 -0.031951374627785585 -0.00022551106844990632 0 -0.032284062685948849 -0.00017530860072104105 0 -0.032283348714124763 -0.0006331924379517122 0 -0.032004091088417223 -0.00041213276554608535 0 -0.032284062685948849 -0.00017530860072104105 0 -0.032004091088417223 -0.00041213276554608535 0 -0.031855829451797296 -0.00067746874848524999 0 -0.031951374627785585 -0.00022551106844990632 0 -0.032070204849858203 -0.00013380693575517903 0 -0.032004091088417223 -0.00041213276554608535 0 -0.031855829451797296 -0.00067746874848524999 0 -0.031855829451797296 -0.00067746874848524999 0 -0.031951374627785585 -0.00022551106844990632 0 -0.031222927934690524 -1.1922819541559255e-05 0 -0.031951374627785585 -0.00022551106844990632 0 -0.031222927934690524 -1.1922819541559255e-05 0 -0.031787621345339703 0.000303162835537575 0 -0.031951374627785585 -0.00022551106844990632 0 -0.032200256020645995 0.00018774742071849234 0 -0.032284062685948849 -0.00017530860072104105 0 -0.031951374627785585 -0.00022551106844990632 0 -0.032200256020645995 0.00018774742071849234 0 -0.031787621345339703 0.000303162835537575 0 -0.029436346441979882 -0.00094656243622836102 0 -0.030389740778249932 -0.0018833848039611538 0 -0.030242353162881281 -0.00097172257878901862 0 -0.030389740778249932 -0.0018833848039611538 0 -0.030242353162881281 -0.00097172257878901862 0 -0.031004050660280426 -0.0013604806597486414 0 -0.030242353162881281 -0.00097172257878901862 0 -0.031004050660280426 -0.0013604806597486414 0 -0.030983227712363542 -0.00067851936944542752 0 -0.032070204849858203 -0.00013380693575517903 0 -0.031855829451797296 -0.00067746874848524999 0 -0.033224878269272659 -0.00063639508756508669 0 -0.032026943148168917 -0.00071418311997019596 0 -0.032085189589034176 -0.00098783160464844741 0 -0.031855829451797296 -0.00067746874848524999 0 -0.031004050660280426 -0.0013604806597486414 0 -0.030983227712363542 -0.00067851936944542752 0 -0.030983227712363542 -0.00067851936944542752 0 -0.031222927934690524 -1.1922819541559255e-05 0 -0.0304615259534739 -0.00030795694204732005 0 -0.031855829451797296 -0.00067746874848524999 0 -0.030983227712363542 -0.00067851936944542752 0 -0.031222927934690524 -1.1922819541559255e-05 0 -0.029717992470912748 -0.00010254507786127641 0 -0.0304615259534739 -0.00030795694204732005 0 -0.030335165234322815 0.00020517690000604951 0 -0.029717992470912748 -0.00010254507786127641 0 -0.030242353162881281 -0.00097172257878901862 0 -0.0304615259534739 -0.00030795694204732005 0 -0.031222927934690524 -1.1922819541559255e-05 0 -0.0304615259534739 -0.00030795694204732005 0 -0.030335165234322815 0.00020517690000604951 0 -0.030242353162881281 -0.00097172257878901862 0 -0.030983227712363542 -0.00067851936944542752 0 -0.0304615259534739 -0.00030795694204732005 0 -0.030335165234322815 0.00020517690000604951 0 -0.030745558275166941 0.00052604844383299866 0 -0.029938667085552408 0.00063653608560677139 0 -0.029717992470912748 -0.00010254507786127641 0 -0.030335165234322815 0.00020517690000604951 0 -0.029938667085552408 0.00063653608560677139 0 -0.031222927934690524 -1.1922819541559255e-05 0 -0.030335165234322815 0.00020517690000604951 0 -0.030745558275166941 0.00052604844383299866 0 -0.031222927934690524 -1.1922819541559255e-05 0 -0.030745558275166941 0.00052604844383299866 0 -0.031275603078610076 0.00045276457367606176 0 -0.030745558275166941 0.00052604844383299866 0 -0.030571725894154838 0.00093686344911795172 0 -0.031189645461528939 0.00087155356841537982 0 -0.030745558275166941 0.00052604844383299866 0 -0.031275603078610076 0.00045276457367606176 0 -0.031189645461528939 0.00087155356841537982 0 -0.030571725894154838 0.00093686344911795172 0 -0.031189645461528939 0.00087155356841537982 0 -0.030724058915433203 0.001305245111100632 0 -0.030571725894154838 0.00093686344911795172 0 -0.029938667085552408 0.00063653608560677139 0 -0.030004305767009711 0.0011248661662525614 0 -0.029938667085552408 0.00063653608560677139 0 -0.030004305767009711 0.0011248661662525614 0 -0.02952360365107318 0.0011125407247694647 0 -0.030745558275166941 0.00052604844383299866 0 -0.030571725894154838 0.00093686344911795172 0 -0.029938667085552408 0.00063653608560677139 0 -0.032200256020645995 0.00018774742071849234 0 -0.032220851766501593 0.0006646475960764744 0 -0.031787621345339703 0.000303162835537575 0 -0.032220851766501593 0.0006646475960764744 0 -0.031787621345339703 0.000303162835537575 0 -0.031675283823761585 0.00071086410788561262 0 -0.031222927934690524 -1.1922819541559255e-05 0 -0.031787621345339703 0.000303162835537575 0 -0.031275603078610076 0.00045276457367606176 0 -0.031787621345339703 0.000303162835537575 0 -0.031275603078610076 0.00045276457367606176 0 -0.031675283823761585 0.00071086410788561262 0 -0.031275603078610076 0.00045276457367606176 0 -0.031189645461528939 0.00087155356841537982 0 -0.031675283823761585 0.00071086410788561262 0 -0.031189645461528939 0.00087155356841537982 0 -0.031747478059715041 0.0011288488801065825 0 -0.031287669244522649 0.0013760168363605176 0 -0.031189645461528939 0.00087155356841537982 0 -0.031675283823761585 0.00071086410788561262 0 -0.031747478059715041 0.0011288488801065825 0 -0.032220851766501593 0.0006646475960764744 0 -0.031747478059715041 0.0011288488801065825 0 -0.032244815138781399 0.0012547802229747793 0 -0.032220851766501593 0.0006646475960764744 0 -0.031675283823761585 0.00071086410788561262 0 -0.031747478059715041 0.0011288488801065825 0 -0.031747478059715041 0.0011288488801065825 0 -0.031821761273229658 0.0016222766437867964 0 -0.032244815138781399 0.0012547802229747793 0 -0.031821761273229658 0.0016222766437867964 0 -0.031287669244522649 0.0013760168363605176 0 -0.031340352811330852 0.0018507072083579347 0 -0.031747478059715041 0.0011288488801065825 0 -0.031821761273229658 0.0016222766437867964 0 -0.031287669244522649 0.0013760168363605176 0 -0.031189645461528939 0.00087155356841537982 0 -0.031287669244522649 0.0013760168363605176 0 -0.030724058915433203 0.001305245111100632 0 -0.031287669244522649 0.0013760168363605176 0 -0.031340352811330852 0.0018507072083579347 0 -0.030838792296936004 0.0017558689583349644 0 -0.031340352811330852 0.0018507072083579347 0 -0.031745490937517953 0.0023080449583745269 0 -0.031108067235501698 0.0023496050471722104 0 -0.031340352811330852 0.0018507072083579347 0 -0.030838792296936004 0.0017558689583349644 0 -0.031108067235501698 0.0023496050471722104 0 -0.031821761273229658 0.0016222766437867964 0 -0.031340352811330852 0.0018507072083579347 0 -0.031745490937517953 0.0023080449583745269 0 -0.031821761273229658 0.0016222766437867964 0 -0.032411461094956281 0.001827930472106419 0 -0.031745490937517953 0.0023080449583745269 0 -0.030004305767009711 0.0011248661662525614 0 -0.029411970533046249 0.0015494744464267199 0 -0.02952360365107318 0.0011125407247694647 0 -0.030004305767009711 0.0011248661662525614 0 -0.030253236152373349 0.0016201082861118739 0 -0.029411970533046249 0.0015494744464267199 0 -0.030004305767009711 0.0011248661662525614 0 -0.030724058915433203 0.001305245111100632 0 -0.030253236152373349 0.0016201082861118739 0 -0.030571725894154838 0.00093686344911795172 0 -0.030004305767009711 0.0011248661662525614 0 -0.030724058915433203 0.001305245111100632 0 -0.031287669244522649 0.0013760168363605176 0 -0.030724058915433203 0.001305245111100632 0 -0.030838792296936004 0.0017558689583349644 0 -0.030724058915433203 0.001305245111100632 0 -0.030253236152373349 0.0016201082861118739 0 -0.030838792296936004 0.0017558689583349644 0 -0.030253236152373349 0.0016201082861118739 0 -0.030838792296936004 0.0017558689583349644 0 -0.030545883059916901 0.0022074862155884436 0 -0.030838792296936004 0.0017558689583349644 0 -0.030545883059916901 0.0022074862155884436 0 -0.031108067235501698 0.0023496050471722104 0 -0.030253236152373349 0.0016201082861118739 0 -0.030545883059916901 0.0022074862155884436 0 -0.029972947983162461 0.002384812813926059 0 -0.030253236152373349 0.0016201082861118739 0 -0.029972947983162461 0.002384812813926059 0 -0.029411970533046249 0.0015494744464267199 0 -0.029972947983162461 0.002384812813926059 0 -0.029411970533046249 0.0015494744464267199 0 -0.028756563366495073 0.0026059121501160807 0 -0.026724910206771264 0.001193606717615067 0 -0.026097956959316701 0.00041877397000462154 0 -0.024769531857349966 -1.760728096479142e-05 0 -0.026107818692338584 0.0004212391265227124 0 -0.02536524883038864 -0.00011819778082447609 0 -0.029411970533046249 0.0015494744464267199 0 -0.028756563366495073 0.0026059121501160807 0 -0.026107818692338584 0.0004212391265227124 0 -0.029284242824065526 0.0015380937953903277 0 -0.028291749953619404 0.00061808969761017736 0 -0.029411970533046249 0.0015494744464267199 0 -0.026812955233911695 -0.00020025641358972391 0 -0.026107818692338584 0.0004212391265227124 0 -0.026812955233911695 -0.00020025641358972391 0 -0.026107818692338584 0.0004212391265227124 0 -0.026380728390734666 0.00016778664943496409 0 -0.026107818692338584 0.0004212391265227124 0 -0.026226994164579711 4.3428397018106011e-05 0 -0.026380728390734666 0.00016778664943496409 0 -0.026226994164579711 4.3428397018106011e-05 0 -0.025283476711911682 -0.00025500933083386925 0 -0.02536524883038864 -0.00011819778082447609 0 -0.026107818692338584 0.0004212391265227124 0 -0.026226994164579711 4.3428397018106011e-05 0 -0.02536524883038864 -0.00011819778082447609 0 -0.028045513728517116 1.4203983600175221e-06 0 -0.026226994164579711 4.3428397018106011e-05 0 -0.025283476711911682 -0.00025500933083386925 0 -0.026226994164579711 4.3428397018106011e-05 0 -0.027192602094145119 0.00012054603457331256 0 -0.026380728390734666 0.00016778664943496409 0 -0.028045513728517116 1.4203983600175221e-06 0 -0.026226994164579711 4.3428397018106011e-05 0 -0.027192602094145119 0.00012054603457331256 0 -0.032517804681543902 7.5152065582024974e-05 0 -0.029102666950627052 8.0334055671657246e-05 0 -0.030882025274216865 0.00023253895579207067 0 -0.027192602094145119 0.00012054603457331256 0 -0.02690277434827908 0.0006133634904355533 0 -0.027648672675898465 0.001148015881480516 0 -0.027192602094145119 0.00012054603457331256 0 -0.02690277434827908 0.0006133634904355533 0 -0.026380728390734666 0.00016778664943496409 0 -0.028045513728517116 1.4203983600175221e-06 0 -0.027192602094145119 0.00012054603457331256 0 -0.029102666950627052 8.0334055671657246e-05 0 -0.027192602094145119 0.00012054603457331256 0 -0.029102666950627052 8.0334055671657246e-05 0 -0.027648672675898465 0.001148015881480516 0 -0.02932381397781704 0.00012021566273876033 0 -0.029179350594484975 0.00069733407427922695 0 -0.026890527515975399 0.001665587855553832 0 -0.02690277434827908 0.0006133634904355533 0 -0.027648672675898465 0.001148015881480516 0 -0.030200835135775116 0.00039083205043138105 0 -0.029179350594484975 0.00069733407427922695 0 -0.028623099853254789 -0.00013769802355240862 0 -0.029717992470912748 -0.00010254507786127641 0 -0.02912276993798139 0.0005478855686228166 0 -0.026890527515975399 0.001665587855553832 0 -0.02690277434827908 0.0006133634904355533 0 -0.02633539291955099 0.00058850496220416997 0 -0.030200835135775116 0.00039083205043138105 0 -0.0275356754088379 0.00046275401493921323 0 -0.029717992470912748 -0.00010254507786127641 0 -0.029938667085552408 0.00063653608560677139 0 -0.02912276993798139 0.0005478855686228166 0 -0.028291749953619404 0.00061808969761017736 0 -0.0275356754088379 0.00046275401493921323 0 -0.029938667085552408 0.00063653608560677139 0 -0.02952360365107318 0.0011125407247694647 0 -0.02912276993798139 0.0005478855686228166 0 -0.026812955233911695 -0.00020025641358972391 0 -0.02633539291955099 0.00058850496220416997 0 -0.026380728390734666 0.00016778664943496409 0 -0.02690277434827908 0.0006133634904355533 0 -0.02633539291955099 0.00058850496220416997 0 -0.026380728390734666 0.00016778664943496409 0 -0.035099681710664056 0.00025916005363406765 0 -0.034958128120194346 0.00018654546821339333 0 -0.034991516407807927 0.0004273007829827512 0 -0.034958128120194346 0.00018654546821339333 0 -0.035019272860927521 9.6115927282770043e-05 0 -0.03494834070114855 -2.1960075980119259e-06 0 -0.035099681710664056 0.00025916005363406765 0 -0.035019272860927521 9.6115927282770043e-05 0 -0.03510450374241849 0.00014207971928346884 0 -0.035099681710664056 0.00025916005363406765 0 -0.034958128120194346 0.00018654546821339333 0 -0.035019272860927521 9.6115927282770043e-05 0 -0.035019272860927521 9.6115927282770043e-05 0 -0.035031764320625304 2.7091294567475835e-05 0 -0.03510450374241849 0.00014207971928346884 0 -0.035019272860927521 9.6115927282770043e-05 0 -0.035031764320625304 2.7091294567475835e-05 0 -0.03494834070114855 -2.1960075980119259e-06 0 -0.035031764320625304 2.7091294567475835e-05 0 -0.034999945503025438 6.3630047219984717e-09 0 -