<?xml version="1.0"?>
<VTKFile type="UnstructuredGrid" version="0.1" byte_order="LittleEndian">
<UnstructuredGrid>
<Piece NumberOfPoints="30480" NumberOfCells="10691">
<Points>
<DataArray type="Float64" NumberOfComponents="3" format="ascii">
-0.5 -0.5 0 -0.47151914767296088 -0.47759300372036312 0 -0.48149637151224522 -0.45664913086094189 0 -0.5 -0.5 0 -0.47151914767296088 -0.47759300372036312 0 -0.45567482139986459 -0.49529707215878538 0 -0.5 -0.5 0 -0.45567482139986459 -0.49529707215878538 0 -0.43732800386265019 -0.5 0 -0.5 -0.5 0 -0.48149637151224522 -0.45664913086094189 0 -0.50000000000000155 -0.41765102106557073 0 -0.47151914767296088 -0.47759300372036312 0 -0.45704742268278598 -0.47566493594240139 0 -0.46337712276990872 -0.46035387963968671 0 -0.47151914767296088 -0.47759300372036312 0 -0.45567482139986459 -0.49529707215878538 0 -0.45704742268278598 -0.47566493594240139 0 -0.45567482139986459 -0.49529707215878538 0 -0.45704742268278598 -0.47566493594240139 0 -0.44447914576267872 -0.4749189238692888 0 -0.45704742268278598 -0.47566493594240139 0 -0.44447914576267872 -0.4749189238692888 0 -0.4494578323990106 -0.46280673377663911 0 -0.44447914576267872 -0.4749189238692888 0 -0.43855493528198969 -0.46287623017330981 0 -0.43172141324619467 -0.4698936480943523 0 -0.45567482139986459 -0.49529707215878538 0 -0.4346513241145829 -0.48379841874269308 0 -0.45567482139986459 -0.49529707215878538 0 -0.43732800386265019 -0.5 0 -0.4346513241145829 -0.48379841874269308 0 -0.45567482139986459 -0.49529707215878538 0 -0.44447914576267872 -0.4749189238692888 0 -0.4346513241145829 -0.48379841874269308 0 -0.45154582532761323 -0.44912592620252673 0 -0.44490762157089409 -0.43803373942168428 0 -0.43995371139956713 -0.44340532733736998 0 -0.44490762157089409 -0.43803373942168428 0 -0.43995371139956713 -0.44340532733736998 0 -0.45154582532761323 -0.44912592620252673 0 -0.43995371139956713 -0.44340532733736998 0 -0.44174254256908752 -0.45390050683262112 0 -0.44174254256908752 -0.45390050683262112 0 -0.43855493528198969 -0.46287623017330981 0 -0.4494578323990106 -0.46280673377663911 0 -0.44447914576267872 -0.4749189238692888 0 -0.43855493528198969 -0.46287623017330981 0 -0.4494578323990106 -0.46280673377663911 0 -0.45154582532761323 -0.44912592620252673 0 -0.44174254256908752 -0.45390050683262112 0 -0.4494578323990106 -0.46280673377663911 0 -0.45154582532761323 -0.44912592620252673 0 -0.4494578323990106 -0.46280673377663911 0 -0.46337712276990872 -0.46035387963968671 0 -0.45704742268278598 -0.47566493594240139 0 -0.4494578323990106 -0.46280673377663911 0 -0.46337712276990872 -0.46035387963968671 0 -0.44490762157089409 -0.43803373942168428 0 -0.4633610519616298 -0.44801785154429608 0 -0.47489123899366958 -0.43636849988844773 0 -0.45154582532761323 -0.44912592620252673 0 -0.44490762157089409 -0.43803373942168428 0 -0.4633610519616298 -0.44801785154429608 0 -0.45154582532761323 -0.44912592620252673 0 -0.46337712276990872 -0.46035387963968671 0 -0.4633610519616298 -0.44801785154429608 0 -0.4633610519616298 -0.44801785154429608 0 -0.48149637151224522 -0.45664913086094189 0 -0.47489123899366958 -0.43636849988844773 0 -0.47151914767296088 -0.47759300372036312 0 -0.46337712276990872 -0.46035387963968671 0 -0.48149637151224522 -0.45664913086094189 0 -0.46337712276990872 -0.46035387963968671 0 -0.4633610519616298 -0.44801785154429608 0 -0.48149637151224522 -0.45664913086094189 0 -0.48149637151224522 -0.45664913086094189 0 -0.50000000000000155 -0.41765102106557073 0 -0.47489123899366958 -0.43636849988844773 0 -0.50000000000000155 -0.41765102106557073 0 -0.48268388222286829 -0.41239246289554082 0 -0.47489123899366958 -0.43636849988844773 0 -0.50000000000000155 -0.41765102106557073 0 -0.48268388222286829 -0.41239246289554082 0 -0.48509600235994849 -0.39445696609887032 0 -0.48268388222286829 -0.41239246289554082 0 -0.47489123899366958 -0.43636849988844773 0 -0.46500181196542117 -0.4162453527602773 0 -0.48268388222286829 -0.41239246289554082 0 -0.48509600235994849 -0.39445696609887032 0 -0.46500181196542117 -0.4162453527602773 0 -0.4935349258646653 -0.38530653382383501 0 -0.5 -0.39380331573200289 0 -0.5 -0.36995561039843522 0 -0.4935349258646653 -0.38530653382383501 0 -0.47442378888664372 -0.37784854251384892 0 -0.48710713139422313 -0.37356260288390691 0 -0.4935349258646653 -0.38530653382383501 0 -0.5 -0.36995561039843522 0 -0.48710713139422313 -0.37356260288390691 0 -0.4935349258646653 -0.38530653382383501 0 -0.48509600235994849 -0.39445696609887032 0 -0.50000000000000155 -0.41765102106557073 0 -0.48509600235994849 -0.39445696609887032 0 -0.5 -0.39380331573200289 0 -0.50000000000000155 -0.41765102106557073 0 -0.48509600235994849 -0.39445696609887032 0 -0.4935349258646653 -0.38530653382383501 0 -0.48509600235994849 -0.39445696609887032 0 -0.5 -0.39380331573200289 0 -0.48509600235994849 -0.39445696609887032 0 -0.46500181196542117 -0.4162453527602773 0 -0.48509600235994849 -0.39445696609887032 0 -0.46418313070073708 -0.40142447142377019 0 -0.46500181196542117 -0.4162453527602773 0 -0.48509600235994849 -0.39445696609887032 0 -0.46664571029204338 -0.39138616615978572 0 -0.46418313070073708 -0.40142447142377019 0 -0.48509600235994849 -0.39445696609887032 0 -0.47442378888664372 -0.37784854251384892 0 -0.4935349258646653 -0.38530653382383501 0 -0.48509600235994849 -0.39445696609887032 0 -0.47442378888664372 -0.37784854251384892 0 -0.48509600235994849 -0.39445696609887032 0 -0.47442378888664372 -0.37784854251384892 0 -0.46664571029204338 -0.39138616615978572 0 -0.47442378888664372 -0.37784854251384892 0 -0.45827271654401602 -0.38270886133461191 0 -0.46664571029204338 -0.39138616615978572 0 -0.45827271654401602 -0.38270886133461191 0 -0.45520774415463627 -0.39645316959748461 0 -0.46664571029204338 -0.39138616615978572 0 -0.45520774415463627 -0.39645316959748461 0 -0.46664571029204338 -0.39138616615978572 0 -0.46418313070073708 -0.40142447142377019 0 -0.45520774415463627 -0.39645316959748461 0 -0.46418313070073708 -0.40142447142377019 0 -0.44993047217909993 -0.40766398234700429 0 -0.44543097359917061 -0.39108856696691158 0 -0.44993047217909993 -0.40766398234700429 0 -0.43540682028011379 -0.4014883965874117 0 -0.45520774415463627 -0.39645316959748461 0 -0.44543097359917061 -0.39108856696691158 0 -0.44993047217909993 -0.40766398234700429 0 -0.45827271654401602 -0.38270886133461191 0 -0.44543097359917061 -0.39108856696691158 0 -0.4468146684689614 -0.37318371876189432 0 -0.44543097359917061 -0.39108856696691158 0 -0.43570823434457029 -0.38006766675896381 0 -0.4468146684689614 -0.37318371876189432 0 -0.45827271654401602 -0.38270886133461191 0 -0.45520774415463627 -0.39645316959748461 0 -0.44543097359917061 -0.39108856696691158 0 -0.44490762157089409 -0.43803373942168428 0 -0.47489123899366958 -0.43636849988844773 0 -0.46500181196542117 -0.4162453527602773 0 -0.44490762157089409 -0.43803373942168428 0 -0.46500181196542117 -0.4162453527602773 0 -0.44490762157089409 -0.43803373942168428 0 -0.45445475995311579 -0.42405165678038981 0 -0.46500181196542117 -0.4162453527602773 0 -0.44490762157089409 -0.43803373942168428 0 -0.47489123899366958 -0.43636849988844773 0 -0.45445475995311579 -0.42405165678038981 0 -0.46500181196542117 -0.4162453527602773 0 -0.44993047217909993 -0.40766398234700429 0 -0.46418313070073708 -0.40142447142377019 0 -0.46500181196542117 -0.4162453527602773 0 -0.44993047217909993 -0.40766398234700429 0 -0.45445475995311579 -0.42405165678038981 0 -0.42830968813822212 -0.41836675359834258 0 -0.45445475995311579 -0.42405165678038981 0 -0.44993047217909993 -0.40766398234700429 0 -0.42830968813822212 -0.41836675359834258 0 -0.44993047217909993 -0.40766398234700429 0 -0.42830968813822212 -0.41836675359834258 0 -0.43540682028011379 -0.4014883965874117 0 -0.45445475995311579 -0.42405165678038981 0 -0.43412128247712511 -0.43092291519601339 0 -0.42830968813822212 -0.41836675359834258 0 -0.44490762157089409 -0.43803373942168428 0 -0.45445475995311579 -0.42405165678038981 0 -0.43412128247712511 -0.43092291519601339 0 -0.43412128247712511 -0.43092291519601339 0 -0.42830968813822212 -0.41836675359834258 0 -0.42186153726057513 -0.43931368006856342 0 -0.44490762157089409 -0.43803373942168428 0 -0.43412128247712511 -0.43092291519601339 0 -0.42186153726057513 -0.43931368006856342 0 -0.42830968813822212 -0.41836675359834258 0 -0.43540682028011379 -0.4014883965874117 0 -0.42257952576742902 -0.39991479547679881 0 -0.42830968813822212 -0.41836675359834258 0 -0.42257952576742902 -0.39991479547679881 0 -0.41062879341323588 -0.40407192614406412 0 -0.42830968813822212 -0.41836675359834258 0 -0.40216461632332828 -0.41268185041629551 0 -0.42830968813822212 -0.41836675359834258 0 -0.40966006165351032 -0.4277380569817204 0 -0.40216461632332828 -0.41268185041629551 0 -0.42830968813822212 -0.41836675359834258 0 -0.41062879341323588 -0.40407192614406412 0 -0.40216461632332828 -0.41268185041629551 0 -0.40966006165351032 -0.4277380569817204 0 -0.398815452950256 -0.44059362071544178 0 -0.42186153726057513 -0.43931368006856342 0 -0.42830968813822212 -0.41836675359834258 0 -0.40966006165351032 -0.4277380569817204 0 -0.42186153726057513 -0.43931368006856342 0 -0.42494203529593982 -0.37773215621368461 0 -0.43570823434457029 -0.38006766675896381 0 -0.43078344171664701 -0.39040788454800113 0 -0.42494203529593982 -0.37773215621368461 0 -0.43570823434457029 -0.38006766675896381 0 -0.43178566661779277 -0.36731449745362688 0 -0.44543097359917061 -0.39108856696691158 0 -0.43570823434457029 -0.38006766675896381 0 -0.43078344171664701 -0.39040788454800113 0 -0.42494203529593982 -0.37773215621368461 0 -0.43078344171664701 -0.39040788454800113 0 -0.42063319133074228 -0.39050543636140511 0 -0.43078344171664701 -0.39040788454800113 0 -0.43540682028011379 -0.4014883965874117 0 -0.42257952576742902 -0.39991479547679881 0 -0.43078344171664701 -0.39040788454800113 0 -0.42257952576742902 -0.39991479547679881 0 -0.42063319133074228 -0.39050543636140511 0 -0.44543097359917061 -0.39108856696691158 0 -0.430783441
[...]
<PointData Scalars="" Vectors="displacement," Tensors="">
<DataArray type="Float64" Name="displacement" NumberOfComponents="3" format="ascii">
0.054995339241780843 0.054997832275811794 0 0.05291513905808138 0.053311336411185704 0 0.05078557906110872 0.054657135150999916 0 0.054995339241780843 0.054997832275811794 0 0.05291513905808138 0.053311336411185704 0 0.054813161000682113 0.050685322562270561 0 0.054995339241780843 0.054997832275811794 0 0.054813161000682113 0.050685322562270561 0 0.054997811139692175 0.048111045729743181 0 0.054995339241780843 0.054997832275811794 0 0.05078557906110872 0.054657135150999916 0 0.045951402903121212 0.054994076128545615 0 0.05291513905808138 0.053311336411185704 0 0.052284823737241998 0.052916559910578267 0 0.051060935441572107 0.054055743403376835 0 0.05291513905808138 0.053311336411185704 0 0.054813161000682113 0.050685322562270561 0 0.052284823737241998 0.052916559910578267 0 0.054813161000682113 0.050685322562270561 0 0.052284823737241998 0.052916559910578267 0 0.051598565776945632 0.053483833264932758 0 0.052284823737241998 0.052916559910578267 0 0.051598565776945632 0.053483833264932758 0 0.050952768692035563 0.053778436295863707 0 0.051598565776945632 0.053483833264932758 0 0.050723607957922273 0.053839226423966817 0 0.05089766735953017 0.053930109493693458 0 0.054780279870970276 0.050686777873013837 0 0.054380435442838874 0.050803378456113435 0 0.054813161000682113 0.050685322562270561 0 0.054997811139692175 0.048111045729743181 0 0.056625711251232586 0.047724056134188432 0 0.054813161000682113 0.050685322562270561 0 0.051598565776945632 0.053483833264932758 0 0.052192316894402388 0.054185600865820825 0 0.050411634576110954 0.054218423713679416 0 0.050625428621646346 0.054146053759855504 0 0.050445968235098018 0.053932004966634861 0 0.048889621209737485 0.055003039111651733 0 0.049694705786045457 0.054759194152778072 0 0.050411634576110954 0.054218423713679416 0 0.050445968235098018 0.053932004966634861 0 0.050481270163449325 0.053937003676922134 0 0.050481270163449325 0.053937003676922134 0 0.050723607957922273 0.053839226423966817 0 0.050952768692035563 0.053778436295863707 0 0.051598565776945632 0.053483833264932758 0 0.050723607957922273 0.053839226423966817 0 0.050952768692035563 0.053778436295863707 0 0.050411634576110954 0.054218423713679416 0 0.050481270163449325 0.053937003676922134 0 0.050952768692035563 0.053778436295863707 0 0.050411634576110954 0.054218423713679416 0 0.050952768692035563 0.053778436295863707 0 0.051060935441572107 0.054055743403376835 0 0.052284823737241998 0.052916559910578267 0 0.050952768692035563 0.053778436295863707 0 0.051060935441572107 0.054055743403376835 0 0.050625428621646346 0.054146053759855504 0 0.050199660202502272 0.054605324374362822 0 0.048997316661423672 0.055263422578533415 0 0.050411634576110954 0.054218423713679416 0 0.050625428621646346 0.054146053759855504 0 0.050199660202502272 0.054605324374362822 0 0.050411634576110954 0.054218423713679416 0 0.051060935441572107 0.054055743403376835 0 0.050199660202502272 0.054605324374362822 0 0.050199660202502272 0.054605324374362822 0 0.05078557906110872 0.054657135150999916 0 0.048997316661423672 0.055263422578533415 0 0.05291513905808138 0.053311336411185704 0 0.051060935441572107 0.054055743403376835 0 0.05078557906110872 0.054657135150999916 0 0.051060935441572107 0.054055743403376835 0 0.050199660202502272 0.054605324374362822 0 0.05078557906110872 0.054657135150999916 0 0.05078557906110872 0.054657135150999916 0 0.045951402903121212 0.054994076128545615 0 0.048997316661423672 0.055263422578533415 0 0.045951402903121212 0.054994076128545615 0 0.046257746332634304 0.055397184179790809 0 0.048997316661423672 0.055263422578533415 0 0.045951402903121212 0.054994076128545615 0 0.046257746332634304 0.055397184179790809 0 0.045507176183100108 0.055248524237521093 0 0.046257746332634304 0.055397184179790809 0 0.048997316661423672 0.055263422578533415 0 0.046645212370069945 0.056485999736769196 0 0.046257746332634304 0.055397184179790809 0 0.045507176183100108 0.055248524237521093 0 0.046645212370069945 0.056485999736769196 0 0.04205757616453238 0.055471523311712657 0 0.043317913138029678 0.05499961678003136 0 0.040693249745385164 0.054999262216959312 0 0.04205757616453238 0.055471523311712657 0 0.040876578722883222 0.055820907109514505 0 0.040851313105488896 0.055476816791186809 0 0.04205757616453238 0.055471523311712657 0 0.040693249745385164 0.054999262216959312 0 0.040851313105488896 0.055476816791186809 0 0.04247467940545345 0.055392847497633568 0 0.043511546077050996 0.05483724046573904 0 0.045941815521043317 0.05500018116600449 0 0.043340952616804644 0.056611722109494944 0 0.043317913138029678 0.05499961678003136 0 0.045942027017507187 0.055000649927212951 0 0.043511546077050996 0.05483724046573904 0 0.04205757616453238 0.055471523311712657 0 0.043340952616804644 0.056611722109494944 0 0.043317913138029678 0.05499961678003136 0 0.043511546077050996 0.05483724046573904 0 0.045898337175087449 0.054858476428105742 0 0.043042368432869349 0.05178092230458687 0 0.043710910896514646 0.053484788509660638 0 0.04515653089893723 0.05334083770048783 0 0.043042368432869349 0.05178092230458687 0 0.042777963602355931 0.053392777079866394 0 0.043710910896514646 0.053484788509660638 0 0.043511546077050996 0.05483724046573904 0 0.041237559762031015 0.054289263402151469 0 0.04205757616453238 0.055471523311712657 0 0.042203291180647064 0.055699884397104507 0 0.040876578722883222 0.055820907109514505 0 0.043042368432869349 0.05178092230458687 0 0.041564447972940226 0.052919550836113841 0 0.042777963602355931 0.053392777079866394 0 0.041564447972940226 0.052919550836113841 0 0.041952597307396769 0.054229032528474226 0 0.042777963602355931 0.053392777079866394 0 0.041952597307396769 0.054229032528474226 0 0.043216181847602925 0.054143906825222361 0 0.042777963602355931 0.053392777079866394 0 0.043216181847602925 0.054143906825222361 0 0.042777963602355931 0.053392777079866394 0 0.043710910896514646 0.053484788509660638 0 0.043216181847602925 0.054143906825222361 0 0.043710910896514646 0.053484788509660638 0 0.044181860270215013 0.054288671595132697 0 0.04270890344922456 0.05480845091124395 0 0.044181860270215013 0.054288671595132697 0 0.043627920747946712 0.055354226714411724 0 0.043216181847602925 0.054143906825222361 0 0.04270890344922456 0.05480845091124395 0 0.044181860270215013 0.054288671595132697 0 0.041952597307396769 0.054229032528474226 0 0.04270890344922456 0.05480845091124395 0 0.041124172312375619 0.055004115626361504 0 0.04270890344922456 0.05480845091124395 0 0.041745403702494285 0.055383698916320646 0 0.041124172312375619 0.055004115626361504 0 0.041952597307396769 0.054229032528474226 0 0.043216181847602925 0.054143906825222361 0 0.04270890344922456 0.05480845091124395 0 0.049163582898086165 0.058704393768446002 0 0.048997316661423672 0.055263422578533415 0 0.046645212370069945 0.056485999736769196 0 0.048889621209737485 0.055003039111651733 0 0.045898337175087449 0.054858476428105742 0 0.04661224799353892 0.053382529418276321 0 0.045786068101038011 0.053523128986302008 0 0.04515653089893723 0.05334083770048783 0 0.048889621209737485 0.055003039111651733 0 0.049412768819817356 0.055836401904670624 0 0.045786068101038011 0.053523128986302008 0 0.04515653089893723 0.05334083770048783 0 0.044181860270215013 0.054288671595132697 0 0.043710910896514646 0.053484788509660638 0 0.04515653089893723 0.05334083770048783 0 0.044181860270215013 0.054288671595132697 0 0.04588532052339931 0.053489814659367779 0 0.045939719599174089 0.054185378806145199 0 0.045786068101038011 0.053523128986302008 0 0.044181860270215013 0.054288671595132697 0 0.044722631395986229 0.055906906480247522 0 0.044181860270215013 0.054288671595132697 0 0.044722631395986229 0.055906906480247522 0 0.043627920747946712 0.055354226714411724 0 0.045786068101038011 0.053523128986302008 0 0.046883261780581983 0.052960521435929782 0 0.047309506822111012 0.052661531867474326 0 0.04661224799353892 0.053382529418276321 0 0.045786068101038011 0.053523128986302008 0 0.046883261780581983 0.052960521435929782 0 0.046883261780581983 0.052960521435929782 0 0.047309506822111012 0.052661531867474326 0 0.047100146970980014 0.052422657619092934 0 0.04661224799353892 0.053382529418276321 0 0.046883261780581983 0.052960521435929782 0 0.047100146970980014 0.052422657619092934 0 0.044722631395986229 0.055906906480247522 0 0.043627920747946712 0.055354226714411724 0 0.043680930608273633 0.055978772065414475 0 0.044722631395986229 0.055906906480247522 0 0.043680930608273633 0.055978772065414475 0 0.044105789120562823 0.056389540828434649 0 0.045939719599174089 0.054185378806145199 0 0.045560987596696072 0.054274345843628058 0 0.047309506822111012 0.052661531867474326 0 0.047447733585825991 0.052285474106505088 0 0.047043416479987277 0.052239254185724456 0 0.044722631395986229 0.055906906480247522 0 0.044105789120562823 0.056389540828434649 0 0.043967833907632585 0.056243110326603875 0 0.047447733585825991 0.052285474106505088 0 0.048712862819884878 0.05260543187804486 0 0.047100146970980014 0.052422657619092934 0 0.047309506822111012 0.052661531867474326 0 0.047447733585825991 0.052285474106505088 0 0.047100146970980014 0.052422657619092934 0 0.041540668173986529 0.055852802762140982 0 0.041745403702494285 0.055383698916320646 0 0.042748876542677262 0.055564975580716124 0 0.041540668173986529 0.055852802762140982 0 0.041745403702494285 0.055383698916320646 0 0.040709285597349903 0.055630692916718176 0 0.04270890344922456 0.05480845091124395 0 0.041745403702494285 0.055383698916320646 0 0.042748876542677262 0.055564975580716124 0 0.041540668173986529 0.055852802762140982 0 0.042748876542677262 0.055564975580716124 0 0.042905159994127057 0.055981149356804864 0 0.042748876542677262 0.055564975580716124 0 0.043627920747946712 0.055354226714411724 0 0.043680930608273633 0.055978772065414475 0 0.042748876542677262 0.055564975580716124 0 0.043680930608273633 0.055978772065414475 0 0.042905159994127057 0.055981149356804864 0 0.04270890344922456 0.05480845091124395 0 0.042748876542677262 0.055564975580716124 0 0.043627920747946712 0.055354226714411724 0 0.043680930608273633 0.055978772065414475 0 0.044105789120562823 0.056389540828434649 0 0.04364484015477578 0.056352775175475822 0 0.04364484015477578 0.056352775175475822 0 0.04283318447053977 0.056896731774462792 0 0.044646013240424505 0.056383173029989922 0 0.044105789120562823 0.056389540828434649 0 0.04364484015477578 0.056352775175475822 0 0.044646013240424505 0.056383173029989922 0 0.043680930608273633 0.055978772065414475 0 0.04364484015477578 0.056352775175475822 0 0.042905159994127057 0.055981149356804864 0 0.042081892503619357 0.056355045388716891 0 0.041628999748419403 0.056899167835598188 0 0.039899438755089889 0.056542003299942807 0 0.04364484015477578 0.056352775175475822 0 0.042905159994127057 0.055981149356804864 0 0.042081892503619357 0.056355045388716891 0 0.041540668173986529 0.055852802762140982 0 0.042905159994127057 0.055981149356804864 0 0.042081892503619357 0.056355045388716891 0 0.040977947502030716 0.056639499092399244 0 0.039248678837672191 0.05375459245856843 0 0.04364484015477578 0.056352775175475822 0 0.042081892503619357 0.056355045388716891 0 0.04283318447053977 0.056896731774462792 0 0.039248678837672191 0.05375459245856843 0 0.037656844423403182 0.050182591220061419 0 0.030431793083798415 0.050632274954308581 0 0.029078205179138471 0.0467297386244621 0 0.03245837326671535 0.048590801256551318 0 0.039248678837672191 0.05375459245856843 0 0.045352928325268826 0.056213147506644634 0 0.045981494508043202 0.056496473537671565 0 0.044646013240424505 0.056383173029989922 0 0.045450350835501072 0.054816443819952057 0 0.044105789120562823 0.056389540828434649 0 0.044646013240424505 0.056383173029989922 0 0.044747745402814627 0.055650027353175403 0 0.044646013240424505 0.056383173029989922 0 0.044747745402814627 0.055650027353175403 0 0.045450350835501072 0.054816443819952057 0 0.045450350835501072 0.054816443819952057 0 0.046478561122331709 0.05378867829083446 0 0.0457049913983947 0.053495429049289299 0 0.044747745402814627 0.055650027353175403 0 0.045450350835501072 0.054816443819952057 0 0.0457049913983947 0.053495429049289299 0 0.045981494508043202 0.056496473537671565 0 0.045450350835501072 0.054816443819952057 0 0.046478561122331709 0.05378867829083446 0 0.047447733585825991 0.052285474106505088 0 0.047353527846725633 0.052716972942476396 0 0.048712862819884878 0.05260543187804486 0 0.047447733585825991 0.052285474106505088 0 0.047043416479987277 0.052239254185724456 0 0.047353527846725633 0.052716972942476396 0 0.044747745402814627 0.055650027353175403 0 0.043967833907632585 0.056243110326603875 0 0.0457049913983947 0.053495429049289299 0 0.044105789120562823 0.056389540828434649 0 0.044747745402814627 0.055650027353175403 0 0.043967833907632585 0.056243110326603875 0 0.0457049913983947 0.053495429049289299 0 0.047353527846725633 0.052716972942476396 0 0.046654102959132415 0.053280588169094555 0 0.045560987596696072 0.054274345843628058 0 0.045647713190010181 0.053660096936727193 0 0.047043416479987277 0.052239254185724456 0 0.0457049913983947 0.053495429049289299 0 0.047353527846725633 0.052716972942476396 0 0.047353527846725633 0.052716972942476396 0 0.048436348295597793 0.052603882540517573 0 0.048712862819884878 0.05260543187804486 0 0.047353527846725633 0.052716972942476396 0 0.047338135258323706 0.053356871756755533 0 0.046654102959132415 0.053280588169094555 0 0.047353527846725633 0.052716972942476396 0 0.048436348295597793 0.052603882540517573 0 0.047338135258323706 0.053356871756755533 0 0.048436348295597793 0.052603882540517573 0 0.049119411393591578 0.052564251713502361 0 0.048712862819884878 0.05260543187804486 0 0.049119411393591578 0.052564251713502361 0 0.04914568046153929 0.052867219909186948 0 0.049488178764204298 0.051814811401484466 0 0.048436348295597793 0.052603882540517573 0 0.049119411393591578 0.052564251713502361 0 0.049488178764204298 0.051814811401484466 0 0.049119411393591578 0.052564251713502361 0 0.04920195369398684 0.052830826264434402 0 0.048712862819884878 0.05260543187804486 0 0.04920195369398684 0.052830826264434402 0 0.048712862819884878 0.05260543187804486 0 0.049634476110011379 0.053209501796641953 0 0.052643015163594549 0.048125180776661405 0 0.053829736858343094 0.049327274035777323 0 0.04914568046153929 0.052867219909186948 0 0.050209375841580473 0.053703116565703944 0 0.049634476110011379 0.053209501796641953 0 0.04920195369398684 0.052830826264434402 0 0.04914568046153929 0.052867219909186948 0 0.049634476110011379 0.053209501796641953 0 0.049119411393591578 0.052564251713502361 0 0.04920195369398684 0.052830826264434402 0 0.04914568046153929 0.052867219909186948 0 0.056351300659910293 0.042696776051417126 0 0.057396955020945134 0.044168558970689394 0 0.056986813528549465 0.04364598245935173 0 0.057151776881566266 0.044356719132516972 0 0.054014618054893375 0.047646641187483962 0 0.052643015163594549 0.048125180776661405 0 0.049812496327405344 0.051592752654971673 0 0.057396955020945134 0.044168558970689394 0 0.056831635146926129 0.042217675504700819 0 0.057633641600229442 0.041493158799464983 0 0.056351300659910293 0.042696776051417126 0 0.057396955020945134 0.044168558970689394 0 0.049488178764204298 0.051814811401484466 0 0.057396955020945134 0.044168558970689394 0 0.056831635146926129 0.042217675504700819 0 0.056546707698757748 0.042916747951333503 0 0.056831635146926129 0.042217675504700819 0 0.056546707698757748 0.042916747951333503 0 0.056127598630688676 0.041493132846004782 0 0.057396955020945134 0.044168558970689394 0 0.056546707698757748 0.042916747951333503 0 0.056986813528549465 0.04364598245935173 0 0.056546707698757748 0.042916747951333503 0 0.055000162501515418 0.04309633900274517 0 0.056127598630688676 0.041493132846004782 0 0.056546707698757748 0.042916747951333503 0 0.055000162501515418 0.04309633900274517 0 0.056986813528549465 0.04364598245935173 0 0.055000162501515418 0.04309633900274517 0 0.056986813528549465 0.04364598245935173 0 0.057473426254377256 0.04511429357501754 0 0.056351300659910293 0.042696776051417126 0 0.056986813528549465 0.04364598245935173 0 0.057473426254377256 0.04511429357501754 0 0.055000162501515418 0.04309633900274517 0 0.057473426254377256 0.04511429357501754 0 0.054997811139692175 0.048111045729743181 0 0.057473426254377256 0.04511429357501754 0 0.054997811139692175 0.048111045729743181 0 0.056625711251232586 0.047724056134188432 0 0.050209375841580473 0.053703116565703944 0 0.052192316894402388 0.054185600865820825 0 0.05089766735953017 0.053930109493693458 0 0.053829736858343094 0.049327274035777323 0 0.054380435442838874 0.050803378456113435 0 0.051598565776945632 0.053483833264932758 0 0.052192316894402388 0.054185600865820825 0 0.05089766735953017 0.053930109493693458 0 0.050723607957922273 0.053839226423966817 0 0.05089766735953017 0.053930109493693458 0 0.050238219367747902 0.053759274069193869 0 0.050209375841580473 0.053703116565703944 0 0.05089766735953017 0.053930109493693458 0 0.050238219367747902 0.053759274069193869 0 0.050481270163449325 0.053937003676922134 0 0.050723607957922273 0.053839226423966817 0 0.050238219367747902 0.053759274069193869 0 0.050445968235098018 0.053932004966634861 0 0.050238219367747902 0.053759274069193869 0 0.05017448420489011 0.053530837675690925 0 0.048889621209737485 0.055003039111651733 0 0.048614630033140142 0.052813254456948629 0 0.050601679636460617 0.05403659371981482 0 0.050445968235098018 0.053932004966634861 0 0.05017448420489011 0.053530837675690925 0 0.050445968235098018 0.053932004966634861 0 0.050481270163449325 0.053937003676922134 0 0.050238219367747902 0.053759274069193869 0 0.048712862819884878 0.05260543187804486 0 0.05017448420489011 0.053530837675690925 0 0.049634476110011379 0.053209501796641953 0 0.048711769092756055 0.052924405382258261 0 0.048614630033140142 0.052813254456948629 0 0.050238219367747902 0.053759274069193869 0 0.05017448420489011 0.053530837675690925 0 0.049634476110011379 0.053209501796641953 0 0.050209375841580473 0.053703116565703944 0 0.050238219367747902 0.053759274069193869 0 0.049634476110011379 0.053209501796641953 0 0.02857835476600876 0.05930860911510271 0 0.027407079603761791 0.060229036114164088 0 0.026504034261505223 0.059087888431033207 0 0.027407079603761791 0.060229036114164088 0 0.026358989380839686 0.05994645040349706 0 0.026504034261505223 0.059087888431033207 0 0.02857835476600876 0.05930860911510271 0 0.03009575425597778 0.05881484250541559 0 0.030209966902804031 0.059961882384218422 0 0.02857835476600876 0.05930860911510271 0 0.029197367022593856 0.060898106681170627 0 0.027407079603761791 0.060229036114164088 0 0.02857835476600876 0.05930860911510271 0 0.030209966902804031 0.059961882384218422 0 0.029197367022593856 0.060898106681170627 0 0.028872083713013627 0.058127701363737495 0 0.02762329299340675 0.058181667437190832 0 0.028227977538172213 0.056775953309462508 0 0.02857835476600876 0.05930860911510271 0 0.028872083713013627 0.058127701363737495 0 0.02762329299340675 0.058181667437190832 0 0.02857835476600876 0.05930860911510271 0 0.028872083713013627 0.058127701363737495 0 0.03009575425597778 0.05881484250541559 0 0.028872083713013627 0.058127701363737495 0 0.030126160283213986 0.05763959547071397 0 0.03009575425597778 0.05881484250541559 0 0.02857835476600876 0.05930860911510271 0 0.02762329299340675 0.058181667437190832 0 0.026504034261505223 0.059087888431033207 0 0.028655305972954945 0.057031848751900163 0 0.026365836056541841 0.057612273333977927 0 0.02762329299340675 0.058181667437190832 0 0.028227977538172213 0.056775953309462508 0 0.026160976405403363 0.057642349934559522 0 0.027502779546945376 0.056124622666011724 0 0.02913026883284104 0.057296608831325244 0 0.026160976405403363 0.057642349934559522 0 0.029142583619298564 0.0549997950544956 0 0.027502779546945376 0.05612