<?xml version="1.0"?>
<VTKFile type="UnstructuredGrid" version="0.1" byte_order="LittleEndian">
<UnstructuredGrid>
<Piece NumberOfPoints="30881" NumberOfCells="10862">
<Points>
<DataArray type="Float64" NumberOfComponents="3" format="ascii">
-0.49999999999999828 -0.48677703703187492 0 -0.5 -0.5 0 -0.48129281494584059 -0.49338851851593718 0 -0.5 -0.5 0 -0.48129281494584059 -0.49338851851593718 0 -0.46258562989168328 -0.5 0 -0.49999999999999828 -0.48677703703187492 0 -0.48129281494584059 -0.49338851851593718 0 -0.49999999999999828 -0.48677703703187492 0 -0.4824545428279598 -0.47451624516148783 0 -0.48129281494584059 -0.49338851851593718 0 -0.49999999999999828 -0.48677703703187492 0 -0.4824545428279598 -0.47451624516148783 0 -0.5 -0.46599539173150673 0 -0.4824545428279598 -0.47451624516148783 0 -0.46853075243710779 -0.48354990242643758 0 -0.46411508256092049 -0.46598235294430129 0 -0.4824545428279598 -0.47451624516148783 0 -0.48129281494584059 -0.49338851851593718 0 -0.46853075243710779 -0.48354990242643758 0 -0.48129281494584059 -0.49338851851593718 0 -0.46258562989168328 -0.5 0 -0.48129281494584059 -0.49338851851593718 0 -0.46258562989168328 -0.5 0 -0.46853075243710779 -0.48354990242643758 0 -0.46258562989168328 -0.5 0 -0.46853075243710779 -0.48354990242643758 0 -0.45147378687733691 -0.48362213557840178 0 -0.46853075243710779 -0.48354990242643758 0 -0.45147378687733691 -0.48362213557840178 0 -0.46411508256092049 -0.46598235294430129 0 -0.4457251648104853 -0.47020164095208389 0 -0.45147378687733691 -0.48362213557840178 0 -0.46411508256092049 -0.46598235294430129 0 -0.4457251648104853 -0.47020164095208389 0 -0.45147378687733691 -0.48362213557840178 0 -0.43513446131126993 -0.48199891714758791 0 -0.45147378687733691 -0.48362213557840178 0 -0.43275163025255442 -0.5 0 -0.43513446131126993 -0.48199891714758791 0 -0.46258562989168328 -0.5 0 -0.45147378687733691 -0.48362213557840178 0 -0.43275163025255442 -0.5 0 -0.4467190029717853 -0.45478934699519452 0 -0.4422915115958943 -0.43555510214664611 0 -0.43246707723660932 -0.44794326854796312 0 -0.4457251648104853 -0.47020164095208389 0 -0.4467190029717853 -0.45478934699519452 0 -0.46411508256092049 -0.46598235294430129 0 -0.4457251648104853 -0.47020164095208389 0 -0.4467190029717853 -0.45478934699519452 0 -0.43016578207734568 -0.46313500011938619 0 -0.4467190029717853 -0.45478934699519452 0 -0.46411508256092049 -0.46598235294430129 0 -0.47114575579794699 -0.4403844242888923 0 -0.4467190029717853 -0.45478934699519452 0 -0.47114575579794699 -0.4403844242888923 0 -0.4422915115958943 -0.43555510214664611 0 -0.47114575579794699 -0.4403844242888923 0 -0.4422915115958943 -0.43555510214664611 0 -0.46411508256092049 -0.46598235294430129 0 -0.47114575579794699 -0.4403844242888923 0 -0.48354307623736548 -0.45841843211146538 0 -0.4824545428279598 -0.47451624516148783 0 -0.46411508256092049 -0.46598235294430129 0 -0.48354307623736548 -0.45841843211146538 0 -0.4824545428279598 -0.47451624516148783 0 -0.48354307623736548 -0.45841843211146538 0 -0.5 -0.46599539173150673 0 -0.48354307623736548 -0.45841843211146538 0 -0.5 -0.46599539173150673 0 -0.49999999999999972 -0.44521374643113848 0 -0.47114575579794699 -0.4403844242888923 0 -0.49999999999999972 -0.44521374643113848 0 -0.47114575579794699 -0.4403844242888923 0 -0.49999999999999972 -0.44521374643113848 0 -0.48704432221743971 -0.42935617662229603 0 -0.47114575579794699 -0.4403844242888923 0 -0.48354307623736548 -0.45841843211146538 0 -0.49999999999999972 -0.44521374643113848 0 -0.49999999999999972 -0.44521374643113848 0 -0.48704432221743971 -0.42935617662229603 0 -0.5 -0.41591957503128979 0 -0.48704432221743971 -0.42935617662229603 0 -0.5 -0.41591957503128979 0 -0.47703153307181151 -0.41590696073786332 0 -0.5 -0.41591957503128979 0 -0.47703153307181151 -0.41590696073786332 0 -0.48817838912021821 -0.4022119694541284 0 -0.47114575579794699 -0.4403844242888923 0 -0.48704432221743971 -0.42935617662229603 0 -0.47703153307181151 -0.41590696073786332 0 -0.5 -0.38662540363144121 0 -0.47568202340906118 -0.39039593841591919 0 -0.4947615751445838 -0.37332156409002909 0 -0.47568202340906118 -0.39039593841591919 0 -0.4947615751445838 -0.37332156409002909 0 -0.5 -0.38662540363144121 0 -0.48817838912021821 -0.4022119694541284 0 -0.47568202340906118 -0.39039593841591919 0 -0.5 -0.41591957503128979 0 -0.5 -0.38662540363144121 0 -0.48817838912021821 -0.4022119694541284 0 -0.47703153307181151 -0.41590696073786332 0 -0.48817838912021821 -0.4022119694541284 0 -0.47568202340906118 -0.39039593841591919 0 -0.47703153307181151 -0.41590696073786332 0 -0.47568202340906118 -0.39039593841591919 0 -0.45660247167353862 -0.40747031274180939 0 -0.47568202340906118 -0.39039593841591919 0 -0.48030931097003587 -0.37191064435083931 0 -0.46669490250066459 -0.37481721741951951 0 -0.47568202340906118 -0.39039593841591919 0 -0.4947615751445838 -0.37332156409002909 0 -0.48030931097003587 -0.37191064435083931 0 -0.45332061783919553 -0.38729481725706361 0 -0.46669490250066459 -0.37481721741951951 0 -0.45095991715087752 -0.36968037302039969 0 -0.47568202340906118 -0.39039593841591919 0 -0.45332061783919553 -0.38729481725706361 0 -0.46669490250066459 -0.37481721741951951 0 -0.47568202340906118 -0.39039593841591919 0 -0.45660247167353862 -0.40747031274180939 0 -0.47568202340906118 -0.39039593841591919 0 -0.45332061783919553 -0.38729481725706361 0 -0.45660247167353862 -0.40747031274180939 0 -0.44332653075004852 -0.401690115615219 0 -0.44646247228389868 -0.41654464256061052 0 -0.42870657106664078 -0.39987574649354879 0 -0.45332061783919553 -0.38729481725706361 0 -0.44332653075004852 -0.401690115615219 0 -0.43479631603355468 -0.39077639303142497 0 -0.45332061783919553 -0.38729481725706361 0 -0.44332653075004852 -0.401690115615219 0 -0.45660247167353862 -0.40747031274180939 0 -0.45332061783919553 -0.38729481725706361 0 -0.43421362475025049 -0.37527491429266319 0 -0.43479631603355468 -0.39077639303142497 0 -0.45332061783919553 -0.38729481725706361 0 -0.43421362475025049 -0.37527491429266319 0 -0.45095991715087752 -0.36968037302039969 0 -0.47114575579794699 -0.4403844242888923 0 -0.45663439814062529 -0.42533932462455271 0 -0.4422915115958943 -0.43555510214664611 0 -0.47114575579794699 -0.4403844242888923 0 -0.47703153307181151 -0.41590696073786332 0 -0.45663439814062529 -0.42533932462455271 0 -0.45663439814062529 -0.42533932462455271 0 -0.45660247167353862 -0.40747031274180939 0 -0.44646247228389868 -0.41654464256061052 0 -0.47703153307181151 -0.41590696073786332 0 -0.45663439814062529 -0.42533932462455271 0 -0.45660247167353862 -0.40747031274180939 0 -0.44332653075004852 -0.401690115615219 0 -0.45660247167353862 -0.40747031274180939 0 -0.44646247228389868 -0.41654464256061052 0 -0.45660247167353862 -0.40747031274180939 0 -0.44646247228389868 -0.41654464256061052 0 -0.44646247228389868 -0.41654464256061052 0 -0.4375229199380159 -0.42454468706769971 0 -0.45663439814062529 -0.42533932462455271 0 -0.4375229199380159 -0.42454468706769971 0 -0.4422915115958943 -0.43555510214664611 0 -0.45663439814062529 -0.42533932462455271 0 -0.44646247228389868 -0.41654464256061052 0 -0.4375229199380159 -0.42454468706769971 0 -0.4375229199380159 -0.42454468706769971 0 -0.4422915115958943 -0.43555510214664611 0 -0.43077617074680319 -0.43406335077952207 0 -0.43077617074680319 -0.43406335077952207 0 -0.42550232634077589 -0.42345940056268039 0 -0.41950844772475421 -0.43888456563633732 0 -0.4375229199380159 -0.42454468706769971 0 -0.43077617074680319 -0.43406335077952207 0 -0.42550232634077589 -0.42345940056268039 0 -0.44646247228389868 -0.41654464256061052 0 -0.41657232816672918 -0.41306671883907142 0 -0.42870657106664078 -0.39987574649354879 0 -0.44646247228389868 -0.41654464256061052 0 -0.4375229199380159 -0.42454468706769971 0 -0.42550232634077589 -0.42345940056268039 0 -0.44646247228389868 -0.41654464256061052 0 -0.42550232634077589 -0.42345940056268039 0 -0.41657232816672918 -0.41306671883907142 0 -0.44646247228389868 -0.41654464256061052 0 -0.41657232816672918 -0.41306671883907142 0 -0.42550232634077589 -0.42345940056268039 0 -0.41657232816672918 -0.41306671883907142 0 -0.41333489101611293 -0.42699700567040988 0 -0.41657232816672918 -0.41306671883907142 0 -0.41333489101611293 -0.42699700567040988 0 -0.39893236021425188 -0.42931692235905211 0 -0.41333489101611293 -0.42699700567040988 0 -0.39893236021425188 -0.42931692235905211 0 -0.41950844772475421 -0.43888456563633732 0 -0.42550232634077589 -0.42345940056268039 0 -0.41333489101611293 -0.42699700567040988 0 -0.41950844772475421 -0.43888456563633732 0 -0.43421362475025049 -0.37527491429266319 0 -0.42478231784314502 -0.38643128255249681 0 -0.41656514696884139 -0.37636588688318029 0 -0.43421362475025049 -0.37527491429266319 0 -0.42478231784314502 -0.38643128255249681 0 -0.43479631603355468 -0.39077639303142497 0 -0.42478231784314502 -0.38643128255249681 0 -0.43479631603355468 -0.39077639303142497 0 -0.42870657106664078 -0.39987574649354879 0 -0.44332653075004852 -0.401690115615219 0 -0.43479631603355468 -0.39077639303142497 0 -0.42870657106664078 -0.39987574649354879 0 -0.41657232816672918 -0.41306671883907142 0 -0.40962993039643741 -0.3898634720616666 0 -0.3946356370269814 -0.39577424904278191 0 -0.42478231784314502 -0.38643128255249681 0 -0.42870657106664078 -0.39987574649354879 0 -0.40962993039643741 -0.3898634720616666 0 -0.41657232816672918 -0.41306671883907142 0 -0.42870657106664078 -0.39987574649354879 0 -0.40962993039643741 -0.3898634720616666 0 -0.42478231784314502 -0.38643128255249681 0 -0.40962993039643741 -0.3898634720616666 0 -0.41656514696884139 -0.37636588688318029 0 -0.40962993039643741 -0.3898634720616666 0 -0.41656514696884139 -0.37636588688318029 0 -0.40465459864295228 -0.37650109000307358 0 -0.39431275766669582 -0.38061373190328529 0 -0.40465459864295228 -0.37650109000307358 0 -0.3968495855878465 -0.36923685638487008 0 -0.40962993039643741 -0.3898634720616666 0 -0.39431275766669582 -0.38061373190328529 0 -0.40465459864295228 -0.376501090003
[...]
<PointData Scalars="" Vectors="displacement," Tensors="">
<DataArray type="Float64" Name="displacement" NumberOfComponents="3" format="ascii">
-0.054999670283763298 1.5186461045070894e-07 0 -0.054998911089940899 -3.0679781356201327e-07 0 -0.053353566897134677 5.1558951566137426e-08 0 -0.054998911089940899 -3.0679781356201327e-07 0 -0.053353566897134677 5.1558951566137426e-08 0 -0.050886923609620431 4.6078556020789749e-07 0 -0.054995134116304044 -7.9439380064742574e-07 0 -0.052974890508170544 -7.3618888166936114e-05 0 -0.054996867787523607 -9.615139225242428e-07 0 -0.053644671011424387 -0.00039504941983916085 0 -0.0528364486158268 -0.00046743844392077279 0 -0.054996867787523607 -9.615139225242428e-07 0 -0.053644671011424387 -0.00039504941983916085 0 -0.054999186704508159 -7.0179688557756178e-08 0 -0.053644671011424387 -0.00039504941983916085 0 -0.052246862400001939 -0.00033297209539687184 0 -0.052696319558224562 -0.00045491889098223001 0 -0.053644671011424387 -0.00039504941983916085 0 -0.0528364486158268 -0.00046743844392077279 0 -0.052246862400001939 -0.00033297209539687184 0 -0.052974890508170544 -7.3618888166936114e-05 0 -0.050889430663125949 5.2400118398190001e-07 0 -0.0528364486158268 -0.00046743844392077279 0 -0.050883691616347995 -1.7572315602964707e-06 0 -0.052246862400001939 -0.00033297209539687184 0 -0.050883691616347995 -1.7572315602964707e-06 0 -0.052246862400001939 -0.00033297209539687184 0 -0.05089747386677497 -0.00029594073946238224 0 -0.052246862400001939 -0.00033297209539687184 0 -0.05089747386677497 -0.00029594073946238224 0 -0.052696319558224562 -0.00045491889098223001 0 -0.051424762387549103 -0.00025078330122791547 0 -0.05089747386677497 -0.00029594073946238224 0 -0.052696319558224562 -0.00045491889098223001 0 -0.051424762387549103 -0.00025078330122791547 0 -0.05089747386677497 -0.00029594073946238224 0 -0.049863761832227967 -0.00010199704918564741 0 -0.05089747386677497 -0.00029594073946238224 0 -0.047605315771694974 -3.6919745148780661e-07 0 -0.049863761832227967 -0.00010199704918564741 0 -0.050883691616347995 -1.7572315602964707e-06 0 -0.05089747386677497 -0.00029594073946238224 0 -0.047605315771694974 -3.6919745148780661e-07 0 -0.05232118935577762 -0.00022034277718680287 0 -0.053079119400595662 3.6112255761325112e-05 0 -0.052266489945110579 0.00020910880620631959 0 -0.051424762387549103 -0.00025078330122791547 0 -0.05232118935577762 -0.00022034277718680287 0 -0.052696319558224562 -0.00045491889098223001 0 -0.051424762387549103 -0.00025078330122791547 0 -0.05232118935577762 -0.00022034277718680287 0 -0.051327747766699801 0.00016130829068403295 0 -0.05232118935577762 -0.00022034277718680287 0 -0.052696319558224562 -0.00045491889098223001 0 -0.053394831682865296 -0.00053500935634631002 0 -0.05232118935577762 -0.00022034277718680287 0 -0.053394831682865296 -0.00053500935634631002 0 -0.053079119400595662 3.6112255761325112e-05 0 -0.054355772380103681 -0.00020401292015275198 0 -0.054093877086166024 -5.7518421644209172e-05 0 -0.052696319558224562 -0.00045491889098223001 0 -0.053394831682865296 -0.00053500935634631002 0 -0.053971829719204757 -0.00033240207247396149 0 -0.053644671011424387 -0.00039504941983916085 0 -0.052696319558224562 -0.00045491889098223001 0 -0.053971829719204757 -0.00033240207247396149 0 -0.053644671011424387 -0.00039504941983916085 0 -0.053971829719204757 -0.00033240207247396149 0 -0.054999186704508159 -7.0179688557756178e-08 0 -0.053971829719204757 -0.00033240207247396149 0 -0.054999186704508159 -7.0179688557756178e-08 0 -0.054997676028556944 -4.5893328199459401e-07 0 -0.054355772380103681 -0.00020401292015275198 0 -0.05499880862196007 -3.7640408097961164e-07 0 -0.054375593331434428 -0.00013143021313299948 0 -0.054999606600691496 -5.6078613157316757e-08 0 -0.05473939212909118 -7.1294464379045267e-05 0 -0.053394831682865296 -0.00053500935634631002 0 -0.053971829719204757 -0.00033240207247396149 0 -0.054997676028556944 -4.5893328199459401e-07 0 -0.054999606600691496 -5.6078613157316757e-08 0 -0.05473939212909118 -7.1294464379045267e-05 0 -0.054999499345376998 -1.3831088794625631e-07 0 -0.05473939212909118 -7.1294464379045267e-05 0 -0.054999499345376998 -1.3831088794625631e-07 0 -0.054580509335670789 -0.00012127699350409228 0 -0.054999499345376998 -1.3831088794625631e-07 0 -0.054580509335670789 -0.00012127699350409228 0 -0.054866250293283646 -8.1608350288744525e-05 0 -0.054375593331434428 -0.00013143021313299948 0 -0.05473939212909118 -7.1294464379045267e-05 0 -0.054580509335670789 -0.00012127699350409228 0 -0.054999526440935476 -1.0925999166974378e-07 0 -0.054871464410676439 -9.3171412665541759e-05 0 -0.05478651417793981 -7.2031692787536609e-05 0 -0.053781693011732697 0.0002904450549503203 0 -0.054007184485653427 0.00014660961952752126 0 -0.054999526440935476 -1.0925999166974378e-07 0 -0.054866250293283646 -8.1608350288744525e-05 0 -0.054871464410676439 -9.3171412665541759e-05 0 -0.054999499345376998 -1.3831088794625631e-07 0 -0.054999526440935476 -1.0925999166974378e-07 0 -0.054866250293283646 -8.1608350288744525e-05 0 -0.054580509335670789 -0.00012127699350409228 0 -0.054866250293283646 -8.1608350288744525e-05 0 -0.054871464410676439 -9.3171412665541759e-05 0 -0.054580509335670789 -0.00012127699350409228 0 -0.054871464410676439 -9.3171412665541759e-05 0 -0.054449401782992339 2.2816334612919266e-06 0 -0.052960868412454377 0.00023898264711505539 0 -0.054191790074356233 0.00017329108970796074 0 -0.053648004244613995 0.00062036500723587791 0 -0.052960868412454377 0.00023898264711505539 0 -0.05478651417793981 -7.2031692787536609e-05 0 -0.054191790074356233 0.00017329108970796074 0 -0.052771174644941465 0.0012373172243428608 0 -0.053648004244613995 0.00062036500723587791 0 -0.053420007106321624 0.0011798169187449657 0 -0.052960868412454377 0.00023898264711505539 0 -0.052771174644941465 0.0012373172243428608 0 -0.053648004244613995 0.00062036500723587791 0 -0.053781693011732697 0.0002904450549503203 0 -0.05337158085111627 0.00063122944382508483 0 -0.052960868412454377 0.00023898264711505539 0 -0.052771174644941465 0.0012373172243428608 0 -0.051904443086422593 0.0011429934258691877 0 -0.052081840085136215 0.0016831539143320805 0 -0.051624829264124407 0.0016062652308605754 0 -0.052091495195957932 0.0021508408458336655 0 -0.052771174644941465 0.0012373172243428608 0 -0.052081840085136215 0.0016831539143320805 0 -0.052320519210935647 0.0019608636210196439 0 -0.052771174644941465 0.0012373172243428608 0 -0.052081840085136215 0.0016831539143320805 0 -0.051904443086422593 0.0011429934258691877 0 -0.052771174644941465 0.0012373172243428608 0 -0.052726286475876842 0.0019351020771882707 0 -0.052320519210935647 0.0019608636210196439 0 -0.052771174644941465 0.0012373172243428608 0 -0.052726286475876842 0.0019351020771882707 0 -0.053420007106321624 0.0011798169187449657 0 -0.054375593331434428 -0.00013143021313299948 0 -0.053955798535119698 -8.4837814087023299e-05 0 -0.053079119400595662 3.6112255761325112e-05 0 -0.054375593331434428 -0.00013143021313299948 0 -0.054580509335670789 -0.00012127699350409228 0 -0.053955798535119698 -8.4837814087023299e-05 0 -0.053955798535119698 -8.4837814087023299e-05 0 -0.054449401782992339 2.2816334612919266e-06 0 -0.054007708702621574 0.00013315975775507835 0 -0.054580509335670789 -0.00012127699350409228 0 -0.053955798535119698 -8.4837814087023299e-05 0 -0.054449401782992339 2.2816334612919266e-06 0 -0.052081840085136215 0.0016831539143320805 0 -0.051904443086422593 0.0011429934258691877 0 -0.051624829264124407 0.0016062652308605754 0 -0.05337158085111627 0.00063122944382508483 0 -0.053159303943934921 0.00085756960108342173 0 -0.053159303943934921 0.00085756960108342173 0 -0.053269507785574759 0.00071458011960300028 0 -0.053955798535119698 -8.4837814087023299e-05 0 -0.05327298817310494 0.00025734597971288392 0 -0.053079119400595662 3.6112255761325112e-05 0 -0.053955798535119698 -8.4837814087023299e-05 0 -0.054007708702621574 0.00013315975775507835 0 -0.05327298817310494 0.00025734597971288392 0 -0.05327298817310494 0.00025734597971288392 0 -0.053079119400595662 3.6112255761325112e-05 0 -0.052820195361777983 0.00034331446360040318 0 -0.052820195361777983 0.00034331446360040318 0 -0.053011486418086805 0.00049619620518000739 0 -0.052388044154318122 0.00063271659854766192 0 -0.05327298817310494 0.00025734597971288392 0 -0.052820195361777983 0.00034331446360040318 0 -0.053011486418086805 0.00049619620518000739 0 -0.051624829264124407 0.0016062652308605754 0 -0.051953400297192552 0.0023959403904598928 0 -0.052091495195957932 0.0021508408458336655 0 -0.053421682207086332 8.5891089029697305e-05 0 -0.05327298817310494 0.00025734597971288392 0 -0.053011486418086805 0.00049619620518000739 0 -0.053421682207086332 8.5891089029697305e-05 0 -0.053011486418086805 0.00049619620518000739 0 -0.053043138824245058 0.00072370065755925496 0 -0.053159303943934921 0.00085756960108342173 0 -0.052733324371709599 0.0012355936220412415 0 -0.053011486418086805 0.00049619620518000739 0 -0.053043138824245058 0.00072370065755925496 0 -0.052671381641118002 0.00082013732190715748 0 -0.053043138824245058 0.00072370065755925496 0 -0.052671381641118002 0.00082013732190715748 0 -0.052392157448261298 0.0012233692865685241 0 -0.052671381641118002 0.00082013732190715748 0 -0.052392157448261298 0.0012233692865685241 0 -0.052388044154318122 0.00063271659854766192 0 -0.053011486418086805 0.00049619620518000739 0 -0.052671381641118002 0.00082013732190715748 0 -0.052388044154318122 0.00063271659854766192 0 -0.052726286475876842 0.0019351020771882707 0 -0.052222115079770176 0.0022576068783136797 0 -0.052141430817358385 0.0025248277349431783 0 -0.052726286475876842 0.0019351020771882707 0 -0.052222115079770176 0.0022576068783136797 0 -0.052320519210935647 0.0019608636210196439 0 -0.052222115079770176 0.0022576068783136797 0 -0.052320519210935647 0.0019608636210196439 0 -0.052091495195957932 0.0021508408458336655 0 -0.052081840085136215 0.0016831539143320805 0 -0.052320519210935647 0.0019608636210196439 0 -0.052091495195957932 0.0021508408458336655 0 -0.051953400297192552 0.0023959403904598928 0 -0.051990160754720502 0.00245013423993032 0 -0.05195792382418514 0.0022040602178219864 0 -0.052222115079770176 0.0022576068783136797 0 -0.052091495195957932 0.0021508408458336655 0 -0.051990160754720502 0.00245013423993032 0 -0.051953400297192552 0.0023959403904598928 0 -0.052091495195957932 0.0021508408458336655 0 -0.051990160754720502 0.00245013423993032 0 -0.052222115079770176 0.0022576068783136797 0 -0.051990160754720502 0.00245013423993032 0 -0.052141430817358385 0.0025248277349431783 0 -0.051990160754720502 0.00245013423993032 0 -0.052141430817358385 0.0025248277349431783 0 -0.051751561555178363 0.0025319841368524614 0 -0.051571132074570897 0.0022258405789103322 0 -0.051751561555178363 0.0025319841368524614 0 -0.051243364817403894 0.0023641830168564396 0 -0.051990160754720502 0.00245013423993032 0 -0.051571132074570897 0.0022258405789103322 0 -0.051751561555178363 0.0025319841368524614 0 -0.051990160754720502 0.00245013423993032 0 -0.051571132074570897 0.0022258405789103322 0 -0.05195792382418514 0.0022040602178219864 0 -0.05195792382418514 0.0022040602178219864 0 -0.052213837693236988 0.0019775149235954628 0 -0.051852465060784711 0.0015167841570534438 0 -0.05195792382418514 0.0022040602178219864 0 -0.051219386196850646 0.0014455606413394978 0 -0.051852465060784711 0.0015167841570534438 0 -0.051571132074570897 0.0022258405789103322 0 -0.05195792382418514 0.0022040602178219864 0 -0.051219386196850646 0.0014455606413394978 0 -0.051571132074570897 0.0022258405789103322 0 -0.051219386196850646 0.0014455606413394978 0 -0.050904265578466515 0.0018481971967316082 0 -0.053043138824245058 0.00072370065755925496 0 -0.052392157448261298 0.0012233692865685241 0 -0.052526291976769314 0.0014924482807777456 0 -0.051953400297192552 0.0023959403904598928 0 -0.05195792382418514 0.0022040602178219864 0 -0.052213837693236988 0.0019775149235954628 0 -0.052733324371709599 0.0012355936220412415 0 -0.052518582685607801 0.0013969576779063295 0 -0.052526291976769314 0.0014924482807777456 0 -0.052272754516521663 0.0015379947763364276 0 -0.052238111814173212 0.0014136504548114338 0 -0.052272754516521663 0.0015379947763364276 0 -0.051786657164569143 0.0016524063191212179 0 -0.052085559098703438 0.0016548875431684703 0 -0.052392157448261298 0.0012233692865685241 0 -0.052272754516521663 0.0015379947763364276 0 -0.051786657164569143 0.0016524063191212179 0 -0.052392157448261298 0.0012233692865685241 0 -0.052526291976769314 0.0014924482807777456 0 -0.052272754516521663 0.0015379947763364276 0 -0.051786657164569143 0.0016524063191212179 0 -0.051625493659985908 0.0011150603374686027 0 -0.050793089315683319 0.0016914163113495786 0 -0.052392157448261298 0.0012233692865685241 0 -0.051786657164569143 0.0016524063191212179 0 -0.051625493659985908 0.0011150603374686027 0 -0.051625493659985908 0.0011150603374686027 0 -0.050793089315683319 0.0016914163113495786 0 -0.050298649104821819 0.0012479786669375352 0 -0.051786657164569143 0.0016524063191212179 0 -0.050793089315683319 0.0016914163113495786 0 -0.051043522050541267 0.0020433374075940029 0 -0.050793089315683319 0.0016914163113495786 0 -0.049960135559027015 0.0021131788198495982 0 -0.051043522050541267 0.0020433374075940029 0 -0.049960135559027015 0.0021131788198495982 0 -0.048796172734452053 0.0018816287044907765 0 -0.04976958530557999 0.0016871812798774633 0 -0.050793089315683319 0.0016914163113495786 0 -0.049960135559027015 0.0021131788198495982 0 -0.04976958530557999 0.0016871812798774633 0 -0.043049049664600318 -0.00016286839292686987 0 -0.041193798807756477 0.00086447084810658723 0 -0.043190012179218681 1.8441988325720209e-05 0 -0.044322392584856971 1.538516824358746e-06 0 -0.041040579355970455 -3.5114632654867722e-07 0 -0.043190012179218681 1.8441988325720209e-05 0 -0.04120564327606939 7.5591199292659769e-05 0 -0.041040579355970455 -3.5114632654867722e-07 0 -0.049960135559027015 0.0021131788198495982 0 -0.048796172734452053 0.0018816287044907765 0 -0.049154159874557096 0.0025554970104182551 0 -0.043049049664600318 -0.00016286839292686987 0 -0.043684787036411661 -0.00071951720158274781 0 -0.048796172734452053 0.0018816287044907765 0 -0.04976958530557999 0.0016871812798774633 0 -0.049083155880529611 0.0012490644472345552 0 -0.043190012179218681 1.8441988325720209e-05 0 -0.044322392584856971 1.538516824358746e-06 0 -0.04706843877985567 0.00027152545010046775 0 -0.048796172734452053 0.0018816287044907765 0 -0.049083155880529611 0.0012490644472345552 0 -0.04706843877985567 0.00027152545010046775 0 -0.050793089315683319 0.0016914163113495786 0 -0.04976958530557999 0.0016871812798774633 0 -0.050298649104821819 0.0012479786669375352 0 -0.04976958530557999 0.0016871812798774633 0 -0.049083155880529611 0.0012490644472345552 0 -0.050298649104821819 0.0012479786669375352 0 -0.050298649104821819 0.0012479786669375352 0 -0.049880607808338119 0.00041963061597182887 0 -0.051053682525715093 0.00069019072034813317 0 -0.049083155880529611 0.0012490644472345552 0 -0.049880607808338119 0.00041963061597182887 0 -0.04706843877985567 0.00027152545010046775 0 -0.049083155880529611 0.0012490644472345552 0 -0.050298649104821819 0.0012479786669375352 0 -0.049880607808338119 0.00041963061597182887 0 -0.049880607808338119 0.00041963061597182887 0 -0.04706843877985567 0.00027152545010046775 0 -0.048526560380897713 0.00010444039098153378 0 -0.044322392584856971 1.538516824358746e-06 0 -0.04706843877985567 0.00027152545010046775 0 -0.047605315771694974 -3.6919745148780661e-07 0 -0.04706843877985567 0.00027152545010046775 0 -0.048526560380897713 0.00010444039098153378 0 -0.047605315771694974 -3.6919745148780661e-07 0 -0.048526560380897713 0.00010444039098153378 0 -0.047605315771694974 -3.6919745148780661e-07 0 -0.049863761832227967 -0.00010199704918564741 0 -0.051424762387549103 -0.00025078330122791547 0 -0.049863761832227967 -0.00010199704918564741 0 -0.051327747766699801 0.00016130829068403295 0 -0.049880607808338119 0.00041963061597182887 0 -0.049863761832227967 -0.00010199704918564741 0 -0.051327747766699801 0.00016130829068403295 0 -0.049880607808338119 0.00041963061597182887 0 -0.048526560380897713 0.00010444039098153378 0 -0.049863761832227967 -0.00010199704918564741 0 -0.05232118935577762 -0.00022034277718680287 0 -0.051327747766699801 0.00016130829068403295 0 -0.052266489945110579 0.00020910880620631959 0 -0.051327747766699801 0.00016130829068403295 0 -0.051786071493179008 0.00055344524497114641 0 -0.051053682525715093 0.00069019072034813317 0 -0.051327747766699801 0.00016130829068403295 0 -0.052266489945110579 0.00020910880620631959 0 -0.051786071493179008 0.00055344524497114641 0 -0.053079119400595662 3.6112255761325112e-05 0 -0.052820195361777983 0.00034331446360040318 0 -0.052266489945110579 0.00020910880620631959 0 -0.052820195361777983 0.00034331446360040318 0 -0.052266489945110579 0.00020910880620631959 0 -0.052388044154318122 0.00063271659854766192 0 -0.052266489945110579 0.00020910880620631959 0 -0.051786071493179008 0.00055344524497114641 0 -0.052388044154318122 0.00063271659854766192 0 -0.052392157448261298 0.0012233692865685241 0 -0.051625493659985908 0.0011150603374686027 0 -0.052388044154318122 0.00063271659854766192 0 -0.051625493659985908 0.0011150603374686027 0 -0.051786071493179008 0.00055344524497114641 0 -0.052388044154318122 0.00063271659854766192 0 -0.051625493659985908 0.0011150603374686027 0 -0.051786071493179008 0.00055344524497114641 0 -0.051053682525715093 0.00069019072034813317 0 -0.051625493659985908 0.0011150603374686027 0 -0.050298649104821819 0.0012479786669375352 0 -0.051053682525715093 0.00069019072034813317 0 -0.049880607808338119 0.00041963061597182887 0 -0.051327747766699801 0.00016130829068403295 0 -0.051053682525715093 0.00069019072034813317 0 -0.054826159017783482 -5.0170533206537086e-05 0 -0.054836504739497839 -1.0714850331109751e-05 0 -0.054822528253561341 -3.7465492116976172e-05 0 -0.054826159017783482 -5.0170533206537086e-05 0 -0.054865769536854757 1.525366844152504e-05 0 -0.054836504739497839 -1.0714850331109751e-05 0 -0.054826159017783482 -5.0170533206537086e-05 0 -0.054822528253561341 -3.7465492116976172e-05 0 -0.05478528953940421 -8.9191292050941245e-05 0 -0.054826159017783482 -5.0170533206537086e-05 0 -0.054865769536854757 1.525366844152504e-05 0 -0.054909548847487943 1.7304012502394504e-05 0 -0.054865769536854757 1.525366844152504e-05 0 -0.054909548847487943 1.7304012502394504e-05 0 -0.054916149885448066 9.2324698814112471e-05 0 -0.054909548847487943 1.7304012502394504e-05 0 -0.054888167364984732 3.4078539155234877e-05 0 -0.054790740116210941 -7.0869871952505074e-05 0 -0.054826159017783482 -5.0170533206537086e-05 0 -0.054909548847487943 1.7304012502394504e-05 0 -0.054790740116210941 -7.0869871952505074e-05 0 -0.054826159017783482 -5.0170533206537086e-05 0 -0.054790740116210941 -7.0869871952505074e-05 0 -0.05478528953940421 -8.9191292050941245e-05 0 -0.054888167364984732 3.4078539155234877e-05 0 -0.054999998499322404 -2.2045988830481424e-08 0 -0.054999455012420581 3.251063484134854e-07 0 -0.054888167364984732 3.4078539155234877e-05 0 -0.054999998499322404 -2.2045988830481424e-08 0 -0.054970439531933327 4.096423005482464e-05 0 -0.054909548847487943 1.7304012502394504e-05 0 -0.054888167364984732 3.4078539155234877e-05 0 -0.054970439531933327 4.096423005482464e-05 0 -0.054909548847487943 1.7304012502394504e-05 0 -0.054970439531933327 4.096423005482464e-05 0 -0.054961185640929104 9.5104794126458416e-05 0 -0.054970439531933327 4.096423005482464e-05 0 -0.054999953021571166 6.1098569651524331e-08 0 -0.054961185640929104 9.5104794126458416e-05 0 -0.054999998499322404 -2.2045988830481424e-08 0 -0.054970439531933327 4.096423005482464e-05 0 -0.054999953021571166 6.1098569651524331e-08 0 -0.054999953021571166 6.1098569651524331e-08 0 -0.054961185640929104 9.5104794126458416e-05 0 -0.054955341198101165 0.00013221829335157375 0 -0.054961185640929104 9.5104794126458416e-05 0 -0.054916149