<?xml version="1.0"?>
<VTKFile type="UnstructuredGrid" version="0.1" byte_order="LittleEndian">
<UnstructuredGrid>
<Piece NumberOfPoints="30881" NumberOfCells="10862">
<Points>
<DataArray type="Float64" NumberOfComponents="3" format="ascii">
-0.49999999999999828 -0.48677703703187492 0 -0.5 -0.5 0 -0.48129281494584059 -0.49338851851593718 0 -0.5 -0.5 0 -0.48129281494584059 -0.49338851851593718 0 -0.46258562989168328 -0.5 0 -0.49999999999999828 -0.48677703703187492 0 -0.48129281494584059 -0.49338851851593718 0 -0.49999999999999828 -0.48677703703187492 0 -0.4824545428279598 -0.47451624516148783 0 -0.48129281494584059 -0.49338851851593718 0 -0.49999999999999828 -0.48677703703187492 0 -0.4824545428279598 -0.47451624516148783 0 -0.5 -0.46599539173150673 0 -0.4824545428279598 -0.47451624516148783 0 -0.46853075243710779 -0.48354990242643758 0 -0.46411508256092049 -0.46598235294430129 0 -0.4824545428279598 -0.47451624516148783 0 -0.48129281494584059 -0.49338851851593718 0 -0.46853075243710779 -0.48354990242643758 0 -0.48129281494584059 -0.49338851851593718 0 -0.46258562989168328 -0.5 0 -0.48129281494584059 -0.49338851851593718 0 -0.46258562989168328 -0.5 0 -0.46853075243710779 -0.48354990242643758 0 -0.46258562989168328 -0.5 0 -0.46853075243710779 -0.48354990242643758 0 -0.45147378687733691 -0.48362213557840178 0 -0.46853075243710779 -0.48354990242643758 0 -0.45147378687733691 -0.48362213557840178 0 -0.46411508256092049 -0.46598235294430129 0 -0.4457251648104853 -0.47020164095208389 0 -0.45147378687733691 -0.48362213557840178 0 -0.46411508256092049 -0.46598235294430129 0 -0.4457251648104853 -0.47020164095208389 0 -0.45147378687733691 -0.48362213557840178 0 -0.43513446131126993 -0.48199891714758791 0 -0.45147378687733691 -0.48362213557840178 0 -0.43275163025255442 -0.5 0 -0.43513446131126993 -0.48199891714758791 0 -0.46258562989168328 -0.5 0 -0.45147378687733691 -0.48362213557840178 0 -0.43275163025255442 -0.5 0 -0.4467190029717853 -0.45478934699519452 0 -0.4422915115958943 -0.43555510214664611 0 -0.43246707723660932 -0.44794326854796312 0 -0.4457251648104853 -0.47020164095208389 0 -0.4467190029717853 -0.45478934699519452 0 -0.46411508256092049 -0.46598235294430129 0 -0.4457251648104853 -0.47020164095208389 0 -0.4467190029717853 -0.45478934699519452 0 -0.43016578207734568 -0.46313500011938619 0 -0.4467190029717853 -0.45478934699519452 0 -0.46411508256092049 -0.46598235294430129 0 -0.47114575579794699 -0.4403844242888923 0 -0.4467190029717853 -0.45478934699519452 0 -0.47114575579794699 -0.4403844242888923 0 -0.4422915115958943 -0.43555510214664611 0 -0.47114575579794699 -0.4403844242888923 0 -0.4422915115958943 -0.43555510214664611 0 -0.46411508256092049 -0.46598235294430129 0 -0.47114575579794699 -0.4403844242888923 0 -0.48354307623736548 -0.45841843211146538 0 -0.4824545428279598 -0.47451624516148783 0 -0.46411508256092049 -0.46598235294430129 0 -0.48354307623736548 -0.45841843211146538 0 -0.4824545428279598 -0.47451624516148783 0 -0.48354307623736548 -0.45841843211146538 0 -0.5 -0.46599539173150673 0 -0.48354307623736548 -0.45841843211146538 0 -0.5 -0.46599539173150673 0 -0.49999999999999972 -0.44521374643113848 0 -0.47114575579794699 -0.4403844242888923 0 -0.49999999999999972 -0.44521374643113848 0 -0.47114575579794699 -0.4403844242888923 0 -0.49999999999999972 -0.44521374643113848 0 -0.48704432221743971 -0.42935617662229603 0 -0.47114575579794699 -0.4403844242888923 0 -0.48354307623736548 -0.45841843211146538 0 -0.49999999999999972 -0.44521374643113848 0 -0.49999999999999972 -0.44521374643113848 0 -0.48704432221743971 -0.42935617662229603 0 -0.5 -0.41591957503128979 0 -0.48704432221743971 -0.42935617662229603 0 -0.5 -0.41591957503128979 0 -0.47703153307181151 -0.41590696073786332 0 -0.5 -0.41591957503128979 0 -0.47703153307181151 -0.41590696073786332 0 -0.48817838912021821 -0.4022119694541284 0 -0.47114575579794699 -0.4403844242888923 0 -0.48704432221743971 -0.42935617662229603 0 -0.47703153307181151 -0.41590696073786332 0 -0.5 -0.38662540363144121 0 -0.47568202340906118 -0.39039593841591919 0 -0.4947615751445838 -0.37332156409002909 0 -0.47568202340906118 -0.39039593841591919 0 -0.4947615751445838 -0.37332156409002909 0 -0.5 -0.38662540363144121 0 -0.48817838912021821 -0.4022119694541284 0 -0.47568202340906118 -0.39039593841591919 0 -0.5 -0.41591957503128979 0 -0.5 -0.38662540363144121 0 -0.48817838912021821 -0.4022119694541284 0 -0.47703153307181151 -0.41590696073786332 0 -0.48817838912021821 -0.4022119694541284 0 -0.47568202340906118 -0.39039593841591919 0 -0.47703153307181151 -0.41590696073786332 0 -0.47568202340906118 -0.39039593841591919 0 -0.45660247167353862 -0.40747031274180939 0 -0.47568202340906118 -0.39039593841591919 0 -0.48030931097003587 -0.37191064435083931 0 -0.46669490250066459 -0.37481721741951951 0 -0.47568202340906118 -0.39039593841591919 0 -0.4947615751445838 -0.37332156409002909 0 -0.48030931097003587 -0.37191064435083931 0 -0.45332061783919553 -0.38729481725706361 0 -0.46669490250066459 -0.37481721741951951 0 -0.45095991715087752 -0.36968037302039969 0 -0.47568202340906118 -0.39039593841591919 0 -0.45332061783919553 -0.38729481725706361 0 -0.46669490250066459 -0.37481721741951951 0 -0.47568202340906118 -0.39039593841591919 0 -0.45660247167353862 -0.40747031274180939 0 -0.47568202340906118 -0.39039593841591919 0 -0.45332061783919553 -0.38729481725706361 0 -0.45660247167353862 -0.40747031274180939 0 -0.44332653075004852 -0.401690115615219 0 -0.44646247228389868 -0.41654464256061052 0 -0.42870657106664078 -0.39987574649354879 0 -0.45332061783919553 -0.38729481725706361 0 -0.44332653075004852 -0.401690115615219 0 -0.43479631603355468 -0.39077639303142497 0 -0.45332061783919553 -0.38729481725706361 0 -0.44332653075004852 -0.401690115615219 0 -0.45660247167353862 -0.40747031274180939 0 -0.45332061783919553 -0.38729481725706361 0 -0.43421362475025049 -0.37527491429266319 0 -0.43479631603355468 -0.39077639303142497 0 -0.45332061783919553 -0.38729481725706361 0 -0.43421362475025049 -0.37527491429266319 0 -0.45095991715087752 -0.36968037302039969 0 -0.47114575579794699 -0.4403844242888923 0 -0.45663439814062529 -0.42533932462455271 0 -0.4422915115958943 -0.43555510214664611 0 -0.47114575579794699 -0.4403844242888923 0 -0.47703153307181151 -0.41590696073786332 0 -0.45663439814062529 -0.42533932462455271 0 -0.45663439814062529 -0.42533932462455271 0 -0.45660247167353862 -0.40747031274180939 0 -0.44646247228389868 -0.41654464256061052 0 -0.47703153307181151 -0.41590696073786332 0 -0.45663439814062529 -0.42533932462455271 0 -0.45660247167353862 -0.40747031274180939 0 -0.44332653075004852 -0.401690115615219 0 -0.45660247167353862 -0.40747031274180939 0 -0.44646247228389868 -0.41654464256061052 0 -0.45660247167353862 -0.40747031274180939 0 -0.44646247228389868 -0.41654464256061052 0 -0.44646247228389868 -0.41654464256061052 0 -0.4375229199380159 -0.42454468706769971 0 -0.45663439814062529 -0.42533932462455271 0 -0.4375229199380159 -0.42454468706769971 0 -0.4422915115958943 -0.43555510214664611 0 -0.45663439814062529 -0.42533932462455271 0 -0.44646247228389868 -0.41654464256061052 0 -0.4375229199380159 -0.42454468706769971 0 -0.4375229199380159 -0.42454468706769971 0 -0.4422915115958943 -0.43555510214664611 0 -0.43077617074680319 -0.43406335077952207 0 -0.43077617074680319 -0.43406335077952207 0 -0.42550232634077589 -0.42345940056268039 0 -0.41950844772475421 -0.43888456563633732 0 -0.4375229199380159 -0.42454468706769971 0 -0.43077617074680319 -0.43406335077952207 0 -0.42550232634077589 -0.42345940056268039 0 -0.44646247228389868 -0.41654464256061052 0 -0.41657232816672918 -0.41306671883907142 0 -0.42870657106664078 -0.39987574649354879 0 -0.44646247228389868 -0.41654464256061052 0 -0.4375229199380159 -0.42454468706769971 0 -0.42550232634077589 -0.42345940056268039 0 -0.44646247228389868 -0.41654464256061052 0 -0.42550232634077589 -0.42345940056268039 0 -0.41657232816672918 -0.41306671883907142 0 -0.44646247228389868 -0.41654464256061052 0 -0.41657232816672918 -0.41306671883907142 0 -0.42550232634077589 -0.42345940056268039 0 -0.41657232816672918 -0.41306671883907142 0 -0.41333489101611293 -0.42699700567040988 0 -0.41657232816672918 -0.41306671883907142 0 -0.41333489101611293 -0.42699700567040988 0 -0.39893236021425188 -0.42931692235905211 0 -0.41333489101611293 -0.42699700567040988 0 -0.39893236021425188 -0.42931692235905211 0 -0.41950844772475421 -0.43888456563633732 0 -0.42550232634077589 -0.42345940056268039 0 -0.41333489101611293 -0.42699700567040988 0 -0.41950844772475421 -0.43888456563633732 0 -0.43421362475025049 -0.37527491429266319 0 -0.42478231784314502 -0.38643128255249681 0 -0.41656514696884139 -0.37636588688318029 0 -0.43421362475025049 -0.37527491429266319 0 -0.42478231784314502 -0.38643128255249681 0 -0.43479631603355468 -0.39077639303142497 0 -0.42478231784314502 -0.38643128255249681 0 -0.43479631603355468 -0.39077639303142497 0 -0.42870657106664078 -0.39987574649354879 0 -0.44332653075004852 -0.401690115615219 0 -0.43479631603355468 -0.39077639303142497 0 -0.42870657106664078 -0.39987574649354879 0 -0.41657232816672918 -0.41306671883907142 0 -0.40962993039643741 -0.3898634720616666 0 -0.3946356370269814 -0.39577424904278191 0 -0.42478231784314502 -0.38643128255249681 0 -0.42870657106664078 -0.39987574649354879 0 -0.40962993039643741 -0.3898634720616666 0 -0.41657232816672918 -0.41306671883907142 0 -0.42870657106664078 -0.39987574649354879 0 -0.40962993039643741 -0.3898634720616666 0 -0.42478231784314502 -0.38643128255249681 0 -0.40962993039643741 -0.3898634720616666 0 -0.41656514696884139 -0.37636588688318029 0 -0.40962993039643741 -0.3898634720616666 0 -0.41656514696884139 -0.37636588688318029 0 -0.40465459864295228 -0.37650109000307358 0 -0.39431275766669582 -0.38061373190328529 0 -0.40465459864295228 -0.37650109000307358 0 -0.3968495855878465 -0.36923685638487008 0 -0.40962993039643741 -0.3898634720616666 0 -0.39431275766669582 -0.38061373190328529 0 -0.40465459864295228 -0.376501090003
[...]
<PointData Scalars="" Vectors="displacement," Tensors="">
<DataArray type="Float64" Name="displacement" NumberOfComponents="3" format="ascii">
-0.053550430292464618 -0.054999088483507978 0 -0.054997105202262267 -0.054999779560929621 0 -0.055434362279986292 -0.053184004989381597 0 -0.054997105202262267 -0.054999779560929621 0 -0.055434362279986292 -0.053184004989381597 0 -0.055000824734896259 -0.050885772500364086 0 -0.053547729581776692 -0.054996215423994285 0 -0.054242013030030602 -0.052902250411573065 0 -0.053541050047805835 -0.054997667377796627 0 -0.052424353321842462 -0.053231368424900526 0 -0.052694881781200138 -0.052504839623381754 0 -0.053541050047805835 -0.054997667377796627 0 -0.052424353321842462 -0.053231368424900526 0 -0.051259987986480071 -0.054998125966690063 0 -0.052424353321842462 -0.053231368424900526 0 -0.053071618837148761 -0.05150637361072205 0 -0.052233087715895132 -0.051453433257896038 0 -0.052424353321842462 -0.053231368424900526 0 -0.052694881781200138 -0.052504839623381754 0 -0.053071618837148761 -0.05150637361072205 0 -0.054242013030030602 -0.052902250411573065 0 -0.054997572194675659 -0.050888071464300404 0 -0.052694881781200138 -0.052504839623381754 0 -0.05499251533197453 -0.050883073826463114 0 -0.053071618837148761 -0.05150637361072205 0 -0.05499251533197453 -0.050883073826463114 0 -0.053071618837148761 -0.05150637361072205 0 -0.053642123659509995 -0.05016753739755269 0 -0.053071618837148761 -0.05150637361072205 0 -0.053642123659509995 -0.05016753739755269 0 -0.052233087715895132 -0.051453433257896038 0 -0.052741147931092927 -0.050092787061415442 0 -0.053642123659509995 -0.05016753739755269 0 -0.052233087715895132 -0.051453433257896038 0 -0.052741147931092927 -0.050092787061415442 0 -0.053642123659509995 -0.05016753739755269 0 -0.053683155970714269 -0.048784993204318228 0 -0.053642123659509995 -0.05016753739755269 0 -0.054998941984019237 -0.047605594976999274 0 -0.053683155970714269 -0.048784993204318228 0 -0.05499251533197453 -0.050883073826463114 0 -0.053642123659509995 -0.05016753739755269 0 -0.054998941984019237 -0.047605594976999274 0 -0.051776619482276923 -0.050655627848593461 0 -0.049889931219694629 -0.051438889963532727 0 -0.050991165885116811 -0.050348751298770533 0 -0.052741147931092927 -0.050092787061415442 0 -0.051776619482276923 -0.050655627848593461 0 -0.052233087715895132 -0.051453433257896038 0 -0.052741147931092927 -0.050092787061415442 0 -0.051776619482276923 -0.050655627848593461 0 -0.052117343349711402 -0.049524116886235009 0 -0.051776619482276923 -0.050655627848593461 0 -0.052233087715895132 -0.051453433257896038 0 -0.051927412360091137 -0.052000984046675677 0 -0.051776619482276923 -0.050655627848593461 0 -0.051927412360091137 -0.052000984046675677 0 -0.049889931219694629 -0.051438889963532727 0 -0.049392610659543194 -0.053651090800510524 0 -0.049524466511285566 -0.053166501906631372 0 -0.052233087715895132 -0.051453433257896038 0 -0.051927412360091137 -0.052000984046675677 0 -0.051315231030223785 -0.053538694006193328 0 -0.052424353321842462 -0.053231368424900526 0 -0.052233087715895132 -0.051453433257896038 0 -0.051315231030223785 -0.053538694006193328 0 -0.052424353321842462 -0.053231368424900526 0 -0.051315231030223785 -0.053538694006193328 0 -0.051259987986480071 -0.054998125966690063 0 -0.051315231030223785 -0.053538694006193328 0 -0.051259987986480071 -0.054998125966690063 0 -0.048980591985532416 -0.054998179048781251 0 -0.049392610659543194 -0.053651090800510524 0 -0.048974249696128964 -0.054997906837860752 0 -0.047443352520336241 -0.055293005458492271 0 -0.048970301577108452 -0.054999627155532561 0 -0.047300068508941973 -0.055380810949873689 0 -0.051927412360091137 -0.052000984046675677 0 -0.051315231030223785 -0.053538694006193328 0 -0.048980591985532416 -0.054998179048781251 0 -0.048970301577108452 -0.054999627155532561 0 -0.047300068508941973 -0.055380810949873689 0 -0.045753342710080282 -0.054998918587522136 0 -0.047300068508941973 -0.055380810949873689 0 -0.045753342710080282 -0.054998918587522136 0 -0.047085483773533492 -0.055381351907245656 0 -0.045753342710080282 -0.054998918587522136 0 -0.047085483773533492 -0.055381351907245656 0 -0.045042510433589693 -0.055376240061691291 0 -0.047443352520336241 -0.055293005458492271 0 -0.047300068508941973 -0.055380810949873689 0 -0.047085483773533492 -0.055381351907245656 0 -0.042530777236886884 -0.054999164748981276 0 -0.044578305030100088 -0.056037411229433773 0 -0.041335225189364548 -0.05545272624267536 0 -0.044460753350728792 -0.055072457325768862 0 -0.043551456852321556 -0.054789633024929077 0 -0.042530777236886884 -0.054999164748981276 0 -0.045042510433589693 -0.055376240061691291 0 -0.044578305030100088 -0.056037411229433773 0 -0.045753342710080282 -0.054998918587522136 0 -0.042530777236886884 -0.054999164748981276 0 -0.045042510433589693 -0.055376240061691291 0 -0.047085483773533492 -0.055381351907245656 0 -0.045042510433589693 -0.055376240061691291 0 -0.044578305030100088 -0.056037411229433773 0 -0.047085483773533492 -0.055381351907245656 0 -0.044578305030100088 -0.056037411229433773 0 -0.047815103654867235 -0.054769822330460384 0 -0.043415935861691443 -0.057290696942725948 0 -0.041639486821711508 -0.056771891849135003 0 -0.042383647534455331 -0.057783852257453541 0 -0.043415935861691443 -0.057290696942725948 0 -0.041335225189364548 -0.05545272624267536 0 -0.041639486821711508 -0.056771891849135003 0 -0.043435403258265635 -0.058433632249509392 0 -0.042383647534455331 -0.057783852257453541 0 -0.042721486655878556 -0.058419946492805006 0 -0.043415935861691443 -0.057290696942725948 0 -0.043435403258265635 -0.058433632249509392 0 -0.042383647534455331 -0.057783852257453541 0 -0.044460753350728792 -0.055072457325768862 0 -0.046026167259834438 -0.054909867959262823 0 -0.043415935861691443 -0.057290696942725948 0 -0.043435403258265635 -0.058433632249509392 0 -0.043843337329054842 -0.058420424642050876 0 -0.043729471550039367 -0.058587073315441156 0 -0.043496022941382398 -0.058671495251129094 0 -0.043699393512480159 -0.058327060276913402 0 -0.043435403258265635 -0.058433632249509392 0 -0.043729471550039367 -0.058587073315441156 0 -0.043953400502378684 -0.058556070861100096 0 -0.043435403258265635 -0.058433632249509392 0 -0.043729471550039367 -0.058587073315441156 0 -0.043843337329054842 -0.058420424642050876 0 -0.043435403258265635 -0.058433632249509392 0 -0.044012087113810348 -0.058709325810097156 0 -0.043953400502378684 -0.058556070861100096 0 -0.043435403258265635 -0.058433632249509392 0 -0.044012087113810348 -0.058709325810097156 0 -0.042721486655878556 -0.058419946492805006 0 -0.047443352520336241 -0.055293005458492271 0 -0.048709624570675909 -0.053810520805722295 0 -0.049889931219694629 -0.051438889963532727 0 -0.047443352520336241 -0.055293005458492271 0 -0.047085483773533492 -0.055381351907245656 0 -0.048709624570675909 -0.053810520805722295 0 -0.048709624570675909 -0.053810520805722295 0 -0.047815103654867235 -0.054769822330460384 0 -0.049145895385611239 -0.053156844571405772 0 -0.047085483773533492 -0.055381351907245656 0 -0.048709624570675909 -0.053810520805722295 0 -0.047815103654867235 -0.054769822330460384 0 -0.043729471550039367 -0.058587073315441156 0 -0.043843337329054842 -0.058420424642050876 0 -0.043496022941382398 -0.058671495251129094 0 -0.046026167259834438 -0.054909867959262823 0 -0.047062951371850702 -0.054631094285424397 0 -0.047062951371850702 -0.054631094285424397 0 -0.047079163481195341 -0.05431423994031595 0 -0.048709624570675909 -0.053810520805722295 0 -0.049993683088461756 -0.051446808124510288 0 -0.049889931219694629 -0.051438889963532727 0 -0.048709624570675909 -0.053810520805722295 0 -0.049145895385611239 -0.053156844571405772 0 -0.049993683088461756 -0.051446808124510288 0 -0.049993683088461756 -0.051446808124510288 0 -0.049889931219694629 -0.051438889963532727 0 -0.050181970979771361 -0.050663149849771924 0 -0.050181970979771361 -0.050663149849771924 0 -0.050189645021492001 -0.050429544393031135 0 -0.050445756331573666 -0.049921207517183444 0 -0.049993683088461756 -0.051446808124510288 0 -0.050181970979771361 -0.050663149849771924 0 -0.050189645021492001 -0.050429544393031135 0 -0.043496022941382398 -0.058671495251129094 0 -0.042786957424362324 -0.057630286210416236 0 -0.043699393512480159 -0.058327060276913402 0 -0.050666174086274385 -0.052043148866786952 0 -0.049993683088461756 -0.051446808124510288 0 -0.050189645021492001 -0.050429544393031135 0 -0.050666174086274385 -0.052043148866786952 0 -0.050189645021492001 -0.050429544393031135 0 -0.050515718015895057 -0.049813553741437713 0 -0.047062951371850702 -0.054631094285424397 0 -0.046684918548518695 -0.053585773420901366 0 -0.050189645021492001 -0.050429544393031135 0 -0.050515718015895057 -0.049813553741437713 0 -0.050162756734849274 -0.049804509142951731 0 -0.050515718015895057 -0.049813553741437713 0 -0.050162756734849274 -0.049804509142951731 0 -0.049873766155168857 -0.04939139048711768 0 -0.050162756734849274 -0.049804509142951731 0 -0.049873766155168857 -0.04939139048711768 0 -0.050445756331573666 -0.049921207517183444 0 -0.050189645021492001 -0.050429544393031135 0 -0.050162756734849274 -0.049804509142951731 0 -0.050445756331573666 -0.049921207517183444 0 -0.044012087113810348 -0.058709325810097156 0 -0.044425242924694644 -0.058272980684290834 0 -0.045240299331647964 -0.058127462066975555 0 -0.044012087113810348 -0.058709325810097156 0 -0.044425242924694644 -0.058272980684290834 0 -0.043953400502378684 -0.058556070861100096 0 -0.044425242924694644 -0.058272980684290834 0 -0.043953400502378684 -0.058556070861100096 0 -0.043699393512480159 -0.058327060276913402 0 -0.043729471550039367 -0.058587073315441156 0 -0.043953400502378684 -0.058556070861100096 0 -0.043699393512480159 -0.058327060276913402 0 -0.042786957424362324 -0.057630286210416236 0 -0.044747838505711603 -0.057012402046746416 0 -0.044599431902693949 -0.054761346633899644 0 -0.044425242924694644 -0.058272980684290834 0 -0.043699393512480159 -0.058327060276913402 0 -0.044747838505711603 -0.057012402046746416 0 -0.042786957424362324 -0.057630286210416236 0 -0.043699393512480159 -0.058327060276913402 0 -0.044747838505711603 -0.057012402046746416 0 -0.044425242924694644 -0.058272980684290834 0 -0.044747838505711603 -0.057012402046746416 0 -0.045240299331647964 -0.058127462066975555 0 -0.044747838505711603 -0.057012402046746416 0 -0.045240299331647964 -0.058127462066975555 0 -0.046158445990403058 -0.056663126705236294 0 -0.046320488076854203 -0.054854245824923875 0 -0.046158445990403058 -0.056663126705236294 0 -0.047775730011322862 -0.055435301128086215 0 -0.044747838505711603 -0.057012402046746416 0 -0.046320488076854203 -0.054854245824923875 0 -0.046158445990403058 -0.056663126705236294 0 -0.044747838505711603 -0.057012402046746416 0 -0.046320488076854203 -0.054854245824923875 0 -0.044599431902693949 -0.054761346633899644 0 -0.044599431902693949 -0.054761346633899644 0 -0.042987169448581636 -0.053402571800480719 0 -0.045390798160561047 -0.051315694763584004 0 -0.044599431902693949 -0.054761346633899644 0 -0.047123905555734508 -0.051323485431286127 0 -0.045390798160561047 -0.051315694763584004 0 -0.046320488076854203 -0.054854245824923875 0 -0.044599431902693949 -0.054761346633899644 0 -0.047123905555734508 -0.051323485431286127 0 -0.046320488076854203 -0.054854245824923875 0 -0.047123905555734508 -0.051323485431286127 0 -0.048326844072313323 -0.053242419534155608 0 -0.050515718015895057 -0.049813553741437713 0 -0.049873766155168857 -0.04939139048711768 0 -0.049158077240622794 -0.04913738266012365 0 -0.042786957424362324 -0.057630286210416236 0 -0.044599431902693949 -0.054761346633899644 0 -0.042987169448581636 -0.053402571800480719 0 -0.046684918548518695 -0.053585773420901366 0 -0.046417002358711289 -0.052208634821019763 0 -0.049158077240622794 -0.04913738266012365 0 -0.049295832776491112 -0.049331057368024067 0 -0.048023971144569889 -0.049403837703243796 0 -0.049295832776491112 -0.049331057368024067 0 -0.050226465353370775 -0.049527573048634317 0 -0.049174164572342735 -0.049607678299046297 0 -0.049873766155168857 -0.04939139048711768 0 -0.049295832776491112 -0.049331057368024067 0 -0.050226465353370775 -0.049527573048634317 0 -0.049873766155168857 -0.04939139048711768 0 -0.049158077240622794 -0.04913738266012365 0 -0.049295832776491112 -0.049331057368024067 0 -0.050226465353370775 -0.049527573048634317 0 -0.05088488577731539 -0.049387334392821315 0 -0.051535407983376358 -0.049542251978359292 0 -0.049873766155168857 -0.04939139048711768 0 -0.050226465353370775 -0.049527573048634317 0 -0.05088488577731539 -0.049387334392821315 0 -0.05088488577731539 -0.049387334392821315 0 -0.051535407983376358 -0.049542251978359292 0 -0.052231585719238534 -0.048998849348254429 0 -0.050226465353370775 -0.049527573048634317 0 -0.051535407983376358 -0.049542251978359292 0 -0.051179370514026309 -0.050070331149745559 0 -0.051535407983376358 -0.049542251978359292 0 -0.052491939700098411 -0.050018721562686504 0 -0.051179370514026309 -0.050070331149745559 0 -0.052491939700098411 -0.050018721562686504 0 -0.053927821171465509 -0.049527784353903002 0 -0.052627354784217407 -0.049327300582320564 0 -0.051535407983376358 -0.049542251978359292 0 -0.052491939700098411 -0.050018721562686504 0 -0.052627354784217407 -0.049327300582320564 0 -0.054502072859936995 -0.044775639819029482 0 -0.054212620051886949 -0.042071856038746719 0 -0.055842805458032371 -0.043053021420433747 0 -0.054998300175407563 -0.044324114550068607 0 -0.05500098895020486 -0.041037375733806253 0 -0.055842805458032371 -0.043053021420433747 0 -0.055618809990023173 -0.040765048202315801 0 -0.05500098895020486 -0.041037375733806253 0 -0.052491939700098411 -0.050018721562686504 0 -0.053927821171465509 -0.049527784353903002 0 -0.05360041709643748 -0.050622762592072969 0 -0.054502072859936995 -0.044775639819029482 0 -0.054576125360354749 -0.04531030008073151 0 -0.053927821171465509 -0.049527784353903002 0 -0.052627354784217407 -0.049327300582320564 0 -0.053228696249308732 -0.048453640798528014 0 -0.055842805458032371 -0.043053021420433747 0 -0.054998300175407563 -0.044324114550068607 0 -0.054866040869308338 -0.046610332081804616 0 -0.053927821171465509 -0.049527784353903002 0 -0.053228696249308732 -0.048453640798528014 0 -0.054866040869308338 -0.046610332081804616 0 -0.051535407983376358 -0.049542251978359292 0 -0.052627354784217407 -0.049327300582320564 0 -0.052231585719238534 -0.048998849348254429 0 -0.052627354784217407 -0.049327300582320564 0 -0.053228696249308732 -0.048453640798528014 0 -0.052231585719238534 -0.048998849348254429 0 -0.052231585719238534 -0.048998849348254429 0 -0.053017450582653593 -0.048309105704110421 0 -0.051796575025828719 -0.049115400706887871 0 -0.053228696249308732 -0.048453640798528014 0 -0.053017450582653593 -0.048309105704110421 0 -0.054866040869308338 -0.046610332081804616 0 -0.053228696249308732 -0.048453640798528014 0 -0.052231585719238534 -0.048998849348254429 0 -0.053017450582653593 -0.048309105704110421 0 -0.053017450582653593 -0.048309105704110421 0 -0.054866040869308338 -0.046610332081804616 0 -0.054235050463445365 -0.047787537110079673 0 -0.054998300175407563 -0.044324114550068607 0 -0.054866040869308338 -0.046610332081804616 0 -0.054998941984019237 -0.047605594976999274 0 -0.054866040869308338 -0.046610332081804616 0 -0.054235050463445365 -0.047787537110079673 0 -0.054998941984019237 -0.047605594976999274 0 -0.054235050463445365 -0.047787537110079673 0 -0.054998941984019237 -0.047605594976999274 0 -0.053683155970714269 -0.048784993204318228 0 -0.052741147931092927 -0.050092787061415442 0 -0.053683155970714269 -0.048784993204318228 0 -0.052117343349711402 -0.049524116886235009 0 -0.053017450582653593 -0.048309105704110421 0 -0.053683155970714269 -0.048784993204318228 0 -0.052117343349711402 -0.049524116886235009 0 -0.053017450582653593 -0.048309105704110421 0 -0.054235050463445365 -0.047787537110079673 0 -0.053683155970714269 -0.048784993204318228 0 -0.051776619482276923 -0.050655627848593461 0 -0.052117343349711402 -0.049524116886235009 0 -0.050991165885116811 -0.050348751298770533 0 -0.052117343349711402 -0.049524116886235009 0 -0.051170653269293855 -0.049637209839774245 0 -0.051796575025828719 -0.049115400706887871 0 -0.052117343349711402 -0.049524116886235009 0 -0.050991165885116811 -0.050348751298770533 0 -0.051170653269293855 -0.049637209839774245 0 -0.049889931219694629 -0.051438889963532727 0 -0.050181970979771361 -0.050663149849771924 0 -0.050991165885116811 -0.050348751298770533 0 -0.050181970979771361 -0.050663149849771924 0 -0.050991165885116811 -0.050348751298770533 0 -0.050445756331573666 -0.049921207517183444 0 -0.050991165885116811 -0.050348751298770533 0 -0.051170653269293855 -0.049637209839774245 0 -0.050445756331573666 -0.049921207517183444 0 -0.049873766155168857 -0.04939139048711768 0 -0.05088488577731539 -0.049387334392821315 0 -0.050445756331573666 -0.049921207517183444 0 -0.05088488577731539 -0.049387334392821315 0 -0.051170653269293855 -0.049637209839774245 0 -0.050445756331573666 -0.049921207517183444 0 -0.05088488577731539 -0.049387334392821315 0 -0.051170653269293855 -0.049637209839774245 0 -0.051796575025828719 -0.049115400706887871 0 -0.05088488577731539 -0.049387334392821315 0 -0.052231585719238534 -0.048998849348254429 0 -0.051796575025828719 -0.049115400706887871 0 -0.053017450582653593 -0.048309105704110421 0 -0.052117343349711402 -0.049524116886235009 0 -0.051796575025828719 -0.049115400706887871 0 -0.02805322652052427 -0.06064207440945283 0 -0.028647766304019363 -0.063068043698886259 0 -0.02690342766285957 -0.06234181064152549 0 -0.02805322652052427 -0.06064207440945283 0 -0.030203048880820253 -0.062126923199407477 0 -0.028647766304019363 -0.063068043698886259 0 -0.02805322652052427 -0.06064207440945283 0 -0.02690342766285957 -0.06234181064152549 0 -0.026870104745390155 -0.060525434558111352 0 -0.02805322652052427 -0.06064207440945283 0 -0.030203048880820253 -0.062126923199407477 0 -0.029880250829345638 -0.059182002481635042 0 -0.030203048880820253 -0.062126923199407477 0 -0.029880250829345638 -0.059182002481635042 0 -0.032443200152475295 -0.060880033816059664 0 -0.029880250829345638 -0.059182002481635042 0 -0.027930979752334297 -0.056986988334865443 0 -0.027021351691654847 -0.059136957825655076 0 -0.02805322652052427 -0.06064207440945283 0 -0.029880250829345638 -0.059182002481635042 0 -0.027021351691654847 -0.059136957825655076 0 -0.02805322652052427 -0.06064207440945283 0 -0.027021351691654847 -0.059136957825655076 0 -0.026870104745390155 -0.060525434558111352 0 -0.027930979752334297 -0.056986988334865443 0 -0.029639525698577012 -0.055000019706088643 0 -0.026415810288423998 -0.054999305152068946 0 -0.027930979752334297 -0.056986988334865443 0 -0.029639525698577012 -0.055000019706088643 0 -0.03092498174188299 -0.056817166245142603 0 -0.029880250829345638 -0.059182002481635042 0 -0.027930979752334297 -0.056986988334865443 0 -0.03092498174188299 -0.056817166245142603 0 -0.029880250829345638 -0.059182002481635042 0 -0.03092498174188299 -0.056817166245142603 0 -0.033053454659548849 -0.058193829300397557 0 -0.03092498174188299 -0.056817166245142603 0 -0.032861917776704698 -0.054999694181982937 0 -0.033053454659548849 -0.058193829300397557 0 -0.029639525698577012 -0.055000019706088643 0 -0.03092498174188299 -0.056817166245142603 0 -0.032861917776704698 -0.054999694181982937 0 -0.032861917776704698 -0.054999694181982937 0 -0.033053454659548849 -0.058193829300397557 0 -0.036037706342426055 -0.057199784055310614 0 -0.033053454659548849 -0.058193829300397557 0 -0.032443200152475295 -0.060880033816059664 0 -0.036266423376462444 -0.060459953575654368 0 -0.029880250829345638 -0.059182002481635042 0 -0.033053454659548849 -0.058193829300397557 0 -0.032443200152475295 -0.060880033816059664 0 -0.030203048880820253 -0.062126923199407477 0 -0.032443200152475295 -0.060880033816059664 0 -0.032119908249492339 -0.062774874183915419 0 -0.032443200152475295 -0.060880033816059664 