<?xml version="1.0"?>
<VTKFile type="UnstructuredGrid" version="0.1" byte_order="LittleEndian">
<UnstructuredGrid>
<Piece NumberOfPoints="31201" NumberOfCells="10970">
<Points>
<DataArray type="Float64" NumberOfComponents="3" format="ascii">
-0.5 -0.5 0 -0.48594492841721121 -0.47918156622522318 0 -0.48039274807335941 -0.500000000000001 0 -0.5 -0.5 0 -0.48594492841721121 -0.47918156622522318 0 -0.49403590438223532 -0.46143847342506161 0 -0.48594492841721121 -0.47918156622522318 0 -0.49403590438223532 -0.46143847342506161 0 -0.48594492841721121 -0.47918156622522318 0 -0.48184521031667649 -0.47113052590544802 0 -0.49403590438223532 -0.46143847342506161 0 -0.48594492841721121 -0.47918156622522318 0 -0.4734796987287464 -0.47535604887102351 0 -0.46805690334455402 -0.48505711588807898 0 -0.48594492841721121 -0.47918156622522318 0 -0.48184521031667649 -0.47113052590544802 0 -0.4734796987287464 -0.47535604887102351 0 -0.48184521031667649 -0.47113052590544802 0 -0.4734796987287464 -0.47535604887102351 0 -0.47256641830566992 -0.46910798373296853 0 -0.48594492841721121 -0.47918156622522318 0 -0.47785395245218842 -0.49692465902538552 0 -0.48594492841721121 -0.47918156622522318 0 -0.47785395245218842 -0.49692465902538552 0 -0.46805690334455402 -0.48505711588807898 0 -0.48594492841721121 -0.47918156622522318 0 -0.47785395245218842 -0.49692465902538552 0 -0.48039274807335941 -0.500000000000001 0 -0.47785395245218842 -0.49692465902538552 0 -0.48039274807335941 -0.500000000000001 0 -0.4764515751896603 -0.49999999999999911 0 -0.47785395245218842 -0.49692465902538552 0 -0.4764515751896603 -0.49999999999999911 0 -0.47785395245218842 -0.49692465902538552 0 -0.48039274807335941 -0.500000000000001 0 -0.47785395245218842 -0.49692465902538552 0 -0.46805690334455402 -0.48505711588807898 0 -0.47785395245218842 -0.49692465902538552 0 -0.4764515751896603 -0.49999999999999911 0 -0.46805690334455402 -0.48505711588807898 0 -0.4764515751896603 -0.49999999999999911 0 -0.46805690334455402 -0.48505711588807898 0 -0.45003705123379872 -0.5 0 -0.45432374989317498 -0.48621036875355939 0 -0.46805690334455402 -0.48505711588807898 0 -0.45003705123379872 -0.5 0 -0.46805690334455402 -0.48505711588807898 0 -0.45825985423691901 -0.473189572750773 0 -0.4734796987287464 -0.47535604887102351 0 -0.46805690334455402 -0.48505711588807898 0 -0.45825985423691901 -0.473189572750773 0 -0.4734796987287464 -0.47535604887102351 0 -0.47256641830566992 -0.46910798373296853 0 -0.45825985423691901 -0.473189572750773 0 -0.45432374989317498 -0.48621036875355939 0 -0.46805690334455402 -0.48505711588807898 0 -0.45825985423691901 -0.473189572750773 0 -0.44470934556457142 -0.47370088391664139 0 -0.44094119075742821 -0.48659478637538578 0 -0.43347681686242129 -0.47035203516950919 0 -0.45825985423691901 -0.473189572750773 0 -0.44470934556457142 -0.47370088391664139 0 -0.44094119075742821 -0.48659478637538578 0 -0.45825985423691901 -0.473189572750773 0 -0.44094119075742821 -0.48659478637538578 0 -0.45432374989317498 -0.48621036875355939 0 -0.45825985423691901 -0.473189572750773 0 -0.44094119075742821 -0.48659478637538578 0 -0.45825985423691901 -0.473189572750773 0 -0.44470934556457142 -0.47370088391664139 0 -0.44904181070851229 -0.46202340138498099 0 -0.44094119075742821 -0.48659478637538578 0 -0.45003705123379872 -0.5 0 -0.42362252727793731 -0.49999999999999839 0 -0.45432374989317498 -0.48621036875355939 0 -0.44094119075742821 -0.48659478637538578 0 -0.45003705123379872 -0.5 0 -0.44125713906480207 -0.44580313054370441 0 -0.45386968818048912 -0.44891929976516531 0 -0.45362577960789141 -0.43003388826833289 0 -0.44125713906480207 -0.44580313054370441 0 -0.44904181070851229 -0.46202340138498099 0 -0.45386968818048912 -0.44891929976516531 0 -0.44125713906480207 -0.44580313054370441 0 -0.44904181070851229 -0.46202340138498099 0 -0.43624783734388928 -0.45721756785154888 0 -0.44904181070851229 -0.46202340138498099 0 -0.43347681686242129 -0.47035203516950919 0 -0.43624783734388928 -0.45721756785154888 0 -0.44470934556457142 -0.47370088391664139 0 -0.44904181070851229 -0.46202340138498099 0 -0.43347681686242129 -0.47035203516950919 0 -0.44904181070851229 -0.46202340138498099 0 -0.46012512809048661 -0.45995757984712649 0 -0.45386968818048912 -0.44891929976516531 0 -0.45825985423691901 -0.473189572750773 0 -0.44904181070851229 -0.46202340138498099 0 -0.45825985423691901 -0.473189572750773 0 -0.44904181070851229 -0.46202340138498099 0 -0.46012512809048661 -0.45995757984712649 0 -0.45825985423691901 -0.473189572750773 0 -0.47227594099239328 -0.46234066184256778 0 -0.47256641830566992 -0.46910798373296853 0 -0.45825985423691901 -0.473189572750773 0 -0.47227594099239328 -0.46234066184256778 0 -0.45825985423691901 -0.473189572750773 0 -0.46012512809048661 -0.45995757984712649 0 -0.47227594099239328 -0.46234066184256778 0 -0.46012512809048661 -0.45995757984712649 0 -0.46529858343075281 -0.44677849878168191 0 -0.47227594099239328 -0.46234066184256778 0 -0.46529858343075281 -0.44677849878168191 0 -0.45386968818048912 -0.44891929976516531 0 -0.45362577960789141 -0.43003388826833289 0 -0.46529858343075281 -0.44677849878168191 0 -0.45362577960789141 -0.43003388826833289 0 -0.46012512809048661 -0.45995757984712649 0 -0.46529858343075281 -0.44677849878168191 0 -0.45386968818048912 -0.44891929976516531 0 -0.46529858343075281 -0.44677849878168191 0 -0.47697138725361449 -0.4635231092950306 0 -0.48489170700021078 -0.44756767576828532 0 -0.5 -0.5 0 -0.49403590438223532 -0.46143847342506161 0 -0.5 -0.43960960594001541 0 -0.46529858343075281 -0.44677849878168191 0 -0.48489170700021078 -0.44756767576828532 0 -0.47556738700340911 -0.43148281500956259 0 -0.47697138725361449 -0.4635231092950306 0 -0.48499657562199322 -0.45921459763594541 0 -0.48489170700021078 -0.44756767576828532 0 -0.46529858343075281 -0.44677849878168191 0 -0.47227594099239328 -0.46234066184256778 0 -0.47697138725361449 -0.4635231092950306 0 -0.46529858343075281 -0.44677849878168191 0 -0.47697138725361449 -0.4635231092950306 0 -0.47256641830566992 -0.46910798373296853 0 -0.47227594099239328 -0.46234066184256778 0 -0.47697138725361449 -0.4635231092950306 0 -0.48184521031667649 -0.47113052590544802 0 -0.47256641830566992 -0.46910798373296853 0 -0.47697138725361449 -0.4635231092950306 0 -0.47697138725361449 -0.4635231092950306 0 -0.48446226939362991 -0.46382667656537141 0 -0.48499657562199322 -0.45921459763594541 0 -0.48184521031667649 -0.47113052590544802 0 -0.47697138725361449 -0.4635231092950306 0 -0.48446226939362991 -0.46382667656537141 0 -0.48446226939362991 -0.46382667656537141 0 -0.48499657562199322 -0.45921459763594541 0 -0.49403590438223532 -0.46143847342506161 0 -0.48184521031667649 -0.47113052590544802 0 -0.48446226939362991 -0.46382667656537141 0 -0.49403590438223532 -0.46143847342506161 0 -0.48499657562199322 -0.45921459763594541 0 -0.49403590438223532 -0.46143847342506161 0 -0.48489170700021078 -0.44756767576828532 0 -0.49403590438223532 -0.46143847342506161 0 -0.48489170700021078 -0.44756767576828532 0 -0.5 -0.43960960594001541 0 -0.48489170700021078 -0.44756767576828532 0 -0.5 -0.43960960594001541 0 -0.49750899439892687 -0.43293174175079258 0 -0.48489170700021078 -0.44756767576828532 0 -0.49750899439892687 -0.43293174175079258 0 -0.47556738700340911 -0.43148281500956259 0 -0.49750899439892687 -0.43293174175079258 0 -0.47556738700340911 -0.43148281500956259 0 -0.49750899439892687 -0.43293174175079258 0 -0.48396688182315478 -0.4193836051022245 0 -0.48739594377842999 -0.40018923498101411 0 -0.49750899439892687 -0.43293174175079258 0 -0.48396688182315478 -0.4193836051022245 0 -0.47556738700340911 -0.43148281500956259 0 -0.5 -0.43960960594001541 0 -0.49750899439892687 -0.43293174175079258 0 -0.49864303034596802 -0.36268297627728929 0 -0.49750899439892687 -0.43293174175079258 0 -0.48739594377842999 -0.40018923498101411 0 -0.49864303034596802 -0.36268297627728929 0 -0.48396688182315478 -0.4193836051022245 0 -0.47532973594779793 -0.41224317531747579 0 -0.48739594377842999 -0.40018923498101411 0 -0.47532973594779793 -0.41224317531747579 0 -0.47556738700340911 -0.43148281500956259 0 -0.46109385203628273 -0.41581452122481272 0 -0.48396688182315478 -0.4193836051022245 0 -0.47532973594779793 -0.41224317531747579 0 -0.47556738700340911 -0.43148281500956259 0 -0.48976947002733012 -0.37768099102207758 0 -0.48739594377842999 -0.40018923498101411 0 -0.49864303034596802 -0.36268297627728929 0 -0.48976947002733012 -0.37768099102207758 0 -0.48739594377842999 -0.40018923498101411 0 -0.47983836113260192 -0.39093953363667261 0 -0.47532973594779793 -0.41224317531747579 0 -0.48739594377842999 -0.40018923498101411 0 -0.47544134773819202 -0.39959779392359379 0 -0.47532973594779793 -0.41224317531747579 0 -0.47544134773819202 -0.39959779392359379 0 -0.46590345811957989 -0.40254498354772611 0 -0.47544134773819202 -0.39959779392359379 0 -0.4687392397125506 -0.39207204213508062 0 -0.46590345811957989 -0.40254498354772611 0 -0.47544134773819202 -0.39959779392359379 0 -0.47983836113260192 -0.39093953363667261 0 -0.4687392397125506 -0.39207204213508062 0 -0.48739594377842999 -0.40018923498101411 0 -0.47544134773819202 -0.39959779392359379 0 -0.47983836113260192 -0.39093953363667261 0 -0.48976947002733012 -0.37768099102207758 0 -0.47983836113260192 -0.39093953363667261 0 -0.47493098173239751 -0.38229208726651409 0 -0.47983836113260192 -0.39093953363667261 0 -0.47493098173239751 -0.38229208726651409 0 -0.4687392397125506 -0.39207204213508062 0 -0.47493098173239751 -0.38229208726651409 0 -0.46184805260929829 -0.37952147175475431 0 -0.47445978518020632 -0.37124639778398588 0 -0.48976947002733012 -0.37768099102207758 0 -0.47493098173239751 -0.38229208726651409 0 -0.47445978518020632 -0.37124639778398588 0 -0.46184805260929829 -0.37952147175475431 0 -0.4687392397125506 -0.39207204213508062 0 -0.44676011096564971 -0.3910334213313631 0 -0.47493098173239751 -0.38229208726651409 0 -0.46184805260929829 -0.37952147175475431 0 -0.4687392397125506 -0.39207204213508062 0 -0.46590345
[...]
<PointData Scalars="" Vectors="displacement," Tensors="">
<DataArray type="Float64" Name="displacement" NumberOfComponents="3" format="ascii">
0.025000238383145933 0.024998237637052972 0 0.02422893002440631 0.02511088741037254 0 0.024998890960347384 0.024022965936969565 0 0.025000238383145933 0.024998237637052972 0 0.02422893002440631 0.02511088741037254 0 0.023181269402135572 0.025162504552461874 0 0.02363784296504293 0.025158529149262615 0 0.023267167353142878 0.025151130339417765 0 0.023390733787323238 0.025415869606610339 0 0.023423187318085806 0.02540891453714236 0 0.023181269402135572 0.025162504552461874 0 0.023390733787323238 0.025415869606610339 0 0.023372933943245165 0.025159143385487276 0 0.02317751628036507 0.025015457312230125 0 0.023390733787323238 0.025415869606610339 0 0.023423187318085806 0.02540891453714236 0 0.023372933943245165 0.025159143385487276 0 0.023423187318085806 0.02540891453714236 0 0.023372933943245165 0.025159143385487276 0 0.023514852513731983 0.025121816222693258 0 0.02363784296504293 0.025158529149262615 0 0.024598030433491461 0.024249647731976454 0 0.023390733787323238 0.025415869606610339 0 0.022942231835364497 0.025230978808156029 0 0.02317751628036507 0.025015457312230125 0 0.02422893002440631 0.02511088741037254 0 0.024897627147299786 0.024207250483992158 0 0.024998890960347384 0.024022965936969565 0 0.025152841786262078 0.023893233422538799 0 0.025000000094629372 0.024019637303037539 0 0.024999999201031142 0.023822579979379494 0 0.024598030433491461 0.024249647731976454 0 0.024999165499786206 0.023823929836224094 0 0.024598030433491461 0.024249647731976454 0 0.024999521697929395 0.024019798255410323 0 0.024598030433491461 0.024249647731976454 0 0.024342275463293574 0.024250995628449346 0 0.025149541514508551 0.023891020171292431 0 0.024999980416183121 0.023822558240468975 0 0.025728030418285839 0.023400873732865011 0 0.024999980416183121 0.023822558240468975 0 0.025728030418285839 0.023400873732865011 0 0.02499998708903825 0.022501864576499095 0 0.025673341674250106 0.022716979371582253 0 0.025728030418285839 0.023400873732865011 0 0.02499998708903825 0.022501864576499095 0 0.024342275463293574 0.024250995628449346 0 0.024484286065768534 0.023059712094575888 0 0.023372933943245165 0.025159143385487276 0 0.02317751628036507 0.025015457312230125 0 0.023399642578897369 0.024690657662159061 0 0.023372933943245165 0.025159143385487276 0 0.023514852513731983 0.025121816222693258 0 0.023399642578897369 0.024690657662159061 0 0.025673341674250106 0.022716979371582253 0 0.025728030418285839 0.023400873732865011 0 0.026303512491040994 0.022913813141225928 0 0.025058590585293278 0.021614145894196003 0 0.025025916448411494 0.0214830224132786 0 0.025221824612781316 0.021332054459532422 0 0.025028122573619995 0.021687938446481935 0 0.025058590585293278 0.021614145894196003 0 0.025025916448411494 0.0214830224132786 0 0.024484286065768534 0.023059712094575888 0 0.025442621995958998 0.021730456347426298 0 0.025673341674250106 0.022716979371582253 0 0.026303512491040994 0.022913813141225928 0 0.025658774090346961 0.022051488111637384 0 0.025028122573619995 0.021687938446481935 0 0.025058590585293278 0.021614145894196003 0 0.024870045199100625 0.021870143589719677 0 0.025658774090346961 0.022051488111637384 0 0.02499998708903825 0.022501864576499095 0 0.024999998777177981 0.021181132740809672 0 0.025673341674250106 0.022716979371582253 0 0.025658774090346961 0.022051488111637384 0 0.02499998708903825 0.022501864576499095 0 0.025962539238646925 0.02164362927214495 0 0.02578072547556811 0.022508417112986585 0 0.026967063184997624 0.022456324347464106 0 0.025962539238646925 0.02164362927214495 0 0.024870045199100625 0.021870143589719677 0 0.02578072547556811 0.022508417112986585 0 0.025962539238646925 0.02164362927214495 0 0.024870045199100625 0.021870143589719677 0 0.025437919799182532 0.021399610141667347 0 0.024870045199100625 0.021870143589719677 0 0.025221824612781316 0.021332054459532422 0 0.025437919799182532 0.021399610141667347 0 0.025058590585293278 0.021614145894196003 0 0.024870045199100625 0.021870143589719677 0 0.025221824612781316 0.021332054459532422 0 0.024870045199100625 0.021870143589719677 0 0.024626930754200301 0.023178951304104998 0 0.02578072547556811 0.022508417112986585 0 0.024484286065768534 0.023059712094575888 0 0.024769981983015086 0.021986165507463275 0 0.022990644238013284 0.022951901977266841 0 0.024870045199100625 0.021870143589719677 0 0.024626930754200301 0.023178951304104998 0 0.024484286065768534 0.023059712094575888 0 0.023838425137959418 0.024817320786380003 0 0.023514852513731983 0.025121816222693258 0 0.023399642578897369 0.024690657662159061 0 0.023908634636213497 0.024932134970251724 0 0.022990644238013284 0.022951901977266841 0 0.024626930754200301 0.023178951304104998 0 0.023908634636213497 0.024932134970251724 0 0.024626930754200301 0.023178951304104998 0 0.026031360068554957 0.023671550041047422 0 0.023908634636213497 0.024932134970251724 0 0.026031360068554957 0.023671550041047422 0 0.02578072547556811 0.022508417112986585 0 0.026967063184997624 0.022456324347464106 0 0.024260906742806565 0.025036298207708724 0 0.02393745588348745 0.024329303491840929 0 0.024626930754200301 0.023178951304104998 0 0.026031360068554957 0.023671550041047422 0 0.02578072547556811 0.022508417112986585 0 0.022537702694705453 0.02636486872663997 0 0.023612403149299598 0.025540719336048928 0 0.022536137850370615 0.025464011532948271 0 0.025000238383145933 0.024998237637052972 0 0.023181269402135572 0.025162504552461874 0 0.021981353393844577 0.024999740283934112 0 0.022537702694705453 0.02636486872663997 0 0.022536137850370615 0.025464011532948271 0 0.021809341131702676 0.025905138855625252 0 0.023612403149299598 0.025540719336048928 0 0.023180087514057875 0.025387621149181479 0 0.022536137850370615 0.025464011532948271 0 0.026031360068554957 0.023671550041047422 0 0.023908634636213497 0.024932134970251724 0 0.023612403149299598 0.025540719336048928 0 0.024260906742806565 0.025036298207708724 0 0.023657761985289707 0.025494647274981103 0 0.023514852513731983 0.025121816222693258 0 0.023908634636213497 0.024932134970251724 0 0.023612403149299598 0.025540719336048928 0 0.023423187318085806 0.02540891453714236 0 0.023514852513731983 0.025121816222693258 0 0.023612403149299598 0.025540719336048928 0 0.023612403149299598 0.025540719336048928 0 0.02334454398894454 0.02537842820333365 0 0.023180087514057875 0.025387621149181479 0 0.023423187318085806 0.02540891453714236 0 0.023612403149299598 0.025540719336048928 0 0.02334454398894454 0.02537842820333365 0 0.02334454398894454 0.02537842820333365 0 0.023180087514057875 0.025387621149181479 0 0.023181269402135572 0.025162504552461874 0 0.023423187318085806 0.02540891453714236 0 0.02334454398894454 0.02537842820333365 0 0.023181269402135572 0.025162504552461874 0 0.023180087514057875 0.025387621149181479 0 0.023181269402135572 0.025162504552461874 0 0.022536137850370615 0.025464011532948271 0 0.023181269402135572 0.025162504552461874 0 0.022536137850370615 0.025464011532948271 0 0.021981353393844577 0.024999740283934112 0 0.022536137850370615 0.025464011532948271 0 0.021981353393844577 0.024999740283934112 0 0.021655233175293106 0.025097553512051018 0 0.022536137850370615 0.025464011532948271 0 0.021655233175293106 0.025097553512051018 0 0.021809341131702676 0.025905138855625252 0 0.021694966760794854 0.02493972671932965 0 0.021384324662432608 0.026469541077503919 0 0.021655233175293106 0.025097553512051018 0 0.020967278095511927 0.025698274177995157 0 0.020045466066289749 0.025512530615811543 0 0.021655233175293106 0.025097553512051018 0 0.020967278095511927 0.025698274177995157 0 0.021399916084991828 0.026076093220002261 0 0.021981353393844577 0.024999740283934112 0 0.021655233175293106 0.025097553512051018 0 0.018134105810072205 0.024932154364520336 0 0.021655233175293106 0.025097553512051018 0 0.020045466066289749 0.025512530615811543 0 0.018134105810072205 0.024932154364520336 0 0.020967278095511927 0.025698274177995157 0 0.020678596170309451 0.02603104871722604 0 0.020045466066289749 0.025512530615811543 0 0.020678596170309451 0.02603104871722604 0 0.021399916084991828 0.026076093220002261 0 0.020917349913844318 0.026550180704191025 0 0.020967278095511927 0.025698274177995157 0 0.020678596170309451 0.02603104871722604 0 0.021399916084991828 0.026076093220002261 0 0.018918865894080913 0.025378203226667763 0 0.020045466066289749 0.025512530615811543 0 0.018134105810072205 0.024932154364520336 0 0.018918865894080913 0.025378203226667763 0 0.020045466066289749 0.025512530615811543 0 0.019618239571632796 0.02583096750462574 0 0.020678596170309451 0.02603104871722604 0 0.020045466066289749 0.025512530615811543 0 0.020057749095631509 0.026017500154881554 0 0.020678596170309451 0.02603104871722604 0 0.020057749095631509 0.026017500154881554 0 0.020233709969444656 0.026404035371464549 0 0.020057749095631509 0.026017500154881554 0 0.019703574829606472 0.026304062248232122 0 0.020233709969444656 0.026404035371464549 0 0.020057749095631509 0.026017500154881554 0 0.019618239571632796 0.02583096750462574 0 0.019703574829606472 0.026304062248232122 0 0.020045466066289749 0.025512530615811543 0 0.020057749095631509 0.026017500154881554 0 0.019618239571632796 0.02583096750462574 0 0.018918865894080913 0.025378203226667763 0 0.019618239571632796 0.02583096750462574 0 0.019218397951980357 0.026044859040897692 0 0.019618239571632796 0.02583096750462574 0 0.019218397951980357 0.026044859040897692 0 0.019703574829606472 0.026304062248232122 0 0.019218397951980357 0.026044859040897692 0 0.019116892427518503 0.026629174623347282 0 0.018726871593985787 0.02606688758482242 0 0.018918865894080913 0.025378203226667763 0 0.019218397951980357 0.026044859040897692 0 0.018726871593985787 0.02606688758482242 0 0.019116892427518503 0.026629174623347282 0 0.019703574829606472 0.026304062248232122 0 0.019658421627035849 0.027321803425886054 0 0.019218397951980357 0.026044859040897692 0 0.019116892427518503 0.026629174623347282 0 0.019703574829606472 0.026304062248232122 0 0.020233709969444656 0.026404035371464549 0 0.019658421627035849 0.027321803425886054 0 0.020917349913844318 0.026550180704191025 0 0.020681404206266876 0.026857399095034862 0 0.020891217696409527 0.026568390612557696 0 0.019703574829606472 0.026304062248232122 0 0.020233709969444656 0.026404035371464549 0 0.019658421627035849 0.027321803425886054 0 0.021570045784940789 0.026360341885059538 0 0.020917349913844318 0.026550180704191025 0 0.02108552619991657 0.026176122269479709 0 0.019116892427518503 0.026629174623347282 0 0.019658421627035849 0.027321803425886054 0 0.018939526226865767 0.027206327783827831 0 0.019658421627035849 0.027321803425886054 0 0.018939526226865767 0.027206327783827831 0 0.018552043656493631 0.027928922142587707 0 0.020681404206266876 0.026857399095034862 0 0.020183947515214379 0.026611257809642228 0 0.022537702694705453 0.02636486872663997 0 0.021809341131702676 0.025905138855625252 0 0.021792878514025546 0.026857669439456652 0 0.021384324662432608 0.026469541077503919 0 0.02393745588348745 0.024329303491840929 0 0.021399916084991828 0.026076093220002261 0 0.021064867553439379 0.026548942440189339 0 0.020917349913844318 0.026550180704191025 0 0.020678596170309451 0.02603104871722604 0 0.020233709969444656 0.026404035371464549 0 0.020917349913844318 0.026550180704191025 0 0.02393745588348745 0.024329303491840929 0 0.023776336417984996 0.023452419890678373 0 0.021064867553439379 0.026548942440189339 0 0.020917349913844318 0.026550180704191025 0 0.02108552619991657 0.026176122269479709 0 0.02393745588348745 0.024329303491840929 0 0.026566590434046612 0.02070319176423505 0 0.025962539238646925 0.02164362927214495 0 0.026967063184997624 0.022456324347464106 0 0.02675690856023254 0.021423641391331575 0 0.026286821420673536 0.021060018355815991 0 0.026460415931027281 0.020880358107739801 0 0.026325853766110963 0.020869600815933212 0 0.026566590434046612 0.02070319176423505 0 0.026463104144366655 0.021005361644416947 0 0.02675690856023254 0.021423641391331575 0 0.026434592453885922 0.020769034453177022 0 0.026213230854553942 0.021041698720128121 0 0.026325853766110963 0.020869600815933212 0 0.026418366813829794 0.020803302930270728 0 0.026434592453885922 0.020769034453177022 0 0.026460415931027281 0.020880358107739801 0 0.026325853766110963 0.020869600815933212 0 0.026418366813829794 0.020803302930270728 0 0.026460415931027281 0.020880358107739801 0 0.026418366813829794 0.020803302930270728 0 0.02646473350979334 0.020725637759930183 0 0.02646473350979334 0.020725637759930183 0 0.026439157088323138 0.020658649013364526 0 0.026478935012817166 0.020601344432105224 0 0.026418366813829794 0.020803302930270728 0 0.026439157088323138 0.020658649013364526 0 0.026434592453885922 0.020769034453177022 0 0.026418366813829794 0.020803302930270728 0 0.02646473350979334 0.020725637759930183 0 0.026439157088323138 0.020658649013364526 0 0.026439157088323138 0.020658649013364526 0 0.026363467245890886 0.020604607346314453 0 0.026434592453885922 0.020769034453177022 0 0.026363467245890886 0.020604607346314453 0 0.026190444945675899 0.020504052261378206 0 0.026119245600552048 0.020661407126364394 0 0.026363467245890886 0.020604607346314453 0 0.026434592453885922 0.020769034453177022 0 0.026119245600552048 0.020661407126364394 0 0.026434592453885922 0.020769034453177022 0 0.026213230854553942 0.021041698720128121 0 0.026119245600552048 0.020661407126364394 0 0.021570045784940789 0.026360341885059538 0 0.021692479647730054 0.025601049234887877 0 0.022478590155107319 0.025871464154398428 0 0.023776336417984996 0.023452419890678373 0 0.024081355344893335 0.023237260956007897 0 0.021570045784940789 0.026360341885059538 0 0.02108552619991657 0.026176122269479709 0 0.021692479647730054 0.025601049234887877 0 0.026460415931027281 0.020880358107739801 0 0.02646473350979334 0.020725637759930183 0 0.026518041837513582 0.020750968480561332 0 0.02646473350979334 0.020725637759930183 0 0.026497339074396251 0.020683092154441505 0 0.026478935012817166 0.020601344432105224 0 0.02646473350979334 0.020725637759930183 0 0.026518041837513582 0.020750968480561332 0 0.026497339074396251 0.020683092154441505 0 0.026518041837513582 0.020750968480561332 0 0.026497339074396251 0.020683092154441505 0 0.026523189433179082 0.020641317085969214 0 0.021692479647730054 0.025601049234887877 0 0.022342275297108073 0.02560529820315326 0 0.022469587746334348 0.025001927075489209 0 0.026518041837513582 0.020750968480561332 0 0.026523189433179082 0.020641317085969214 0 0.026564315870905922 0.020673435621797756 0 0.024081355344893335 0.023237260956007897 0 0.024578524646316359 0.022518198791159603 0 0.0265321849154357 0.020582622697297739 0 0.026523189433179082 0.020641317085969214 0 0.02655882518801821 0.020621821412197032 0 0.0265321849154357 0.020582622697297739 0 0.026523189433179082 0.020641317085969214 0 0.026505678552843758 0.020574394717171689 0 0.026497339074396251 0.020683092154441505 0 0.026523189433179082 0.020641317085969214 0 0.026478935012817166 0.020601344432105224 0 0.026523189433179082 0.020641317085969214 0 0.026505678552843758 0.020574394717171689 0 0.026478935012817166 0.020601344432105224 0 0.026478935012817166 0.020601344432105224 0 0.026480757102126065 0.020525699103131314 0 0.026437828398363072 0.020538576669196677 0 0.026505678552843758 0.020574394717171689 0 0.026478935012817166 0.020601344432105224 0 0.026480757102126065 0.020525699103131314 0 0.026480757102126065 0.020525699103131314 0 0.026437828398363072 0.020538576669196677 0 0.026460980839753734 0.020473947427111869 0 0.026480757102126065 0.020525699103131314 0 0.026502290980939234 0.020477114112696135 0 0.026460980839753734 0.020473947427111869 0 0.026505678552843758 0.020574394717171689 0 0.026480757102126065 0.020525699103131314 0 0.026518076755971648 0.020517913522198943 0 0.026480757102126065 0.020525699103131314 0 0.026518076755971648 0.020517913522198943 0 0.026502290980939234 0.020477114112696135 0 0.026518076755971648 0.020517913522198943 0 0.026545511558521032 0.020491173806344881 0 0.026524175218624903 0.020457397612754502 0 0.0265321849154357 0.020582622697297739 0 0.026518076755971648 0.020517913522198943 0 0.026559429891923971 0.020553662960875383 0 0.0265321849154357 0.020582622697297739 0 0.026505678552843758 0.020574394717171689 0 0.026518076755971648 0.020517913522198943 0 0.026378617577808381 0.020569042464263734 0 0.026189497047798792 0.020077004522613701 0 0.026384991520137152 0.020573788491371845 0 0.02638378854557907 0.02052192616157323 0 0.026304309314569327 0.020559727928420327 0 0.026402805315366418 0.02050613112509489 0 0.026019861536106279 0.020319779448860591 0 0.026190444945675899 0.020504052261378206 0 0.026363467245890886 0.020604607346314453 0 0.026402805315366418 0.02050613112509489 0 0.026190444945675899 0.020504052261378206 0 0.026439157088323138 0.020658649013364526 0 0.026363467245890886 0.020604607346314453 0 0.026402805315366418 0.02050613112509489 0 0.026478935012817166 0.020601344432105224 0 0.026384991520137152 0.020573788491371845 0 0.026437828398363072 0.020538576669196677 0 0.026439157088323138 0.020658649013364526 0 0.026478935012817166 0.020601344432105224 0 0.026402805315366418 0.02050613112509489 0 0.026474512384869756 0.020583575900551768 0 0.026378617577808381 0.020569042464263734 0 0.026384991520137152 0.020573788491371845 0 0.026437828398363072 0.020538576669196677 0 0.02638378854557907 0.02052192616157323 0 0.026437828398363072 0.020538576669196677 0 0.02638378854557907 0.02052192616157323 0 0.026460980839753734 0.020473947427111869 0 0.02676084073889845 0.019477849543123715 0 0.027308946515196261 0.019211892579102365 0 0.02676084073889845 0.019477849543123715 0 0.026189497047798792 0.020077004522613701 0 0.027077724115138525 0.018520645269882469 0 0.02650147031406587 0.018488417624193652 0 0.026817305287791072 0.017939603245648566 0 0.027077724115138525 0.018520645269882469 0 0.02650147031406587 0.018488417624193652 0 0.026304965202921925 0.019047746641404524 0 0.02650147031406587 0.018488417624193652 0 0.026249760422973188 0.01873134839684636 0 0.026049860689940835 0.018482165064287865 0 0.02650147031406587 0.018488417624193652 0 0.026249760422973188 0.01873134839684636 0 0.026304965202921925 0.019047746641404524 0 0.026249760422973188 0.01873134839684636 0 0.026304965202921925 0.019047746641404524 0 0.026069606519316547 0.018863041877242175 0 0.026189497047798792 0.020077004522613701 0 0.025840042886507254 0.020324996470725987 0 0.026019861536106279 0.020319779448860591 0 0.025993578808412299 0.020481787983490984 0 0.025832613203999742 0.02034821003627096 0 0.026019861536106279 0.020319779448860591 0 0.025993578808412299 0.020481787983490984 0 0.026190444945675899 0.020504052261378206 0 0.026304965202921925 0.019047746641404524 0 0.025865221942278818 0.01914839464944567 0 0.026069606519316547 0.018863041877242175 0 0.025986844575832488 0.020280108709889978 0 0.025832613203999742 0.02034821003627096 0 0.02566772067465397 0.020162017963394879 0 0.026189497047798792 0.020077004522613701 0 0.025704623777406781 0.019640707098206412 0 0.025641940536750611 0.020425477316508955 0 0.025832613203999742 0.02034821003627096 0 0.02566772067465397 0.020162017963394879 0 0.025993578808412299 0.020481787983490984 0 0.025832613203999742 0.02034821003627096 0 0.025752377970489147 0.020655175860112448 0 0.025641940536750611 0.020425477316508955 0 0.025832613203999742 0.02034821003627096 0 0.025752377970489147 0.020655175860112448 0 0.025865221942278818 0.01914839464944567 0 0.025872890767545963 0.018856770844679249 0 0.026069606519316547 0.018863041877242175 0 0.025872890767545963 0.018856770844679249 0 0.026069606519316547 0.018863041877242175 0 0.026049860689940835 0.018482165064287865 0 0.026249760422973188 0.01873134839684636 0 0.026069606519316547 0.018863041877242175 0 0.026049860689940835 0.01848216506428786