<?xml version="1.0"?>
<VTKFile type="UnstructuredGrid" version="0.1" byte_order="LittleEndian">
<UnstructuredGrid>
<Piece NumberOfPoints="30881" NumberOfCells="10862">
<Points>
<DataArray type="Float64" NumberOfComponents="3" format="ascii">
-0.49999999999999828 -0.48677703703187492 0 -0.5 -0.5 0 -0.48129281494584059 -0.49338851851593718 0 -0.5 -0.5 0 -0.48129281494584059 -0.49338851851593718 0 -0.46258562989168328 -0.5 0 -0.49999999999999828 -0.48677703703187492 0 -0.48129281494584059 -0.49338851851593718 0 -0.49999999999999828 -0.48677703703187492 0 -0.4824545428279598 -0.47451624516148783 0 -0.48129281494584059 -0.49338851851593718 0 -0.49999999999999828 -0.48677703703187492 0 -0.4824545428279598 -0.47451624516148783 0 -0.5 -0.46599539173150673 0 -0.4824545428279598 -0.47451624516148783 0 -0.46853075243710779 -0.48354990242643758 0 -0.46411508256092049 -0.46598235294430129 0 -0.4824545428279598 -0.47451624516148783 0 -0.48129281494584059 -0.49338851851593718 0 -0.46853075243710779 -0.48354990242643758 0 -0.48129281494584059 -0.49338851851593718 0 -0.46258562989168328 -0.5 0 -0.48129281494584059 -0.49338851851593718 0 -0.46258562989168328 -0.5 0 -0.46853075243710779 -0.48354990242643758 0 -0.46258562989168328 -0.5 0 -0.46853075243710779 -0.48354990242643758 0 -0.45147378687733691 -0.48362213557840178 0 -0.46853075243710779 -0.48354990242643758 0 -0.45147378687733691 -0.48362213557840178 0 -0.46411508256092049 -0.46598235294430129 0 -0.4457251648104853 -0.47020164095208389 0 -0.45147378687733691 -0.48362213557840178 0 -0.46411508256092049 -0.46598235294430129 0 -0.4457251648104853 -0.47020164095208389 0 -0.45147378687733691 -0.48362213557840178 0 -0.43513446131126993 -0.48199891714758791 0 -0.45147378687733691 -0.48362213557840178 0 -0.43275163025255442 -0.5 0 -0.43513446131126993 -0.48199891714758791 0 -0.46258562989168328 -0.5 0 -0.45147378687733691 -0.48362213557840178 0 -0.43275163025255442 -0.5 0 -0.4467190029717853 -0.45478934699519452 0 -0.4422915115958943 -0.43555510214664611 0 -0.43246707723660932 -0.44794326854796312 0 -0.4457251648104853 -0.47020164095208389 0 -0.4467190029717853 -0.45478934699519452 0 -0.46411508256092049 -0.46598235294430129 0 -0.4457251648104853 -0.47020164095208389 0 -0.4467190029717853 -0.45478934699519452 0 -0.43016578207734568 -0.46313500011938619 0 -0.4467190029717853 -0.45478934699519452 0 -0.46411508256092049 -0.46598235294430129 0 -0.47114575579794699 -0.4403844242888923 0 -0.4467190029717853 -0.45478934699519452 0 -0.47114575579794699 -0.4403844242888923 0 -0.4422915115958943 -0.43555510214664611 0 -0.47114575579794699 -0.4403844242888923 0 -0.4422915115958943 -0.43555510214664611 0 -0.46411508256092049 -0.46598235294430129 0 -0.47114575579794699 -0.4403844242888923 0 -0.48354307623736548 -0.45841843211146538 0 -0.4824545428279598 -0.47451624516148783 0 -0.46411508256092049 -0.46598235294430129 0 -0.48354307623736548 -0.45841843211146538 0 -0.4824545428279598 -0.47451624516148783 0 -0.48354307623736548 -0.45841843211146538 0 -0.5 -0.46599539173150673 0 -0.48354307623736548 -0.45841843211146538 0 -0.5 -0.46599539173150673 0 -0.49999999999999972 -0.44521374643113848 0 -0.47114575579794699 -0.4403844242888923 0 -0.49999999999999972 -0.44521374643113848 0 -0.47114575579794699 -0.4403844242888923 0 -0.49999999999999972 -0.44521374643113848 0 -0.48704432221743971 -0.42935617662229603 0 -0.47114575579794699 -0.4403844242888923 0 -0.48354307623736548 -0.45841843211146538 0 -0.49999999999999972 -0.44521374643113848 0 -0.49999999999999972 -0.44521374643113848 0 -0.48704432221743971 -0.42935617662229603 0 -0.5 -0.41591957503128979 0 -0.48704432221743971 -0.42935617662229603 0 -0.5 -0.41591957503128979 0 -0.47703153307181151 -0.41590696073786332 0 -0.5 -0.41591957503128979 0 -0.47703153307181151 -0.41590696073786332 0 -0.48817838912021821 -0.4022119694541284 0 -0.47114575579794699 -0.4403844242888923 0 -0.48704432221743971 -0.42935617662229603 0 -0.47703153307181151 -0.41590696073786332 0 -0.5 -0.38662540363144121 0 -0.47568202340906118 -0.39039593841591919 0 -0.4947615751445838 -0.37332156409002909 0 -0.47568202340906118 -0.39039593841591919 0 -0.4947615751445838 -0.37332156409002909 0 -0.5 -0.38662540363144121 0 -0.48817838912021821 -0.4022119694541284 0 -0.47568202340906118 -0.39039593841591919 0 -0.5 -0.41591957503128979 0 -0.5 -0.38662540363144121 0 -0.48817838912021821 -0.4022119694541284 0 -0.47703153307181151 -0.41590696073786332 0 -0.48817838912021821 -0.4022119694541284 0 -0.47568202340906118 -0.39039593841591919 0 -0.47703153307181151 -0.41590696073786332 0 -0.47568202340906118 -0.39039593841591919 0 -0.45660247167353862 -0.40747031274180939 0 -0.47568202340906118 -0.39039593841591919 0 -0.48030931097003587 -0.37191064435083931 0 -0.46669490250066459 -0.37481721741951951 0 -0.47568202340906118 -0.39039593841591919 0 -0.4947615751445838 -0.37332156409002909 0 -0.48030931097003587 -0.37191064435083931 0 -0.45332061783919553 -0.38729481725706361 0 -0.46669490250066459 -0.37481721741951951 0 -0.45095991715087752 -0.36968037302039969 0 -0.47568202340906118 -0.39039593841591919 0 -0.45332061783919553 -0.38729481725706361 0 -0.46669490250066459 -0.37481721741951951 0 -0.47568202340906118 -0.39039593841591919 0 -0.45660247167353862 -0.40747031274180939 0 -0.47568202340906118 -0.39039593841591919 0 -0.45332061783919553 -0.38729481725706361 0 -0.45660247167353862 -0.40747031274180939 0 -0.44332653075004852 -0.401690115615219 0 -0.44646247228389868 -0.41654464256061052 0 -0.42870657106664078 -0.39987574649354879 0 -0.45332061783919553 -0.38729481725706361 0 -0.44332653075004852 -0.401690115615219 0 -0.43479631603355468 -0.39077639303142497 0 -0.45332061783919553 -0.38729481725706361 0 -0.44332653075004852 -0.401690115615219 0 -0.45660247167353862 -0.40747031274180939 0 -0.45332061783919553 -0.38729481725706361 0 -0.43421362475025049 -0.37527491429266319 0 -0.43479631603355468 -0.39077639303142497 0 -0.45332061783919553 -0.38729481725706361 0 -0.43421362475025049 -0.37527491429266319 0 -0.45095991715087752 -0.36968037302039969 0 -0.47114575579794699 -0.4403844242888923 0 -0.45663439814062529 -0.42533932462455271 0 -0.4422915115958943 -0.43555510214664611 0 -0.47114575579794699 -0.4403844242888923 0 -0.47703153307181151 -0.41590696073786332 0 -0.45663439814062529 -0.42533932462455271 0 -0.45663439814062529 -0.42533932462455271 0 -0.45660247167353862 -0.40747031274180939 0 -0.44646247228389868 -0.41654464256061052 0 -0.47703153307181151 -0.41590696073786332 0 -0.45663439814062529 -0.42533932462455271 0 -0.45660247167353862 -0.40747031274180939 0 -0.44332653075004852 -0.401690115615219 0 -0.45660247167353862 -0.40747031274180939 0 -0.44646247228389868 -0.41654464256061052 0 -0.45660247167353862 -0.40747031274180939 0 -0.44646247228389868 -0.41654464256061052 0 -0.44646247228389868 -0.41654464256061052 0 -0.4375229199380159 -0.42454468706769971 0 -0.45663439814062529 -0.42533932462455271 0 -0.4375229199380159 -0.42454468706769971 0 -0.4422915115958943 -0.43555510214664611 0 -0.45663439814062529 -0.42533932462455271 0 -0.44646247228389868 -0.41654464256061052 0 -0.4375229199380159 -0.42454468706769971 0 -0.4375229199380159 -0.42454468706769971 0 -0.4422915115958943 -0.43555510214664611 0 -0.43077617074680319 -0.43406335077952207 0 -0.43077617074680319 -0.43406335077952207 0 -0.42550232634077589 -0.42345940056268039 0 -0.41950844772475421 -0.43888456563633732 0 -0.4375229199380159 -0.42454468706769971 0 -0.43077617074680319 -0.43406335077952207 0 -0.42550232634077589 -0.42345940056268039 0 -0.44646247228389868 -0.41654464256061052 0 -0.41657232816672918 -0.41306671883907142 0 -0.42870657106664078 -0.39987574649354879 0 -0.44646247228389868 -0.41654464256061052 0 -0.4375229199380159 -0.42454468706769971 0 -0.42550232634077589 -0.42345940056268039 0 -0.44646247228389868 -0.41654464256061052 0 -0.42550232634077589 -0.42345940056268039 0 -0.41657232816672918 -0.41306671883907142 0 -0.44646247228389868 -0.41654464256061052 0 -0.41657232816672918 -0.41306671883907142 0 -0.42550232634077589 -0.42345940056268039 0 -0.41657232816672918 -0.41306671883907142 0 -0.41333489101611293 -0.42699700567040988 0 -0.41657232816672918 -0.41306671883907142 0 -0.41333489101611293 -0.42699700567040988 0 -0.39893236021425188 -0.42931692235905211 0 -0.41333489101611293 -0.42699700567040988 0 -0.39893236021425188 -0.42931692235905211 0 -0.41950844772475421 -0.43888456563633732 0 -0.42550232634077589 -0.42345940056268039 0 -0.41333489101611293 -0.42699700567040988 0 -0.41950844772475421 -0.43888456563633732 0 -0.43421362475025049 -0.37527491429266319 0 -0.42478231784314502 -0.38643128255249681 0 -0.41656514696884139 -0.37636588688318029 0 -0.43421362475025049 -0.37527491429266319 0 -0.42478231784314502 -0.38643128255249681 0 -0.43479631603355468 -0.39077639303142497 0 -0.42478231784314502 -0.38643128255249681 0 -0.43479631603355468 -0.39077639303142497 0 -0.42870657106664078 -0.39987574649354879 0 -0.44332653075004852 -0.401690115615219 0 -0.43479631603355468 -0.39077639303142497 0 -0.42870657106664078 -0.39987574649354879 0 -0.41657232816672918 -0.41306671883907142 0 -0.40962993039643741 -0.3898634720616666 0 -0.3946356370269814 -0.39577424904278191 0 -0.42478231784314502 -0.38643128255249681 0 -0.42870657106664078 -0.39987574649354879 0 -0.40962993039643741 -0.3898634720616666 0 -0.41657232816672918 -0.41306671883907142 0 -0.42870657106664078 -0.39987574649354879 0 -0.40962993039643741 -0.3898634720616666 0 -0.42478231784314502 -0.38643128255249681 0 -0.40962993039643741 -0.3898634720616666 0 -0.41656514696884139 -0.37636588688318029 0 -0.40962993039643741 -0.3898634720616666 0 -0.41656514696884139 -0.37636588688318029 0 -0.40465459864295228 -0.37650109000307358 0 -0.39431275766669582 -0.38061373190328529 0 -0.40465459864295228 -0.37650109000307358 0 -0.3968495855878465 -0.36923685638487008 0 -0.40962993039643741 -0.3898634720616666 0 -0.39431275766669582 -0.38061373190328529 0 -0.40465459864295228 -0.376501090003
[...]
<PointData Scalars="" Vectors="displacement," Tensors="">
<DataArray type="Float64" Name="displacement" NumberOfComponents="3" format="ascii">
-1.182220851577704e-06 0.082759490406478078 0 7.8839452272206549e-07 0.084995256073981146 0 -3.8492504910633268e-07 0.084932435480258806 0 7.8839452272206549e-07 0.084995256073981146 0 -3.8492504910633268e-07 0.084932435480258806 0 -3.9112251556165356e-07 0.085002088969422532 0 -2.7453370632985576e-07 0.08275383639158905 0 7.3112535358359041e-06 0.083814839115942938 0 2.966443890717894e-07 0.082746883172397714 0 0.00044125586999731761 0.08145715419314796 0 0.00041543329277734847 0.082277096693566795 0 2.966443890717894e-07 0.082746883172397714 0 0.00044125586999731761 0.08145715419314796 0 2.4789176678374419e-06 0.079220038541332777 0 0.00044125586999731761 0.08145715419314796 0 0.00025182088341330153 0.083139580322216439 0 0.00035099239610921325 0.082537215240392245 0 0.00044125586999731761 0.08145715419314796 0 0.00041543329277734847 0.082277096693566795 0 0.00025182088341330153 0.083139580322216439 0 7.3112535358359041e-06 0.083814839115942938 0 3.989317602961969e-07 0.084997994600651397 0 0.00041543329277734847 0.082277096693566795 0 2.8850555866820379e-06 0.084994197620490874 0 0.00025182088341330153 0.083139580322216439 0 2.8850555866820379e-06 0.084994197620490874 0 0.00025182088341330153 0.083139580322216439 0 0.00023922957079284158 0.083889073127081118 0 0.00025182088341330153 0.083139580322216439 0 0.00023922957079284158 0.083889073127081118 0 0.00035099239610921325 0.082537215240392245 0 0.00037815226127532617 0.083217002758743039 0 0.00023922957079284158 0.083889073127081118 0 0.00035099239610921325 0.082537215240392245 0 0.00037815226127532617 0.083217002758743039 0 0.00023922957079284158 0.083889073127081118 0 0.00015895020374524755 0.083920668470783208 0 0.00023922957079284158 0.083889073127081118 0 -8.3746038095154356e-07 0.084998666000036013 0 0.00015895020374524755 0.083920668470783208 0 2.8850555866820379e-06 0.084994197620490874 0 0.00023922957079284158 0.083889073127081118 0 -8.3746038095154356e-07 0.084998666000036013 0 0.00049159116444361356 0.082411686823679761 0 0.0016940597916339139 0.080996502272542126 0 0.0011069098290111658 0.082063169255687407 0 0.00037815226127532617 0.083217002758743039 0 0.00049159116444361356 0.082411686823679761 0 0.00035099239610921325 0.082537215240392245 0 0.00037815226127532617 0.083217002758743039 0 0.00049159116444361356 0.082411686823679761 0 0.0006054921805160033 0.082873495005068396 0 0.00049159116444361356 0.082411686823679761 0 0.00035099239610921325 0.082537215240392245 0 -0.00064394801607306951 0.08197204869208688 0 0.00049159116444361356 0.082411686823679761 0 -0.00064394801607306951 0.08197204869208688 0 0.0016940597916339139 0.080996502272542126 0 0.00035829820036169236 0.077685976145977817 0 0.00052068037509688198 0.078984371931200656 0 0.00035099239610921325 0.082537215240392245 0 -0.00064394801607306951 0.08197204869208688 0 0.00041051631715814137 0.080227073729279452 0 0.00044125586999731761 0.08145715419314796 0 0.00035099239610921325 0.082537215240392245 0 0.00041051631715814137 0.080227073729279452 0 0.00044125586999731761 0.08145715419314796 0 0.00041051631715814137 0.080227073729279452 0 2.4789176678374419e-06 0.079220038541332777 0 0.00041051631715814137 0.080227073729279452 0 2.4789176678374419e-06 0.079220038541332777 0 -4.7065776650983242e-06 0.075694425250565994 0 0.00035829820036169236 0.077685976145977817 0 8.9490374791349564e-07 0.075688403433810128 0 0.0019862795644469016 0.073328474183016135 0 5.2585406554433264e-07 0.075678102346387915 0 0.00081599054039564961 0.072960422994691854 0 -0.00064394801607306951 0.08197204869208688 0 0.00041051631715814137 0.080227073729279452 0 -4.7065776650983242e-06 0.075694425250565994 0 5.2585406554433264e-07 0.075678102346387915 0 0.00081599054039564961 0.072960422994691854 0 2.1513612607400679e-06 0.070709275496984428 0 0.00081599054039564961 0.072960422994691854 0 2.1513612607400679e-06 0.070709275496984428 0 8.2236572194094315e-05 0.072400040243072741 0 2.1513612607400679e-06 0.070709275496984428 0 8.2236572194094315e-05 0.072400040243072741 0 -0.00019475775103930686 0.069775131645785943 0 0.0019862795644469016 0.073328474183016135 0 0.00081599054039564961 0.072960422994691854 0 8.2236572194094315e-05 0.072400040243072741 0 -3.794915064693268e-06 0.06572601559987748 0 -0.0015834516674158162 0.070817641904969794 0 -0.00061724308934951407 0.063110210935669014 0 -0.00011521628562939224 0.066720786572568538 0 -0.00012158279797237828 0.0661791619045419 0 -3.794915064693268e-06 0.06572601559987748 0 -0.00019475775103930686 0.069775131645785943 0 -0.0015834516674158162 0.070817641904969794 0 2.1513612607400679e-06 0.070709275496984428 0 -3.794915064693268e-06 0.06572601559987748 0 -0.00019475775103930686 0.069775131645785943 0 8.2236572194094315e-05 0.072400040243072741 0 -0.00019475775103930686 0.069775131645785943 0 -0.0015834516674158162 0.070817641904969794 0 8.2236572194094315e-05 0.072400040243072741 0 -0.0015834516674158162 0.070817641904969794 0 -0.0015326206185786919 0.075676648638344085 0 -0.0010298439466812756 0.057791380097563884 0 -0.00046116042937929309 0.059091212694706845 0 -0.00068065094116618447 0.057891828616959205 0 -0.0010298439466812756 0.057791380097563884 0 -0.00061724308934951407 0.063110210935669014 0 -0.00046116042937929309 0.059091212694706845 0 1.5899844225724282e-05 0.058428454665843441 0 -0.00068065094116618447 0.057891828616959205 0 -0.00086588952196285489 0.05837578452604418 0 -0.0010298439466812756 0.057791380097563884 0 1.5899844225724282e-05 0.058428454665843441 0 -0.00068065094116618447 0.057891828616959205 0 -0.00011521628562939224 0.066720786572568538 0 0.00044288070281479241 0.06860461962131166 0 -0.0010298439466812756 0.057791380097563884 0 1.5899844225724282e-05 0.058428454665843441 0 0.0020000723285398337 0.058170289210265035 0 0.0018146053366324823 0.059454073466652047 0 0.0035876483389151803 0.059077617855430108 0 0.0020643929566270822 0.06123284512566643 0 1.5899844225724282e-05 0.058428454665843441 0 0.0018146053366324823 0.059454073466652047 0 0.00071992975722740221 0.060342256157045693 0 1.5899844225724282e-05 0.058428454665843441 0 0.0018146053366324823 0.059454073466652047 0 0.0020000723285398337 0.058170289210265035 0 1.5899844225724282e-05 0.058428454665843441 0 -0.00085041323150304216 0.060117935852199586 0 0.00071992975722740221 0.060342256157045693 0 1.5899844225724282e-05 0.058428454665843441 0 -0.00085041323150304216 0.060117935852199586 0 -0.00086588952196285489 0.05837578452604418 0 0.0019862795644469016 0.073328474183016135 0 0.00034138500100394859 0.076548229353992456 0 0.0016940597916339139 0.080996502272542126 0 0.0019862795644469016 0.073328474183016135 0 8.2236572194094315e-05 0.072400040243072741 0 0.00034138500100394859 0.076548229353992456 0 0.00034138500100394859 0.076548229353992456 0 -0.0015326206185786919 0.075676648638344085 0 -0.000947527940785847 0.078565805082256773 0 8.2236572194094315e-05 0.072400040243072741 0 0.00034138500100394859 0.076548229353992456 0 -0.0015326206185786919 0.075676648638344085 0 0.0018146053366324823 0.059454073466652047 0 0.0020000723285398337 0.058170289210265035 0 0.0035876483389151803 0.059077617855430108 0 0.00044288070281479241 0.06860461962131166 0 0.00081574930109564294 0.06999012473319087 0 0.00081574930109564294 0.06999012473319087 0 0.0015959191162962137 0.071485587788106306 0 0.00034138500100394859 0.076548229353992456 0 0.00079008103240052995 0.081329947466364391 0 0.0016940597916339139 0.080996502272542126 0 0.00034138500100394859 0.076548229353992456 0 -0.000947527940785847 0.078565805082256773 0 0.00079008103240052995 0.081329947466364391 0 0.00079008103240052995 0.081329947466364391 0 0.0016940597916339139 0.080996502272542126 0 0.001361823904827944 0.081736384470539519 0 0.001361823904827944 0.081736384470539519 0 0.0013252949913827368 0.08166488322816845 0 0.0013536489933890536 0.081954304617403398 0 0.00079008103240052995 0.081329947466364391 0 0.001361823904827944 0.081736384470539519 0 0.0013252949913827368 0.08166488322816845 0 0.0035876483389151803 0.059077617855430108 0 0.004435185566314709 0.063071039643372337 0 0.0020643929566270822 0.06123284512566643 0 0.00060842235039109012 0.081236673485913943 0 0.00079008103240052995 0.081329947466364391 0 0.0013252949913827368 0.08166488322816845 0 0.00060842235039109012 0.081236673485913943 0 0.0013252949913827368 0.08166488322816845 0 0.0018073229100478334 0.08176934537824003 0 0.00081574930109564294 0.06999012473319087 0 0.0022485996122738345 0.072371846683217389 0 0.0013252949913827368 0.08166488322816845 0 0.0018073229100478334 0.08176934537824003 0 0.0016030585223522037 0.081668510367611358 0 0.0018073229100478334 0.08176934537824003 0 0.0016030585223522037 0.081668510367611358 0 0.001834282635771138 0.081215760201512763 0 0.0016030585223522037 0.081668510367611358 0 0.001834282635771138 0.081215760201512763 0 0.0013536489933890536 0.081954304617403398 0 0.0013252949913827368 0.08166488322816845 0 0.0016030585223522037 0.081668510367611358 0 0.0013536489933890536 0.081954304617403398 0 -0.00085041323150304216 0.060117935852199586 0 0.00025959668954822176 0.061674092324699531 0 -0.0011431177891650433 0.062773815387494589 0 -0.00085041323150304216 0.060117935852199586 0 0.00025959668954822176 0.061674092324699531 0 0.00071992975722740221 0.060342256157045693 0 0.00025959668954822176 0.061674092324699531 0 0.00071992975722740221 0.060342256157045693 0 0.0020643929566270822 0.06123284512566643 0 0.0018146053366324823 0.059454073466652047 0 0.00071992975722740221 0.060342256157045693 0 0.0020643929566270822 0.06123284512566643 0 0.004435185566314709 0.063071039643372337 0 0.00079055357423480016 0.064318147155405264 0 0.0018857191614692159 0.067507895605701959 0 0.00025959668954822176 0.061674092324699531 0 0.0020643929566270822 0.06123284512566643 0 0.00079055357423480016 0.064318147155405264 0 0.004435185566314709 0.063071039643372337 0 0.0020643929566270822 0.06123284512566643 0 0.00079055357423480016 0.064318147155405264 0 0.00025959668954822176 0.061674092324699531 0 0.00079055357423480016 0.064318147155405264 0 -0.0011431177891650433 0.062773815387494589 0 0.00079055357423480016 0.064318147155405264 0 -0.0011431177891650433 0.062773815387494589 0 -0.0014830384170542211 0.065258554926007975 0 -0.0009760820698467038 0.067599733054483913 0 -0.0014830384170542211 0.065258554926007975 0 -0.0031135167379140174 0.067052408429705002 0 0.00079055357423480016 0.064318147155405264 0 -0.0009760820698467038 0.067599733054483913 0 -0.0014830384170542211 0.065258554926007975 0 0.00079055357423480016 0.064318147155405264 0 -0.0009760820698467038 0.067599733054483913 0 0.0018857191614692159 0.067507895605701959 0 0.0018857191614692159 0.067507895605701959 0 0.0049316370958268092 0.069224922971832595 0 0.0017944424287835614 0.072398998045050719 0 0.0018857191614692159 0.067507895605701959 0 -0.0013118793416251639 0.072100775995684555 0 0.0017944424287835614 0.072398998045050719 0 -0.0009760820698467038 0.067599733054483913 0 0.0018857191614692159 0.067507895605701959 0 -0.0013118793416251639 0.072100775995684555 0 -0.0009760820698467038 0.067599733054483913 0 -0.0013118793416251639 0.072100775995684555 0 -0.0031545648361528795 0.069679079381123929 0 0.0018073229100478334 0.08176934537824003 0 0.001834282635771138 0.081215760201512763 0 0.0031750644724026231 0.080498604835663984 0 0.004435185566314709 0.063071039643372337 0 0.0018857191614692159 0.067507895605701959 0 0.0049316370958268092 0.069224922971832595 0 0.0022485996122738345 0.072371846683217389 0 0.0029970360230257209 0.074511475880138206 0 0.0031750644724026231 0.080498604835663984 0 0.0021965213766535581 0.080035567062546456 0 0.002764082549574132 0.078332034165611408 0 0.0021965213766535581 0.080035567062546456 0 0.0014100829169226092 0.080388297881409859 0 0.0020946694226557433 0.079030303486048684 0 0.001834282635771138 0.081215760201512763 0 0.0021965213766535581 0.080035567062546456 0 0.0014100829169226092 0.080388297881409859 0 0.001834282635771138 0.081215760201512763 0 0.0031750644724026231 0.080498604835663984 0 0.0021965213766535581 0.080035567062546456 0 0.0014100829169226092 0.080388297881409859 0 0.0011058894728107852 0.081762878180177634 0 0.0006062069544962136 0.081077760717125816 0 0.001834282635771138 0.081215760201512763 0 0.0014100829169226092 0.080388297881409859 0 0.0011058894728107852 0.081762878180177634 0 0.0011058894728107852 0.081762878180177634 0 0.0006062069544962136 0.081077760717125816 0 0.00037040188759059902 0.082196213381027131 0 0.0014100829169226092 0.080388297881409859 0 0.0006062069544962136 0.081077760717125816 0 0.00070550719669920268 0.079902136797183068 0 0.0006062069544962136 0.081077760717125816 0 -0.00020553320482606866 0.080482744520331662 0 0.00070550719669920268 0.079902136797183068 0 -0.00020553320482606866 0.080482744520331662 0 -0.001330213778394473 0.081461383741988108 0 -3.363401666613511e-05 0.081602775381805645 0 0.0006062069544962136 0.081077760717125816 0 -0.00020553320482606866 0.080482744520331662 0 -3.363401666613511e-05 0.081602775381805645 0 -9.904052869876554e-05 0.083498497250059825 0 0.00020864643591712222 0.084203157842019316 0 -5.2215377945958012e-05 0.085089431569540769 0 -7.0023855799975789e-08 0.084998462206276423 0 -5.9448870328890363e-08 0.08500103250341054 0 -5.2215377945958012e-05 0.085089431569540769 0 2.0877556092624721e-05 0.084991634556849258 0 -5.9448870328890363e-08 0.08500103250341054 0 -0.00020553320482606866 0.080482744520331662 0 -0.001330213778394473 0.081461383741988108 0 -0.0014582229146666975 0.079788666920160234 0 -9.904052869876554e-05 0.083498497250059825 0 -0.00015855438197180026 0.083566191581663896 0 -0.001330213778394473 0.081461383741988108 0 -3.363401666613511e-05 0.081602775381805645 0 -0.00011766709549123715 0.082729752909872473 0 -5.2215377945958012e-05 0.085089431569540769 0 -7.0023855799975789e-08 0.084998462206276423 0 -0.0003429170781132273 0.084309043173972059 0 -0.001330213778394473 0.081461383741988108 0 -0.00011766709549123715 0.082729752909872473 0 -0.0003429170781132273 0.084309043173972059 0 0.0006062069544962136 0.081077760717125816 0 -3.363401666613511e-05 0.081602775381805645 0 0.00037040188759059902 0.082196213381027131 0 -3.363401666613511e-05 0.081602775381805645 0 -0.00011766709549123715 0.082729752909872473 0 0.00037040188759059902 0.082196213381027131 0 0.00037040188759059902 0.082196213381027131 0 0.00023695026665995783 0.083352851719165955 0 0.00070780955863731859 0.08254965967432086 0 -0.00011766709549123715 0.082729752909872473 0 0.00023695026665995783 0.083352851719165955 0 -0.0003429170781132273 0.084309043173972059 0 -0.00011766709549123715 0.082729752909872473 0 0.00037040188759059902 0.082196213381027131 0 0.00023695026665995783 0.083352851719165955 0 0.00023695026665995783 0.083352851719165955 0 -0.0003429170781132273 0.084309043173972059 0 -2.3790095428809336e-05 0.084172515929360411 0 -7.0023855799975789e-08 0.084998462206276423 0 -0.0003429170781132273 0.084309043173972059 0 -8.3746038095154356e-07 0.084998666000036013 0 -0.0003429170781132273 0.084309043173972059 0 -2.3790095428809336e-05 0.084172515929360411 0 -8.3746038095154356e-07 0.084998666000036013 0 -2.3790095428809336e-05 0.084172515929360411 0 -8.3746038095154356e-07 0.084998666000036013 0 0.00015895020374524755 0.083920668470783208 0 0.00037815226127532617 0.083217002758743039 0 0.00015895020374524755 0.083920668470783208 0 0.0006054921805160033 0.082873495005068396 0 0.00023695026665995783 0.083352851719165955 0 0.00015895020374524755 0.083920668470783208 0 0.0006054921805160033 0.082873495005068396 0 0.00023695026665995783 0.083352851719165955 0 -2.3790095428809336e-05 0.084172515929360411 0 0.00015895020374524755 0.083920668470783208 0 0.00049159116444361356 0.082411686823679761 0 0.0006054921805160033 0.082873495005068396 0 0.0011069098290111658 0.082063169255687407 0 0.0006054921805160033 0.082873495005068396 0 0.0010263754273096234 0.082284901522612794 0 0.00070780955863731859 0.08254965967432086 0 0.0006054921805160033 0.082873495005068396 0 0.0011069098290111658 0.082063169255687407 0 0.0010263754273096234 0.082284901522612794 0 0.0016940597916339139 0.080996502272542126 0 0.001361823904827944 0.081736384470539519 0 0.0011069098290111658 0.082063169255687407 0 0.001361823904827944 0.081736384470539519 0 0.0011069098290111658 0.082063169255687407 0 0.0013536489933890536 0.081954304617403398 0 0.0011069098290111658 0.082063169255687407 0 0.0010263754273096234 0.082284901522612794 0 0.0013536489933890536 0.081954304617403398 0 0.001834282635771138 0.081215760201512763 0 0.0011058894728107852 0.081762878180177634 0 0.0013536489933890536 0.081954304617403398 0 0.0011058894728107852 0.081762878180177634 0 0.0010263754273096234 0.082284901522612794 0 0.0013536489933890536 0.081954304617403398 0 0.0011058894728107852 0.081762878180177634 0 0.0010263754273096234 0.082284901522612794 0 0.00070780955863731859 0.08254965967432086 0 0.0011058894728107852 0.081762878180177634 0 0.00037040188759059902 0.082196213381027131 0 0.00070780955863731859 0.08254965967432086 0 0.00023695026665995783 0.083352851719165955 0 0.0006054921805160033 0.082873495005068396 0 0.00070780955863731859 0.08254965967432086 0 0.00036439555647448433 0.048575699155649021 0 0.00047436053809033233 0.049938655967151871 0 -0.00029356787489390564 0.04960547499097636 0 0.00036439555647448433 0.048575699155649021 0 0.00089156930698589616 0.049801398277446396 0 0.00047436053809033233 0.049938655967151871 0 0.00036439555647448433 0.048575699155649021 0 -0.00029356787489390564 0.04960547499097636 0 -0.00033717432159024264 0.048156633280674717 0 0.00036439555647448433 0.048575699155649021 0 0.00089156930698589616 0.049801398277446396 0 0.00088921801975531804 0.048620290985444382 0 0.00089156930698589616 0.049801398277446396 0 0.00088921801975531804 0.048620290985444382 0 0.0010653353968178034 0.05037069020998107 0 0.00088921801975531804 0.048620290985444382 0 0.00032268191776173836 0.045234362380395826 0 -1.9039685113431761e-05 0.046746897982611751 0 0.00036439555647448433 0.048575699155649021 0 0.00088921801975531804 0.048620290985444382 0 -1.9039685113431761e-05 0.046746897982611751 0 0.00036439555647448433 0.048575699155649021 0 -1.9039685113431761e-05 0.046746897982611751 0 -0.00033717432159024264 0.048156633280674717 0 0.00032268191776173836 0.045234362380395826 0 9.0426920831853444e-07 0.045807562585974196 0 9.6812445448207596e-07 0.040825840355884713 0 0.00032268191776173836 0.045234362380395826 0 9.0426920831853444e-07 0.045807562585974196 0 0.00058698118877668871 0.048470464305991778 0 0.00088921801975531804 0.048620290985444382 0 0.00032268191776173836 0.045234362380395826 0 0.00058698118877668871 0.048470464305991778 0 0.00088921801975531804 0.048620290985444382 0 0.00058698118877668871 0.048470464305991778 0 0.00080838189561104252 0.05098451077886576 0 0.00058698118877668871 0.048470464305991778 0 1.3833589454878399e-06 0.050786788749997772 0 0.00080838189561104252 0.05098451077886576 0 9.0426920831853444e-07 0.045807562585974196 0 0.00058698118877668871 0.048470464305991778 0 1.3833589454878399e-06 0.050786788749997772 0 1.3833589454878399e-06 0.050786788749997772 0 0.00080838189561104252 0.05098451077886576 0 0.00019076600100080928 0.054134447020994639 0 0.00080838189561104252 0.05098451077886576 0 0.0010653353968178034 0.05037069020998107 0 0.00033666373338583515 0.052421119311724745 0 0.00088921801975531804 0.048620290985444382 0 0.00080838189561104252 0.05098451077886576 0 0.0010653353968178034 0.05037069020998107 0 0.00089156930698589616 0.049801398277446396 0 0.0010653353968178034 0.05037069020998107 0 0.0010035627432524146 0.050133239352725352 0 0.0010653353968178034 0.05037069020998107 0 0.00033666373338583515 0.052421119311724745 0 0.00084544536251770694 0.05024871668373704