<?xml version="1.0"?>
<VTKFile type="UnstructuredGrid" version="0.1" byte_order="LittleEndian">
<UnstructuredGrid>
<Piece NumberOfPoints="30881" NumberOfCells="10862">
<Points>
<DataArray type="Float64" NumberOfComponents="3" format="ascii">
-0.49999999999999828 -0.48677703703187492 0 -0.5 -0.5 0 -0.48129281494584059 -0.49338851851593718 0 -0.5 -0.5 0 -0.48129281494584059 -0.49338851851593718 0 -0.46258562989168328 -0.5 0 -0.49999999999999828 -0.48677703703187492 0 -0.48129281494584059 -0.49338851851593718 0 -0.49999999999999828 -0.48677703703187492 0 -0.4824545428279598 -0.47451624516148783 0 -0.48129281494584059 -0.49338851851593718 0 -0.49999999999999828 -0.48677703703187492 0 -0.4824545428279598 -0.47451624516148783 0 -0.5 -0.46599539173150673 0 -0.4824545428279598 -0.47451624516148783 0 -0.46853075243710779 -0.48354990242643758 0 -0.46411508256092049 -0.46598235294430129 0 -0.4824545428279598 -0.47451624516148783 0 -0.48129281494584059 -0.49338851851593718 0 -0.46853075243710779 -0.48354990242643758 0 -0.48129281494584059 -0.49338851851593718 0 -0.46258562989168328 -0.5 0 -0.48129281494584059 -0.49338851851593718 0 -0.46258562989168328 -0.5 0 -0.46853075243710779 -0.48354990242643758 0 -0.46258562989168328 -0.5 0 -0.46853075243710779 -0.48354990242643758 0 -0.45147378687733691 -0.48362213557840178 0 -0.46853075243710779 -0.48354990242643758 0 -0.45147378687733691 -0.48362213557840178 0 -0.46411508256092049 -0.46598235294430129 0 -0.4457251648104853 -0.47020164095208389 0 -0.45147378687733691 -0.48362213557840178 0 -0.46411508256092049 -0.46598235294430129 0 -0.4457251648104853 -0.47020164095208389 0 -0.45147378687733691 -0.48362213557840178 0 -0.43513446131126993 -0.48199891714758791 0 -0.45147378687733691 -0.48362213557840178 0 -0.43275163025255442 -0.5 0 -0.43513446131126993 -0.48199891714758791 0 -0.46258562989168328 -0.5 0 -0.45147378687733691 -0.48362213557840178 0 -0.43275163025255442 -0.5 0 -0.4467190029717853 -0.45478934699519452 0 -0.4422915115958943 -0.43555510214664611 0 -0.43246707723660932 -0.44794326854796312 0 -0.4457251648104853 -0.47020164095208389 0 -0.4467190029717853 -0.45478934699519452 0 -0.46411508256092049 -0.46598235294430129 0 -0.4457251648104853 -0.47020164095208389 0 -0.4467190029717853 -0.45478934699519452 0 -0.43016578207734568 -0.46313500011938619 0 -0.4467190029717853 -0.45478934699519452 0 -0.46411508256092049 -0.46598235294430129 0 -0.47114575579794699 -0.4403844242888923 0 -0.4467190029717853 -0.45478934699519452 0 -0.47114575579794699 -0.4403844242888923 0 -0.4422915115958943 -0.43555510214664611 0 -0.47114575579794699 -0.4403844242888923 0 -0.4422915115958943 -0.43555510214664611 0 -0.46411508256092049 -0.46598235294430129 0 -0.47114575579794699 -0.4403844242888923 0 -0.48354307623736548 -0.45841843211146538 0 -0.4824545428279598 -0.47451624516148783 0 -0.46411508256092049 -0.46598235294430129 0 -0.48354307623736548 -0.45841843211146538 0 -0.4824545428279598 -0.47451624516148783 0 -0.48354307623736548 -0.45841843211146538 0 -0.5 -0.46599539173150673 0 -0.48354307623736548 -0.45841843211146538 0 -0.5 -0.46599539173150673 0 -0.49999999999999972 -0.44521374643113848 0 -0.47114575579794699 -0.4403844242888923 0 -0.49999999999999972 -0.44521374643113848 0 -0.47114575579794699 -0.4403844242888923 0 -0.49999999999999972 -0.44521374643113848 0 -0.48704432221743971 -0.42935617662229603 0 -0.47114575579794699 -0.4403844242888923 0 -0.48354307623736548 -0.45841843211146538 0 -0.49999999999999972 -0.44521374643113848 0 -0.49999999999999972 -0.44521374643113848 0 -0.48704432221743971 -0.42935617662229603 0 -0.5 -0.41591957503128979 0 -0.48704432221743971 -0.42935617662229603 0 -0.5 -0.41591957503128979 0 -0.47703153307181151 -0.41590696073786332 0 -0.5 -0.41591957503128979 0 -0.47703153307181151 -0.41590696073786332 0 -0.48817838912021821 -0.4022119694541284 0 -0.47114575579794699 -0.4403844242888923 0 -0.48704432221743971 -0.42935617662229603 0 -0.47703153307181151 -0.41590696073786332 0 -0.5 -0.38662540363144121 0 -0.47568202340906118 -0.39039593841591919 0 -0.4947615751445838 -0.37332156409002909 0 -0.47568202340906118 -0.39039593841591919 0 -0.4947615751445838 -0.37332156409002909 0 -0.5 -0.38662540363144121 0 -0.48817838912021821 -0.4022119694541284 0 -0.47568202340906118 -0.39039593841591919 0 -0.5 -0.41591957503128979 0 -0.5 -0.38662540363144121 0 -0.48817838912021821 -0.4022119694541284 0 -0.47703153307181151 -0.41590696073786332 0 -0.48817838912021821 -0.4022119694541284 0 -0.47568202340906118 -0.39039593841591919 0 -0.47703153307181151 -0.41590696073786332 0 -0.47568202340906118 -0.39039593841591919 0 -0.45660247167353862 -0.40747031274180939 0 -0.47568202340906118 -0.39039593841591919 0 -0.48030931097003587 -0.37191064435083931 0 -0.46669490250066459 -0.37481721741951951 0 -0.47568202340906118 -0.39039593841591919 0 -0.4947615751445838 -0.37332156409002909 0 -0.48030931097003587 -0.37191064435083931 0 -0.45332061783919553 -0.38729481725706361 0 -0.46669490250066459 -0.37481721741951951 0 -0.45095991715087752 -0.36968037302039969 0 -0.47568202340906118 -0.39039593841591919 0 -0.45332061783919553 -0.38729481725706361 0 -0.46669490250066459 -0.37481721741951951 0 -0.47568202340906118 -0.39039593841591919 0 -0.45660247167353862 -0.40747031274180939 0 -0.47568202340906118 -0.39039593841591919 0 -0.45332061783919553 -0.38729481725706361 0 -0.45660247167353862 -0.40747031274180939 0 -0.44332653075004852 -0.401690115615219 0 -0.44646247228389868 -0.41654464256061052 0 -0.42870657106664078 -0.39987574649354879 0 -0.45332061783919553 -0.38729481725706361 0 -0.44332653075004852 -0.401690115615219 0 -0.43479631603355468 -0.39077639303142497 0 -0.45332061783919553 -0.38729481725706361 0 -0.44332653075004852 -0.401690115615219 0 -0.45660247167353862 -0.40747031274180939 0 -0.45332061783919553 -0.38729481725706361 0 -0.43421362475025049 -0.37527491429266319 0 -0.43479631603355468 -0.39077639303142497 0 -0.45332061783919553 -0.38729481725706361 0 -0.43421362475025049 -0.37527491429266319 0 -0.45095991715087752 -0.36968037302039969 0 -0.47114575579794699 -0.4403844242888923 0 -0.45663439814062529 -0.42533932462455271 0 -0.4422915115958943 -0.43555510214664611 0 -0.47114575579794699 -0.4403844242888923 0 -0.47703153307181151 -0.41590696073786332 0 -0.45663439814062529 -0.42533932462455271 0 -0.45663439814062529 -0.42533932462455271 0 -0.45660247167353862 -0.40747031274180939 0 -0.44646247228389868 -0.41654464256061052 0 -0.47703153307181151 -0.41590696073786332 0 -0.45663439814062529 -0.42533932462455271 0 -0.45660247167353862 -0.40747031274180939 0 -0.44332653075004852 -0.401690115615219 0 -0.45660247167353862 -0.40747031274180939 0 -0.44646247228389868 -0.41654464256061052 0 -0.45660247167353862 -0.40747031274180939 0 -0.44646247228389868 -0.41654464256061052 0 -0.44646247228389868 -0.41654464256061052 0 -0.4375229199380159 -0.42454468706769971 0 -0.45663439814062529 -0.42533932462455271 0 -0.4375229199380159 -0.42454468706769971 0 -0.4422915115958943 -0.43555510214664611 0 -0.45663439814062529 -0.42533932462455271 0 -0.44646247228389868 -0.41654464256061052 0 -0.4375229199380159 -0.42454468706769971 0 -0.4375229199380159 -0.42454468706769971 0 -0.4422915115958943 -0.43555510214664611 0 -0.43077617074680319 -0.43406335077952207 0 -0.43077617074680319 -0.43406335077952207 0 -0.42550232634077589 -0.42345940056268039 0 -0.41950844772475421 -0.43888456563633732 0 -0.4375229199380159 -0.42454468706769971 0 -0.43077617074680319 -0.43406335077952207 0 -0.42550232634077589 -0.42345940056268039 0 -0.44646247228389868 -0.41654464256061052 0 -0.41657232816672918 -0.41306671883907142 0 -0.42870657106664078 -0.39987574649354879 0 -0.44646247228389868 -0.41654464256061052 0 -0.4375229199380159 -0.42454468706769971 0 -0.42550232634077589 -0.42345940056268039 0 -0.44646247228389868 -0.41654464256061052 0 -0.42550232634077589 -0.42345940056268039 0 -0.41657232816672918 -0.41306671883907142 0 -0.44646247228389868 -0.41654464256061052 0 -0.41657232816672918 -0.41306671883907142 0 -0.42550232634077589 -0.42345940056268039 0 -0.41657232816672918 -0.41306671883907142 0 -0.41333489101611293 -0.42699700567040988 0 -0.41657232816672918 -0.41306671883907142 0 -0.41333489101611293 -0.42699700567040988 0 -0.39893236021425188 -0.42931692235905211 0 -0.41333489101611293 -0.42699700567040988 0 -0.39893236021425188 -0.42931692235905211 0 -0.41950844772475421 -0.43888456563633732 0 -0.42550232634077589 -0.42345940056268039 0 -0.41333489101611293 -0.42699700567040988 0 -0.41950844772475421 -0.43888456563633732 0 -0.43421362475025049 -0.37527491429266319 0 -0.42478231784314502 -0.38643128255249681 0 -0.41656514696884139 -0.37636588688318029 0 -0.43421362475025049 -0.37527491429266319 0 -0.42478231784314502 -0.38643128255249681 0 -0.43479631603355468 -0.39077639303142497 0 -0.42478231784314502 -0.38643128255249681 0 -0.43479631603355468 -0.39077639303142497 0 -0.42870657106664078 -0.39987574649354879 0 -0.44332653075004852 -0.401690115615219 0 -0.43479631603355468 -0.39077639303142497 0 -0.42870657106664078 -0.39987574649354879 0 -0.41657232816672918 -0.41306671883907142 0 -0.40962993039643741 -0.3898634720616666 0 -0.3946356370269814 -0.39577424904278191 0 -0.42478231784314502 -0.38643128255249681 0 -0.42870657106664078 -0.39987574649354879 0 -0.40962993039643741 -0.3898634720616666 0 -0.41657232816672918 -0.41306671883907142 0 -0.42870657106664078 -0.39987574649354879 0 -0.40962993039643741 -0.3898634720616666 0 -0.42478231784314502 -0.38643128255249681 0 -0.40962993039643741 -0.3898634720616666 0 -0.41656514696884139 -0.37636588688318029 0 -0.40962993039643741 -0.3898634720616666 0 -0.41656514696884139 -0.37636588688318029 0 -0.40465459864295228 -0.37650109000307358 0 -0.39431275766669582 -0.38061373190328529 0 -0.40465459864295228 -0.37650109000307358 0 -0.3968495855878465 -0.36923685638487008 0 -0.40962993039643741 -0.3898634720616666 0 -0.39431275766669582 -0.38061373190328529 0 -0.40465459864295228 -0.376501090003
[...]
<PointData Scalars="" Vectors="displacement," Tensors="">
<DataArray type="Float64" Name="displacement" NumberOfComponents="3" format="ascii">
0.082759755903976703 0.084998591292290079 0 0.084995526221255849 0.084999659321132542 0 0.0856712867524584 0.082193461694639036 0 0.084995526221255849 0.084999659321132542 0 0.0856712867524584 0.082193461694639036 0 0.085001274591532311 0.078641648405612427 0 0.08275557978578206 0.084994147197229405 0 0.083827775617029018 0.081756472291964186 0 0.082745238917671105 0.08499638762184368 0 0.081011699062470216 0.082259553552220394 0 0.081429155914017531 0.081134448493545244 0 0.082745238917671105 0.08499638762184368 0 0.081011699062470216 0.082259553552220394 0 0.07921997401197324 0.084997100671037565 0 0.081011699062470216 0.082259553552220394 0 0.082007195270242736 0.079591127482574367 0 0.080707060522616378 0.079504000568541261 0 0.081011699062470216 0.082259553552220394 0 0.081429155914017531 0.081134448493545244 0 0.082007195270242736 0.079591127482574367 0 0.083827775617029018 0.081756472291964186 0 0.084996246438630366 0.078645199689581488 0 0.081429155914017531 0.081134448493545244 0 0.084988420047120872 0.078637449157592576 0 0.082007195270242736 0.079591127482574367 0 0.084988420047120872 0.078637449157592576 0 0.082007195270242736 0.079591127482574367 0 0.082883071128317318 0.077517722298162742 0 0.082007195270242736 0.079591127482574367 0 0.082883071128317318 0.077517722298162742 0 0.080707060522616378 0.079504000568541261 0 0.081483244502578406 0.077392194286833638 0 0.082883071128317318 0.077517722298162742 0 0.080707060522616378 0.079504000568541261 0 0.081483244502578406 0.077392194286833638 0 0.082883071128317318 0.077517722298162742 0 0.082936879609907269 0.075374121822759002 0 0.082883071128317318 0.077517722298162742 0 0.084998316688619235 0.073572217935428466 0 0.082936879609907269 0.075374121822759002 0 0.084988420047120872 0.078637449157592576 0 0.082883071128317318 0.077517722298162742 0 0.084998316688619235 0.073572217935428466 0 0.079995520998790232 0.078255993649529884 0 0.077088954200343604 0.079458590659234329 0 0.078776388161314742 0.077759445847014524 0 0.081483244502578406 0.077392194286833638 0 0.079995520998790232 0.078255993649529884 0 0.080707060522616378 0.079504000568541261 0 0.081483244502578406 0.077392194286833638 0 0.079995520998790232 0.078255993649529884 0 0.080509026149860885 0.076491266698143823 0 0.079995520998790232 0.078255993649529884 0 0.080707060522616378 0.079504000568541261 0 0.080246335317703574 0.080353145133745488 0 0.079995520998790232 0.078255993649529884 0 0.080246335317703574 0.080353145133745488 0 0.077088954200343604 0.079458590659234329 0 0.076330273541511506 0.082903381613800051 0 0.076532853364543615 0.082143976253645071 0 0.080707060522616378 0.079504000568541261 0 0.080246335317703574 0.080353145133745488 0 0.079299207707758543 0.08273549928463779 0 0.081011699062470216 0.082259553552220394 0 0.080707060522616378 0.079504000568541261 0 0.079299207707758543 0.08273549928463779 0 0.081011699062470216 0.082259553552220394 0 0.079299207707758543 0.08273549928463779 0 0.07921997401197324 0.084997100671037565 0 0.079299207707758543 0.08273549928463779 0 0.07921997401197324 0.084997100671037565 0 0.07569727875751979 0.08499718330304093 0 0.076330273541511506 0.082903381613800051 0 0.075687468161570501 0.084996754193703616 0 0.07331176491555555 0.085445600133217683 0 0.075681355817951185 0.084999424024231385 0 0.073098050079455287 0.085586603545496562 0 0.080246335317703574 0.080353145133745488 0 0.079299207707758543 0.08273549928463779 0 0.07569727875751979 0.08499718330304093 0 0.075681355817951185 0.084999424024231385 0 0.073098050079455287 0.085586603545496562 0 0.070709726528869393 0.084998328306069099 0 0.073098050079455287 0.085586603545496562 0 0.070709726528869393 0.084998328306069099 0 0.072769929520589721 0.085585121433558467 0 0.070709726528869393 0.084998328306069099 0 0.072769929520589721 0.085585121433558467 0 0.069613125364431469 0.085580938910772966 0 0.07331176491555555 0.085445600133217683 0 0.073098050079455287 0.085586603545496562 0 0.072769929520589721 0.085585121433558467 0 0.065729347460643503 0.084998709758863547 0 0.068898188051054896 0.086604288300866403 0 0.063860732999420855 0.085705833730215578 0 0.068611111378030554 0.085040122936628507 0 0.067225104184760132 0.084627527917123441 0 0.065729347460643503 0.084998709758863547 0 0.069613125364431469 0.085580938910772966 0 0.068898188051054896 0.086604288300866403 0 0.070709726528869393 0.084998328306069099 0 0.065729347460643503 0.084998709758863547 0 0.069613125364431469 0.085580938910772966 0 0.072769929520589721 0.085585121433558467 0 0.069613125364431469 0.085580938910772966 0 0.068898188051054896 0.086604288300866403 0 0.072769929520589721 0.085585121433558467 0 0.068898188051054896 0.086604288300866403 0 0.07390325366918768 0.084627506486736628 0 0.066873067621149362 0.088500530386343784 0 0.064272534528269407 0.087707755139338775 0 0.065368848232727622 0.089210030449979882 0 0.066873067621149362 0.088500530386343784 0 0.063860732999420855 0.085705833730215578 0 0.064272534528269407 0.087707755139338775 0 0.066889855918658925 0.090128470784470602 0 0.065368848232727622 0.089210030449979882 0 0.065881940627733226 0.090109171090551873 0 0.066873067621149362 0.088500530386343784 0 0.066889855918658925 0.090128470784470602 0 0.065368848232727622 0.089210030449979882 0 0.068611111378030554 0.085040122936628507 0 0.071010144596285074 0.084733497804672084 0 0.066873067621149362 0.088500530386343784 0 0.066889855918658925 0.090128470784470602 0 0.067389580880109753 0.090125051634365169 0 0.067243921736106632 0.090297321624109944 0 0.066796756406219168 0.090444464487526188 0 0.067202862521115972 0.089807157532092924 0 0.066889855918658925 0.090128470784470602 0 0.067243921736106632 0.090297321624109944 0 0.067642956319747885 0.090200269114069614 0 0.066889855918658925 0.090128470784470602 0 0.067243921736106632 0.090297321624109944 0 0.067389580880109753 0.090125051634365169 0 0.066889855918658925 0.090128470784470602 0 0.067810220056357992 0.090442716067869078 0 0.067642956319747885 0.090200269114069614 0 0.066889855918658925 0.090128470784470602 0 0.067810220056357992 0.090442716067869078 0 0.065881940627733226 0.090109171090551873 0 0.07331176491555555 0.085445600133217683 0 0.075275995645267046 0.083141834053932384 0 0.077088954200343604 0.079458590659234329 0 0.07331176491555555 0.085445600133217683 0 0.072769929520589721 0.085585121433558467 0 0.075275995645267046 0.083141834053932384 0 0.075275995645267046 0.083141834053932384 0 0.07390325366918768 0.084627506486736628 0 0.07595774686144717 0.08212048637406652 0 0.072769929520589721 0.085585121433558467 0 0.075275995645267046 0.083141834053932384 0 0.07390325366918768 0.084627506486736628 0 0.067243921736106632 0.090297321624109944 0 0.067389580880109753 0.090125051634365169 0 0.066796756406219168 0.090444464487526188 0 0.071010144596285074 0.084733497804672084 0 0.072619066692297896 0.084271561138199391 0 0.072619066692297896 0.084271561138199391 0 0.072666386115301879 0.08380606497866408 0 0.075275995645267046 0.083141834053932384 0 0.077261519975136639 0.079463134776259617 0 0.077088954200343604 0.079458590659234329 0 0.075275995645267046 0.083141834053932384 0 0.07595774686144717 0.08212048637406652 0 0.077261519975136639 0.079463134776259617 0 0.077261519975136639 0.079463134776259617 0 0.077088954200343604 0.079458590659234329 0 0.077537712657681682 0.078236960982547246 0 0.077537712657681682 0.078236960982547246 0 0.077564529878367608 0.077859276607099057 0 0.077933038134788607 0.077063504703064847 0 0.077261519975136639 0.079463134776259617 0 0.077537712657681682 0.078236960982547246 0 0.077564529878367608 0.077859276607099057 0 0.066796756406219168 0.090444464487526188 0 0.065736516799847183 0.08866283836786272 0 0.067202862521115972 0.089807157532092924 0 0.07832191394402227 0.080408252625330065 0 0.077261519975136639 0.079463134776259617 0 0.077564529878367608 0.077859276607099057 0 0.07832191394402227 0.080408252625330065 0 0.077564529878367608 0.077859276607099057 0 0.078091721891399415 0.076880886594580394 0 0.072619066692297896 0.084271561138199391 0 0.071995724298509964 0.082584443280997552 0 0.077564529878367608 0.077859276607099057 0 0.078091721891399415 0.076880886594580394 0 0.077508334792762576 0.07685836789533608 0 0.078091721891399415 0.076880886594580394 0 0.077508334792762576 0.07685836789533608 0 0.077040177904900309 0.07616956490214255 0 0.077508334792762576 0.07685836789533608 0 0.077040177904900309 0.07616956490214255 0 0.077933038134788607 0.077063504703064847 0 0.077564529878367608 0.077859276607099057 0 0.077508334792762576 0.07685836789533608 0 0.077933038134788607 0.077063504703064847 0 0.067810220056357992 0.090442716067869078 0 0.068378129723874942 0.089704552478095861 0 0.069661057484863773 0.089433417223050218 0 0.067810220056357992 0.090442716067869078 0 0.068378129723874942 0.089704552478095861 0 0.067642956319747885 0.090200269114069614 0 0.068378129723874942 0.089704552478095861 0 0.067642956319747885 0.090200269114069614 0 0.067202862521115972 0.089807157532092924 0 0.067243921736106632 0.090297321624109944 0 0.067642956319747885 0.090200269114069614 0 0.067202862521115972 0.089807157532092924 0 0.065736516799847183 0.08866283836786272 0 0.068850022571075781 0.087679899823096943 0 0.068606181884489428 0.084152612278473149 0 0.068378129723874942 0.089704552478095861 0 0.067202862521115972 0.089807157532092924 0 0.068850022571075781 0.087679899823096943 0 0.065736516799847183 0.08866283836786272 0 0.067202862521115972 0.089807157532092924 0 0.068850022571075781 0.087679899823096943 0 0.068378129723874942 0.089704552478095861 0 0.068850022571075781 0.087679899823096943 0 0.069661057484863773 0.089433417223050218 0 0.068850022571075781 0.087679899823096943 0 0.069661057484863773 0.089433417223050218 0 0.071048446773102306 0.087123560549889512 0 0.071266541910427306 0.084306417419319157 0 0.071048446773102306 0.087123560549889512 0 0.073531195021380016 0.085216031124020111 0 0.068850022571075781 0.087679899823096943 0 0.071266541910427306 0.084306417419319157 0 0.071048446773102306 0.087123560549889512 0 0.068850022571075781 0.087679899823096943 0 0.071266541910427306 0.084306417419319157 0 0.068606181884489428 0.084152612278473149 0 0.068606181884489428 0.084152612278473149 0 0.066112099639472663 0.082032695654237486 0 0.069828619296621305 0.078831308979790821 0 0.068606181884489428 0.084152612278473149 0 0.072455683661573803 0.078833884525019493 0 0.069828619296621305 0.078831308979790821 0 0.071266541910427306 0.084306417419319157 0 0.068606181884489428 0.084152612278473149 0 0.072455683661573803 0.078833884525019493 0 0.071266541910427306 0.084306417419319157 0 0.072455683661573803 0.078833884525019493 0 0.074341183923993789 0.081818231333468175 0 0.078091721891399415 0.076880886594580394 0 0.077040177904900309 0.07616956490214255 0 0.075957084919441045 0.075719734210745362 0 0.065736516799847183 0.08866283836786272 0 0.068606181884489428 0.084152612278473149 0 0.066112099639472663 0.082032695654237486 0 0.071995724298509964 0.082584443280997552 0 0.071569289998882901 0.080399482929261065 0 0.075957084919441045 0.075719734210745362 0 0.076122709007282546 0.076007165783586836 0 0.074105682283029536 0.076041398900927967 0 0.076122709007282546 0.076007165783586836 0 0.077560089215859426 0.076340004596465713 0 0.075914968153235077 0.076396626550894423 0 0.077040177904900309 0.07616956490214255 0 0.076122709007282546 0.076007165783586836 0 0.077560089215859426 0.076340004596465713 0 0.077040177904900309 0.07616956490214255 0 0.075957084919441045 0.075719734210745362 0 0.076122709007282546 0.076007165783586836 0 0.077560089215859426 0.076340004596465713 0 0.078591931244104365 0.07620353670566371 0 0.079582936925466544 0.076409118031398993 0 0.077040177904900309 0.07616956490214255 0 0.077560089215859426 0.076340004596465713 0 0.078591931244104365 0.07620353670566371 0 0.078591931244104365 0.07620353670566371 0 0.079582936925466544 0.076409118031398993 0 0.08066512071405138 0.075624209737939915 0 0.077560089215859426 0.076340004596465713 0 0.079582936925466544 0.076409118031398993 0 0.079026129332450304 0.077175741678333215 0 0.079582936925466544 0.076409118031398993 0 0.081041522312407854 0.07712717823607261 0 0.079026129332450304 0.077175741678333215 0 0.081041522312407854 0.07712717823607261 0 0.083228895109955486 0.076411860512651156 0 0.081263608979900911 0.076105516832280576 0 0.079582936925466544 0.076409118031398993 0 0.081041522312407854 0.07712717823607261 0 0.081263608979900911 0.076105516832280576 0 0.084193894900786326 0.069126598231455533 0 0.08375610818520933 0.064960217248317367 0 0.086300941919636734 0.066540564873395658 0 0.084997335811652822 0.068500878602550205 0 0.085001543804118826 0.063421422867903157 0 0.086300941919636734 0.066540564873395658 0 0.085957345412849717 0.063000081622910181 0 0.085001543804118826 0.063421422867903157 0 0.081041522312407854 0.07712717823607261 0 0.083228895109955486 0.076411860512651156 0 0.082712217753419137 0.078037932150868586 0 0.084193894900786326 0.069126598231455533 0 0.084307012971223852 0.069955845198408764 0 0.083228895109955486 0.076411860512651156 0 0.081263608979900911 0.076105516832280576 0 0.082202908372255259 0.074803837215660099 0 0.086300941919636734 0.066540564873395658 0 0.084997335811652822 0.068500878602550205 0 0.084756388006061389 0.072013077433858139 0 0.083228895109955486 0.076411860512651156 0 0.082202908372255259 0.074803837215660099 0 0.084756388006061389 0.072013077433858139 0 0.079582936925466544 0.076409118031398993 0 0.081263608979900911 0.076105516832280576 0 0.08066512071405138 0.075624209737939915 0 0.081263608979900911 0.076105516832280576 0 0.082202908372255259 0.074803837215660099 0 0.08066512071405138 0.075624209737939915 0 0.08066512071405138 0.075624209737939915 0 0.081891305664796188 0.074610200163141502 0 0.080004328373041292 0.075828842850005698 0 0.082202908372255259 0.074803837215660099 0 0.081891305664796188 0.074610200163141502 0 0.084756388006061389 0.072013077433858139 0 0.082202908372255259 0.074803837215660099 0 0.08066512071405138 0.075624209737939915 0 0.081891305664796188 0.074610200163141502 0 0.081891305664796188 0.074610200163141502 0 0.084756388006061389 0.072013077433858139 0 0.083788391819254279 0.073831461622742178 0 0.084997335811652822 0.068500878602550205 0 0.084756388006061389 0.072013077433858139 0 0.084998316688619235 0.073572217935428466 0 0.084756388006061389 0.072013077433858139 0 0.083788391819254279 0.073831461622742178 0 0.084998316688619235 0.073572217935428466 0 0.083788391819254279 0.073831461622742178 0 0.084998316688619235 0.073572217935428466 0 0.082936879609907269 0.075374121822759002 0 0.081483244502578406 0.077392194286833638 0 0.082936879609907269 0.075374121822759002 0 0.080509026149860885 0.076491266698143823 0 0.081891305664796188 0.074610200163141502 0 0.082936879609907269 0.075374121822759002 0 0.080509026149860885 0.076491266698143823 0 0.081891305664796188 0.074610200163141502 0 0.083788391819254279 0.073831461622742178 0 0.082936879609907269 0.075374121822759002 0 0.079995520998790232 0.078255993649529884 0 0.080509026149860885 0.076491266698143823 0 0.078776388161314742 0.077759445847014524 0 0.080509026149860885 0.076491266698143823 0 0.079044237169434706 0.076636960897136813 0 0.080004328373041292 0.075828842850005698 0 0.080509026149860885 0.076491266698143823 0 0.078776388161314742 0.077759445847014524 0 0.079044237169434706 0.076636960897136813 0 0.077088954200343604 0.079458590659234329 0 0.077537712657681682 0.078236960982547246 0 0.078776388161314742 0.077759445847014524 0 0.077537712657681682 0.078236960982547246 0 0.078776388161314742 0.077759445847014524 0 0.077933038134788607 0.077063504703064847 0 0.078776388161314742 0.077759445847014524 0 0.079044237169434706 0.076636960897136813 0 0.077933038134788607 0.077063504703064847 0 0.077040177904900309 0.07616956490214255 0 0.078591931244104365 0.07620353670566371 0 0.077933038134788607 0.077063504703064847 0 0.078591931244104365 0.07620353670566371 0 0.079044237169434706 0.076636960897136813 0 0.077933038134788607 0.077063504703064847 0 0.078591931244104365 0.07620353670566371 0 0.079044237169434706 0.076636960897136813 0 0.080004328373041292 0.075828842850005698 0 0.078591931244104365 0.07620353670566371 0 0.08066512071405138 0.075624209737939915 0 0.080004328373041292 0.075828842850005698 0 0.081891305664796188 0.074610200163141502 0 0.080509026149860885 0.076491266698143823 0 0.080004328373041292 0.075828842850005698 0 0.043383954143047188 0.093679749914513472 0 0.044300714149277581 0.097419992980224288 0 0.041613304977964331 0.096298990832250159 0 0.043383954143047188 0.093679749914513472 0 0.046696133926229816 0.095969946300847819 0 0.044300714149277581 0.097419992980224288 0 0.043383954143047188 0.093679749914513472 0 0.041613304977964331 0.096298990832250159 0 0.041564476106325611 0.093497480967145274 0 0.043383954143047188 0.093679749914513472 0 0.046696133926229816 0.095969946300847819 0 0.046193190430405144 0.091435055180999245 0 0.046696133926229816 0.095969946300847819 0 0.046193190430405144 0.091435055180999245 0 0.050148170205249525 0.094048731095469532 0 0.046193190430405144 0.091435055180999245 0 0.043184985980677798 0.088065061613670975 0 0.04179482152452875 0.091363341737948814 0 0.043383954143047188 0.093679749914513472 0 0.046193190430405144 0.091435055180999245 0 0.04179482152452875 0.091363341737948814 0 0.043383954143047188 0.093679749914513472 0 0.04179482152452875 0.091363341737948814 0 0.041564476106325611 0.093497480967145274 0 0.043184985980677798 0.088065061613670975 0 0.045806545595423895 0.085000015671962553 0 0.040824521715355083 0.084998968241443443 0 0.043184985980677798 0.088065061613670975 0 0.045806545595423895 0.085000015671962553 0 0.04779927336181914 0.087797223021228776 0 0.046193190430405144 0.091435055180999245 0 0.043184985980677798 0.088065061613670975 0 0.04779927336181914 0.087797223021228776 0 0.046193190430405144 0.091435055180999245 0 0.04779927336181914 0.087797223021228776 0 0.051087785561188571 0.089910244314954257 0 0.04779927336181914 0.087797223021228776 0 0.050786608624707609 0.084999518496154766 0 0.051087785561188571 0.089910244314954257 0 0.045806545595423895 0.085000015671962553 0 0.04779927336181914 0.087797223021228776 0 0.050786608624707609 0.084999518496154766 0 0.050786608624707609 0.084999518496154766 0 0.051087785561188571 0.089910244314954257 0 0.055700641610076637 0.088370435127401961 0 0.051087785561188571 0.089910244314954257 0 0.050148170205249525 0.094048731095469532 0 0.056049855331019943 0.09339351484882516 0 0.046193190430405144 0.091435055180999245 0 0.051087785561188571 0.089910244314954257 0 0.050148170205249525 0.094048731095469532 0 0.046696133926229816 0.095969946300847819 0 0.050148170205249525 0.094048731095469532 0 0.04965163909510277 0.096969847841569465 0 0.050148170205249525 0.094048731095469532 0 0.056049855331019943 0.09339351484882516 0 0.052545555186562586 0.097180945663517024 0 0.052425344626988078 0.092274538696758751 0 0.051781897271935128 0.091545888828461153 0 0.056049855331019943 0.09339351484882516 0 0.061100216152137052 0.090325504793212552 0 0.059884491722334836 0.09674754184065841 0 0.065562440540202119 0.091232096422367182 0 0.066797215772120236 0.091595201461931702 0 0.056049855331019943 0.09339351484882516 0 0.061100216152137052 0.090325504793212552 0 0.055700641610076637 0.088370435127401961 0 0.051087785561188571 0.089910244314954257 0 0.056049855331019943 0.09339351484882516 0 0.055700641610076637 0.088370435127401961 0 0.050786608624707609 0.084999518496154766 0 0.055700641610076637 0.088370435127401961 0 0.05576807719261432 0.08499927070879168 0 0.055700641610076637 0.088370435127401961 0 0.05576807719261432 0.08499927070879168 0 0.05951160