<?xml version="1.0"?>
<VTKFile type="UnstructuredGrid" version="0.1" byte_order="LittleEndian">
<UnstructuredGrid>
<Piece NumberOfPoints="30881" NumberOfCells="10862">
<Points>
<DataArray type="Float64" NumberOfComponents="3" format="ascii">
-0.49999999999999828 -0.48677703703187492 0 -0.5 -0.5 0 -0.48129281494584059 -0.49338851851593718 0 -0.5 -0.5 0 -0.48129281494584059 -0.49338851851593718 0 -0.46258562989168328 -0.5 0 -0.49999999999999828 -0.48677703703187492 0 -0.48129281494584059 -0.49338851851593718 0 -0.49999999999999828 -0.48677703703187492 0 -0.4824545428279598 -0.47451624516148783 0 -0.48129281494584059 -0.49338851851593718 0 -0.49999999999999828 -0.48677703703187492 0 -0.4824545428279598 -0.47451624516148783 0 -0.5 -0.46599539173150673 0 -0.4824545428279598 -0.47451624516148783 0 -0.46853075243710779 -0.48354990242643758 0 -0.46411508256092049 -0.46598235294430129 0 -0.4824545428279598 -0.47451624516148783 0 -0.48129281494584059 -0.49338851851593718 0 -0.46853075243710779 -0.48354990242643758 0 -0.48129281494584059 -0.49338851851593718 0 -0.46258562989168328 -0.5 0 -0.48129281494584059 -0.49338851851593718 0 -0.46258562989168328 -0.5 0 -0.46853075243710779 -0.48354990242643758 0 -0.46258562989168328 -0.5 0 -0.46853075243710779 -0.48354990242643758 0 -0.45147378687733691 -0.48362213557840178 0 -0.46853075243710779 -0.48354990242643758 0 -0.45147378687733691 -0.48362213557840178 0 -0.46411508256092049 -0.46598235294430129 0 -0.4457251648104853 -0.47020164095208389 0 -0.45147378687733691 -0.48362213557840178 0 -0.46411508256092049 -0.46598235294430129 0 -0.4457251648104853 -0.47020164095208389 0 -0.45147378687733691 -0.48362213557840178 0 -0.43513446131126993 -0.48199891714758791 0 -0.45147378687733691 -0.48362213557840178 0 -0.43275163025255442 -0.5 0 -0.43513446131126993 -0.48199891714758791 0 -0.46258562989168328 -0.5 0 -0.45147378687733691 -0.48362213557840178 0 -0.43275163025255442 -0.5 0 -0.4467190029717853 -0.45478934699519452 0 -0.4422915115958943 -0.43555510214664611 0 -0.43246707723660932 -0.44794326854796312 0 -0.4457251648104853 -0.47020164095208389 0 -0.4467190029717853 -0.45478934699519452 0 -0.46411508256092049 -0.46598235294430129 0 -0.4457251648104853 -0.47020164095208389 0 -0.4467190029717853 -0.45478934699519452 0 -0.43016578207734568 -0.46313500011938619 0 -0.4467190029717853 -0.45478934699519452 0 -0.46411508256092049 -0.46598235294430129 0 -0.47114575579794699 -0.4403844242888923 0 -0.4467190029717853 -0.45478934699519452 0 -0.47114575579794699 -0.4403844242888923 0 -0.4422915115958943 -0.43555510214664611 0 -0.47114575579794699 -0.4403844242888923 0 -0.4422915115958943 -0.43555510214664611 0 -0.46411508256092049 -0.46598235294430129 0 -0.47114575579794699 -0.4403844242888923 0 -0.48354307623736548 -0.45841843211146538 0 -0.4824545428279598 -0.47451624516148783 0 -0.46411508256092049 -0.46598235294430129 0 -0.48354307623736548 -0.45841843211146538 0 -0.4824545428279598 -0.47451624516148783 0 -0.48354307623736548 -0.45841843211146538 0 -0.5 -0.46599539173150673 0 -0.48354307623736548 -0.45841843211146538 0 -0.5 -0.46599539173150673 0 -0.49999999999999972 -0.44521374643113848 0 -0.47114575579794699 -0.4403844242888923 0 -0.49999999999999972 -0.44521374643113848 0 -0.47114575579794699 -0.4403844242888923 0 -0.49999999999999972 -0.44521374643113848 0 -0.48704432221743971 -0.42935617662229603 0 -0.47114575579794699 -0.4403844242888923 0 -0.48354307623736548 -0.45841843211146538 0 -0.49999999999999972 -0.44521374643113848 0 -0.49999999999999972 -0.44521374643113848 0 -0.48704432221743971 -0.42935617662229603 0 -0.5 -0.41591957503128979 0 -0.48704432221743971 -0.42935617662229603 0 -0.5 -0.41591957503128979 0 -0.47703153307181151 -0.41590696073786332 0 -0.5 -0.41591957503128979 0 -0.47703153307181151 -0.41590696073786332 0 -0.48817838912021821 -0.4022119694541284 0 -0.47114575579794699 -0.4403844242888923 0 -0.48704432221743971 -0.42935617662229603 0 -0.47703153307181151 -0.41590696073786332 0 -0.5 -0.38662540363144121 0 -0.47568202340906118 -0.39039593841591919 0 -0.4947615751445838 -0.37332156409002909 0 -0.47568202340906118 -0.39039593841591919 0 -0.4947615751445838 -0.37332156409002909 0 -0.5 -0.38662540363144121 0 -0.48817838912021821 -0.4022119694541284 0 -0.47568202340906118 -0.39039593841591919 0 -0.5 -0.41591957503128979 0 -0.5 -0.38662540363144121 0 -0.48817838912021821 -0.4022119694541284 0 -0.47703153307181151 -0.41590696073786332 0 -0.48817838912021821 -0.4022119694541284 0 -0.47568202340906118 -0.39039593841591919 0 -0.47703153307181151 -0.41590696073786332 0 -0.47568202340906118 -0.39039593841591919 0 -0.45660247167353862 -0.40747031274180939 0 -0.47568202340906118 -0.39039593841591919 0 -0.48030931097003587 -0.37191064435083931 0 -0.46669490250066459 -0.37481721741951951 0 -0.47568202340906118 -0.39039593841591919 0 -0.4947615751445838 -0.37332156409002909 0 -0.48030931097003587 -0.37191064435083931 0 -0.45332061783919553 -0.38729481725706361 0 -0.46669490250066459 -0.37481721741951951 0 -0.45095991715087752 -0.36968037302039969 0 -0.47568202340906118 -0.39039593841591919 0 -0.45332061783919553 -0.38729481725706361 0 -0.46669490250066459 -0.37481721741951951 0 -0.47568202340906118 -0.39039593841591919 0 -0.45660247167353862 -0.40747031274180939 0 -0.47568202340906118 -0.39039593841591919 0 -0.45332061783919553 -0.38729481725706361 0 -0.45660247167353862 -0.40747031274180939 0 -0.44332653075004852 -0.401690115615219 0 -0.44646247228389868 -0.41654464256061052 0 -0.42870657106664078 -0.39987574649354879 0 -0.45332061783919553 -0.38729481725706361 0 -0.44332653075004852 -0.401690115615219 0 -0.43479631603355468 -0.39077639303142497 0 -0.45332061783919553 -0.38729481725706361 0 -0.44332653075004852 -0.401690115615219 0 -0.45660247167353862 -0.40747031274180939 0 -0.45332061783919553 -0.38729481725706361 0 -0.43421362475025049 -0.37527491429266319 0 -0.43479631603355468 -0.39077639303142497 0 -0.45332061783919553 -0.38729481725706361 0 -0.43421362475025049 -0.37527491429266319 0 -0.45095991715087752 -0.36968037302039969 0 -0.47114575579794699 -0.4403844242888923 0 -0.45663439814062529 -0.42533932462455271 0 -0.4422915115958943 -0.43555510214664611 0 -0.47114575579794699 -0.4403844242888923 0 -0.47703153307181151 -0.41590696073786332 0 -0.45663439814062529 -0.42533932462455271 0 -0.45663439814062529 -0.42533932462455271 0 -0.45660247167353862 -0.40747031274180939 0 -0.44646247228389868 -0.41654464256061052 0 -0.47703153307181151 -0.41590696073786332 0 -0.45663439814062529 -0.42533932462455271 0 -0.45660247167353862 -0.40747031274180939 0 -0.44332653075004852 -0.401690115615219 0 -0.45660247167353862 -0.40747031274180939 0 -0.44646247228389868 -0.41654464256061052 0 -0.45660247167353862 -0.40747031274180939 0 -0.44646247228389868 -0.41654464256061052 0 -0.44646247228389868 -0.41654464256061052 0 -0.4375229199380159 -0.42454468706769971 0 -0.45663439814062529 -0.42533932462455271 0 -0.4375229199380159 -0.42454468706769971 0 -0.4422915115958943 -0.43555510214664611 0 -0.45663439814062529 -0.42533932462455271 0 -0.44646247228389868 -0.41654464256061052 0 -0.4375229199380159 -0.42454468706769971 0 -0.4375229199380159 -0.42454468706769971 0 -0.4422915115958943 -0.43555510214664611 0 -0.43077617074680319 -0.43406335077952207 0 -0.43077617074680319 -0.43406335077952207 0 -0.42550232634077589 -0.42345940056268039 0 -0.41950844772475421 -0.43888456563633732 0 -0.4375229199380159 -0.42454468706769971 0 -0.43077617074680319 -0.43406335077952207 0 -0.42550232634077589 -0.42345940056268039 0 -0.44646247228389868 -0.41654464256061052 0 -0.41657232816672918 -0.41306671883907142 0 -0.42870657106664078 -0.39987574649354879 0 -0.44646247228389868 -0.41654464256061052 0 -0.4375229199380159 -0.42454468706769971 0 -0.42550232634077589 -0.42345940056268039 0 -0.44646247228389868 -0.41654464256061052 0 -0.42550232634077589 -0.42345940056268039 0 -0.41657232816672918 -0.41306671883907142 0 -0.44646247228389868 -0.41654464256061052 0 -0.41657232816672918 -0.41306671883907142 0 -0.42550232634077589 -0.42345940056268039 0 -0.41657232816672918 -0.41306671883907142 0 -0.41333489101611293 -0.42699700567040988 0 -0.41657232816672918 -0.41306671883907142 0 -0.41333489101611293 -0.42699700567040988 0 -0.39893236021425188 -0.42931692235905211 0 -0.41333489101611293 -0.42699700567040988 0 -0.39893236021425188 -0.42931692235905211 0 -0.41950844772475421 -0.43888456563633732 0 -0.42550232634077589 -0.42345940056268039 0 -0.41333489101611293 -0.42699700567040988 0 -0.41950844772475421 -0.43888456563633732 0 -0.43421362475025049 -0.37527491429266319 0 -0.42478231784314502 -0.38643128255249681 0 -0.41656514696884139 -0.37636588688318029 0 -0.43421362475025049 -0.37527491429266319 0 -0.42478231784314502 -0.38643128255249681 0 -0.43479631603355468 -0.39077639303142497 0 -0.42478231784314502 -0.38643128255249681 0 -0.43479631603355468 -0.39077639303142497 0 -0.42870657106664078 -0.39987574649354879 0 -0.44332653075004852 -0.401690115615219 0 -0.43479631603355468 -0.39077639303142497 0 -0.42870657106664078 -0.39987574649354879 0 -0.41657232816672918 -0.41306671883907142 0 -0.40962993039643741 -0.3898634720616666 0 -0.3946356370269814 -0.39577424904278191 0 -0.42478231784314502 -0.38643128255249681 0 -0.42870657106664078 -0.39987574649354879 0 -0.40962993039643741 -0.3898634720616666 0 -0.41657232816672918 -0.41306671883907142 0 -0.42870657106664078 -0.39987574649354879 0 -0.40962993039643741 -0.3898634720616666 0 -0.42478231784314502 -0.38643128255249681 0 -0.40962993039643741 -0.3898634720616666 0 -0.41656514696884139 -0.37636588688318029 0 -0.40962993039643741 -0.3898634720616666 0 -0.41656514696884139 -0.37636588688318029 0 -0.40465459864295228 -0.37650109000307358 0 -0.39431275766669582 -0.38061373190328529 0 -0.40465459864295228 -0.37650109000307358 0 -0.3968495855878465 -0.36923685638487008 0 -0.40962993039643741 -0.3898634720616666 0 -0.39431275766669582 -0.38061373190328529 0 -0.40465459864295228 -0.376501090003
[...]
<PointData Scalars="" Vectors="displacement," Tensors="">
<DataArray type="Float64" Name="displacement" NumberOfComponents="3" format="ascii">
0.084999490438518843 -2.3469985635838894e-07 0 0.084998317138995527 4.7414207259310918e-07 0 0.082455512473488216 -7.9687372002191503e-08 0 0.084998317138995527 4.7414207259310918e-07 0 0.082455512473488216 -7.9687372002191503e-08 0 0.078643427396697926 -7.1212317702489412e-07 0 0.084992479975767463 1.2276620001346655e-06 0 0.081870277747756695 0.00011375986335997042 0 0.08499515911542399 1.4859087694117429e-06 0 0.082905329153627652 0.00061046552358771076 0 0.081656248671877804 0.00072231556914634319 0 0.08499515911542399 1.4859087694117429e-06 0 0.082905329153627652 0.00061046552358771076 0 0.084998743025185106 1.0843205838381519e-07 0 0.082905329153627652 0.00061046552358771076 0 0.080745029315717837 0.00051450010959867821 0 0.08143961624143109 0.000702911713905424 0 0.082905329153627652 0.00061046552358771076 0 0.081656248671877804 0.00072231556914634319 0 0.080745029315717837 0.00051450010959867821 0 0.081870277747756695 0.00011375986335997042 0 0.078647301919538282 -8.0983558328345076e-07 0 0.081656248671877804 0.00072231556914634319 0 0.078638432392305002 2.7154736550850861e-06 0 0.080745029315717837 0.00051450010959867821 0 0.078638432392305002 2.7154736550850861e-06 0 0.080745029315717837 0.00051450010959867821 0 0.078659548718208058 0.00045721878521731577 0 0.080745029315717837 0.00051450010959867821 0 0.078659548718208058 0.00045721878521731577 0 0.08143961624143109 0.000702911713905424 0 0.079474389553087582 0.00038732494341663668 0 0.078659548718208058 0.00045721878521731577 0 0.08143961624143109 0.000702911713905424 0 0.079474389553087582 0.00038732494341663668 0 0.078659548718208058 0.00045721878521731577 0 0.077061890756703708 0.00015740621358856574 0 0.078659548718208058 0.00045721878521731577 0 0.073571851116758236 5.6983874195782143e-07 0 0.077061890756703708 0.00015740621358856574 0 0.078638432392305002 2.7154736550850861e-06 0 0.078659548718208058 0.00045721878521731577 0 0.073571851116758236 5.6983874195782143e-07 0 0.080859836625927634 0.00034022222790681917 0 0.082031327486440056 -5.6197390740419327e-05 0 0.080775278704308326 -0.00032373304454263676 0 0.079474389553087582 0.00038732494341663668 0 0.080859836625927634 0.00034022222790681917 0 0.08143961624143109 0.000702911713905424 0 0.079474389553087582 0.00038732494341663668 0 0.080859836625927634 0.00034022222790681917 0 0.079324372188398953 -0.00024979926553012424 0 0.080859836625927634 0.00034022222790681917 0 0.08143961624143109 0.000702911713905424 0 0.082519271521916002 0.00082672450778996517 0 0.080859836625927634 0.00034022222790681917 0 0.082519271521916002 0.00082672450778996517 0 0.082031327486440056 -5.6197390740419327e-05 0 0.084004364399947795 0.00031517327236514506 0 0.083599620357491758 8.8661630903402367e-05 0 0.08143961624143109 0.000702911713905424 0 0.082519271521916002 0.00082672450778996517 0 0.083410960690519675 0.00051365837917441545 0 0.082905329153627652 0.00061046552358771076 0 0.08143961624143109 0.000702911713905424 0 0.083410960690519675 0.00051365837917441545 0 0.082905329153627652 0.00061046552358771076 0 0.083410960690519675 0.00051365837917441545 0 0.084998743025185106 1.0843205838381519e-07 0 0.083410960690519675 0.00051365837917441545 0 0.084998743025185106 1.0843205838381519e-07 0 0.084996408431627007 7.0924983135493777e-07 0 0.084004364399947795 0.00031517327236514506 0 0.084998158739704857 5.8161235875223324e-07 0 0.084034949268477599 0.00020304969435243952 0 0.084999391861340687 8.6689263263709432e-08 0 0.084597239224763907 0.00011016397261657575 0 0.082519271521916002 0.00082672450778996517 0 0.083410960690519675 0.00051365837917441545 0 0.084996408431627007 7.0924983135493777e-07 0 0.084999391861340687 8.6689263263709432e-08 0 0.084597239224763907 0.00011016397261657575 0 0.084999226442698861 2.1371054839185677e-07 0 0.084597239224763907 0.00011016397261657575 0 0.084999226442698861 2.1371054839185677e-07 0 0.084351741420715956 0.00018738683916048367 0 0.084999226442698861 2.1371054839185677e-07 0 0.084351741420715956 0.00018738683916048367 0 0.084793326206549793 0.00012611793240684436 0 0.084034949268477599 0.00020304969435243952 0 0.084597239224763907 0.00011016397261657575 0 0.084351741420715956 0.00018738683916048367 0 0.084999267829276387 1.6899632512478797e-07 0 0.084801408729262534 0.00014401351915330825 0 0.084669864315744719 0.00011146256128487093 0 0.083116004870917595 -0.00044970145869532261 0 0.083464717400175359 -0.00022710629003798311 0 0.084999267829276387 1.6899632512478797e-07 0 0.084793326206549793 0.00012611793240684436 0 0.084801408729262534 0.00014401351915330825 0 0.084999226442698861 2.1371054839185677e-07 0 0.084999267829276387 1.6899632512478797e-07 0 0.084793326206549793 0.00012611793240684436 0 0.084351741420715956 0.00018738683916048367 0 0.084793326206549793 0.00012611793240684436 0 0.084801408729262534 0.00014401351915330825 0 0.084351741420715956 0.00018738683916048367 0 0.084801408729262534 0.00014401351915330825 0 0.084149192816453347 -3.6880075333255599e-06 0 0.081845985057536277 -0.00036954681710492572 0 0.083750100608943515 -0.00026793854985717483 0 0.082909083112958595 -0.00095961658443663401 0 0.081845985057536277 -0.00036954681710492572 0 0.084669864315744719 0.00011146256128487093 0 0.083750100608943515 -0.00026793854985717483 0 0.081552638215017279 -0.0019143708913815977 0 0.082909083112958595 -0.00095961658443663401 0 0.082556631116632737 -0.0018254135540404022 0 0.081845985057536277 -0.00036954681710492572 0 0.081552638215017279 -0.0019143708913815977 0 0.082909083112958595 -0.00095961658443663401 0 0.083116004870917595 -0.00044970145869532261 0 0.082481957147638313 -0.00097710974100206622 0 0.081845985057536277 -0.00036954681710492572 0 0.081552638215017279 -0.0019143708913815977 0 0.080211358374793942 -0.0017684010785232462 0 0.080485973053127366 -0.0026044453795270499 0 0.079778435902514641 -0.002485383704507333 0 0.080501053816308482 -0.0033285597311420393 0 0.081552638215017279 -0.0019143708913815977 0 0.080485973053127366 -0.0026044453795270499 0 0.080855596730373472 -0.0030343705017203846 0 0.081552638215017279 -0.0019143708913815977 0 0.080485973053127366 -0.0026044453795270499 0 0.080211358374793942 -0.0017684010785232462 0 0.081552638215017279 -0.0019143708913815977 0 0.081483684631552464 -0.002994470649635983 0 0.080855596730373472 -0.0030343705017203846 0 0.081552638215017279 -0.0019143708913815977 0 0.081483684631552464 -0.002994470649635983 0 0.082556631116632737 -0.0018254135540404022 0 0.084034949268477599 0.00020304969435243952 0 0.083386280359952436 0.00013091450242898341 0 0.082031327486440056 -5.6197390740419327e-05 0 0.084034949268477599 0.00020304969435243952 0 0.084351741420715956 0.00018738683916048367 0 0.083386280359952436 0.00013091450242898341 0 0.083386280359952436 0.00013091450242898341 0 0.084149192816453347 -3.6880075333255599e-06 0 0.083466590301621207 -0.00020610055959749383 0 0.084351741420715956 0.00018738683916048367 0 0.083386280359952436 0.00013091450242898341 0 0.084149192816453347 -3.6880075333255599e-06 0 0.080485973053127366 -0.0026044453795270499 0 0.080211358374793942 -0.0017684010785232462 0 0.079778435902514641 -0.002485383704507333 0 0.082481957147638313 -0.00097710974100206622 0 0.082154011067278154 -0.0013273233362460352 0 0.082154011067278154 -0.0013273233362460352 0 0.082324607303725927 -0.0011060265283704971 0 0.083386280359952436 0.00013091450242898341 0 0.082331112816437568 -0.00039817879034753157 0 0.082031327486440056 -5.6197390740419327e-05 0 0.083386280359952436 0.00013091450242898341 0 0.083466590301621207 -0.00020610055959749383 0 0.082331112816437568 -0.00039817879034753157 0 0.082331112816437568 -0.00039817879034753157 0 0.082031327486440056 -5.6197390740419327e-05 0 0.081631175960750299 -0.00053123133292431578 0 0.081631175960750299 -0.00053123133292431578 0 0.081927025672034984 -0.00076770077992515935 0 0.080963185019249345 -0.00097881462421105605 0 0.082331112816437568 -0.00039817879034753157 0 0.081631175960750299 -0.00053123133292431578 0 0.081927025672034984 -0.00076770077992515935 0 0.079778435902514641 -0.002485383704507333 0 0.080286961983517174 -0.0037083483488446548 0 0.080501053816308482 -0.0033285597311420393 0 0.082561173154137801 -0.00013290988084145372 0 0.082331112816437568 -0.00039817879034753157 0 0.081927025672034984 -0.00076770077992515935 0 0.082561173154137801 -0.00013290988084145372 0 0.081927025672034984 -0.00076770077992515935 0 0.081976275649925573 -0.0011196158603565657 0 0.082154011067278154 -0.0013273233362460352 0 0.081495331162646609 -0.0019125038219281402 0 0.081927025672034984 -0.00076770077992515935 0 0.081976275649925573 -0.0011196158603565657 0 0.08140127418095168 -0.0012687597006098969 0 0.081976275649925573 -0.0011196158603565657 0 0.08140127418095168 -0.0012687597006098969 0 0.080969542712749601 -0.0018925410179539204 0 0.08140127418095168 -0.0012687597006098969 0 0.080969542712749601 -0.0018925410179539204 0 0.080963185019249345 -0.00097881462421105605 0 0.081927025672034984 -0.00076770077992515935 0 0.08140127418095168 -0.0012687597006098969 0 0.080963185019249345 -0.00097881462421105605 0 0.081483684631552464 -0.002994470649635983 0 0.080703640839587809 -0.0034938635930406659 0 0.080579273358435746 -0.00390758072702961 0 0.081483684631552464 -0.002994470649635983 0 0.080703640839587809 -0.0034938635930406659 0 0.080855596730373472 -0.0030343705017203846 0 0.080703640839587809 -0.0034938635930406659 0 0.080855596730373472 -0.0030343705017203846 0 0.080501053816308482 -0.0033285597311420393 0 0.080485973053127366 -0.0026044453795270499 0 0.080855596730373472 -0.0030343705017203846 0 0.080501053816308482 -0.0033285597311420393 0 0.080286961983517174 -0.0037083483488446548 0 0.080344944131611265 -0.0037925311156767573 0 0.080295145210139252 -0.0034128005238342118 0 0.080703640839587809 -0.0034938635930406659 0 0.080501053816308482 -0.0033285597311420393 0 0.080344944131611265 -0.0037925311156767573 0 0.080286961983517174 -0.0037083483488446548 0 0.080501053816308482 -0.0033285597311420393 0 0.080344944131611265 -0.0037925311156767573 0 0.080703640839587809 -0.0034938635930406659 0 0.080344944131611265 -0.0037925311156767573 0 0.080579273358435746 -0.00390758072702961 0 0.080344944131611265 -0.0037925311156767573 0 0.080579273358435746 -0.00390758072702961 0 0.079976399893665714 -0.0039193661225346574 0 0.079697267691379983 -0.0034464756262421515 0 0.079976399893665714 -0.0039193661225346574 0 0.079190748067001118 -0.0036602955288658084 0 0.080344944131611265 -0.0037925311156767573 0 0.079697267691379983 -0.0034464756262421515 0 0.079976399893665714 -0.0039193661225346574 0 0.080344944131611265 -0.0037925311156767573 0 0.079697267691379983 -0.0034464756262421515 0 0.080295145210139252 -0.0034128005238342118 0 0.080295145210139252 -0.0034128005238342118 0 0.08069081906609997 -0.0030628201892798643 0 0.080132405233022369 -0.0023502374846932797 0 0.080295145210139252 -0.0034128005238342118 0 0.07915330464954326 -0.0022404101493199973 0 0.080132405233022369 -0.0023502374846932797 0 0.079697267691379983 -0.0034464756262421515 0 0.080295145210139252 -0.0034128005238342118 0 0.07915330464954326 -0.0022404101493199973 0 0.079697267691379983 -0.0034464756262421515 0 0.07915330464954326 -0.0022404101493199973 0 0.078666226124417371 -0.00286285583821092 0 0.081976275649925573 -0.0011196158603565657 0 0.080969542712749601 -0.0018925410179539204 0 0.081177250756322455 -0.0023090679708066509 0 0.080286961983517174 -0.0037083483488446548 0 0.080295145210139252 -0.0034128005238342118 0 0.08069081906609997 -0.0030628201892798643 0 0.081495331162646609 -0.0019125038219281402 0 0.081163477120904798 -0.0021625872444597659 0 0.081177250756322455 -0.0023090679708066509 0 0.080784808864737892 -0.0023796299121791836 0 0.080730817753805043 -0.0021884455279230306 0 0.080784808864737892 -0.0023796299121791836 0 0.08003344542922719 -0.0025561147745985467 0 0.080495290076219722 -0.0025607831018113116 0 0.080969542712749601 -0.0018925410179539204 0 0.080784808864737892 -0.0023796299121791836 0 0.08003344542922719 -0.0025561147745985467 0 0.080969542712749601 -0.0018925410179539204 0 0.081177250756322455 -0.0023090679708066509 0 0.080784808864737892 -0.0023796299121791836 0 0.08003344542922719 -0.0025561147745985467 0 0.079784460998249013 -0.0017246899830319188 0 0.078497819333531574 -0.0026158603242995146 0 0.080969542712749601 -0.0018925410179539204 0 0.08003344542922719 -0.0025561147745985467 0 0.079784460998249013 -0.0017246899830319188 0 0.079784460998249013 -0.0017246899830319188 0 0.078497819333531574 -0.0026158603242995146 0 0.077733715061801045 -0.0019298817308271881 0 0.08003344542922719 -0.0025561147745985467 0 0.078497819333531574 -0.0026158603242995146 0 0.078884807803255658 -0.0031603687100882445 0 0.078497819333531574 -0.0026158603242995146 0 0.077210245424060048 -0.0032679248314515016 0 0.078884807803255658 -0.0031603687100882445 0 0.077210245424060048 -0.0032679248314515016 0 0.075410970499243585 -0.0029095349922315223 0 0.076915901106046833 -0.0026089793295590159 0 0.078497819333531574 -0.0026158603242995146 0 0.077210245424060048 -0.0032679248314515016 0 0.076915901106046833 -0.0026089793295590159 0 0.066530083923229622 0.0002509369478887324 0 0.063663078258847289 -0.0013364085657863345 0 0.066748182561094674 -2.8454850397585662e-05 0 0.068498242673385515 -2.3780183818657202e-06 0 0.063426350084510155 5.4296385562780207e-07 0 0.066748182561094674 -2.8454850397585662e-05 0 0.06368146034913541 -0.00011682772348532244 0 0.063426350084510155 5.4296385562780207e-07 0 0.077210245424060048 -0.0032679248314515016 0 0.075410970499243585 -0.0029095349922315223 0 0.075964091614836041 -0.0039518091594538188 0 0.066530083923229622 0.0002509369478887324 0 0.067512547119333424 0.0011112114971048722 0 0.075410970499243585 -0.0029095349922315223 0 0.076915901106046833 -0.0026089793295590159 0 0.075855148179463497 -0.0019313059492828801 0 0.066748182561094674 -2.8454850397585662e-05 0 0.068498242673385515 -2.3780183818657202e-06 0 0.072741725534635315 -0.00041987408428593379 0 0.075410970499243585 -0.0029095349922315223 0 0.075855148179463497 -0.0019313059492828801 0 0.072741725534635315 -0.00041987408428593379 0 0.078497819333531574 -0.0026158603242995146 0 0.076915901106046833 -0.0026089793295590159 0 0.077733715061801045 -0.0019298817308271881 0 0.076915901106046833 -0.0026089793295590159 0 0.075855148179463497 -0.0019313059492828801 0 0.077733715061801045 -0.0019298817308271881 0 0.077733715061801045 -0.0019298817308271881 0 0.077087757054145042 -0.00064908206381016672 0 0.078900734371515763 -0.0010675343818298056 0 0.075855148179463497 -0.0019313059492828801 0 0.077087757054145042 -0.00064908206381016672 0 0.072741725534635315 -0.00041987408428593379 0 0.075855148179463497 -0.0019313059492828801 0 0.077733715061801045 -0.0019298817308271881 0 0.077087757054145042 -0.00064908206381016672 0 0.077087757054145042 -0.00064908206381016672 0 0.072741725534635315 -0.00041987408428593379 0 0.074995280395767833 -0.00016165542897107724 0 0.068498242673385515 -2.3780183818657202e-06 0 0.072741725534635315 -0.00041987408428593379 0 0.073571851116758236 5.6983874195782143e-07 0 0.072741725534635315 -0.00041987408428593379 0 0.074995280395767833 -0.00016165542897107724 0 0.073571851116758236 5.6983874195782143e-07 0 0.074995280395767833 -0.00016165542897107724 0 0.073571851116758236 5.6983874195782143e-07 0 0.077061890756703708 0.00015740621358856574 0 0.079474389553087582 0.00038732494341663668 0 0.077061890756703708 0.00015740621358856574 0 0.079324372188398953 -0.00024979926553012424 0 0.077087757054145042 -0.00064908206381016672 0 0.077061890756703708 0.00015740621358856574 0 0.079324372188398953 -0.00024979926553012424 0 0.077087757054145042 -0.00064908206381016672 0 0.074995280395767833 -0.00016165542897107724 0 0.077061890756703708 0.00015740621358856574 0 0.080859836625927634 0.00034022222790681917 0 0.079324372188398953 -0.00024979926553012424 0 0.080775278704308326 -0.00032373304454263676 0 0.079324372188398953 -0.00024979926553012424 0 0.080032715425181825 -0.00085616817805427437 0 0.078900734371515763 -0.0010675343818298056 0 0.079324372188398953 -0.00024979926553012424 0 0.080775278704308326 -0.00032373304454263676 0 0.080032715425181825 -0.00085616817805427437 0 0.082031327486440056 -5.6197390740419327e-05 0 0.081631175960750299 -0.00053123133292431578 0 0.080775278704308326 -0.00032373304454263676 0 0.081631175960750299 -0.00053123133292431578 0 0.080775278704308326 -0.00032373304454263676 0 0.080963185019249345 -0.00097881462421105605 0 0.080775278704308326 -0.00032373304454263676 0 0.080032715425181825 -0.00085616817805427437 0 0.080963185019249345 -0.00097881462421105605 0 0.080969542712749601 -0.0018925410179539204 0 0.079784460998249013 -0.0017246899830319188 0 0.080963185019249345 -0.00097881462421105605 0 0.079784460998249013 -0.0017246899830319188 0 0.080032715425181825 -0.00085616817805427437 0 0.080963185019249345 -0.00097881462421105605 0 0.079784460998249013 -0.0017246899830319188 0 0.080032715425181825 -0.00085616817805427437 0 0.078900734371515763 -0.0010675343818298056 0 0.079784460998249013 -0.0017246899830319188 0 0.077733715061801045 -0.0019298817308271881 0 0.078900734371515763 -0.0010675343818298056 0 0.077087757054145042 -0.00064908206381016672 0 0.079324372188398953 -0.00024979926553012424 0 0.078900734371515763 -0.0010675343818298056 0 0.084724602687578768 8.3488121570086921e-05 0 0.084741227147094395 2.3661213362963181e-05 0 0.084717841807198727 6.5068861296955788e-05 0 0.084724602687578768 8.3488121570086921e-05 0 0.084788362646170803 -1.7677938836117945e-05 0 0.084741227147094395 2.3661213362963181e-05 0 0.084724602687578768 8.3488121570086921e-05 0 0.084717841807198727 6.5068861296955788e-05 0 0.084659291243274648 0.0001446618705747469 0 0.084724602687578768 8.3488121570086921e-05 0 0.084788362646170803 -1.7677938836117945e-05 0 0.08485705110961056 -2.3731330600838335e-05 0 0.084788362646170803 -1.7677938836117945e-05 0 0.08485705110961056 -2.3731330600838335e-05 0 0.084868833790503917 -0.00013909168957695387 0 0.08485705110961056 -2.3731330600838335e-05 0 0.084822671793890345 -5.3235503497532236e-05 0 0.084668330876809819 0.00011408751288923451 0 0.084724602687578768 8.3488121570086921e-05 0 0.08485705110961056 -2.3731330600838335e-05 0 0.084668330876809819 0.00011408751288923451 0 0.084724602687578768 8.3488121570086921e-05 0 0.084668330876809819 0.00011408751288923451 0 0.084659291243274648 0.0001446618705747469 0 0.084822671793890345 -5.3235503497532236e-05 0 0.08499999764969958 3.6262014147932725e-08 0 0.084999133940274391 -5.1537245341400873e-07 0 0.084822671793890345 -5.3235503497532236e-05 0 0.08499999764969958 3.6262014147932725e-08 0 0.08495328038994758 -6.2990947788486506e-05 0 0.08485705110961056 -2.3731330600838335e-05 0 0.084822671793890345 -5.3235503497532236e-05 0 0.08495328038994758 -6.2990947788486506e-05 0 0.08485705110961056 -2.3731330600838335e-05 0 0.08495328038994758 -6.2990947788486506e-05 0 0.084939533343963827 -0.00014583722998596751 0 0.08495328038994758 -6.2990947788486506e-05 0 0.084999926160813657 -9.52050177386499e-08 0 0.084939533343963827 -0.00014583722998596751 0 0.08499999764969958 3.6262014147932725e-08 0 0.08495328038994758 -6.2990947788486506e-05 0 0.084999926160813657 -9.52050177386499e-08 0 0.084999926160813657 -9.52050177386499e-08 0 0.084939533343963827 -0.00014583722998596751 0 0.084931269683094196 -0.00020393137967957299 0 0.084939533343963827 -0.00014583722998596751 0 0.084868833790503917 -0.00013909168957695387 0 0.084838789767460274 -0.00042079974515311474 0 0.08485705110961056 -2.3731330600838335e-05 0 0.084939533343963827 -0.00014583722998596751 0 0.084868833790503917 -0.00013909168957695387 0 0.084788362646170803 -1.7677938836117945e-05 0 0.084868833790503917 -0.0