<?xml version="1.0"?>
<VTKFile type="UnstructuredGrid" version="0.1" byte_order="LittleEndian">
<UnstructuredGrid>
<Piece NumberOfPoints="30181" NumberOfCells="10490">
<Points>
<DataArray type="Float64" NumberOfComponents="3" format="ascii">
-0.5 -0.5 0 -0.48925352376337772 -0.49999999999999872 0 -0.48944170270252307 -0.47877281128923699 0 -0.48925352376337772 -0.49999999999999872 0 -0.48944170270252307 -0.47877281128923699 0 -0.48092464073642299 -0.48949177903292052 0 -0.5 -0.5 0 -0.48944170270252307 -0.47877281128923699 0 -0.50000000000000067 -0.4622044869987938 0 -0.48925352376337772 -0.49999999999999872 0 -0.48092464073642299 -0.48949177903292052 0 -0.48944170270252307 -0.47877281128923699 0 -0.48092464073642299 -0.48949177903292052 0 -0.4792502830406713 -0.46118275872615561 0 -0.48092464073642299 -0.48949177903292052 0 -0.4792502830406713 -0.46118275872615561 0 -0.46928404551414182 -0.47480530230031082 0 -0.48092464073642299 -0.48949177903292052 0 -0.4792502830406713 -0.46118275872615561 0 -0.46928404551414182 -0.47480530230031082 0 -0.48092464073642299 -0.48949177903292052 0 -0.46691213954922239 -0.48841354319132257 0 -0.46928404551414182 -0.47480530230031082 0 -0.48092464073642299 -0.48949177903292052 0 -0.48925352376337772 -0.49999999999999872 0 -0.48154615714547749 -0.49999999999999778 0 -0.48092464073642299 -0.48949177903292052 0 -0.48154615714547749 -0.49999999999999778 0 -0.48092464073642299 -0.48949177903292052 0 -0.48154615714547749 -0.49999999999999778 0 -0.48092464073642299 -0.48949177903292052 0 -0.46691213954922239 -0.48841354319132257 0 -0.45429505028884648 -0.5 0 -0.46691213954922239 -0.48841354319132257 0 -0.44851080406122229 -0.47777063462338382 0 -0.48154615714547749 -0.49999999999999778 0 -0.45429505028884648 -0.5 0 -0.46691213954922239 -0.48841354319132257 0 -0.46928404551414182 -0.47480530230031082 0 -0.46691213954922239 -0.48841354319132257 0 -0.44851080406122229 -0.47777063462338382 0 -0.46928404551414182 -0.47480530230031082 0 -0.44851080406122229 -0.47777063462338382 0 -0.45764345029186232 -0.46011882556769962 0 -0.45429505028884648 -0.5 0 -0.44851080406122229 -0.47777063462338382 0 -0.43459986511559828 -0.48691954309780988 0 -0.45429505028884648 -0.5 0 -0.43459986511559828 -0.48691954309780988 0 -0.42704394343221552 -0.5 0 -0.43822739075273393 -0.44060553300474292 0 -0.44829184202052208 -0.4483202727731978 0 -0.45701736274921212 -0.4325691351023086 0 -0.43822739075273393 -0.44060553300474292 0 -0.44829184202052208 -0.4483202727731978 0 -0.4370454374196342 -0.45910456729357529 0 -0.44851080406122229 -0.47777063462338382 0 -0.45764345029186232 -0.46011882556769962 0 -0.4370454374196342 -0.45910456729357529 0 -0.44829184202052208 -0.4483202727731978 0 -0.45764345029186232 -0.46011882556769962 0 -0.4370454374196342 -0.45910456729357529 0 -0.45764345029186232 -0.46011882556769962 0 -0.4370454374196342 -0.45910456729357529 0 -0.44829184202052208 -0.4483202727731978 0 -0.45764345029186232 -0.46011882556769962 0 -0.46928404551414182 -0.47480530230031082 0 -0.45764345029186232 -0.46011882556769962 0 -0.4792502830406713 -0.46118275872615561 0 -0.45764345029186232 -0.46011882556769962 0 -0.4792502830406713 -0.46118275872615561 0 -0.45764345029186232 -0.46011882556769962 0 -0.46402456569677591 -0.44817605639379748 0 -0.4792502830406713 -0.46118275872615561 0 -0.46928404551414182 -0.47480530230031082 0 -0.45764345029186232 -0.46011882556769962 0 -0.44829184202052208 -0.4483202727731978 0 -0.46402456569677591 -0.44817605639379748 0 -0.45701736274921212 -0.4325691351023086 0 -0.44829184202052208 -0.4483202727731978 0 -0.45764345029186232 -0.46011882556769962 0 -0.46402456569677591 -0.44817605639379748 0 -0.46402456569677591 -0.44817605639379748 0 -0.47791989038161142 -0.4386892897996269 0 -0.45701736274921212 -0.4325691351023086 0 -0.46402456569677591 -0.44817605639379748 0 -0.47791989038161142 -0.4386892897996269 0 -0.4792502830406713 -0.46118275872615561 0 -0.47791989038161142 -0.4386892897996269 0 -0.4792502830406713 -0.46118275872615561 0 -0.47791989038161142 -0.4386892897996269 0 -0.4792502830406713 -0.46118275872615561 0 -0.48957491549189841 -0.4472693056016917 0 -0.4792502830406713 -0.46118275872615561 0 -0.50000000000000067 -0.4622044869987938 0 -0.4792502830406713 -0.46118275872615561 0 -0.50000000000000067 -0.4622044869987938 0 -0.48957491549189841 -0.4472693056016917 0 -0.48944170270252307 -0.47877281128923699 0 -0.4792502830406713 -0.46118275872615561 0 -0.50000000000000067 -0.4622044869987938 0 -0.50000000000000067 -0.4622044869987938 0 -0.48957491549189841 -0.4472693056016917 0 -0.5 -0.43637541736762142 0 -0.47791989038161142 -0.4386892897996269 0 -0.49070440403720861 -0.43789457511626112 0 -0.48957491549189841 -0.4472693056016917 0 -0.49070440403720861 -0.43789457511626112 0 -0.48957491549189841 -0.4472693056016917 0 -0.5 -0.43637541736762142 0 -0.49070440403720861 -0.43789457511626112 0 -0.5 -0.43637541736762142 0 -0.49935560617887592 -0.43407458950238342 0 -0.5 -0.43637541736762142 0 -0.49935560617887592 -0.43407458950238342 0 -0.5 -0.41054634773644899 0 -0.49935560617887592 -0.43407458950238342 0 -0.48615162819049962 -0.42817992967234741 0 -0.48730735562118171 -0.41388847072447721 0 -0.49935560617887592 -0.43407458950238342 0 -0.48730735562118171 -0.41388847072447721 0 -0.49070440403720861 -0.43789457511626112 0 -0.49935560617887592 -0.43407458950238342 0 -0.48615162819049962 -0.42817992967234741 0 -0.47791989038161142 -0.4386892897996269 0 -0.49070440403720861 -0.43789457511626112 0 -0.48615162819049962 -0.42817992967234741 0 -0.49935560617887592 -0.43407458950238342 0 -0.5 -0.41054634773644899 0 -0.48730735562118171 -0.41388847072447721 0 -0.5 -0.41054634773644899 0 -0.48730735562118171 -0.41388847072447721 0 -0.49284196856233692 -0.4049072309149564 0 -0.48615162819049962 -0.42817992967234741 0 -0.48730735562118171 -0.41388847072447721 0 -0.47658949772255138 -0.41619582087309831 0 -0.48730735562118171 -0.41388847072447721 0 -0.47658949772255138 -0.41619582087309831 0 -0.47525910506348917 -0.39370235194656988 0 -0.47791989038161142 -0.4386892897996269 0 -0.48615162819049962 -0.42817992967234741 0 -0.47658949772255138 -0.41619582087309831 0 -0.47791989038161142 -0.4386892897996269 0 -0.47658949772255138 -0.41619582087309831 0 -0.47791989038161142 -0.4386892897996269 0 -0.47658949772255138 -0.41619582087309831 0 -0.45701736274921212 -0.4325691351023086 0 -0.48663019096408588 -0.38235932780106241 0 -0.5 -0.38471727810527673 0 -0.49066969571407409 -0.36911687410203697 0 -0.5 -0.41054634773644899 0 -0.5 -0.38471727810527673 0 -0.49284196856233692 -0.4049072309149564 0 -0.48663019096408588 -0.38235932780106241 0 -0.5 -0.38471727810527673 0 -0.49284196856233692 -0.4049072309149564 0 -0.48663019096408588 -0.38235932780106241 0 -0.49284196856233692 -0.4049072309149564 0 -0.47525910506348917 -0.39370235194656988 0 -0.48730735562118171 -0.41388847072447721 0 -0.49284196856233692 -0.4049072309149564 0 -0.47525910506348917 -0.39370235194656988 0 -0.48663019096408588 -0.38235932780106241 0 -0.49284196856233692 -0.4049072309149564 0 -0.48730735562118171 -0.41388847072447721 0 -0.47525910506348917 -0.39370235194656988 0 -0.47658949772255138 -0.41619582087309831 0 -0.47525910506348917 -0.39370235194656988 0 -0.47658949772255138 -0.41619582087309831 0 -0.47525910506348917 -0.39370235194656988 0 -0.4639634444888831 -0.4010317390274768 0 -0.48663019096408588 -0.38235932780106241 0 -0.47525910506348917 -0.39370235194656988 0 -0.47379019254736299 -0.36886687362944293 0 -0.47525910506348917 -0.39370235194656988 0 -0.47379019254736299 -0.36886687362944293 0 -0.47525910506348917 -0.39370235194656988 0 -0.46643414964674729 -0.37891667020805098 0 -0.47379019254736299 -0.36886687362944293 0 -0.47525910506348917 -0.39370235194656988 0 -0.46643414964674729 -0.37891667020805098 0 -0.45355734214240589 -0.376041381016815 0 -0.45792882752233471 -0.38202812533333752 0 -0.46643414964674729 -0.37891667020805098 0 -0.45355734214240589 -0.376041381016815 0 -0.45792882752233471 -0.38202812533333752 0 -0.45153325847904757 -0.38570781229211998 0 -0.45792882752233471 -0.38202812533333752 0 -0.46643414964674729 -0.37891667020805098 0 -0.46019055982113838 -0.38744663781636429 0 -0.46643414964674729 -0.37891667020805098 0 -0.46019055982113838 -0.38744663781636429 0 -0.47525910506348917 -0.39370235194656988 0 -0.46643414964674729 -0.37891667020805098 0 -0.46019055982113838 -0.38744663781636429 0 -0.46019055982113838 -0.38744663781636429 0 -0.45329421130429282 -0.39571135683353548 0 -0.45153325847904757 -0.38570781229211998 0 -0.45792882752233471 -0.38202812533333752 0 -0.46019055982113838 -0.38744663781636429 0 -0.45153325847904757 -0.38570781229211998 0 -0.45329421130429282 -0.39571135683353548 0 -0.4639634444888831 -0.4010317390274768 0 -0.45448384853294499 -0.41210252766781508 0 -0.46019055982113838 -0.38744663781636429 0 -0.45329421130429282 -0.39571135683353548 0 -0.4639634444888831 -0.4010317390274768 0 -0.47525910506348917 -0.39370235194656988 0 -0.46019055982113838 -0.38744663781636429 0 -0.4639634444888831 -0.4010317390274768 0 -0.45329421130429282 -0.39571135683353548 0 -0.44537783921358182 -0.40320939540976408 0 -0.45448384853294499 -0.41210252766781508 0 -0.44537783921358182 -0.40320939540976408 0 -0.44321355290953351 -0.39294884341074199 0 -0.43493612010632798 -0.40153184941571879 0 -0.44537783921358182 -0.40320939540976408 0 -0.44020499824919412 -0.41194831258951581 0 -0.43493612010632798 -0.40153184941571879 0 -0.44321355290953351 -0.39294884341074199 0 -0.43541575146154848 -0.38971344007111708 0 -0.43493612010632798 -0.40153184941571879 0 -0.45329421130429282 -0.39571135683353548 0 -0.44537783921358182 -0.40320939540976408 0 -0.44321355290953351 -0.39294884341074199 0 -0.45329421130429282 -0.39571135683353548 0 -0.44321355290953351 -0.39294884341074199 0 -0.45153325847904757 -0.38570781229211998 0 -0.44321355290953351 -0.39294884341074199 0 -0.45153325847904757 -0.38570781229211998 0 -0.44266088199960768 
[...]
<PointData Scalars="" Vectors="displacement," Tensors="">
<DataArray type="Float64" Name="displacement" NumberOfComponents="3" format="ascii">
-0.034997552675741117 -4.4628891524929544e-07 0 -0.034251541534733282 7.058584773142032e-07 0 -0.034893499642439561 3.3642804766130242e-05 0 -0.034251541534733282 7.058584773142032e-07 0 -0.034893499642439561 3.3642804766130242e-05 0 -0.0346227517071745 0.00023573306462238125 0 -0.034997552675741117 -4.4628891524929544e-07 0 -0.034893499642439561 3.3642804766130242e-05 0 -0.035001033871748091 2.1787466678775032e-07 0 -0.034247542916348447 2.9178676563213996e-07 0 -0.033458689564896789 0.00059376116869596122 0 -0.034893499642439561 3.3642804766130242e-05 0 -0.0346227517071745 0.00023573306462238125 0 -0.035104303862614809 0.00018497729853190613 0 -0.033458689564896789 0.00059376116869596122 0 -0.032215100570084754 0.0022145143123140703 0 -0.031886466957424441 0.0014982492688373518 0 -0.032487805822254509 0.0019549703121888255 0 -0.031340271106045439 0.0019035083058735174 0 -0.031120352526170184 0.00014099186647964507 0 -0.032351512099214691 0.00048800400555048455 0 -0.031902857006193046 -1.991227737150299e-06 0 -0.031487657589580449 0.00071757611963803531 0 -0.033458689564896789 0.00059376116869596122 0 -0.034245558944417907 -4.1307400320082339e-10 0 -0.033710418077445764 3.6002512264885506e-09 0 -0.033665976541338696 2.8909724009030233e-06 0 -0.033707633001176754 4.2982284518649211e-07 0 -0.033458689564896789 0.00059376116869596122 0 -0.033705535683082509 2.1356710384853235e-06 0 -0.032351512099214691 0.00048800400555048455 0 -0.031902857006193046 -1.991227737150299e-06 0 -0.031800552348562869 -1.2155998140446279e-06 0 -0.031902857006193046 -1.991227737150299e-06 0 -0.030775717297907217 -0.00024142715127878009 0 -0.033705535683082509 2.1356710384853235e-06 0 -0.031800552348562869 -1.2155998140446279e-06 0 -0.031902857006193046 -1.991227737150299e-06 0 -0.031120352526170184 0.00014099186647964507 0 -0.031902857006193046 -1.991227737150299e-06 0 -0.030775717297907217 -0.00024142715127878009 0 -0.031120352526170184 0.00014099186647964507 0 -0.030775717297907217 -0.00024142715127878009 0 -0.030700384251749587 -0.00010622842008124506 0 -0.031800552348562869 -1.2155998140446279e-06 0 -0.030775717297907217 -0.00024142715127878009 0 -0.030225240709561764 -0.00013335617339012385 0 -0.031800552348562869 -1.2155998140446279e-06 0 -0.030225240709561764 -0.00013335617339012385 0 -0.029892464818519 6.6317701007636912e-07 0 -0.02611343346255262 0.0025579188618951956 0 -0.026821568632556695 0.0034389734866284659 0 -0.025401005126321322 0.0042360507780585316 0 -0.02611343346255262 0.0025579188618951956 0 -0.026821568632556695 0.0034389734866284659 0 -0.027770833050727955 0.002441658953207805 0 -0.030775717297907217 -0.00024142715127878009 0 -0.030700384251749587 -0.00010622842008124506 0 -0.030713705072193034 -0.00023845598536578484 0 -0.026821568632556695 0.0034389734866284659 0 -0.027867951973163097 0.0042443411517307491 0 -0.027770833050727955 0.002441658953207805 0 -0.029319585182800315 0.0025183596361266066 0 -0.029386580597303695 0.00097581072310848978 0 -0.027104592623516388 0.003370786704028609 0 -0.029319585182800315 0.0025183596361266066 0 -0.031886466957424441 0.0014982492688373518 0 -0.031283510878282753 0.001043157522070781 0 -0.031340271106045439 0.0019035083058735174 0 -0.029319585182800315 0.0025183596361266066 0 -0.032215100570084754 0.0022145143123140703 0 -0.027910992286871682 0.0042591887554214768 0 -0.026833636521874517 0.0048414332450610791 0 -0.028038208753428284 0.0061802593737780723 0 -0.031487657589580449 0.00071757611963803531 0 -0.029319585182800315 0.0025183596361266066 0 -0.026821568632556695 0.0034389734866284659 0 -0.026833636521874517 0.0048414332450610791 0 -0.025401005126321322 0.0042360507780585316 0 -0.026821568632556695 0.0034389734866284659 0 -0.027910992286871682 0.0042591887554214768 0 -0.026833636521874517 0.0048414332450610791 0 -0.026833636521874517 0.0048414332450610791 0 -0.025994732710321558 0.0060879226601556948 0 -0.025401005126321322 0.0042360507780585316 0 -0.026833636521874517 0.0048414332450610791 0 -0.025994732710321558 0.0060879226601556948 0 -0.028038208753428284 0.0061802593737780723 0 -0.030402981774771045 0.0030155672201410294 0 -0.032215100570084754 0.0022145143123140703 0 -0.034937922947270765 -0.00016150032865460982 0 -0.03501490723843742 -6.260244413737184e-05 0 -0.034987069996073192 -4.1756245627828859e-05 0 -0.032215100570084754 0.0022145143123140703 0 -0.035000537143873814 -2.2882450459327554e-06 0 -0.03501490723843742 -6.260244413737184e-05 0 -0.035000129886660826 -9.8978605267022278e-08 0 -0.034987069996073192 -4.1756245627828859e-05 0 -0.034893499642439561 3.3642804766130242e-05 0 -0.035104303862614809 0.00018497729853190613 0 -0.035001033871748091 2.1787466678775032e-07 0 -0.035000129886660826 -9.8978605267022278e-08 0 -0.034987069996073192 -4.1756245627828859e-05 0 -0.034999814108437367 9.6391012436660304e-08 0 -0.034937922947270765 -0.00016150032865460982 0 -0.034951854898243186 -4.3144280010863785e-05 0 -0.034987069996073192 -4.1756245627828859e-05 0 -0.034951854898243186 -4.3144280010863785e-05 0 -0.034987069996073192 -4.1756245627828859e-05 0 -0.034999814108437367 9.6391012436660304e-08 0 -0.034951854898243186 -4.3144280010863785e-05 0 -0.034999814108437367 9.6391012436660304e-08 0 -0.034996644198398777 5.9034825921387676e-06 0 -0.034999814108437367 9.6391012436660304e-08 0 -0.034996644198398777 5.9034825921387676e-06 0 -0.034999967752493658 6.6080286195373232e-09 0 -0.034996644198398777 5.9034825921387676e-06 0 -0.034776621828438513 -9.1021561439539141e-05 0 -0.034407940829566816 1.8946400060901947e-06 0 -0.03472718380620779 -5.9538697345638264e-05 0 -0.03537459007077344 -4.684726397119414e-05 0 -0.034951854898243186 -4.3144280010863785e-05 0 -0.034996644198398777 5.9034825921387676e-06 0 -0.034776621828438513 -9.1021561439539141e-05 0 -0.034937922947270765 -0.00016150032865460982 0 -0.034951854898243186 -4.3144280010863785e-05 0 -0.034776621828438513 -9.1021561439539141e-05 0 -0.034996644198398777 5.9034825921387676e-06 0 -0.034999967752493658 6.6080286195373232e-09 0 -0.035062926064514867 -7.1265736769796502e-05 0 -0.034999967752493658 6.6080286195373232e-09 0 -0.035062926064514867 -7.1265736769796502e-05 0 -0.034941223872882371 6.8362516117962449e-06 0 -0.034776621828438513 -9.1021561439539141e-05 0 -0.034407940829566816 1.8946400060901947e-06 0 -0.03446748979906402 -0.00033118272548341115 0 -0.034407940829566816 1.8946400060901947e-06 0 -0.03446748979906402 -0.00033118272548341115 0 -0.033578679989989771 -0.00037934791842980734 0 -0.034937922947270765 -0.00016150032865460982 0 -0.034776621828438513 -9.1021561439539141e-05 0 -0.03446748979906402 -0.00033118272548341115 0 -0.030402981774771045 0.0030155672201410294 0 -0.028775173213149017 0.0029273586024844834 0 -0.025994732710321558 0.0060879226601556948 0 -0.02394372011772309 0.0059793187937628167 0 -0.025401005126321322 0.0042360507780585316 0 -0.034997202605787335 1.2230763283017547e-05 0 -0.034999952295000483 -1.0725806854954033e-08 0 -0.03499830115058318 4.2229599895889967e-06 0 -0.034999967752493658 6.6080286195373232e-09 0 -0.034999952295000483 -1.0725806854954033e-08 0 -0.034941223872882371 6.8362516117962449e-06 0 -0.034997202605787335 1.2230763283017547e-05 0 -0.034999952295000483 -1.0725806854954033e-08 0 -0.034941223872882371 6.8362516117962449e-06 0 -0.034084714747526938 -0.00010974420753461299 0 -0.034941223872882371 6.8362516117962449e-06 0 -0.034525403812087123 -0.00052884623784336851 0 -0.035062926064514867 -7.1265736769796502e-05 0 -0.034941223872882371 6.8362516117962449e-06 0 -0.034525403812087123 -0.00052884623784336851 0 -0.034639719596117412 -1.5190978489978914e-05 0 -0.034864159844897297 -3.7537805678287708e-06 0 -0.03537459007077344 -4.684726397119414e-05 0 -0.029985625787953045 0.0012520624022897028 0 -0.028775173213149017 0.0029273586024844834 0 -0.029985625787953045 0.0012520624022897028 0 -0.02394372011772309 0.0059793187937628167 0 -0.021933879111658804 0.0058358596525649731 0 -0.02255199087023568 0.0048603762868147452 0 -0.034084714747526938 -0.00010974420753461299 0 -0.034525403812087123 -0.00052884623784336851 0 -0.033503164163675908 -0.00063396557890523528 0 -0.029985625787953045 0.0012520624022897028 0 -0.03003158641246741 -0.00073668458860036326 0 -0.028507416236265924 0.00078793583724697761 0 -0.028014586653874147 0.00048646656389700262 0 -0.027695713760530434 0.00071431479238713851 0 -0.029985625787953045 0.0012520624022897028 0 -0.023505299196832766 0.0018919835135645445 0 -0.020331232242437255 0.0039338548275333497 0 -0.020855779049886922 0.0043149134671176476 0 -0.020591721163513561 0.0050385703916430158 0 -0.020331232242437255 0.0039338548275333497 0 -0.020855779049886922 0.0043149134671176476 0 -0.021158013388845376 0.0037751742672217413 0 -0.020855779049886922 0.0043149134671176476 0 -0.020591721163513561 0.0050385703916430158 0 -0.021342317943740929 0.0045190275356740113 0 -0.023505299196832766 0.0018919835135645445 0 -0.020566961094811678 0.0047087783894248355 0 -0.021933879111658804 0.0058358596525649731 0 -0.020634274766708167 0.0050447181918280258 0 -0.021342317943740929 0.0045190275356740113 0 -0.021342317943740929 0.0045190275356740113 0 -0.022039969313191021 0.0039340750028252795 0 -0.021158013388845376 0.0037751742672217413 0 -0.020855779049886922 0.0043149134671176476 0 -0.021342317943740929 0.0045190275356740113 0 -0.021158013388845376 0.0037751742672217413 0 -0.022039969313191021 0.0039340750028252795 0 -0.02255199087023568 0.0048603762868147452 0 -0.023523736111359113 0.004033609314162666 0 -0.021342317943740929 0.0045190275356740113 0 -0.022039969313191021 0.0039340750028252795 0 -0.02255199087023568 0.0048603762868147452 0 -0.021933879111658804 0.0058358596525649731 0 -0.021342317943740929 0.0045190275356740113 0 -0.02255199087023568 0.0048603762868147452 0 -0.022039969313191021 0.0039340750028252795 0 -0.022684635325816913 0.0032533328811156117 0 -0.023523736111359113 0.004033609314162666 0 -0.022684635325816913 0.0032533328811156117 0 -0.021747993387749489 0.0030792277856978565 0 -0.02248421231445118 0.0023624842269480422 0 -0.022684635325816913 0.0032533328811156117 0 -0.023480115140481934 0.0027874327030778978 0 -0.02248421231445118 0.0023624842269480422 0 -0.021747993387749489 0.0030792277856978565 0 -0.021414569892306081 0.0024324470990219308 0 -0.02248421231445118 0.0023624842269480422 0 -0.022039969313191021 0.0039340750028252795 0 -0.022684635325816913 0.0032533328811156117 0 -0.021747993387749489 0.0030792277856978565 0 -0.022039969313191021 0.0039340750028252795 0 -0.021747993387749489 0.0030792277856978565 0 -0.021158013388845376 0.0037751742672217413 0 -0.021747993387749489 0.0030792277856978565 0 -0.021158013388845376 0.0037751742672217413 0 -0.020903512010369593 0.0030372058652550623 0 -0.021747993387749489 0.0030792277856978565 0 -0.020903512010369593 0.0030372058652550623 0 -0.021414569892306081 0.0024324470990219308 0 -0.020903512010369593 0.0030372058652550623 0 -0.020723383894417628 0.0021470470112815846 0 -0.020060964987090237 0.0029061775273529229 0 -0.020331232242437255 0.0039338548275333497 0 -0.020903512010369593 0.0030372058652550623 0 -0.020060964987090237 0.0029061775273529229 0 -0.020331232242437255 0.0039338548275333497 0 -0.021158013388845376 0.0037751742672217413 0 -0.020903512010369593 0.0030372058652550623 0 -0.02394372011772309 0.0059793187937628167 0 -0.025401005126321322 0.0042360507780585316 0 -0.023523736111359113 0.004033609314162666 0 -0.02394372011772309 0.0059793187937628167 0 -0.02255199087023568 0.0048603762868147452 0 -0.023523736111359113 0.004033609314162666 0 -0.023523736111359113 0.004033609314162666 0 -0.023480115140481934 0.0027874327030778978 0 -0.02481634183928989 0.0028822309841624776 0 -0.022684635325816913 0.0032533328811156117 0 -0.023523736111359113 0.004033609314162666 0 -0.023480115140481934 0.0027874327030778978 0 -0.02611343346255262 0.0025579188618951956 0 -0.025401005126321322 0.0042360507780585316 0 -0.02481634183928989 0.0028822309841624776 0 -0.025401005126321322 0.0042360507780585316 0 -0.023523736111359113 0.004033609314162666 0 -0.02481634183928989 0.0028822309841624776 0 -0.02481634183928989 0.0028822309841624776 0 -0.023562921288759593 0.0012200782601367117 0 -0.025636611210261489 0.00089991711043637638 0 -0.02611343346255262 0.0025579188618951956 0 -0.02481634183928989 0.0028822309841624776 0 -0.025636611210261489 0.00089991711043637638 0 -0.023480115140481934 0.0027874327030778978 0 -0.02481634183928989 0.0028822309841624776 0 -0.023562921288759593 0.0012200782601367117 0 -0.023480115140481934 0.0027874327030778978 0 -0.023562921288759593 0.0012200782601367117 0 -0.02248421231445118 0.0023624842269480422 0 -0.021833230115383434 0.0017834801078541135 0 -0.02139654105790614 0.0014022573950943226 0 -0.022123820468473419 0.0011859666194613718 0 -0.021833230115383434 0.0017834801078541135 0 -0.022691052264833051 0.0019499806035468367 0 -0.022123820468473419 0.0011859666194613718 0 -0.022691052264833051 0.0019499806035468367 0 -0.022123820468473419 0.0011859666194613718 0 -0.023164692254513522 0.0014664159738621851 0 -0.022747299361226648 0.0015097832471145795 0 -0.023969929045081082 0.0014572176609782184 0 -0.020438318738448542 0.0014872270141963679 0 -0.020723383894417628 0.0021470470112815846 0 -0.019976901902458405 0.0021562563401132401 0 -0.020438318738448542 0.0014872270141963679 0 -0.020723383894417628 0.0021470470112815846 0 -0.021031937686645841 0.0014759949902689044 0 -0.020723383894417628 0.0021470470112815846 0 -0.020060964987090237 0.0029061775273529229 0 -0.019976901902458405 0.0021562563401132401 0 -0.020723383894417628 0.0021470470112815846 0 -0.021414569892306081 0.0024324470990219308 0 -0.021365243619932951 0.0016965950237351334 0 -0.020903512010369593 0.0030372058652550623 0 -0.020723383894417628 0.0021470470112815846 0 -0.021414569892306081 0.0024324470990219308 0 -0.020723383894417628 0.0021470470112815846 0 -0.021365243619932951 0.0016965950237351334 0 -0.021031937686645841 0.0014759949902689044 0 -0.022747299361226648 0.0015097832471145795 0 -0.02145872526514157 0.0016805745799231616 0 -0.023562921288759593 0.0012200782601367117 0 -0.021365243619932951 0.0016965950237351334 0 -0.02248421231445118 0.0023624842269480422 0 -0.021414569892306081 0.0024324470990219308 0 -0.021365243619932951 0.0016965950237351334 0 -0.02248421231445118 0.0023624842269480422 0 -0.021833230115383434 0.0017834801078541135 0 -0.021365243619932951 0.0016965950237351334 0 -0.02139654105790614 0.0014022573950943226 0 -0.020438318738448542 0.0014872270141963679 0 -0.020953496345329628 0.00022263511955510616 0 -0.019474968036142071 0.0012808434044432894 0 -0.021365243619932951 0.0016965950237351334 0 -0.02139654105790614 0.0014022573950943226 0 -0.021031937686645841 0.0014759949902689044 0 -0.020875643007482167 0.0011340409935569173 0 -0.019765311662053846 0.0016560622975024288 0 -0.02139654105790614 0.0014022573950943226 0 -0.021031937686645841 0.0014759949902689044 0 -0.021054943786535503 0.0012256889076411336 0 -0.020438318738448542 0.0014872270141963679 0 -0.021031937686645841 0.0014759949902689044 0 -0.020953496345329628 0.00022263511955510616 0 -0.019765311662053846 0.0016560622975024288 0 -0.018535730953423299 0.0012729129431687139 0 -0.018264492534339465 0.0022176670078653204 0 -0.018449167257822155 0.0014433171771145727 0 -0.017993945544615128 0.0020381933641822831 0 -0.018965711525861555 0.002417865703539893 0 -0.020300166796918182 0.0014333599674970169 0 -0.018881201507278435 0.00085140162856791126 0 -0.02139654105790614 0.0014022573950943226 0 -0.021054943786535503 0.0012256889076411336 0 -0.021584987435977705 0.00078713731300544582 0 -0.019765311662053846 0.0016560622975024288 0 -0.020995898038456039 0.0010998756387465044 0 -0.020300166796918182 0.0014333599674970169 0 -0.018881201507278435 0.00085140162856791126 0 -0.020158704412433278 -7.4276823967052715e-05 0 -0.022123820468473419 0.0011859666194613718 0 -0.022915543357925255 0.00081690937249256196 0 -0.023164692254513522 0.0014664159738621851 0 -0.02139654105790614 0.0014022573950943226 0 -0.021584987435977705 0.00078713731300544582 0 -0.022123820468473419 0.0011859666194613718 0 -0.021584987435977705 0.00078713731300544582 0 -0.022123820468473419 0.0011859666194613718 0 -0.021937752355820718 0.00019567098966023701 0 -0.020300166796918182 0.0014333599674970169 0 -0.021937752355820718 0.00019567098966023701 0 -0.020158704412433278 -7.4276823967052715e-05 0 -0.020995898038456039 0.0010998756387465044 0 -0.02189366142609556 0.00024798277913243896 0 -0.022123820468473419 0.0011859666194613718 0 -0.022915543357925255 0.00081690937249256196 0 -0.021937752355820718 0.00019567098966023701 0 -0.023150081320643126 0.00022551978002997725 0 -0.022915543357925255 0.00081690937249256196 0 -0.021937752355820718 0.00019567098966023701 0 -0.023150081320643126 0.00022551978002997725 0 -0.022915543357925255 0.00081690937249256196 0 -0.023998096404274544 0.00050709637979215862 0 -0.022915543357925255 0.00081690937249256196 0 -0.023711915121977442 0.0010835286439627937 0 -0.023998096404274544 0.00050709637979215862 0 -0.022915543357925255 0.00081690937249256196 0 -0.023711915121977442 0.0010835286439627937 0 -0.023164692254513522 0.0014664159738621851 0 -0.024854438343324813 0.0008471863017171351 0 -0.023998096404274544 0.00050709637979215862 0 -0.025571653674767884 0.00027300681279767303 0 -0.023711915121977442 0.0010835286439627937 0 -0.024854438343324813 0.0008471863017171351 0 -0.024049260181954857 0.0017424812809598638 0 -0.023711915121977442 0.0010835286439627937 0 -0.024854438343324813 0.0008471863017171351 0 -0.023998096404274544 0.00050709637979215862 0 -0.023998096404274544 0.00050709637979215862 0 -0.024135571785523641 3.9068054026794214e-05 0 -0.025571653674767884 0.00027300681279767303 0 -0.023150081320643126 0.00022551978002997725 0 -0.023998096404274544 0.00050709637979215862 0 -0.024135571785523641 3.9068054026794214e-05 0 -0.026426642528180749 6.4885395131650828e-05 0 -0.025571653674767884 0.00027300681279767303 0 -0.024911642381727786 -9.71456268543911e-05 0 -0.024135571785523641 3.9068054026794214e-05 0 -0.025571653674767884 0.00027300681279767303 0 -0.024911642381727786 -9.71456268543911e-05 0 -0.026426642528180749 6.4885395131650828e-05 0 -0.026077275458412954 -3.2829656004990941e-07 0 -0.024911642381727786 -9.71456268543911e-05 0 -0.026426642528180749 6.4885395131650828e-05 0 -0.027985107872050569 1.1515567575704852e-06 0 -0.026077275458412954 -3.2829656004990941e-07 0 -0.026426642528180749 6.4885395131650828e-05 0 -0.027124627351695581 0.00029360761093392642 0 -0.027985107872050569 1.1515567575704852e-06 0 -0.027124627351695581 0.00029360761093392642 0 -0.027985107872050569 1.1515567575704852e-06 0 -0.028484099985794209 0.00071046127964729405 0 -0.026426642528180749 6.4885395131650828e-05 0 -0.027124627351695581 0.00029360761093392642 0 -0.025571653674767884 0.00027300681279767303 0 -0.027124627351695581 0.00029360761093392642 0 -0.025571653674767884 0.00027300681279767303 0 -0.02626173212333955 0.00066029281019991078 0 -0.027124627351695581 0.00029360761093392642 0 -0.02626173212333955 0.00066029281019991078 0 -0.028484099985794209 0.00071046127964729405 0 -0.024854438343324813 0.0008471863017171351 0 -0.02626173212333955 0.00066029281019991078 0 -0.025513718059804291 0.0012999679553578945 0 -0.024854438343324813 0.0008471863017171351 0 -0.025571653674767884 0.00027300681279767303 0 -0.02626173212333955 0.00066029281019991078 0 -0.028484099985794209 0.00071046127964729405 0 -0.030106183077369425 1.7976415357735513e-05 0 -0.031048576783273295 0.00068707263492680205 0 -0.02626173212333955 0.00066029281019991078 0 -0.028484099985794209 0.00071046127964729405 0 -0.025513718059804291 0.0012999679553578945 0 -0.028484099985794209 0.00071046127964729405 0 -0.025513718059804291 0.00