<?xml version="1.0"?>
<VTKFile type="UnstructuredGrid" version="0.1" byte_order="LittleEndian">
<UnstructuredGrid>
<Piece NumberOfPoints="30181" NumberOfCells="10490">
<Points>
<DataArray type="Float64" NumberOfComponents="3" format="ascii">
-0.5 -0.5 0 -0.48925352376337772 -0.49999999999999872 0 -0.48944170270252307 -0.47877281128923699 0 -0.48925352376337772 -0.49999999999999872 0 -0.48944170270252307 -0.47877281128923699 0 -0.48092464073642299 -0.48949177903292052 0 -0.5 -0.5 0 -0.48944170270252307 -0.47877281128923699 0 -0.50000000000000067 -0.4622044869987938 0 -0.48925352376337772 -0.49999999999999872 0 -0.48092464073642299 -0.48949177903292052 0 -0.48944170270252307 -0.47877281128923699 0 -0.48092464073642299 -0.48949177903292052 0 -0.4792502830406713 -0.46118275872615561 0 -0.48092464073642299 -0.48949177903292052 0 -0.4792502830406713 -0.46118275872615561 0 -0.46928404551414182 -0.47480530230031082 0 -0.48092464073642299 -0.48949177903292052 0 -0.4792502830406713 -0.46118275872615561 0 -0.46928404551414182 -0.47480530230031082 0 -0.48092464073642299 -0.48949177903292052 0 -0.46691213954922239 -0.48841354319132257 0 -0.46928404551414182 -0.47480530230031082 0 -0.48092464073642299 -0.48949177903292052 0 -0.48925352376337772 -0.49999999999999872 0 -0.48154615714547749 -0.49999999999999778 0 -0.48092464073642299 -0.48949177903292052 0 -0.48154615714547749 -0.49999999999999778 0 -0.48092464073642299 -0.48949177903292052 0 -0.48154615714547749 -0.49999999999999778 0 -0.48092464073642299 -0.48949177903292052 0 -0.46691213954922239 -0.48841354319132257 0 -0.45429505028884648 -0.5 0 -0.46691213954922239 -0.48841354319132257 0 -0.44851080406122229 -0.47777063462338382 0 -0.48154615714547749 -0.49999999999999778 0 -0.45429505028884648 -0.5 0 -0.46691213954922239 -0.48841354319132257 0 -0.46928404551414182 -0.47480530230031082 0 -0.46691213954922239 -0.48841354319132257 0 -0.44851080406122229 -0.47777063462338382 0 -0.46928404551414182 -0.47480530230031082 0 -0.44851080406122229 -0.47777063462338382 0 -0.45764345029186232 -0.46011882556769962 0 -0.45429505028884648 -0.5 0 -0.44851080406122229 -0.47777063462338382 0 -0.43459986511559828 -0.48691954309780988 0 -0.45429505028884648 -0.5 0 -0.43459986511559828 -0.48691954309780988 0 -0.42704394343221552 -0.5 0 -0.43822739075273393 -0.44060553300474292 0 -0.44829184202052208 -0.4483202727731978 0 -0.45701736274921212 -0.4325691351023086 0 -0.43822739075273393 -0.44060553300474292 0 -0.44829184202052208 -0.4483202727731978 0 -0.4370454374196342 -0.45910456729357529 0 -0.44851080406122229 -0.47777063462338382 0 -0.45764345029186232 -0.46011882556769962 0 -0.4370454374196342 -0.45910456729357529 0 -0.44829184202052208 -0.4483202727731978 0 -0.45764345029186232 -0.46011882556769962 0 -0.4370454374196342 -0.45910456729357529 0 -0.45764345029186232 -0.46011882556769962 0 -0.4370454374196342 -0.45910456729357529 0 -0.44829184202052208 -0.4483202727731978 0 -0.45764345029186232 -0.46011882556769962 0 -0.46928404551414182 -0.47480530230031082 0 -0.45764345029186232 -0.46011882556769962 0 -0.4792502830406713 -0.46118275872615561 0 -0.45764345029186232 -0.46011882556769962 0 -0.4792502830406713 -0.46118275872615561 0 -0.45764345029186232 -0.46011882556769962 0 -0.46402456569677591 -0.44817605639379748 0 -0.4792502830406713 -0.46118275872615561 0 -0.46928404551414182 -0.47480530230031082 0 -0.45764345029186232 -0.46011882556769962 0 -0.44829184202052208 -0.4483202727731978 0 -0.46402456569677591 -0.44817605639379748 0 -0.45701736274921212 -0.4325691351023086 0 -0.44829184202052208 -0.4483202727731978 0 -0.45764345029186232 -0.46011882556769962 0 -0.46402456569677591 -0.44817605639379748 0 -0.46402456569677591 -0.44817605639379748 0 -0.47791989038161142 -0.4386892897996269 0 -0.45701736274921212 -0.4325691351023086 0 -0.46402456569677591 -0.44817605639379748 0 -0.47791989038161142 -0.4386892897996269 0 -0.4792502830406713 -0.46118275872615561 0 -0.47791989038161142 -0.4386892897996269 0 -0.4792502830406713 -0.46118275872615561 0 -0.47791989038161142 -0.4386892897996269 0 -0.4792502830406713 -0.46118275872615561 0 -0.48957491549189841 -0.4472693056016917 0 -0.4792502830406713 -0.46118275872615561 0 -0.50000000000000067 -0.4622044869987938 0 -0.4792502830406713 -0.46118275872615561 0 -0.50000000000000067 -0.4622044869987938 0 -0.48957491549189841 -0.4472693056016917 0 -0.48944170270252307 -0.47877281128923699 0 -0.4792502830406713 -0.46118275872615561 0 -0.50000000000000067 -0.4622044869987938 0 -0.50000000000000067 -0.4622044869987938 0 -0.48957491549189841 -0.4472693056016917 0 -0.5 -0.43637541736762142 0 -0.47791989038161142 -0.4386892897996269 0 -0.49070440403720861 -0.43789457511626112 0 -0.48957491549189841 -0.4472693056016917 0 -0.49070440403720861 -0.43789457511626112 0 -0.48957491549189841 -0.4472693056016917 0 -0.5 -0.43637541736762142 0 -0.49070440403720861 -0.43789457511626112 0 -0.5 -0.43637541736762142 0 -0.49935560617887592 -0.43407458950238342 0 -0.5 -0.43637541736762142 0 -0.49935560617887592 -0.43407458950238342 0 -0.5 -0.41054634773644899 0 -0.49935560617887592 -0.43407458950238342 0 -0.48615162819049962 -0.42817992967234741 0 -0.48730735562118171 -0.41388847072447721 0 -0.49935560617887592 -0.43407458950238342 0 -0.48730735562118171 -0.41388847072447721 0 -0.49070440403720861 -0.43789457511626112 0 -0.49935560617887592 -0.43407458950238342 0 -0.48615162819049962 -0.42817992967234741 0 -0.47791989038161142 -0.4386892897996269 0 -0.49070440403720861 -0.43789457511626112 0 -0.48615162819049962 -0.42817992967234741 0 -0.49935560617887592 -0.43407458950238342 0 -0.5 -0.41054634773644899 0 -0.48730735562118171 -0.41388847072447721 0 -0.5 -0.41054634773644899 0 -0.48730735562118171 -0.41388847072447721 0 -0.49284196856233692 -0.4049072309149564 0 -0.48615162819049962 -0.42817992967234741 0 -0.48730735562118171 -0.41388847072447721 0 -0.47658949772255138 -0.41619582087309831 0 -0.48730735562118171 -0.41388847072447721 0 -0.47658949772255138 -0.41619582087309831 0 -0.47525910506348917 -0.39370235194656988 0 -0.47791989038161142 -0.4386892897996269 0 -0.48615162819049962 -0.42817992967234741 0 -0.47658949772255138 -0.41619582087309831 0 -0.47791989038161142 -0.4386892897996269 0 -0.47658949772255138 -0.41619582087309831 0 -0.47791989038161142 -0.4386892897996269 0 -0.47658949772255138 -0.41619582087309831 0 -0.45701736274921212 -0.4325691351023086 0 -0.48663019096408588 -0.38235932780106241 0 -0.5 -0.38471727810527673 0 -0.49066969571407409 -0.36911687410203697 0 -0.5 -0.41054634773644899 0 -0.5 -0.38471727810527673 0 -0.49284196856233692 -0.4049072309149564 0 -0.48663019096408588 -0.38235932780106241 0 -0.5 -0.38471727810527673 0 -0.49284196856233692 -0.4049072309149564 0 -0.48663019096408588 -0.38235932780106241 0 -0.49284196856233692 -0.4049072309149564 0 -0.47525910506348917 -0.39370235194656988 0 -0.48730735562118171 -0.41388847072447721 0 -0.49284196856233692 -0.4049072309149564 0 -0.47525910506348917 -0.39370235194656988 0 -0.48663019096408588 -0.38235932780106241 0 -0.49284196856233692 -0.4049072309149564 0 -0.48730735562118171 -0.41388847072447721 0 -0.47525910506348917 -0.39370235194656988 0 -0.47658949772255138 -0.41619582087309831 0 -0.47525910506348917 -0.39370235194656988 0 -0.47658949772255138 -0.41619582087309831 0 -0.47525910506348917 -0.39370235194656988 0 -0.4639634444888831 -0.4010317390274768 0 -0.48663019096408588 -0.38235932780106241 0 -0.47525910506348917 -0.39370235194656988 0 -0.47379019254736299 -0.36886687362944293 0 -0.47525910506348917 -0.39370235194656988 0 -0.47379019254736299 -0.36886687362944293 0 -0.47525910506348917 -0.39370235194656988 0 -0.46643414964674729 -0.37891667020805098 0 -0.47379019254736299 -0.36886687362944293 0 -0.47525910506348917 -0.39370235194656988 0 -0.46643414964674729 -0.37891667020805098 0 -0.45355734214240589 -0.376041381016815 0 -0.45792882752233471 -0.38202812533333752 0 -0.46643414964674729 -0.37891667020805098 0 -0.45355734214240589 -0.376041381016815 0 -0.45792882752233471 -0.38202812533333752 0 -0.45153325847904757 -0.38570781229211998 0 -0.45792882752233471 -0.38202812533333752 0 -0.46643414964674729 -0.37891667020805098 0 -0.46019055982113838 -0.38744663781636429 0 -0.46643414964674729 -0.37891667020805098 0 -0.46019055982113838 -0.38744663781636429 0 -0.47525910506348917 -0.39370235194656988 0 -0.46643414964674729 -0.37891667020805098 0 -0.46019055982113838 -0.38744663781636429 0 -0.46019055982113838 -0.38744663781636429 0 -0.45329421130429282 -0.39571135683353548 0 -0.45153325847904757 -0.38570781229211998 0 -0.45792882752233471 -0.38202812533333752 0 -0.46019055982113838 -0.38744663781636429 0 -0.45153325847904757 -0.38570781229211998 0 -0.45329421130429282 -0.39571135683353548 0 -0.4639634444888831 -0.4010317390274768 0 -0.45448384853294499 -0.41210252766781508 0 -0.46019055982113838 -0.38744663781636429 0 -0.45329421130429282 -0.39571135683353548 0 -0.4639634444888831 -0.4010317390274768 0 -0.47525910506348917 -0.39370235194656988 0 -0.46019055982113838 -0.38744663781636429 0 -0.4639634444888831 -0.4010317390274768 0 -0.45329421130429282 -0.39571135683353548 0 -0.44537783921358182 -0.40320939540976408 0 -0.45448384853294499 -0.41210252766781508 0 -0.44537783921358182 -0.40320939540976408 0 -0.44321355290953351 -0.39294884341074199 0 -0.43493612010632798 -0.40153184941571879 0 -0.44537783921358182 -0.40320939540976408 0 -0.44020499824919412 -0.41194831258951581 0 -0.43493612010632798 -0.40153184941571879 0 -0.44321355290953351 -0.39294884341074199 0 -0.43541575146154848 -0.38971344007111708 0 -0.43493612010632798 -0.40153184941571879 0 -0.45329421130429282 -0.39571135683353548 0 -0.44537783921358182 -0.40320939540976408 0 -0.44321355290953351 -0.39294884341074199 0 -0.45329421130429282 -0.39571135683353548 0 -0.44321355290953351 -0.39294884341074199 0 -0.45153325847904757 -0.38570781229211998 0 -0.44321355290953351 -0.39294884341074199 0 -0.45153325847904757 -0.38570781229211998 0 -0.44266088199960768 
[...]
<PointData Scalars="" Vectors="displacement," Tensors="">
<DataArray type="Float64" Name="displacement" NumberOfComponents="3" format="ascii">
-4.395772571841642e-07 -0.034999227307515431 0 1.0712478585415206e-07 -0.034998403398973421 0 -0.00011855336225905343 -0.033734073460158047 0 1.0712478585415206e-07 -0.034998403398973421 0 -0.00011855336225905343 -0.033734073460158047 0 -0.00017266979599597321 -0.034126664366512259 0 -4.395772571841642e-07 -0.034999227307515431 0 -0.00011855336225905343 -0.033734073460158047 0 7.6630699740930469e-07 -0.032357443054878851 0 -6.5015602395075652e-08 -0.034999626740410537 0 5.6758317003318067e-06 -0.034481231648994436 0 -0.00011855336225905343 -0.033734073460158047 0 -0.00017266979599597321 -0.034126664366512259 0 0.00027191727573384807 -0.033762986472558355 0 5.6758317003318067e-06 -0.034481231648994436 0 -0.00022512451142892722 -0.032507609222713868 0 -7.0836110460307944e-05 -0.033466748184110509 0 0.00021528573574595286 -0.033700287584042685 0 -0.00033655482185805549 -0.033655103338225488 0 -4.0886474452794667e-05 -0.035009439551383456 0 -1.1895277397242342e-05 -0.03500823550446331 0 -1.5042954830877815e-05 -0.035003397288866894 0 4.6337265598946137e-05 -0.034336191911008673 0 5.6758317003318067e-06 -0.034481231648994436 0 2.9566743947140982e-10 -0.03500000238888952 0 -5.8760125172798061e-10 -0.034999994164071326 0 -7.1981816703019293e-07 -0.034996963093777457 0 1.6604760985323118e-08 -0.034999691553515351 0 5.6758317003318067e-06 -0.034481231648994436 0 -4.7403174774350862e-09 -0.03500002594295578 0 -1.1895277397242342e-05 -0.03500823550446331 0 -1.5042954830877815e-05 -0.035003397288866894 0 -2.967632929769809e-08 -0.035000013188085446 0 -1.5042954830877815e-05 -0.035003397288866894 0 -3.6952610766939738e-05 -0.03498335824669839 0 -4.7403174774350862e-09 -0.03500002594295578 0 -2.967632929769809e-08 -0.035000013188085446 0 -1.5042954830877815e-05 -0.035003397288866894 0 -4.0886474452794667e-05 -0.035009439551383456 0 -1.5042954830877815e-05 -0.035003397288866894 0 -3.6952610766939738e-05 -0.03498335824669839 0 -4.0886474452794667e-05 -0.035009439551383456 0 -3.6952610766939738e-05 -0.03498335824669839 0 -9.194543551799637e-05 -0.034990439391541776 0 -2.967632929769809e-08 -0.035000013188085446 0 -3.6952610766939738e-05 -0.03498335824669839 0 -9.2560739908830963e-06 -0.034970365369689865 0 -2.967632929769809e-08 -0.035000013188085446 0 -9.2560739908830963e-06 -0.034970365369689865 0 8.0897739613187963e-08 -0.034999821692206626 0 -0.00054549708702133657 -0.032147384913216039 0 -0.00065893357874479786 -0.032000625221364945 0 -0.00042569212186719025 -0.031852478119056192 0 -0.00054549708702133657 -0.032147384913216039 0 -0.00065893357874479786 -0.032000625221364945 0 -0.00081514806413458449 -0.032173386993985524 0 -3.6952610766939738e-05 -0.03498335824669839 0 -9.194543551799637e-05 -0.034990439391541776 0 -0.00011911326323632776 -0.034933074257283536 0 -0.00065893357874479786 -0.032000625221364945 0 -0.00082145304577108764 -0.031882044476219285 0 -0.00081514806413458449 -0.032173386993985524 0 -0.00043850171413010455 -0.033074729471017805 0 -0.00047842137342900699 -0.033595040183541036 0 -0.00096134257253576892 -0.031849308966359575 0 -0.00043850171413010455 -0.033074729471017805 0 -7.0836110460307944e-05 -0.033466748184110509 0 -0.00035801269214420973 -0.033236163821587811 0 -0.00033655482185805549 -0.033655103338225488 0 -0.00043850171413010455 -0.033074729471017805 0 -0.00022512451142892722 -0.032507609222713868 0 -0.0008319946285662421 -0.031858621470494446 0 -0.00065508780962067156 -0.031756660966764313 0 -0.00084242927748505252 -0.031538554295341505 0 4.6337265598946137e-05 -0.034336191911008673 0 -0.00043850171413010455 -0.033074729471017805 0 -0.00065893357874479786 -0.032000625221364945 0 -0.00065508780962067156 -0.031756660966764313 0 -0.00042569212186719025 -0.031852478119056192 0 -0.00065893357874479786 -0.032000625221364945 0 -0.0008319946285662421 -0.031858621470494446 0 -0.00065508780962067156 -0.031756660966764313 0 -0.00065508780962067156 -0.031756660966764313 0 -0.00051381181376278576 -0.031541619134320305 0 -0.00042569212186719025 -0.031852478119056192 0 -0.00065508780962067156 -0.031756660966764313 0 -0.00051381181376278576 -0.031541619134320305 0 -0.00084242927748505252 -0.031538554295341505 0 -0.00033854085094122392 -0.031315422510742597 0 -0.00022512451142892722 -0.032507609222713868 0 -0.00012506112397198544 -0.031298855111938313 0 9.6987011339261939e-05 -0.031215092308795163 0 -0.00015780919780052592 -0.031327893058325014 0 -0.00022512451142892722 -0.032507609222713868 0 1.7458679297481259e-07 -0.03235435524794511 0 9.6987011339261939e-05 -0.031215092308795163 0 1.5767331361509657e-07 -0.032351871612040707 0 -0.00015780919780052592 -0.031327893058325014 0 -0.00011855336225905343 -0.033734073460158047 0 0.00027191727573384807 -0.033762986472558355 0 7.6630699740930469e-07 -0.032357443054878851 0 1.5767331361509657e-07 -0.032351871612040707 0 -0.00015780919780052592 -0.031327893058325014 0 -1.341504307417405e-08 -0.030547235730501769 0 -0.00012506112397198544 -0.031298855111938313 0 -5.311516737510467e-05 -0.031000928399918734 0 -0.00015780919780052592 -0.031327893058325014 0 -5.311516737510467e-05 -0.031000928399918734 0 -0.00015780919780052592 -0.031327893058325014 0 -1.341504307417405e-08 -0.030547235730501769 0 -5.311516737510467e-05 -0.031000928399918734 0 -1.341504307417405e-08 -0.030547235730501769 0 1.2548769690406453e-05 -0.030390132192903773 0 -1.341504307417405e-08 -0.030547235730501769 0 1.2548769690406453e-05 -0.030390132192903773 0 1.6164401344108482e-08 -0.028737678110687264 0 1.2548769690406453e-05 -0.030390132192903773 0 0.0002531045241424923 -0.031068254701526691 0 0.00080063829596382279 -0.031029120728003921 0 -1.8705600923831178e-05 -0.03016679891808725 0 0.00035649536441922729 -0.029870036157561272 0 -5.311516737510467e-05 -0.031000928399918734 0 1.2548769690406453e-05 -0.030390132192903773 0 0.0002531045241424923 -0.031068254701526691 0 -0.00012506112397198544 -0.031298855111938313 0 -5.311516737510467e-05 -0.031000928399918734 0 0.0002531045241424923 -0.031068254701526691 0 1.2548769690406453e-05 -0.030390132192903773 0 1.6164401344108482e-08 -0.028737678110687264 0 -2.0892248505952957e-05 -0.028497407667149168 0 1.6164401344108482e-08 -0.028737678110687264 0 -2.0892248505952957e-05 -0.028497407667149168 0 3.2054309243634797e-05 -0.028268773137006854 0 0.0002531045241424923 -0.031068254701526691 0 0.00080063829596382279 -0.031029120728003921 0 0.00070383765427137559 -0.031394501616229135 0 0.00080063829596382279 -0.031029120728003921 0 0.00070383765427137559 -0.031394501616229135 0 0.0014216748603061891 -0.031401820978609829 0 -0.00012506112397198544 -0.031298855111938313 0 0.0002531045241424923 -0.031068254701526691 0 0.00070383765427137559 -0.031394501616229135 0 -0.00033854085094122392 -0.031315422510742597 0 0.00029582201028393191 -0.031614523129157718 0 -0.00051381181376278576 -0.031541619134320305 0 -0.00017690019477266692 -0.03153530528404587 0 -0.00042569212186719025 -0.031852478119056192 0 -2.1535261497962308e-05 -0.026442490112885072 0 -8.472695650736595e-09 -0.026930083889136119 0 -6.3938142793831226e-05 -0.02587044983083649 0 1.6164401344108482e-08 -0.028737678110687264 0 -8.472695650736595e-09 -0.026930083889136119 0 3.2054309243634797e-05 -0.028268773137006854 0 -2.1535261497962308e-05 -0.026442490112885072 0 -8.472695650736595e-09 -0.026930083889136119 0 3.2054309243634797e-05 -0.028268773137006854 0 0.00044639900552035326 -0.028288007267652276 0 3.2054309243634797e-05 -0.028268773137006854 0 0.00023890575869130718 -0.028512483155342473 0 -2.0892248505952957e-05 -0.028497407667149168 0 3.2054309243634797e-05 -0.028268773137006854 0 0.00023890575869130718 -0.028512483155342473 0 6.6636418397726923e-05 -0.027639231656657937 0 1.4313730015902725e-06 -0.027999532561604631 0 0.00035649536441922729 -0.029870036157561272 0 0.0007288769637976085 -0.029621762547270652 0 0.00029582201028393191 -0.031614523129157718 0 0.0007288769637976085 -0.029621762547270652 0 -0.00017690019477266692 -0.03153530528404587 0 0.0001720828538647824 -0.031518340422602466 0 5.5575691841158122e-05 -0.031711112323756889 0 0.00044639900552035326 -0.028288007267652276 0 0.00023890575869130718 -0.028512483155342473 0 0.00071402800381263718 -0.028485534219640993 0 0.0007288769637976085 -0.029621762547270652 0 0.0020920081418607499 -0.023375008530713361 0 0.0011912361790846733 -0.026373824110291488 0 0.0015586637704983668 -0.026562001200828713 0 0.0018084711573062412 -0.026364122515286834 0 0.0007288769637976085 -0.029621762547270652 0 0.0014464746677372087 -0.02588404979088017 0 0.00039466729317441901 -0.031850476058881888 0 0.00033674632224600328 -0.03180123036856581 0 0.0003799678764402184 -0.031719052078611649 0 0.00039466729317441901 -0.031850476058881888 0 0.00033674632224600328 -0.03180123036856581 0 0.00029140347819431279 -0.031882411697149442 0 0.00033674632224600328 -0.03180123036856581 0 0.0003799678764402184 -0.031719052078611649 0 0.00027109812263725463 -0.031763041925211961 0 0.0014464746677372087 -0.02588404979088017 0 -0.00098555834538431109 -0.030879845140218475 0 0.0001720828538647824 -0.031518340422602466 0 0.00041880135718747085 -0.031636160848123318 0 0.00027109812263725463 -0.031763041925211961 0 0.00027109812263725463 -0.031763041925211961 0 0.00013955686160952642 -0.031870459247801797 0 0.00029140347819431279 -0.031882411697149442 0 0.00033674632224600328 -0.03180123036856581 0 0.00027109812263725463 -0.031763041925211961 0 0.00029140347819431279 -0.031882411697149442 0 0.00013955686160952642 -0.031870459247801797 0 5.5575691841158122e-05 -0.031711112323756889 0 -0.00011873729687546811 -0.031871108246261382 0 0.00027109812263725463 -0.031763041925211961 0 0.00013955686160952642 -0.031870459247801797 0 5.5575691841158122e-05 -0.031711112323756889 0 0.0001720828538647824 -0.031518340422602466 0 0.00027109812263725463 -0.031763041925211961 0 5.5575691841158122e-05 -0.031711112323756889 0 0.00013955686160952642 -0.031870459247801797 0 1.6298527499329436e-05 -0.032003075421616622 0 -0.00011873729687546811 -0.031871108246261382 0 1.6298527499329436e-05 -0.032003075421616622 0 0.00018185631353187675 -0.032014059922499769 0 3.177474280373753e-05 -0.032181426884894247 0 1.6298527499329436e-05 -0.032003075421616622 0 -0.0001229024887405626 -0.032099086927166599 0 3.177474280373753e-05 -0.032181426884894247 0 0.00018185631353187675 -0.032014059922499769 0 0.00023520795827347102 -0.032143554900454729 0 3.177474280373753e-05 -0.032181426884894247 0 0.00013955686160952642 -0.031870459247801797 0 1.6298527499329436e-05 -0.032003075421616622 0 0.00018185631353187675 -0.032014059922499769 0 0.00013955686160952642 -0.031870459247801797 0 0.00018185631353187675 -0.032014059922499769 0 0.00029140347819431279 -0.031882411697149442 0 0.00018185631353187675 -0.032014059922499769 0 0.00029140347819431279 -0.031882411697149442 0 0.00032843445620614416 -0.031981048721065608 0 0.00018185631353187675 -0.032014059922499769 0 0.00032843445620614416 -0.031981048721065608 0 0.00023520795827347102 -0.032143554900454729 0 0.00032843445620614416 -0.031981048721065608 0 0.00037198826560908287 -0.032152374079628461 0 0.00042265865834295564 -0.031935852067802396 0 0.00039466729317441901 -0.031850476058881888 0 0.00032843445620614416 -0.031981048721065608 0 0.00042265865834295564 -0.031935852067802396 0 0.00039466729317441901 -0.031850476058881888 0 0.00029140347819431279 -0.031882411697149442 0 0.00032843445620614416 -0.031981048721065608 0 -0.00017690019477266692 -0.03153530528404587 0 -0.00042569212186719025 -0.031852478119056192 0 -0.00011873729687546811 -0.031871108246261382 0 -0.00017690019477266692 -0.03153530528404587 0 5.5575691841158122e-05 -0.031711112323756889 0 -0.00011873729687546811 -0.031871108246261382 0 -0.00011873729687546811 -0.031871108246261382 0 -0.0001229024887405626 -0.032099086927166599 0 -0.00033737323428681334 -0.032087085795708466 0 1.6298527499329436e-05 -0.032003075421616622 0 -0.00011873729687546811 -0.031871108246261382 0 -0.0001229024887405626 -0.032099086927166599 0 -0.00054549708702133657 -0.032147384913216039 0 -0.00042569212186719025 -0.031852478119056192 0 -0.00033737323428681334 -0.032087085795708466 0 -0.00042569212186719025 -0.031852478119056192 0 -0.00011873729687546811 -0.031871108246261382 0 -0.00033737323428681334 -0.032087085795708466 0 -0.00033737323428681334 -0.032087085795708466 0 -0.00014564836956044956 -0.032372197987700115 0 -0.00046905650497571785 -0.032424973319657373 0 -0.00054549708702133657 -0.032147384913216039 0 -0.00033737323428681334 -0.032087085795708466 0 -0.00046905650497571785 -0.032424973319657373 0 -0.0001229024887405626 -0.032099086927166599 0 -0.00033737323428681334 -0.032087085795708466 0 -0.00014564836956044956 -0.032372197987700115 0 -0.0001229024887405626 -0.032099086927166599 0 -0.00014564836956044956 -0.032372197987700115 0 3.177474280373753e-05 -0.032181426884894247 0 -1.4605791294654048e-06 -0.03313688895644467 0 0.0001116223304039366 -0.032965041041340397 0 3.0010964060393584e-05 -0.033478101515855854 0 -1.4605791294654048e-06 -0.03313688895644467 0 0.00011834689551109697 -0.033618498590941133 0 3.0010964060393584e-05 -0.033478101515855854 0 0.00011834689551109697 -0.033618498590941133 0 3.0010964060393584e-05 -0.033478101515855854 0 0.0002081458974754334 -0.033767375970746048 0 -3.0401536436739493e-05 -0.032739411128998093 0 -0.0001486661055719308 -0.032963462572371961 0 0.00040299567422129415 -0.032278220619771494 0 0.00037198826560908287 -0.032152374079628461 0 0.00042174662174997423 -0.032039108210921485 0 0.00040299567422129415 -0.032278220619771494 0 0.00037198826560908287 -0.032152374079628461 0 0.00038347404818878724 -0.0324208663445507 0 0.00037198826560908287 -0.032152374079628461 0 0.00042265865834295564 -0.031935852067802396 0 0.00042174662174997423 -0.032039108210921485 0 0.00037198826560908287 -0.032152374079628461 0 0.00023520795827347102 -0.032143554900454729 0 0.00022551300344490495 -0.032392978988848034 0 0.00032843445620614416 -0.031981048721065608 0 0.00037198826560908287 -0.032152374079628461 0 0.00023520795827347102 -0.032143554900454729 0 0.00037198826560908287 -0.032152374079628461 0 0.00022551300344490495 -0.032392978988848034 0 0.00038347404818878724 -0.0324208663445507 0 -3.0401536436739493e-05 -0.032739411128998093 0 0.00025398475834391513 -0.032461198353826812 0 -0.00014564836956044956 -0.032372197987700115 0 0.00022551300344490495 -0.032392978988848034 0 3.177474280373753e-05 -0.032181426884894247 0 0.00023520795827347102 -0.032143554900454729 0 0.00022551300344490495 -0.032392978988848034 0 3.177474280373753e-05 -0.032181426884894247 0 -1.4605791294654048e-06 -0.03313688895644467 0 0.00022551300344490495 -0.032392978988848034 0 0.0001116223304039366 -0.032965041041340397 0 0.00040299567422129415 -0.032278220619771494 0 0.00037758346633855156 -0.032409826143369576 0 0.00046531518074041379 -0.032137756751731125 0 0.00022551300344490495 -0.032392978988848034 0 0.0001116223304039366 -0.032965041041340397 0 0.00038347404818878724 -0.0324208663445507 0 0.00039464013795894871 -0.032710838751377126 0 0.00035794089785843393 -0.031863798125463763 0 0.0001116223304039366 -0.032965041041340397 0 0.00038347404818878724 -0.0324208663445507 0 0.00040298052092885728 -0.033063879120193609 0 0.00040299567422129415 -0.032278220619771494 0 0.00038347404818878724 -0.0324208663445507 0 0.00037758346633855156 -0.032409826143369576 0 0.00035794089785843393 -0.031863798125463763 0 0.00017260333761942969 -0.030642235785079051 0 0.0013100160324751161 -0.029675199047490074 0 0.00089898731446350056 -0.028926215239562875 0 0.00096027138738795825 -0.029420989002942276 0 -0.00050804193579440755 -0.033022099571377375 0 -9.6871186271702152e-05 -0.032751365411082749 0 -0.00054505599846704712 -0.032530861447531867 0 0.0001116223304039366 -0.032965041041340397 0 0.00040298052092885728 -0.033063879120193609 0 -2.711143175044221e-05 -0.03332397426843596 0 0.00035794089785843393 -0.031863798125463763 0 -0.00018265724724301065 -0.033253350007822799 0 -9.6871186271702152e-05 -0.032751365411082749 0 -0.00054505599846704712 -0.032530861447531867 0 -0.00010339329488965999 -0.032282264460031691 0 3.0010964060393584e-05 -0.033478101515855854 0 0.00025263208369151376 -0.03364140820914692 0 0.0002081458974754334 -0.033767375970746048 0 0.0001116223304039366 -0.032965041041340397 0 -2.711143175044221e-05 -0.03332397426843596 0 3.0010964060393584e-05 -0.033478101515855854 0 -2.711143175044221e-05 -0.03332397426843596 0 3.0010964060393584e-05 -0.033478101515855854 0 0.00012838214643852593 -0.032974083322790643 0 -9.6871186271702152e-05 -0.032751365411082749 0 0.00012838214643852593 -0.032974083322790643 0 -0.00010339329488965999 -0.032282264460031691 0 -0.00018265724724301065 -0.033253350007822799 0 0.00020316465477411373 -0.032872766197679849 0 3.0010964060393584e-05 -0.033478101515855854 0 0.00025263208369151376 -0.03364140820914692 0 0.00012838214643852593 -0.032974083322790643 0 0.00035870420979436455 -0.0335765174995395 0 0.00025263208369151376 -0.03364140820914692 0 0.00012838214643852593 -0.032974083322790643 0 0.00035870420979436455 -0.0335765174995395 0 0.00025263208369151376 -0.03364140820914692 0 0.00031831880491631768 -0.033951726338340121 0 0.00025263208369151376 -0.03364140820914692 0 0.0002607168434422347 -0.033904481261921735 0 0.00031831880491631768 -0.033951726338340121 0 0.00025263208369151376 -0.03364140820914692 0 0.0002607168434422347 -0.033904481261921735 0 0.0002081458974754334 -0.033767375970746048 0 0.00022245383026701481 -0.034153870276121101 0 0.00031831880491631768 -0.033951726338340121 0 0.0001913676587965502 -0.034345968831685371 0 0.0002607168434422347 -0.033904481261921735 0 0.00022245383026701481 -0.034153870276121101 0 0.00023463524150655734 -0.033991346733119508 0 0.0002607168434422347 -0.033904481261921735 0 0.00022245383026701481 -0.034153870276121101 0 0.00031831880491631768 -0.033951726338340121 0 0.00031831880491631768 -0.033951726338340121 0 0.00039943567953421293 -0.03408692212455592 0 0.0001913676587965502 -0.034345968831685371 0 0.00035870420979436455 -0.0335765174995395 0 0.00031831880491631768 -0.033951726338340121 0 0.00039943567953421293 -0.03408692212455592 0 5.6601351920071991e-05 -0.034733280920767461 0 0.0001913676587965502 -0.034345968831685371 0 9.4023855586463471e-05 -0.034621422025591819 0 0.00039943567953421293 -0.03408692212455592 0 0.0001913676587965502 -0.034345968831685371 0 9.4023855586463471e-05 -0.034621422025591819 0 5.6601351920071991e-05 -0.034733280920767461 0 9.3102775744580793e-08 -0.034999331758055377 0 9.4023855586463471e-05 -0.034621422025591819 0 5.6601351920071991e-05 -0.034733280920767461 0 7.2200147167881641e-08 -0.034999318732961096 0 9.3102775744580793e-08 -0.034999331758055377 0 5.6601351920071991e-05 -0.034733280920767461 0 7.4421559352167135e-05 -0.034664917953663568 0 7.2200147167881641e-08 -0.034999318732961096 0 7.4421559352167135e-05 -0.034664917953663568 0 7.2200147167881641e-08 -0.034999318732961096 0 4.2271153964190642e-05 -0.034775532676126618 0 5.6601351920071991e-05 -0.034733280920767461 0 7.4421559352167135e-05 -0.034664917953663568 0 0.0001913676587965502 -0.034345968831685371 0 7.4421559352167135e-05 -0.034664917953663568 0 0.0001913676587965502 -0.034345968831685371 0 0.00013940917640225208 -0.034427123919413785 0 7.4421559352167135e-05 -0.034664917953663568 0 0.00013940917640225208 -0.034427123919413785 0 4.2271153964190642e-05 -0.034775532676126618 0 0.00022245383026701481 -0.034153870276121101 0 0.00013940917640225208 -0.034427123919413785 0 0.00017354414255934964 -0.034259768977780991 0 0.00022245383026701481 -0.034153870276121101 0 0.0001913676587965502 -0.034345968831685371 0 0.00013940917640225208 -0.034427123919413785 0 4.2271153964190642e-05 -0.034775532676126618 0 -5.7834169524450761e-05 -0.03490075845533