<?xml version="1.0"?>
<VTKFile type="UnstructuredGrid" version="0.1" byte_order="LittleEndian">
<UnstructuredGrid>
<Piece NumberOfPoints="31898" NumberOfCells="11152">
<Points>
<DataArray type="Float64" NumberOfComponents="3" format="ascii">
-0.5 -0.5 0 -0.47620991077874902 -0.44978878706170539 0 -0.49999999999999473 -0.42132396840504388 0 -0.5 -0.5 0 -0.47160970827802529 -0.4793630013852106 0 -0.47620991077874902 -0.44978878706170539 0 -0.5 -0.5 0 -0.47160970827802529 -0.4793630013852106 0 -0.44860394795025399 -0.5 0 -0.47160970827802529 -0.4793630013852106 0 -0.44860394795025399 -0.5 0 -0.4490820238307246 -0.45820516232899983 0 -0.44860394795025399 -0.5 0 -0.4490820238307246 -0.45820516232899983 0 -0.42881687682924802 -0.47781464288736519 0 -0.4490820238307246 -0.45820516232899983 0 -0.45555437223955858 -0.42914059360647611 0 -0.4490820238307246 -0.45820516232899983 0 -0.45555437223955858 -0.42914059360647611 0 -0.43867285131603428 -0.4271457417558665 0 -0.4490820238307246 -0.45820516232899983 0 -0.43867285131603428 -0.4271457417558665 0 -0.4263356171060747 -0.44269880333887462 0 -0.47160970827802529 -0.4793630013852106 0 -0.4490820238307246 -0.45820516232899983 0 -0.47620991077874902 -0.44978878706170539 0 -0.4490820238307246 -0.45820516232899983 0 -0.47620991077874902 -0.44978878706170539 0 -0.45555437223955858 -0.42914059360647611 0 -0.47620991077874902 -0.44978878706170539 0 -0.48101336032419229 -0.41069999664450008 0 -0.45555437223955858 -0.42914059360647611 0 -0.47620991077874902 -0.44978878706170539 0 -0.49999999999999473 -0.42132396840504388 0 -0.48101336032419229 -0.41069999664450008 0 -0.49999999999999473 -0.42132396840504388 0 -0.48101336032419229 -0.41069999664450008 0 -0.5 -0.393886241813306 0 -0.49999999999999473 -0.42132396840504388 0 -0.48101336032419229 -0.41069999664450008 0 -0.5 -0.393886241813306 0 -0.47854472220918332 -0.38978458738689759 0 -0.48422759779560409 -0.37130120630367158 0 -0.5 -0.393886241813306 0 -0.5 -0.36644851522156802 0 -0.48422759779560409 -0.37130120630367158 0 -0.48101336032419229 -0.41069999664450008 0 -0.5 -0.393886241813306 0 -0.47854472220918332 -0.38978458738689759 0 -0.48101336032419229 -0.41069999664450008 0 -0.47854472220918332 -0.38978458738689759 0 -0.46202672064839212 -0.40007602488395211 0 -0.48101336032419229 -0.41069999664450008 0 -0.46202672064839212 -0.40007602488395211 0 -0.47854472220918332 -0.38978458738689759 0 -0.46725442735267431 -0.37660061361585562 0 -0.46202672064839212 -0.40007602488395211 0 -0.47854472220918332 -0.38978458738689759 0 -0.46725442735267431 -0.37660061361585562 0 -0.48422759779560409 -0.37130120630367158 0 -0.46725442735267431 -0.37660061361585562 0 -0.46202672064839212 -0.40007602488395211 0 -0.46725442735267431 -0.37660061361585562 0 -0.45645674801697989 -0.38644133236760531 0 -0.46202672064839212 -0.40007602488395211 0 -0.46725442735267431 -0.37660061361585562 0 -0.45645674801697989 -0.38644133236760531 0 -0.4540003998136638 -0.37455519391687309 0 -0.45645674801697989 -0.38644133236760531 0 -0.46202672064839212 -0.40007602488395211 0 -0.44257020456291563 -0.38918913383950271 0 -0.46202672064839212 -0.40007602488395211 0 -0.44257020456291563 -0.38918913383950271 0 -0.44727608925983742 -0.41095911152778891 0 -0.46202672064839212 -0.40007602488395211 0 -0.44257020456291563 -0.38918913383950271 0 -0.44257020456291563 -0.38918913383950271 0 -0.44727608925983742 -0.41095911152778891 0 -0.43479358559901082 -0.4041454901736512 0 -0.44257020456291563 -0.38918913383950271 0 -0.4540003998136638 -0.37455519391687309 0 -0.44172858264042247 -0.37082207246888088 0 -0.45645674801697989 -0.38644133236760531 0 -0.44257020456291563 -0.38918913383950271 0 -0.4540003998136638 -0.37455519391687309 0 -0.46202672064839212 -0.40007602488395211 0 -0.45555437223955858 -0.42914059360647611 0 -0.44727608925983742 -0.41095911152778891 0 -0.46202672064839212 -0.40007602488395211 0 -0.45555437223955858 -0.42914059360647611 0 -0.48101336032419229 -0.41069999664450008 0 -0.46202672064839212 -0.40007602488395211 0 -0.45555437223955858 -0.42914059360647611 0 -0.44727608925983742 -0.41095911152778891 0 -0.43867285131603428 -0.4271457417558665 0 -0.43676601469929588 -0.41441201227470881 0 -0.44727608925983742 -0.41095911152778891 0 -0.43676601469929588 -0.41441201227470881 0 -0.43479358559901082 -0.4041454901736512 0 -0.45555437223955858 -0.42914059360647611 0 -0.44727608925983742 -0.41095911152778891 0 -0.43867285131603428 -0.4271457417558665 0 -0.43867285131603428 -0.4271457417558665 0 -0.42681803064840879 -0.42717069814352421 0 -0.4263356171060747 -0.44269880333887462 0 -0.42681803064840879 -0.42717069814352421 0 -0.41531815884496182 -0.42985383783075998 0 -0.4263356171060747 -0.44269880333887462 0 -0.42681803064840879 -0.42717069814352421 0 -0.42624289495594048 -0.42089725947505818 0 -0.42083332353326591 -0.42146747131641099 0 -0.42681803064840879 -0.42717069814352421 0 -0.43096994786351572 -0.41951492446283251 0 -0.42624289495594048 -0.42089725947505818 0 -0.43867285131603428 -0.4271457417558665 0 -0.42681803064840879 -0.42717069814352421 0 -0.43096994786351572 -0.41951492446283251 0 -0.43867285131603428 -0.4271457417558665 0 -0.43676601469929588 -0.41441201227470881 0 -0.43096994786351572 -0.41951492446283251 0 -0.43676601469929588 -0.41441201227470881 0 -0.43096994786351572 -0.41951492446283251 0 -0.42907264086257813 -0.41311715872526122 0 -0.43676601469929588 -0.41441201227470881 0 -0.42907264086257813 -0.41311715872526122 0 -0.43479358559901082 -0.4041454901736512 0 -0.42907264086257813 -0.41311715872526122 0 -0.43479358559901082 -0.4041454901736512 0 -0.42460885511582858 -0.40417321677700252 0 -0.42907264086257813 -0.41311715872526122 0 -0.41997834854398469 -0.41180534796019508 0 -0.42907264086257813 -0.41311715872526122 0 -0.42635027777857132 -0.41543594397746519 0 -0.41997834854398469 -0.41180534796019508 0 -0.42907264086257813 -0.41311715872526122 0 -0.41997834854398469 -0.41180534796019508 0 -0.42460885511582858 -0.40417321677700252 0 -0.42635027777857132 -0.41543594397746519 0 -0.41997834854398469 -0.41180534796019508 0 -0.42635027777857132 -0.41543594397746519 0 -0.42083332353326591 -0.42146747131641099 0 -0.41997834854398469 -0.41180534796019508 0 -0.43096994786351572 -0.41951492446283251 0 -0.42624289495594048 -0.42089725947505818 0 -0.42635027777857132 -0.41543594397746519 0 -0.43096994786351572 -0.41951492446283251 0 -0.42907264086257813 -0.41311715872526122 0 -0.42635027777857132 -0.41543594397746519 0 -0.42624289495594048 -0.42089725947505818 0 -0.42635027777857132 -0.41543594397746519 0 -0.42083332353326591 -0.42146747131641099 0 -0.42083332353326591 -0.42146747131641099 0 -0.41997834854398469 -0.41180534796019508 0 -0.40992282953163789 -0.42011435591993562 0 -0.41997834854398469 -0.41180534796019508 0 -0.39756877647335259 -0.40857286797681719 0 -0.41997834854398469 -0.41180534796019508 0 -0.40992282953163789 -0.42011435591993562 0 -0.39756877647335259 -0.40857286797681719 0 -0.40992282953163789 -0.42011435591993562 0 -0.41531815884496182 -0.42985383783075998 0 -0.39591554026262499 -0.42887225451549271 0 -0.41531815884496182 -0.42985383783075998 0 -0.39591554026262499 -0.42887225451549271 0 -0.41160927495564159 -0.44339431233754628 0 -0.42083332353326591 -0.42146747131641099 0 -0.40992282953163789 -0.42011435591993562 0 -0.41531815884496182 -0.42985383783075998 0 -0.42681803064840879 -0.42717069814352421 0 -0.42083332353326591 -0.42146747131641099 0 -0.41531815884496182 -0.42985383783075998 0 -0.44257020456291563 -0.38918913383950271 0 -0.42311368847744002 -0.37830224279505142 0 -0.42594061475171041 -0.39368797999533162 0 -0.44257020456291563 -0.38918913383950271 0 -0.42311368847744002 -0.37830224279505142 0 -0.44172858264042247 -0.37082207246888088 0 -0.44257020456291563 -0.38918913383950271 0 -0.42311368847744002 -0.37830224279505142 0 -0.42311368847744002 -0.37830224279505142 0 -0.42594061475171041 -0.39368797999533162 0 -0.416587075656149 -0.38785930376960043 0 -0.44257020456291563 -0.38918913383950271 0 -0.42594061475171041 -0.39368797999533162 0 -0.43479358559901082 -0.4041454901736512 0 -0.42594061475171041 -0.39368797999533162 0 -0.43479358559901082 -0.4041454901736512 0 -0.42460885511582858 -0.40417321677700252 0 -0.41997834854398469 -0.41180534796019508 0 -0.41325908582185972 -0.39811010703057192 0 -0.39770572831670092 -0.39911486077581648 0 -0.41997834854398469 -0.41180534796019508 0 -0.39770572831670092 -0.39911486077581648 0 -0.42594061475171041 -0.39368797999533162 0 -0.42460885511582858 -0.40417321677700252 0 -0.41325908582185972 -0.39811010703057192 0 -0.41997834854398469 -0.41180534796019508 0 -0.42460885511582858 -0.40417321677700252 0 -0.41325908582185972 -0.39811010703057192 0 -0.42594061475171041 -0.39368797999533162 0 -0.41325908582185972 -0.39811010703057192 0 -0.416587075656149 -0.38785930376960043 0 -0.41325908582185972 -0.39811010703057192 0 -0.416587075656149 -0.38785930376960043 0 -0.40403491357358612 -0.38133688525744702 0 -0.42311368847744002 -0.37830224279505142 0 -0.40403491357358612 -0.38133688525744702 0 -0.40365717239196519 -0.36741535175059892 0 -0.42311368847744002 -0.37830224279505142 0 -0.416587075656149 -0.38785930376960043 0 -0.40403491357358612 -0.38133688525744702 0 -0.40403491357358612 -0.38133688525744702 0 -0.39190790742475001 -0.38540387676521748 0 -0.39770572831670092 -0.39911486077581648 0 -0.40403491357358612 -0.38133688525744702 0 -0.39190790742475001 -0.38540387676521748 0 -0.3904578797192948 -0.37473938743617019 0 -0.41325908582185972 -0.39811010703057192 0 -0.40403491357358612 -0.38133688525744702 0 -0.39770572831670092 -0.39911486077581648 0 -0.39770572831670092 -0.39911486077581648 0 -0.37543310808941849 -0.38642437359143528 0 -0.39770572831670092 -0.39911486077581648 0 -0.37515920440272033 -0.40534038799344108 0 -0.37543310808941849 -0.38642437359143528 0 -0.39770572831670092 -0.39911486077581648 0 -0.37515920440272033 -0.40534038799344108 0 -0.39756877647335259 -0.40857286797681719
[...]
<PointData Scalars="" Vectors="displacement," Tensors="">
<DataArray type="Float64" Name="displacement" NumberOfComponents="3" format="ascii">
2.185007791445457e-06 0.044995885235043664 0 0.00021897525726401174 0.042071223651361893 0 -4.626195894361044e-06 0.037929646989825934 0 2.185007791445457e-06 0.044995885235043664 0 0.0002016684259052141 0.04397239883778372 0 0.00021897525726401174 0.042071223651361893 0 2.185007791445457e-06 0.044995885235043664 0 0.0002016684259052141 0.04397239883778372 0 -7.8593588575399933e-09 0.044998900464413648 0 0.0002016684259052141 0.04397239883778372 0 -7.8593588575399933e-09 0.044998900464413648 0 0.00011101650012681152 0.043972698388622972 0 -7.8593588575399933e-09 0.044998900464413648 0 0.00011101650012681152 0.043972698388622972 0 8.7540943825731564e-05 0.044697899566644647 0 0.00038407020458424579 0.041215494266895469 0 -1.5066237154827961e-05 0.040043878234126536 0 0.00011101650012681152 0.043972698388622972 0 -0.00050686385926116241 0.043933591687506039 0 -0.00054656248602622122 0.044183320109451203 0 0.00011101650012681152 0.043972698388622972 0 -0.00054656248602622122 0.044183320109451203 0 -0.00026814929573163224 0.044466496594804859 0 0.0002016684259052141 0.04397239883778372 0 0.00011101650012681152 0.043972698388622972 0 0.00021897525726401174 0.042071223651361893 0 0.00011101650012681152 0.043972698388622972 0 0.00021897525726401174 0.042071223651361893 0 -0.00080124532444207598 0.042914985113319301 0 0.00021897525726401174 0.042071223651361893 0 -0.0017027694534547133 0.040660211822195834 0 -0.00080124532444207598 0.042914985113319301 0 0.00021897525726401174 0.042071223651361893 0 -4.626195894361044e-06 0.037929646989825934 0 -0.0017027694534547133 0.040660211822195834 0 -2.5461387114010697e-06 0.037915268871433268 0 -0.00038737512086542869 0.034963929422448962 0 1.0744586313658433e-06 0.035449775079045724 0 -1.5871098217525064e-06 0.037917679532115105 0 -0.00066881226304482742 0.037239037876435711 0 1.0744586313658433e-06 0.035449775079045724 0 0.00010209568183343409 0.034057150822009247 0 0.0002155133418178242 0.033147660749027794 0 1.0744586313658433e-06 0.035449775079045724 0 3.276412059901611e-07 0.032980080383477418 0 0.0002155133418178242 0.033147660749027794 0 -0.00038737512086542869 0.034963929422448962 0 1.0744586313658433e-06 0.035449775079045724 0 0.00010209568183343409 0.034057150822009247 0 -0.00038737512086542869 0.034963929422448962 0 0.00010209568183343409 0.034057150822009247 0 -0.00016990693160242614 0.03372512919101487 0 -0.00066881226304482742 0.037239037876435711 0 -0.00098505915304049904 0.03587405345230784 0 0.00010209568183343409 0.034057150822009247 0 0.00026521579974681409 0.033432931117392269 0 -0.00016990693160242614 0.03372512919101487 0 0.00010209568183343409 0.034057150822009247 0 0.00026521579974681409 0.033432931117392269 0 0.0002155133418178242 0.033147660749027794 0 -0.00070813701895407297 0.032585240872243418 0 -0.00098505915304049904 0.03587405345230784 0 -0.0010355995967699818 0.026214802144612991 0 -0.00069279266244318897 0.02656199926037078 0 -0.00024703359839076935 0.026391776365063419 0 -0.0010355995967699818 0.026214802144612991 0 -0.00069279266244318897 0.02656199926037078 0 -0.0010587989136477593 0.026620376065014075 0 -0.00069279266244318897 0.02656199926037078 0 -0.00024703359839076935 0.026391776365063419 0 -0.00059067876483271449 0.027012572420942117 0 -0.00072135227936764358 0.044027979919573822 0 -0.00063706512212947626 0.044139191363253116 0 -0.00068437608619159769 0.044088830122480167 0 -0.00098505915304049904 0.03587405345230784 0 -0.00085465642733808535 0.035491233276322018 0 -0.00063706512212947626 0.044139191363253116 0 -0.00068437608619159769 0.044088830122480167 0 -0.00069891210385661579 0.044133080828677736 0 -0.00059067876483271449 0.027012572420942117 0 -0.0010587989136477593 0.026620376065014075 0 -0.0011692995387057182 0.027027965566026251 0 -0.00069279266244318897 0.02656199926037078 0 -0.00059067876483271449 0.027012572420942117 0 -0.0010587989136477593 0.026620376065014075 0 -0.00072135227936764358 0.044027979919573822 0 -0.00050686385926116241 0.043933591687506039 0 -0.00068437608619159769 0.044088830122480167 0 -0.00098505915304049904 0.03587405345230784 0 -1.5066237154827961e-05 0.040043878234126536 0 -0.0017027694534547133 0.040660211822195834 0 -0.0026280429684500204 0.042167744592466028 0 -0.00080124532444207598 0.042914985113319301 0 -0.00068437608619159769 0.044088830122480167 0 -0.00054656248602622122 0.044183320109451203 0 -0.00069004057352864412 0.044164052848574546 0 -0.00068437608619159769 0.044088830122480167 0 -0.00069004057352864412 0.044164052848574546 0 -0.00069891210385661579 0.044133080828677736 0 -0.00050686385926116241 0.043933591687506039 0 -0.00068437608619159769 0.044088830122480167 0 -0.00054656248602622122 0.044183320109451203 0 -0.00054656248602622122 0.044183320109451203 0 -0.00052285221146286791 0.044376542262926512 0 -0.00026814929573163224 0.044466496594804859 0 -0.00052285221146286791 0.044376542262926512 0 -0.00047148411451019363 0.044595205742239366 0 -0.00026814929573163224 0.044466496594804859 0 -0.00052285221146286791 0.044376542262926512 0 -0.00062084802768788228 0.044349593028445398 0 -0.00060778187853374678 0.044467507054351783 0 -0.00052285221146286791 0.044376542262926512 0 -0.00064417194074470774 0.044247933631988597 0 -0.00062084802768788228 0.044349593028445398 0 -0.00054656248602622122 0.044183320109451203 0 -0.00052285221146286791 0.044376542262926512 0 -0.00064417194074470774 0.044247933631988597 0 -0.00054656248602622122 0.044183320109451203 0 -0.00069004057352864412 0.044164052848574546 0 -0.00064417194074470774 0.044247933631988597 0 -0.00069004057352864412 0.044164052848574546 0 -0.00064417194074470774 0.044247933631988597 0 -0.00076392568617468851 0.044192474882624976 0 -0.00069004057352864412 0.044164052848574546 0 -0.00076392568617468851 0.044192474882624976 0 -0.00069891210385661579 0.044133080828677736 0 -0.00076392568617468851 0.044192474882624976 0 -0.00069891210385661579 0.044133080828677736 0 -0.00071013520033971821 0.04404408789291505 0 -0.0016397361093401358 0.043221809896016941 0 -0.0016563756110655539 0.043102313593704658 0 -0.00076392568617468851 0.044192474882624976 0 -0.00071096315706985723 0.044309495752811776 0 -0.00085516086101705127 0.044541940282340355 0 -0.00076392568617468851 0.044192474882624976 0 -0.00083563328711511111 0.043974648285956604 0 -0.00071013520033971821 0.04404408789291505 0 -0.0016558281934315776 0.043162183115175223 0 -0.0016563756110655539 0.043102313593704658 0 -0.00071096315706985723 0.044309495752811776 0 -0.00060778187853374678 0.044467507054351783 0 -0.00079029162654038363 0.04447959079889429 0 -0.00064417194074470774 0.044247933631988597 0 -0.00062084802768788228 0.044349593028445398 0 -0.00071096315706985723 0.044309495752811776 0 -0.00064417194074470774 0.044247933631988597 0 -0.00076392568617468851 0.044192474882624976 0 -0.00071096315706985723 0.044309495752811776 0 -0.00062084802768788228 0.044349593028445398 0 -0.00071096315706985723 0.044309495752811776 0 -0.00060778187853374678 0.044467507054351783 0 -0.00060778187853374678 0.044467507054351783 0 -0.00079029162654038363 0.04447959079889429 0 -0.00063266943741485291 0.044669869808455838 0 -0.0016563756110655539 0.043102313593704658 0 -0.0013775756028562621 0.042838296577313147 0 -0.00079029162654038363 0.04447959079889429 0 -0.00063266943741485291 0.044669869808455838 0 -0.00081940378934040588 0.044873318378463825 0 -0.00063266943741485291 0.044669869808455838 0 -0.00047148411451019363 0.044595205742239366 0 -0.00049011314414435241 0.044903024400335161 0 -0.00047148411451019363 0.044595205742239366 0 -0.00049011314414435241 0.044903024400335161 0 -0.00026160580457447843 0.044689371878093027 0 -0.00060778187853374678 0.044467507054351783 0 -0.00063266943741485291 0.044669869808455838 0 -0.00047148411451019363 0.044595205742239366 0 -0.00052285221146286791 0.044376542262926512 0 -0.00060778187853374678 0.044467507054351783 0 -0.00047148411451019363 0.044595205742239366 0 -0.00063706512212947626 0.044139191363253116 0 -0.00035926379562039218 0.043967473760860486 0 -0.00060117702544901827 0.044023424840288629 0 -0.00059067876483271449 0.027012572420942117 0 -0.00092106966655479633 0.027657157133155374 0 -0.0011692995387057182 0.027027965566026251 0 -0.00085465642733808535 0.035491233276322018 0 -0.00093242396691567192 0.035257207177829535 0 -0.00035926379562039218 0.043967473760860486 0 -0.00060117702544901827 0.044023424840288629 0 -0.00049726031572586106 0.043861098000139015 0 -0.00063706512212947626 0.044139191363253116 0 -0.00060117702544901827 0.044023424840288629 0 -0.00069891210385661579 0.044133080828677736 0 -0.00060117702544901827 0.044023424840288629 0 -0.00069891210385661579 0.044133080828677736 0 -0.00071013520033971821 0.04404408789291505 0 -0.00083563328711511111 0.043974648285956604 0 -0.00065729219248336287 0.043820497890025234 0 -0.0007139145928009694 0.043497976913677336 0 -0.0016563756110655539 0.043102313593704658 0 -0.0017390387669247935 0.041720861959512488 0 -0.00060117702544901827 0.044023424840288629 0 -0.00071013520033971821 0.04404408789291505 0 -0.00065729219248336287 0.043820497890025234 0 -0.00083563328711511111 0.043974648285956604 0 -0.00071013520033971821 0.04404408789291505 0 -0.00065729219248336287 0.043820497890025234 0 -0.00060117702544901827 0.044023424840288629 0 -0.00065729219248336287 0.043820497890025234 0 -0.00049726031572586106 0.043861098000139015 0 -0.00065729219248336287 0.043820497890025234 0 -0.00049726031572586106 0.043861098000139015 0 -0.00036492899589457063 0.043620188314765287 0 -0.00035926379562039218 0.043967473760860486 0 -0.00036492899589457063 0.043620188314765287 0 -0.00011755811216376469 0.043599723502441887 0 -0.00035926379562039218 0.043967473760860486 0 -0.00049726031572586106 0.043861098000139015 0 -0.00036492899589457063 0.043620188314765287 0 -0.00036492899589457063 0.043620188314765287 0 -0.00043744094368304174 0.043342847088113187 0 -0.0007139145928009694 0.043497976913677336 0 -0.00036492899589457063 0.043620188314765287 0 -0.00043744094368304174 0.043342847088113187 0 -0.00019417126996597577 0.043294881056125688 0 -0.00065729219248336287 0.043820497890025234 0 -0.00036492899589457063 0.043620188314765287 0 -0.0007139145928009694 0.043497976913677336 0 -0.0017390387669247935 0.041720861959512488 0 -0.0015986265107610133 0.038897455203412423 0 -0.0016553418097416739 0.041620631079471407 0 -0.0019639347674917772 0.04049899605686022 0 -0.0010260306295648901 0.04050969604242155 0 -0.0016553418097416739 0.041620631079471407 0 -0.0019639347674917772 0.04049899605686022 0 -0.0021252427335481925 0.041614809064631823 0 -0.00095125968682998089 0.041667522074593101 0 -0.0015986265107610133 0.038897455203412423 0 -0.00046960036703018422 0.042946266804004513 0 -0.00019417126996597577 0.043294881056125688 0 -6.1657114685224773e-05 0.04293104587733098 0 -0.00043744094368304174 0.043342847088113187 0 -0.00046960036703018422 0.042946266804004513 0 -0.00019417126996597577 0.043294881056125688 0 -0.0015986265107610133 0.038897455203412423 0 -0.0011098132914803337 0.036462446404144984 0 -0.00043744094368304174 0.043342847088113187 0 -0.0007139145928009694 0.043497976913677336 0 -0.00046960036703018422 0.042946266804004513 0 -0.0022853940556188707 0.042732654818213568 0 -0.0016553418097416739 0.041620631079471407 0 -0.0021252427335481925 0.041614809064631823 0 -0.00063266943741485291 0.044669869808455838 0 -0.00049011314414435241 0.044903024400335161 0 -0.00081940378934040588 0.044873318378463825 0 -0.0008640455086974736 0.045217757426149849 0 -0.00049011314414435241 0.044903024400335161 0 -0.00081940378934040588 0.044873318378463825 0 -0.00095125968682998089 0.041667522074593101 0 -0.0013775756028562621 0.042838296577313147 0 -0.0008640455086974736 0.045217757426149849 0 -0.00049011314414435241 0.044903024400335161 0 -0.00039066755546323778 0.045223313444286796 0 -0.00049011314414435241 0.044903024400335161 0 -0.00022402124545263901 0.044950354475558181 0 -0.00039066755546323778 0.045223313444286796 0 -0.00022402124545263901 0.044950354475558181 0 5.4669498781502504e-05 0.045224972643395402 0 -0.00039066755546323778 0.045223313444286796 0 -0.00049011314414435241 0.044903024400335161 0 -0.00022402124545263901 0.044950354475558181 0 -0.00026160580457447843 0.044689371878093027 0 -0.00022402124545263901 0.044950354475558181 0 -6.5658499869306186e-05 0.04479514664231684 0 -0.00026160580457447843 0.044689371878093027 0 -6.1352418163991923e-05 0.04483198895092988 0 2.7700186237847954e-05 0.044938191917607596 0 2.8514167599004711e-05 0.044792045920722862 0 -6.6492277205472099e-06 0.04499269372553423 0 -5.3712869027719061e-06 0.044996642578229509 0 -1.1947000345766017e-06 0.044996675947989506 0 -8.60697504501381e-05 0.04486289104438549 0 -7.7595176418073646e-06 0.044951973767194689 0 -8.60697504501381e-05 0.04486289104438549 0 -8.613984860447793e-05 0.044862324824557695 0 -8.60697504501381e-05 0.04486289104438549 0 -9.3919999136177933e-05 0.044805637097989674 0 -0.00022402124545263901 0.044950354475558181 0 -6.5658499869306186e-05 0.04479514664231684 0 -5.3445101721244345e-06 0.045007652218474747 0 -0.00022402124545263901 0.044950354475558181 0 -5.3445101721244345e-06 0.045007652218474747 0 5.4669498781502504e-05 0.045224972643395402 0 -9.3919999136177933e-05 0.044805637097989674 0 -0.00015661946665982139 0.044571587757443652 0 -5.3712869027719061e-06 0.044996642578229509 0 -2.7114587816493584e-06 0.044997859372090131 0 -4.2313476914774995e-06 0.044999619137912394 0 -2.7114587816493584e-06 0.044997859372090131 0 -1.1947000345766017e-06 0.044996675947989506 0 -9.3178182791372647e-07 0.044999511440433466 0 -1.1947000345766017e-06 0.044996675947989506 0 -4.6161938836068296e-07 0.044999661719013213 0 -9.3178182791372647e-07 0.044999511440433466 0 -2.7114587816493584e-06 0.044997859372090131 0 -9.3178182791372647e-07 0.044999511440433466 0 -4.2313476914774995e-06 0.044999619137912394 0 -5.3712869027719061e-06 0.044996642578229509 0 -2.7114587816493584e-06 0.044997859372090131 0 -1.1947000345766017e-06 0.044996675947989506 0 3.2227982938927151e-08 0.044999927634018333 0 -7.7595176418073646e-06 0.044951973767194689 0 1.9539789798601199e-09 0.044999997026086654 0 -1.1947000345766017e-06 0.044996675947989506 0 -4.6161938836068296e-07 0.044999661719013213 0 -7.3097649802345919e-08 0.044999979273405759 0 2.7700186237847954e-05 0.044938191917607596 0 1.8110211081272547e-07 0.044999846943823904 0 2.7700186237847954e-05 0.044938191917607596 0 2.8514167599004711e-05 0.044792045920722862 0 1.8110211081272547e-07 0.044999846943823904 0 2.8514167599004711e-05 0.044792045920722862 0 1.8110211081272547e-07 0.044999846943823904 0 8.7540943825731564e-05 0.044697899566644647 0 -7.8593588575399933e-09 0.044998900464413648 0 1.8110211081272547e-07 0.044999846943823904 0 8.7540943825731564e-05 0.044697899566644647 0 2.8514167599004711e-05 0.044792045920722862 0 8.7540943825731564e-05 0.044697899566644647 0 -2.575308455900435e-06 0.044554873157919346 0 0.00011101650012681152 0.043972698388622972 0 8.7540943825731564e-05 0.044697899566644647 0 -2.575308455900435e-06 0.044554873157919346 0 0.00011101650012681152 0.043972698388622972 0 -2.575308455900435e-06 0.044554873157919346 0 -0.00026814929573163224 0.044466496594804859 0 -2.575308455900435e-06 0.044554873157919346 0 -0.00026814929573163224 0.044466496594804859 0 -0.00010303375179472729 0.044665318413672134 0 -0.00026814929573163224 0.044466496594804859 0 -0.00026160580457447843 0.044689371878093027 0 -0.00010303375179472729 0.044665318413672134 0 -0.00047148411451019363 0.044595205742239366 0 -0.00026814929573163224 0.044466496594804859 0 -0.00026160580457447843 0.044689371878093027 0 -6.2180005795941287e-05 0.0448492155242044 0 -0.00026160580457447843 0.044689371878093027 0 -7.1124329098172344e-05 0.044806286489378518 0 -0.00026160580457447843 0.044689371878093027 0 -7.1124329098172344e-05 0.044806286489378518 0 -0.00010303375179472729 0.044665318413672134 0 -8.60697504501381e-05 0.04486289104438549 0 -0.00012311220653531791 0.044836083243454401 0 2.8514167599004711e-05 0.044792045920722862 0 -7.1124329098172344e-05 0.044806286489378518 0 -0.00010303375179472729 0.044665318413672134 0 -6.1352418163991923e-05 0.04483198895092988 0 2.8514167599004711e-05 0.044792045920722862 0 -7.1124329098172344e-05 0.044806286489378518 0 2.8514167599004711e-05 0.044792045920722862 0 -2.575308455900435e-06 0.044554873157919346 0 -0.00010303375179472729 0.044665318413672134 0 -0.0014640021346596043 0.023165988350430686 0 -0.0020717146606955943 0.022034543967132472 0 -0.00064923857631800233 0.022581255045734123 0 -0.00077125909520347428 0.021864110281123991 0 -0.00043202196008676946 0.02234643962413118 0 0.00015496418030843038 0.025190524754196662 0 -0.00018884420562446415 0.025135521927314344 0 -0.00010063725629981627 0.025299362748510565 0 0.00015496418030843038 0.025190524754196662 0 9.0530321976470932e-05 0.02523035440810489 0 -0.00010063725629981627 0.025299362748510565 0 0.00015496418030843038 0.025190524754196662 0 8.9041479929396155e-05 0.02510768471363635 0 9.0530321976470932e-05 0.02523035440810489 0 0.00015496418030843038 0.025190524754196662 0 0.00014344518672604185 0.024837758997011492 0 0.00023225096394714932 0.025278426196246543 0 0.00015496418030843038 0.025190524754196662 0 0.00014344518672604185 0.024837758997011492 0 -0.00018884420562446415 0.025135521927314344 0 -0.0014640021346596043 0.023165988350430686 0 -0.0012614234817429398 0.023371799974626954 0 0.00014344518672604185 0.024837758997011492 0 -0.00018884420562446415 0.025135521927314344 0 -0.00018377850979722768 0.023794319408128466 0 -0.00064923857631800233 0.022581255045734123 0 -0.00018377850979722768 0.023794319408128466 0 -6.9263210971068039e-05 0.022912368004139087 0 -0.00018377850979722768 0.023794319408128466 0 5.2671099004212001e-07 0.023102477416253351 0 0.00015754208933851899 0.024771529137787771 0 -0.00018377850979722768 0.023794319408128466 0 5.2671099004212001e-07 0.023102477416253351 0 2.7953202384680742e-05 0.022584898017561424 0 5.2671099004212001e-07 0.023102477416253351 0 0.00015754208933851899 0.024771529137787771 0 4.6588587123553885e-07 0.025572177439581255 0 0.00014344518672604185 0.024837758997011492 0 -0.00018377850979722768 0.023794319408128466 0 0.00015754208933851899 0.024771529137787771 0 0.00014344518672604185 0.024837758997011492 0 0.00015754208933851899 0.024771529137787771 0 0.00023225096394714932 0.025278426196246543 0 0.00023225096394714932 0.025278426196246543 0 9.7643224039091099e-05 0.026062534260652664 0 2.9037663492202779e-05 0.025906692586603098 0 0.00015754208933851899 0.024771529137787771 0 0.00023225096394714932 0.025278426196246543 0 9.7643224039091099e-05 0.026062534260652664 0 4.6588587123553885e-07 0.025572177439581255 0 9.7643224039091099e-05 0.026062534260652664 0 -5.8997331703550089e-07 0.028041404510316215 0 0.00015754208933851899 0.024771529137787771 0 4.6588587123553885e-07 0.025572177439581255 0 9.7643224039091099e-05 0.026062534260652664 0 9.7643224039091099e-05 0.026062534260652664 0 -5.8997331703550089e-07 0.028041404510316215 0 -0.00019043828144199625 0.02706066623410951 0 -0.00019043828144199625 0.02706066623410951 0 2.9037663492202779e-05 0.025906692586603098 0 -0.00070654902603241364 0.026211574889324546 0 9.7643224039091099e-05 0.026062534260652664 0 -0.00019043828144199625 0.02706066623410951 0 2.9037663492202779e-05 0.025906692586603098 0 2.9037663492202779e-05 0.025906692586603098 0 -0.00033171653250295836 0.025610847631845318 0 -0.00070654902603241364 0.026211574889324546 0 -0.00033171653250295836 0.025610847631845318 0 -0.00023653596661536233 0.025194212892241195 0 -0.00063163832800566192 0.025356871694219855 0 -0.00033171653250295836 0.025610847631845318 0 0.00010063294171686365 0.025348572325726508 0 -0.00023653596661536233 0.025194212892241195 0 2.90