<?xml version="1.0"?>
<VTKFile type="UnstructuredGrid" version="0.1" byte_order="LittleEndian">
<UnstructuredGrid>
<Piece NumberOfPoints="31898" NumberOfCells="11152">
<Points>
<DataArray type="Float64" NumberOfComponents="3" format="ascii">
-0.5 -0.5 0 -0.47620991077874902 -0.44978878706170539 0 -0.49999999999999473 -0.42132396840504388 0 -0.5 -0.5 0 -0.47160970827802529 -0.4793630013852106 0 -0.47620991077874902 -0.44978878706170539 0 -0.5 -0.5 0 -0.47160970827802529 -0.4793630013852106 0 -0.44860394795025399 -0.5 0 -0.47160970827802529 -0.4793630013852106 0 -0.44860394795025399 -0.5 0 -0.4490820238307246 -0.45820516232899983 0 -0.44860394795025399 -0.5 0 -0.4490820238307246 -0.45820516232899983 0 -0.42881687682924802 -0.47781464288736519 0 -0.4490820238307246 -0.45820516232899983 0 -0.45555437223955858 -0.42914059360647611 0 -0.4490820238307246 -0.45820516232899983 0 -0.45555437223955858 -0.42914059360647611 0 -0.43867285131603428 -0.4271457417558665 0 -0.4490820238307246 -0.45820516232899983 0 -0.43867285131603428 -0.4271457417558665 0 -0.4263356171060747 -0.44269880333887462 0 -0.47160970827802529 -0.4793630013852106 0 -0.4490820238307246 -0.45820516232899983 0 -0.47620991077874902 -0.44978878706170539 0 -0.4490820238307246 -0.45820516232899983 0 -0.47620991077874902 -0.44978878706170539 0 -0.45555437223955858 -0.42914059360647611 0 -0.47620991077874902 -0.44978878706170539 0 -0.48101336032419229 -0.41069999664450008 0 -0.45555437223955858 -0.42914059360647611 0 -0.47620991077874902 -0.44978878706170539 0 -0.49999999999999473 -0.42132396840504388 0 -0.48101336032419229 -0.41069999664450008 0 -0.49999999999999473 -0.42132396840504388 0 -0.48101336032419229 -0.41069999664450008 0 -0.5 -0.393886241813306 0 -0.49999999999999473 -0.42132396840504388 0 -0.48101336032419229 -0.41069999664450008 0 -0.5 -0.393886241813306 0 -0.47854472220918332 -0.38978458738689759 0 -0.48422759779560409 -0.37130120630367158 0 -0.5 -0.393886241813306 0 -0.5 -0.36644851522156802 0 -0.48422759779560409 -0.37130120630367158 0 -0.48101336032419229 -0.41069999664450008 0 -0.5 -0.393886241813306 0 -0.47854472220918332 -0.38978458738689759 0 -0.48101336032419229 -0.41069999664450008 0 -0.47854472220918332 -0.38978458738689759 0 -0.46202672064839212 -0.40007602488395211 0 -0.48101336032419229 -0.41069999664450008 0 -0.46202672064839212 -0.40007602488395211 0 -0.47854472220918332 -0.38978458738689759 0 -0.46725442735267431 -0.37660061361585562 0 -0.46202672064839212 -0.40007602488395211 0 -0.47854472220918332 -0.38978458738689759 0 -0.46725442735267431 -0.37660061361585562 0 -0.48422759779560409 -0.37130120630367158 0 -0.46725442735267431 -0.37660061361585562 0 -0.46202672064839212 -0.40007602488395211 0 -0.46725442735267431 -0.37660061361585562 0 -0.45645674801697989 -0.38644133236760531 0 -0.46202672064839212 -0.40007602488395211 0 -0.46725442735267431 -0.37660061361585562 0 -0.45645674801697989 -0.38644133236760531 0 -0.4540003998136638 -0.37455519391687309 0 -0.45645674801697989 -0.38644133236760531 0 -0.46202672064839212 -0.40007602488395211 0 -0.44257020456291563 -0.38918913383950271 0 -0.46202672064839212 -0.40007602488395211 0 -0.44257020456291563 -0.38918913383950271 0 -0.44727608925983742 -0.41095911152778891 0 -0.46202672064839212 -0.40007602488395211 0 -0.44257020456291563 -0.38918913383950271 0 -0.44257020456291563 -0.38918913383950271 0 -0.44727608925983742 -0.41095911152778891 0 -0.43479358559901082 -0.4041454901736512 0 -0.44257020456291563 -0.38918913383950271 0 -0.4540003998136638 -0.37455519391687309 0 -0.44172858264042247 -0.37082207246888088 0 -0.45645674801697989 -0.38644133236760531 0 -0.44257020456291563 -0.38918913383950271 0 -0.4540003998136638 -0.37455519391687309 0 -0.46202672064839212 -0.40007602488395211 0 -0.45555437223955858 -0.42914059360647611 0 -0.44727608925983742 -0.41095911152778891 0 -0.46202672064839212 -0.40007602488395211 0 -0.45555437223955858 -0.42914059360647611 0 -0.48101336032419229 -0.41069999664450008 0 -0.46202672064839212 -0.40007602488395211 0 -0.45555437223955858 -0.42914059360647611 0 -0.44727608925983742 -0.41095911152778891 0 -0.43867285131603428 -0.4271457417558665 0 -0.43676601469929588 -0.41441201227470881 0 -0.44727608925983742 -0.41095911152778891 0 -0.43676601469929588 -0.41441201227470881 0 -0.43479358559901082 -0.4041454901736512 0 -0.45555437223955858 -0.42914059360647611 0 -0.44727608925983742 -0.41095911152778891 0 -0.43867285131603428 -0.4271457417558665 0 -0.43867285131603428 -0.4271457417558665 0 -0.42681803064840879 -0.42717069814352421 0 -0.4263356171060747 -0.44269880333887462 0 -0.42681803064840879 -0.42717069814352421 0 -0.41531815884496182 -0.42985383783075998 0 -0.4263356171060747 -0.44269880333887462 0 -0.42681803064840879 -0.42717069814352421 0 -0.42624289495594048 -0.42089725947505818 0 -0.42083332353326591 -0.42146747131641099 0 -0.42681803064840879 -0.42717069814352421 0 -0.43096994786351572 -0.41951492446283251 0 -0.42624289495594048 -0.42089725947505818 0 -0.43867285131603428 -0.4271457417558665 0 -0.42681803064840879 -0.42717069814352421 0 -0.43096994786351572 -0.41951492446283251 0 -0.43867285131603428 -0.4271457417558665 0 -0.43676601469929588 -0.41441201227470881 0 -0.43096994786351572 -0.41951492446283251 0 -0.43676601469929588 -0.41441201227470881 0 -0.43096994786351572 -0.41951492446283251 0 -0.42907264086257813 -0.41311715872526122 0 -0.43676601469929588 -0.41441201227470881 0 -0.42907264086257813 -0.41311715872526122 0 -0.43479358559901082 -0.4041454901736512 0 -0.42907264086257813 -0.41311715872526122 0 -0.43479358559901082 -0.4041454901736512 0 -0.42460885511582858 -0.40417321677700252 0 -0.42907264086257813 -0.41311715872526122 0 -0.41997834854398469 -0.41180534796019508 0 -0.42907264086257813 -0.41311715872526122 0 -0.42635027777857132 -0.41543594397746519 0 -0.41997834854398469 -0.41180534796019508 0 -0.42907264086257813 -0.41311715872526122 0 -0.41997834854398469 -0.41180534796019508 0 -0.42460885511582858 -0.40417321677700252 0 -0.42635027777857132 -0.41543594397746519 0 -0.41997834854398469 -0.41180534796019508 0 -0.42635027777857132 -0.41543594397746519 0 -0.42083332353326591 -0.42146747131641099 0 -0.41997834854398469 -0.41180534796019508 0 -0.43096994786351572 -0.41951492446283251 0 -0.42624289495594048 -0.42089725947505818 0 -0.42635027777857132 -0.41543594397746519 0 -0.43096994786351572 -0.41951492446283251 0 -0.42907264086257813 -0.41311715872526122 0 -0.42635027777857132 -0.41543594397746519 0 -0.42624289495594048 -0.42089725947505818 0 -0.42635027777857132 -0.41543594397746519 0 -0.42083332353326591 -0.42146747131641099 0 -0.42083332353326591 -0.42146747131641099 0 -0.41997834854398469 -0.41180534796019508 0 -0.40992282953163789 -0.42011435591993562 0 -0.41997834854398469 -0.41180534796019508 0 -0.39756877647335259 -0.40857286797681719 0 -0.41997834854398469 -0.41180534796019508 0 -0.40992282953163789 -0.42011435591993562 0 -0.39756877647335259 -0.40857286797681719 0 -0.40992282953163789 -0.42011435591993562 0 -0.41531815884496182 -0.42985383783075998 0 -0.39591554026262499 -0.42887225451549271 0 -0.41531815884496182 -0.42985383783075998 0 -0.39591554026262499 -0.42887225451549271 0 -0.41160927495564159 -0.44339431233754628 0 -0.42083332353326591 -0.42146747131641099 0 -0.40992282953163789 -0.42011435591993562 0 -0.41531815884496182 -0.42985383783075998 0 -0.42681803064840879 -0.42717069814352421 0 -0.42083332353326591 -0.42146747131641099 0 -0.41531815884496182 -0.42985383783075998 0 -0.44257020456291563 -0.38918913383950271 0 -0.42311368847744002 -0.37830224279505142 0 -0.42594061475171041 -0.39368797999533162 0 -0.44257020456291563 -0.38918913383950271 0 -0.42311368847744002 -0.37830224279505142 0 -0.44172858264042247 -0.37082207246888088 0 -0.44257020456291563 -0.38918913383950271 0 -0.42311368847744002 -0.37830224279505142 0 -0.42311368847744002 -0.37830224279505142 0 -0.42594061475171041 -0.39368797999533162 0 -0.416587075656149 -0.38785930376960043 0 -0.44257020456291563 -0.38918913383950271 0 -0.42594061475171041 -0.39368797999533162 0 -0.43479358559901082 -0.4041454901736512 0 -0.42594061475171041 -0.39368797999533162 0 -0.43479358559901082 -0.4041454901736512 0 -0.42460885511582858 -0.40417321677700252 0 -0.41997834854398469 -0.41180534796019508 0 -0.41325908582185972 -0.39811010703057192 0 -0.39770572831670092 -0.39911486077581648 0 -0.41997834854398469 -0.41180534796019508 0 -0.39770572831670092 -0.39911486077581648 0 -0.42594061475171041 -0.39368797999533162 0 -0.42460885511582858 -0.40417321677700252 0 -0.41325908582185972 -0.39811010703057192 0 -0.41997834854398469 -0.41180534796019508 0 -0.42460885511582858 -0.40417321677700252 0 -0.41325908582185972 -0.39811010703057192 0 -0.42594061475171041 -0.39368797999533162 0 -0.41325908582185972 -0.39811010703057192 0 -0.416587075656149 -0.38785930376960043 0 -0.41325908582185972 -0.39811010703057192 0 -0.416587075656149 -0.38785930376960043 0 -0.40403491357358612 -0.38133688525744702 0 -0.42311368847744002 -0.37830224279505142 0 -0.40403491357358612 -0.38133688525744702 0 -0.40365717239196519 -0.36741535175059892 0 -0.42311368847744002 -0.37830224279505142 0 -0.416587075656149 -0.38785930376960043 0 -0.40403491357358612 -0.38133688525744702 0 -0.40403491357358612 -0.38133688525744702 0 -0.39190790742475001 -0.38540387676521748 0 -0.39770572831670092 -0.39911486077581648 0 -0.40403491357358612 -0.38133688525744702 0 -0.39190790742475001 -0.38540387676521748 0 -0.3904578797192948 -0.37473938743617019 0 -0.41325908582185972 -0.39811010703057192 0 -0.40403491357358612 -0.38133688525744702 0 -0.39770572831670092 -0.39911486077581648 0 -0.39770572831670092 -0.39911486077581648 0 -0.37543310808941849 -0.38642437359143528 0 -0.39770572831670092 -0.39911486077581648 0 -0.37515920440272033 -0.40534038799344108 0 -0.37543310808941849 -0.38642437359143528 0 -0.39770572831670092 -0.39911486077581648 0 -0.37515920440272033 -0.40534038799344108 0 -0.39756877647335259 -0.40857286797681719
[...]
<PointData Scalars="" Vectors="displacement," Tensors="">
<DataArray type="Float64" Name="displacement" NumberOfComponents="3" format="ascii">
-0.034997504630295162 -0.03499803743122356 0 -0.032636784560040905 -0.03438770400383994 0 -0.029503254274851513 -0.034995353214158802 0 -0.034997504630295162 -0.03499803743122356 0 -0.034452308390114712 -0.03373553541152452 0 -0.032636784560040905 -0.03438770400383994 0 -0.034997504630295162 -0.03499803743122356 0 -0.034452308390114712 -0.03373553541152452 0 -0.034998040945760964 -0.031405340374536274 0 -0.034452308390114712 -0.03373553541152452 0 -0.034998040945760964 -0.031405340374536274 0 -0.034681115137933545 -0.033283615657776135 0 -0.034998040945760964 -0.031405340374536274 0 -0.034681115137933545 -0.033283615657776135 0 -0.035123706126226659 -0.030757691041952563 0 -0.034044295775714939 -0.034243918150440748 0 -0.033955862232900265 -0.034527659228947613 0 -0.034681115137933545 -0.033283615657776135 0 -0.037876102640280185 -0.033721558939849842 0 -0.038120957653641263 -0.032095298403724777 0 -0.034681115137933545 -0.033283615657776135 0 -0.038120957653641263 -0.032095298403724777 0 -0.036757695739328626 -0.030873477045570082 0 -0.034452308390114712 -0.03373553541152452 0 -0.034681115137933545 -0.033283615657776135 0 -0.032636784560040905 -0.03438770400383994 0 -0.034681115137933545 -0.033283615657776135 0 -0.032636784560040905 -0.03438770400383994 0 -0.031838763312131257 -0.035010320746929294 0 -0.032636784560040905 -0.03438770400383994 0 -0.030354999356425771 -0.034638508501562887 0 -0.031838763312131257 -0.035010320746929294 0 -0.032636784560040905 -0.03438770400383994 0 -0.029503254274851513 -0.034995353214158802 0 -0.030354999356425771 -0.034638508501562887 0 -0.029492671259291014 -0.034999997059349433 0 -0.028748486181685219 -0.036322739974373415 0 -0.027572040605956423 -0.034999996018078273 0 -0.02949384893791003 -0.0350005297893482 0 -0.030037800592162427 -0.03520665482545772 0 -0.027572040605956423 -0.034999996018078273 0 -0.027287017278898838 -0.036494494612915353 0 -0.025992796590047787 -0.036098853354416732 0 -0.027572040605956423 -0.034999996018078273 0 -0.025651398263679365 -0.034999994994973388 0 -0.025992796590047787 -0.036098853354416732 0 -0.028748486181685219 -0.036322739974373415 0 -0.027572040605956423 -0.034999996018078273 0 -0.027287017278898838 -0.036494494612915353 0 -0.028748486181685219 -0.036322739974373415 0 -0.027287017278898838 -0.036494494612915353 0 -0.028008548953871851 -0.037643070058204754 0 -0.030037800592162427 -0.03520665482545772 0 -0.031174582956570697 -0.034624362730295941 0 -0.027287017278898838 -0.036494494612915353 0 -0.026365444968600937 -0.037281793835727349 0 -0.028008548953871851 -0.037643070058204754 0 -0.027287017278898838 -0.036494494612915353 0 -0.026365444968600937 -0.037281793835727349 0 -0.025992796590047787 -0.036098853354416732 0 -0.02667801468885218 -0.035491793850544323 0 -0.031174582956570697 -0.034624362730295941 0 -0.024545989682755672 -0.037055746738743026 0 -0.024564139813305134 -0.037121037838032042 0 -0.024627956297078913 -0.037097313928183044 0 -0.024545989682755672 -0.037055746738743026 0 -0.024564139813305134 -0.037121037838032042 0 -0.024482878321075156 -0.037150040244272001 0 -0.024564139813305134 -0.037121037838032042 0 -0.024627956297078913 -0.037097313928183044 0 -0.024556554886512667 -0.037180441680088147 0 -0.04026636521646073 -0.034003246210839971 0 -0.041001962608268223 -0.032413370574948489 0 -0.039417384267633568 -0.032846985929896794 0 -0.031174582956570697 -0.034624362730295941 0 -0.031595879992694996 -0.034050153110827888 0 -0.041001962608268223 -0.032413370574948489 0 -0.039417384267633568 -0.032846985929896794 0 -0.039921750137358394 -0.03182979282165882 0 -0.024556554886512667 -0.037180441680088147 0 -0.024482878321075156 -0.037150040244272001 0 -0.024455239379061498 -0.03718502997252067 0 -0.024564139813305134 -0.037121037838032042 0 -0.024556554886512667 -0.037180441680088147 0 -0.024482878321075156 -0.037150040244272001 0 -0.04026636521646073 -0.034003246210839971 0 -0.037876102640280185 -0.033721558939849842 0 -0.039417384267633568 -0.032846985929896794 0 -0.031174582956570697 -0.034624362730295941 0 -0.033955862232900265 -0.034527659228947613 0 -0.030354999356425771 -0.034638508501562887 0 -0.030194114062752363 -0.035175153861470486 0 -0.031838763312131257 -0.035010320746929294 0 -0.039417384267633568 -0.032846985929896794 0 -0.038120957653641263 -0.032095298403724777 0 -0.039155567083182789 -0.031965991950141333 0 -0.039417384267633568 -0.032846985929896794 0 -0.039155567083182789 -0.031965991950141333 0 -0.039921750137358394 -0.03182979282165882 0 -0.037876102640280185 -0.033721558939849842 0 -0.039417384267633568 -0.032846985929896794 0 -0.038120957653641263 -0.032095298403724777 0 -0.038120957653641263 -0.032095298403724777 0 -0.038091796458844911 -0.031035709903996792 0 -0.036757695739328626 -0.030873477045570082 0 -0.038091796458844911 -0.031035709903996792 0 -0.037857484207039209 -0.03005461399270426 0 -0.036757695739328626 -0.030873477045570082 0 -0.038091796458844911 -0.031035709903996792 0 -0.038619550727657805 -0.03102297479470615 0 -0.038564419060263533 -0.030543678875951011 0 -0.038091796458844911 -0.031035709903996792 0 -0.038742477378696974 -0.031455802632460179 0 -0.038619550727657805 -0.03102297479470615 0 -0.038120957653641263 -0.032095298403724777 0 -0.038091796458844911 -0.031035709903996792 0 -0.038742477378696974 -0.031455802632460179 0 -0.038120957653641263 -0.032095298403724777 0 -0.039155567083182789 -0.031965991950141333 0 -0.038742477378696974 -0.031455802632460179 0 -0.039155567083182789 -0.031965991950141333 0 -0.038742477378696974 -0.031455802632460179 0 -0.039292828954504089 -0.03135008041039572 0 -0.039155567083182789 -0.031965991950141333 0 -0.039292828954504089 -0.03135008041039572 0 -0.039921750137358394 -0.03182979282165882 0 -0.039292828954504089 -0.03135008041039572 0 -0.039921750137358394 -0.03182979282165882 0 -0.039913404132101191 -0.03110729359025164 0 -0.038045396396338256 -0.029170495191040331 0 -0.038027857024558367 -0.028919014363250287 0 -0.039292828954504089 -0.03135008041039572 0 -0.039080836861977199 -0.031059900173063808 0 -0.039458310880910431 -0.030406156586586283 0 -0.039292828954504089 -0.03135008041039572 0 -0.039425145198729444 -0.030801470134277319 0 -0.039913404132101191 -0.03110729359025164 0 -0.038018831031909874 -0.029019322944798781 0 -0.038027857024558367 -0.028919014363250287 0 -0.039080836861977199 -0.031059900173063808 0 -0.038564419060263533 -0.030543678875951011 0 -0.039389154329846757 -0.03047226395602709 0 -0.038742477378696974 -0.031455802632460179 0 -0.038619550727657805 -0.03102297479470615 0 -0.039080836861977199 -0.031059900173063808 0 -0.038742477378696974 -0.031455802632460179 0 -0.039292828954504089 -0.03135008041039572 0 -0.039080836861977199 -0.031059900173063808 0 -0.038619550727657805 -0.03102297479470615 0 -0.039080836861977199 -0.031059900173063808 0 -0.038564419060263533 -0.030543678875951011 0 -0.038564419060263533 -0.030543678875951011 0 -0.039389154329846757 -0.03047226395602709 0 -0.038676057134033458 -0.02961735521973019 0 -0.038027857024558367 -0.028919014363250287 0 -0.03824452567220317 -0.027652878370087754 0 -0.039389154329846757 -0.03047226395602709 0 -0.038676057134033458 -0.02961735521973019 0 -0.039628060389245094 -0.028591886939766425 0 -0.038676057134033458 -0.02961735521973019 0 -0.037857484207039209 -0.03005461399270426 0 -0.037954498443727079 -0.02846060858876473 0 -0.037857484207039209 -0.03005461399270426 0 -0.037954498443727079 -0.02846060858876473 0 -0.036769109154535053 -0.029750039079003438 0 -0.038564419060263533 -0.030543678875951011 0 -0.038676057134033458 -0.02961735521973019 0 -0.037857484207039209 -0.03005461399270426 0 -0.038091796458844911 -0.031035709903996792 0 -0.038564419060263533 -0.030543678875951011 0 -0.037857484207039209 -0.03005461399270426 0 -0.041001962608268223 -0.032413370574948489 0 -0.041574599664545832 -0.031027900340601065 0 -0.040615102584005802 -0.031217258359184652 0 -0.024556554886512667 -0.037180441680088147 0 -0.024480846786957052 -0.037222341824049224 0 -0.024455239379061498 -0.03718502997252067 0 -0.031595879992694996 -0.034050153110827888 0 -0.031633778105327623 -0.032947210197282147 0 -0.041574599664545832 -0.031027900340601065 0 -0.040615102584005802 -0.031217258359184652 0 -0.040955686621551475 -0.030612014410970702 0 -0.041001962608268223 -0.032413370574948489 0 -0.040615102584005802 -0.031217258359184652 0 -0.039921750137358394 -0.03182979282165882 0 -0.040615102584005802 -0.031217258359184652 0 -0.039921750137358394 -0.03182979282165882 0 -0.039913404132101191 -0.03110729359025164 0 -0.039425145198729444 -0.030801470134277319 0 -0.04031335333987323 -0.030395031332146411 0 -0.040272500582942218 -0.029455286119187261 0 -0.038027857024558367 -0.028919014363250287 0 -0.03788295658814355 -0.027599667451075605 0 -0.040615102584005802 -0.031217258359184652 0 -0.039913404132101191 -0.03110729359025164 0 -0.04031335333987323 -0.030395031332146411 0 -0.039425145198729444 -0.030801470134277319 0 -0.039913404132101191 -0.03110729359025164 0 -0.04031335333987323 -0.030395031332146411 0 -0.040615102584005802 -0.031217258359184652 0 -0.04031335333987323 -0.030395031332146411 0 -0.040955686621551475 -0.030612014410970702 0 -0.04031335333987323 -0.030395031332146411 0 -0.040955686621551475 -0.030612014410970702 0 -0.041315532499660905 -0.029820875340608011 0 -0.041574599664545832 -0.031027900340601065 0 -0.041315532499660905 -0.029820875340608011 0 -0.042185105466367979 -0.029799380321817472 0 -0.041574599664545832 -0.031027900340601065 0 -0.040955686621551475 -0.030612014410970702 0 -0.041315532499660905 -0.029820875340608011 0 -0.041315532499660905 -0.029820875340608011 0 -0.04105678845436718 -0.029148428831516856 0 -0.040272500582942218 -0.029455286119187261 0 -0.041315532499660905 -0.029820875340608011 0 -0.04105678845436718 -0.029148428831516856 0 -0.041627547376812679 -0.029075945658196087 0 -0.04031335333987323 -0.030395031332146411 0 -0.041315532499660905 -0.029820875340608011 0 -0.040272500582942218 -0.029455286119187261 0 -0.03788295658814355 -0.027599667451075605 0 -0.037040178857692625 -0.025771538612711621 0 -0.038086657608528314 -0.027219646860935452 0 -0.037798504665150119 -0.026176153374688281 0 -0.038670210130742379 -0.026188221309163713 0 -0.038086657608528314 -0.027219646860935452 0 -0.037798504665150119 -0.026176153374688281 0 -0.037649586119805324 -0.027213787468068358 0 -0.038338780219407891 -0.025914729186160002 0 -0.037040178857692625 -0.025771538612711621 0 -0.041001236438047352 -0.028260367254388949 0 -0.041627547376812679 -0.029075945658196087 0 -0.041907589412870191 -0.028296056174895189 0 -0.04105678845436718 -0.029148428831516856 0 -0.041001236438047352 -0.028260367254388949 0 -0.041627547376812679 -0.029075945658196087 0 -0.037040178857692625 -0.025771538612711621 0 -0.035110073950222337 -0.02640465262581055 0 -0.04105678845436718 -0.029148428831516856 0 -0.040272500582942218 -0.029455286119187261 0 -0.041001236438047352 -0.028260367254388949 0 -0.037501661112381776 -0.028254694357701119 0 -0.038086657608528314 -0.027219646860935452 0 -0.037649586119805324 -0.027213787468068358 0 -0.038676057134033458 -0.02961735521973019 0 -0.037954498443727079 -0.02846060858876473 0 -0.039628060389245094 -0.028591886939766425 0 -0.039888436919777982 -0.026752654288965803 0 -0.037954498443727079 -0.02846060858876473 0 -0.039628060389245094 -0.028591886939766425 0 -0.038338780219407891 -0.025914729186160002 0 -0.03824452567220317 -0.027652878370087754 0 -0.039888436919777982 -0.026752654288965803 0 -0.037954498443727079 -0.02846060858876473 0 -0.037416904197016251 -0.026724359548660526 0 -0.037954498443727079 -0.02846060858876473 0 -0.036510670515680965 -0.028222761362406621 0 -0.037416904197016251 -0.026724359548660526 0 -0.036510670515680965 -0.028222761362406621 0 -0.034958840370677355 -0.026691623259869575 0 -0.037416904197016251 -0.026724359548660526 0 -0.037954498443727079 -0.02846060858876473 0 -0.036510670515680965 -0.028222761362406621 0 -0.036769109154535053 -0.029750039079003438 0 -0.036510670515680965 -0.028222761362406621 0 -0.035613488089382896 -0.029118974584877874 0 -0.036769109154535053 -0.029750039079003438 0 -0.036086604428395931 -0.029270451319653158 0 -0.03561320267256813 -0.028150239608552067 0 -0.03560495755591727 -0.029597231674935557 0 -0.037922737386365188 -0.028230182637064088 0 -0.037649277275058034 -0.027218480816175949 0 -0.036472603216023684 -0.027449289708647014 0 -0.036727441096595523 -0.027785893979082231 0 -0.035913072320068344 -0.027344630579109217 0 -0.036727441096595523 -0.027785893979082231 0 -0.036728304414069879 -0.0278000372355574 0 -0.036727441096595523 -0.027785893979082231 0 -0.036746371418305716 -0.027194608525782735 0 -0.036510670515680965 -0.028222761362406621 0 -0.035613488089382896 -0.029118974584877874 0 -0.035286605109164773 -0.027904073909806485 0 -0.036510670515680965 -0.028222761362406621 0 -0.035286605109164773 -0.027904073909806485 0 -0.034958840370677355 -0.026691623259869575 0 -0.036746371418305716 -0.027194608525782735 0 -0.036770372035784767 -0.026350175484811045 0 -0.037649277275058034 -0.027218480816175949 0 -0.03696363370333397 -0.02685261398405674 0 -0.037375677393063821 -0.026201295684014032 0 -0.03696363370333397 -0.02685261398405674 0 -0.036472603216023684 -0.027449289708647014 0 -0.036571629866571212 -0.026186495713434777 0 -0.036472603216023684 -0.027449289708647014 0 -0.03571212515290316 -0.026067430252503951 0 -0.036571629866571212 -0.026186495713434777 0 -0.03696363370333397 -0.02685261398405674 0 -0.036571629866571212 -0.026186495713434777 0 -0.037375677393063821 -0.026201295684014032 0 -0.037649277275058034 -0.027218480816175949 0 -0.03696363370333397 -0.02685261398405674 0 -0.036472603216023684 -0.027449289708647014 0 -0.035000706292001173 -0.026667121514876255 0 -0.035913072320068344 -0.027344630579109217 0 -0.035000002675169888 -0.026666270083500004 0 -0.036472603216023684 -0.027449289708647014 0 -0.03571212515290316 -0.026067430252503951 0 -0.034999890568855059 -0.026667476967780667 0 -0.03561320267256813 -0.028150239608552067 0 -0.034999135995755215 -0.02869904124773447 0 -0.03561320267256813 -0.028150239608552067 0 -0.03560495755591727 -0.029597231674935557 0 -0.034999135995755215 -0.02869904124773447 0 -0.03560495755591727 -0.029597231674935557 0 -0.034999135995755215 -0.02869904124773447 0 -0.035123706126226659 -0.030757691041952563 0 -0.034998040945760964 -0.031405340374536274 0 -0.034999135995755215 -0.02869904124773447 0 -0.035123706126226659 -0.030757691041952563 0 -0.03560495755591727 -0.029597231674935557 0 -0.035123706126226659 -0.030757691041952563 0 -0.035557555997955195 -0.0308272048129292 0 -0.034681115137933545 -0.033283615657776135 0 -0.035123706126226659 -0.030757691041952563 0 -0.035557555997955195 -0.0308272048129292 0 -0.034681115137933545 -0.033283615657776135 0 -0.035557555997955195 -0.0308272048129292 0 -0.036757695739328626 -0.030873477045570082 0 -0.035557555997955195 -0.0308272048129292 0 -0.036757695739328626 -0.030873477045570082 0 -0.036108847358316529 -0.030061812004292286 0 -0.036757695739328626 -0.030873477045570082 0 -0.036769109154535053 -0.029750039079003438 0 -0.036108847358316529 -0.030061812004292286 0 -0.037857484207039209 -0.03005461399270426 0 -0.036757695739328626 -0.030873477045570082 0 -0.036769109154535053 -0.029750039079003438 0 -0.036047940913070314 -0.029271112056518528 0 -0.036769109154535053 -0.029750039079003438 0 -0.036081715972981876 -0.029412974567504611 0 -0.036769109154535053 -0.029750039079003438 0 -0.036081715972981876 -0.029412974567504611 0 -0.036108847358316529 -0.030061812004292286 0 -0.036727441096595523 -0.027785893979082231 0 -0.036814770768083711 -0.02801909245944301 0 -0.03560495755591727 -0.029597231674935557 0 -0.036081715972981876 -0.029412974567504611 0 -0.036108847358316529 -0.030061812004292286 0 -0.036086604428395931 -0.029270451319653158 0 -0.03560495755591727 -0.029597231674935557 0 -0.036081715972981876 -0.029412974567504611 0 -0.03560495755591727 -0.029597231674935557 0 -0.035557555997955195 -0.0308272048129292 0 -0.036108847358316529 -0.030061812004292286 0 -0.014904719001565009 -0.036767495426823428 0 -0.013276396380426879 -0.034786614753245355 0 -0.017656332022799398 -0.037904314439539476 0 -0.017560993425814578 -0.04009339893443712 0 -0.016404178937901068 -0.038431579516750344 0 -0.019238860650351228 -0.03833584881253875 0 -0.017906454865166767 -0.037889782066227104 0 -0.01779091586907099 -0.039402807291222745 0 -0.019238860650351228 -0.03833584881253875 0 -0.019166636000615276 -0.039650547193747034 0 -0.01779091586907099 -0.039402807291222745 0 -0.019238860650351228 -0.03833584881253875 0 -0.020452861232568946 -0.03890812596466818 0 -0.019166636000615276 -0.039650547193747034 0 -0.019238860650351228 -0.03833584881253875 0 -0.01873490105384145 -0.037169053034443247 0 -0.019784158433612246 -0.037036631179277232 0 -0.019238860650351228 -0.03833584881253875 0 -0.01873490105384145 -0.037169053034443247 0 -0.017906454865166767 -0.037889782066227104 0 -0.014904719001565009 -0.036767495426823428 0 -0.015435462358715124 -0.036688137789685625 0 -0.01873490105384145 -0.037169053034443247 0 -0.017906454865166767 -0.037889782066227104 0 -0.017958610050100802 -0.036315480260313178 0 -0.017656332022799398 -0.037904314439539476 0 -0.017958610050100802 -0.036315480260313178 0 -0.016151336486828323 -0.036720378034807995 0 -0.017958610050100802 -0.036315480260313178 0 -0.017968706146385963 -0.034999713900876167 0 -0.019155236240127969 -0.036044941134590787 0 -0.017958610050100802 -0.036315480260313178 0 -0.017968706146385963 -0.034999713900876167 0 -0.016794977105500528 -0.035697787925738356 0 -0.017968706146385963 -0.034999713900876167 0 -0.019155236240127969 -0.036044941134590787 0 -0.019889421986538227 -0.034999972942859815 0 -0.01873490105384145 -0.037169053034443247 0 -0.017958610050100802 -0.036315480260313178 0 -0.019155236240127969 -0.036044941134590787 0 -0.01873490105384145 -0.037169053034443247 0 -0.019155236240127969 -0.036044941134590787 0 -0.019784158433612246 -0.037036631179277232 0 -0.019784158433612246 -0.037036631179277232 0 -0.020412174831276463 -0.035932185946496387 0 -0.020862093530788096 -0.03687106389748477 0 -0.019155236240127969 -0.036044941134590787 0 -0.019784158433612246 -0.037036631179277232 0 -0.020412174831276463 -0.035932185946496387 0 -0.019889421986538227 -0.034999972942859815 0 -0.020412174831276463 -0.035932185946496387 0 -0.021810057841151784 -0.034999952965828231 0 -0.019155236240127969 -0.036044941134590787 0 -0.019889421986538227 -0.034999972942859815 0 -0.020412174831276463 -0.035932185946496387 0 -0.020412174831276463 -0.035932185946496387 0 -0.021810057841151784 -0.034999952965828231 0 -0.021401804139987567 -0.036140428194644879 0 -0.021401804139987567 -0.036140428194644879 0 -0.020862093530788096 -0.03687106389748477 0 -0.021983757916203571 -0.036833760705310942 0 -0.020412174831276463 -0.035932185946496387 0 -0.021401804139987567 -0.036140428194644879 0 -0.020862093530788096 -0.03687106389748477 0 -0.020862093530788096 -0.03687106389748477 0 -0.021417062919684128 -0.037567274016642151 0 -0.021983757916203571 -0.036833760705310942 0 -0.021417062919684128 -0.037567274016642151 0 -0.021200346347740918 -0.03848572640002082 0 -0.021913830481055559 -0.038136090419633555 0 -0.021417062919684128 -0.037567274016642151 0 -0.020470597357385073 -0.037860973111163293 0 -0.021200346347740918 -0.03848572640002082 0 -0.020862093530788096 -0.03687106389748477 0 -0.021417062919684128 -0.037567274016642151 0 -0.020470597357385073 -0.037860973111163293 0 -0.019238860650351228 -0.03833584881253875 0 -0.019784158433612246 -0.037036631179277232 0 -0.020470597357385073 -0.037860973111163293 0 -0.019784158433612246 -0.037036631179277232 0 -0.020862093530788096 -0.0368710