<?xml version="1.0"?>
<VTKFile type="UnstructuredGrid" version="0.1" byte_order="LittleEndian">
<UnstructuredGrid>
<Piece NumberOfPoints="31898" NumberOfCells="11152">
<Points>
<DataArray type="Float64" NumberOfComponents="3" format="ascii">
-0.5 -0.5 0 -0.47620991077874902 -0.44978878706170539 0 -0.49999999999999473 -0.42132396840504388 0 -0.5 -0.5 0 -0.47160970827802529 -0.4793630013852106 0 -0.47620991077874902 -0.44978878706170539 0 -0.5 -0.5 0 -0.47160970827802529 -0.4793630013852106 0 -0.44860394795025399 -0.5 0 -0.47160970827802529 -0.4793630013852106 0 -0.44860394795025399 -0.5 0 -0.4490820238307246 -0.45820516232899983 0 -0.44860394795025399 -0.5 0 -0.4490820238307246 -0.45820516232899983 0 -0.42881687682924802 -0.47781464288736519 0 -0.4490820238307246 -0.45820516232899983 0 -0.45555437223955858 -0.42914059360647611 0 -0.4490820238307246 -0.45820516232899983 0 -0.45555437223955858 -0.42914059360647611 0 -0.43867285131603428 -0.4271457417558665 0 -0.4490820238307246 -0.45820516232899983 0 -0.43867285131603428 -0.4271457417558665 0 -0.4263356171060747 -0.44269880333887462 0 -0.47160970827802529 -0.4793630013852106 0 -0.4490820238307246 -0.45820516232899983 0 -0.47620991077874902 -0.44978878706170539 0 -0.4490820238307246 -0.45820516232899983 0 -0.47620991077874902 -0.44978878706170539 0 -0.45555437223955858 -0.42914059360647611 0 -0.47620991077874902 -0.44978878706170539 0 -0.48101336032419229 -0.41069999664450008 0 -0.45555437223955858 -0.42914059360647611 0 -0.47620991077874902 -0.44978878706170539 0 -0.49999999999999473 -0.42132396840504388 0 -0.48101336032419229 -0.41069999664450008 0 -0.49999999999999473 -0.42132396840504388 0 -0.48101336032419229 -0.41069999664450008 0 -0.5 -0.393886241813306 0 -0.49999999999999473 -0.42132396840504388 0 -0.48101336032419229 -0.41069999664450008 0 -0.5 -0.393886241813306 0 -0.47854472220918332 -0.38978458738689759 0 -0.48422759779560409 -0.37130120630367158 0 -0.5 -0.393886241813306 0 -0.5 -0.36644851522156802 0 -0.48422759779560409 -0.37130120630367158 0 -0.48101336032419229 -0.41069999664450008 0 -0.5 -0.393886241813306 0 -0.47854472220918332 -0.38978458738689759 0 -0.48101336032419229 -0.41069999664450008 0 -0.47854472220918332 -0.38978458738689759 0 -0.46202672064839212 -0.40007602488395211 0 -0.48101336032419229 -0.41069999664450008 0 -0.46202672064839212 -0.40007602488395211 0 -0.47854472220918332 -0.38978458738689759 0 -0.46725442735267431 -0.37660061361585562 0 -0.46202672064839212 -0.40007602488395211 0 -0.47854472220918332 -0.38978458738689759 0 -0.46725442735267431 -0.37660061361585562 0 -0.48422759779560409 -0.37130120630367158 0 -0.46725442735267431 -0.37660061361585562 0 -0.46202672064839212 -0.40007602488395211 0 -0.46725442735267431 -0.37660061361585562 0 -0.45645674801697989 -0.38644133236760531 0 -0.46202672064839212 -0.40007602488395211 0 -0.46725442735267431 -0.37660061361585562 0 -0.45645674801697989 -0.38644133236760531 0 -0.4540003998136638 -0.37455519391687309 0 -0.45645674801697989 -0.38644133236760531 0 -0.46202672064839212 -0.40007602488395211 0 -0.44257020456291563 -0.38918913383950271 0 -0.46202672064839212 -0.40007602488395211 0 -0.44257020456291563 -0.38918913383950271 0 -0.44727608925983742 -0.41095911152778891 0 -0.46202672064839212 -0.40007602488395211 0 -0.44257020456291563 -0.38918913383950271 0 -0.44257020456291563 -0.38918913383950271 0 -0.44727608925983742 -0.41095911152778891 0 -0.43479358559901082 -0.4041454901736512 0 -0.44257020456291563 -0.38918913383950271 0 -0.4540003998136638 -0.37455519391687309 0 -0.44172858264042247 -0.37082207246888088 0 -0.45645674801697989 -0.38644133236760531 0 -0.44257020456291563 -0.38918913383950271 0 -0.4540003998136638 -0.37455519391687309 0 -0.46202672064839212 -0.40007602488395211 0 -0.45555437223955858 -0.42914059360647611 0 -0.44727608925983742 -0.41095911152778891 0 -0.46202672064839212 -0.40007602488395211 0 -0.45555437223955858 -0.42914059360647611 0 -0.48101336032419229 -0.41069999664450008 0 -0.46202672064839212 -0.40007602488395211 0 -0.45555437223955858 -0.42914059360647611 0 -0.44727608925983742 -0.41095911152778891 0 -0.43867285131603428 -0.4271457417558665 0 -0.43676601469929588 -0.41441201227470881 0 -0.44727608925983742 -0.41095911152778891 0 -0.43676601469929588 -0.41441201227470881 0 -0.43479358559901082 -0.4041454901736512 0 -0.45555437223955858 -0.42914059360647611 0 -0.44727608925983742 -0.41095911152778891 0 -0.43867285131603428 -0.4271457417558665 0 -0.43867285131603428 -0.4271457417558665 0 -0.42681803064840879 -0.42717069814352421 0 -0.4263356171060747 -0.44269880333887462 0 -0.42681803064840879 -0.42717069814352421 0 -0.41531815884496182 -0.42985383783075998 0 -0.4263356171060747 -0.44269880333887462 0 -0.42681803064840879 -0.42717069814352421 0 -0.42624289495594048 -0.42089725947505818 0 -0.42083332353326591 -0.42146747131641099 0 -0.42681803064840879 -0.42717069814352421 0 -0.43096994786351572 -0.41951492446283251 0 -0.42624289495594048 -0.42089725947505818 0 -0.43867285131603428 -0.4271457417558665 0 -0.42681803064840879 -0.42717069814352421 0 -0.43096994786351572 -0.41951492446283251 0 -0.43867285131603428 -0.4271457417558665 0 -0.43676601469929588 -0.41441201227470881 0 -0.43096994786351572 -0.41951492446283251 0 -0.43676601469929588 -0.41441201227470881 0 -0.43096994786351572 -0.41951492446283251 0 -0.42907264086257813 -0.41311715872526122 0 -0.43676601469929588 -0.41441201227470881 0 -0.42907264086257813 -0.41311715872526122 0 -0.43479358559901082 -0.4041454901736512 0 -0.42907264086257813 -0.41311715872526122 0 -0.43479358559901082 -0.4041454901736512 0 -0.42460885511582858 -0.40417321677700252 0 -0.42907264086257813 -0.41311715872526122 0 -0.41997834854398469 -0.41180534796019508 0 -0.42907264086257813 -0.41311715872526122 0 -0.42635027777857132 -0.41543594397746519 0 -0.41997834854398469 -0.41180534796019508 0 -0.42907264086257813 -0.41311715872526122 0 -0.41997834854398469 -0.41180534796019508 0 -0.42460885511582858 -0.40417321677700252 0 -0.42635027777857132 -0.41543594397746519 0 -0.41997834854398469 -0.41180534796019508 0 -0.42635027777857132 -0.41543594397746519 0 -0.42083332353326591 -0.42146747131641099 0 -0.41997834854398469 -0.41180534796019508 0 -0.43096994786351572 -0.41951492446283251 0 -0.42624289495594048 -0.42089725947505818 0 -0.42635027777857132 -0.41543594397746519 0 -0.43096994786351572 -0.41951492446283251 0 -0.42907264086257813 -0.41311715872526122 0 -0.42635027777857132 -0.41543594397746519 0 -0.42624289495594048 -0.42089725947505818 0 -0.42635027777857132 -0.41543594397746519 0 -0.42083332353326591 -0.42146747131641099 0 -0.42083332353326591 -0.42146747131641099 0 -0.41997834854398469 -0.41180534796019508 0 -0.40992282953163789 -0.42011435591993562 0 -0.41997834854398469 -0.41180534796019508 0 -0.39756877647335259 -0.40857286797681719 0 -0.41997834854398469 -0.41180534796019508 0 -0.40992282953163789 -0.42011435591993562 0 -0.39756877647335259 -0.40857286797681719 0 -0.40992282953163789 -0.42011435591993562 0 -0.41531815884496182 -0.42985383783075998 0 -0.39591554026262499 -0.42887225451549271 0 -0.41531815884496182 -0.42985383783075998 0 -0.39591554026262499 -0.42887225451549271 0 -0.41160927495564159 -0.44339431233754628 0 -0.42083332353326591 -0.42146747131641099 0 -0.40992282953163789 -0.42011435591993562 0 -0.41531815884496182 -0.42985383783075998 0 -0.42681803064840879 -0.42717069814352421 0 -0.42083332353326591 -0.42146747131641099 0 -0.41531815884496182 -0.42985383783075998 0 -0.44257020456291563 -0.38918913383950271 0 -0.42311368847744002 -0.37830224279505142 0 -0.42594061475171041 -0.39368797999533162 0 -0.44257020456291563 -0.38918913383950271 0 -0.42311368847744002 -0.37830224279505142 0 -0.44172858264042247 -0.37082207246888088 0 -0.44257020456291563 -0.38918913383950271 0 -0.42311368847744002 -0.37830224279505142 0 -0.42311368847744002 -0.37830224279505142 0 -0.42594061475171041 -0.39368797999533162 0 -0.416587075656149 -0.38785930376960043 0 -0.44257020456291563 -0.38918913383950271 0 -0.42594061475171041 -0.39368797999533162 0 -0.43479358559901082 -0.4041454901736512 0 -0.42594061475171041 -0.39368797999533162 0 -0.43479358559901082 -0.4041454901736512 0 -0.42460885511582858 -0.40417321677700252 0 -0.41997834854398469 -0.41180534796019508 0 -0.41325908582185972 -0.39811010703057192 0 -0.39770572831670092 -0.39911486077581648 0 -0.41997834854398469 -0.41180534796019508 0 -0.39770572831670092 -0.39911486077581648 0 -0.42594061475171041 -0.39368797999533162 0 -0.42460885511582858 -0.40417321677700252 0 -0.41325908582185972 -0.39811010703057192 0 -0.41997834854398469 -0.41180534796019508 0 -0.42460885511582858 -0.40417321677700252 0 -0.41325908582185972 -0.39811010703057192 0 -0.42594061475171041 -0.39368797999533162 0 -0.41325908582185972 -0.39811010703057192 0 -0.416587075656149 -0.38785930376960043 0 -0.41325908582185972 -0.39811010703057192 0 -0.416587075656149 -0.38785930376960043 0 -0.40403491357358612 -0.38133688525744702 0 -0.42311368847744002 -0.37830224279505142 0 -0.40403491357358612 -0.38133688525744702 0 -0.40365717239196519 -0.36741535175059892 0 -0.42311368847744002 -0.37830224279505142 0 -0.416587075656149 -0.38785930376960043 0 -0.40403491357358612 -0.38133688525744702 0 -0.40403491357358612 -0.38133688525744702 0 -0.39190790742475001 -0.38540387676521748 0 -0.39770572831670092 -0.39911486077581648 0 -0.40403491357358612 -0.38133688525744702 0 -0.39190790742475001 -0.38540387676521748 0 -0.3904578797192948 -0.37473938743617019 0 -0.41325908582185972 -0.39811010703057192 0 -0.40403491357358612 -0.38133688525744702 0 -0.39770572831670092 -0.39911486077581648 0 -0.39770572831670092 -0.39911486077581648 0 -0.37543310808941849 -0.38642437359143528 0 -0.39770572831670092 -0.39911486077581648 0 -0.37515920440272033 -0.40534038799344108 0 -0.37543310808941849 -0.38642437359143528 0 -0.39770572831670092 -0.39911486077581648 0 -0.37515920440272033 -0.40534038799344108 0 -0.39756877647335259 -0.40857286797681719
[...]
<PointData Scalars="" Vectors="displacement," Tensors="">
<DataArray type="Float64" Name="displacement" NumberOfComponents="3" format="ascii">
-0.03499712934929175 -2.7115181732021775e-07 0 -0.034118446093848558 -0.00018145134367305468 0 -0.034997660473840446 -7.4666265717062975e-07 0 -0.03499712934929175 -2.7115181732021775e-07 0 -0.033473092849914503 -0.00012196210419827345 0 -0.034118446093848558 -0.00018145134367305468 0 -0.03499712934929175 -2.7115181732021775e-07 0 -0.033473092849914503 -0.00012196210419827345 0 -0.031404214762247244 -2.7465961586645163e-07 0 -0.033473092849914503 -0.00012196210419827345 0 -0.031404214762247244 -2.7465961586645163e-07 0 -0.032858242748848555 6.7017019868929051e-05 0 -0.031404214762247244 -2.7465961586645163e-07 0 -0.032858242748848555 6.7017019868929051e-05 0 -0.031216269539504363 -6.7632657447190295e-05 0 -0.033206354411572839 0.00019931287463542541 0 -0.033393244191304565 0.00019792708349959833 0 -0.032858242748848555 6.7017019868929051e-05 0 -0.032312308724081605 0.0002996595261278536 0 -0.032261274580121388 9.6073480205869209e-05 0 -0.032858242748848555 6.7017019868929051e-05 0 -0.032261274580121388 9.6073480205869209e-05 0 -0.032287142256438035 1.4325058045479577e-05 0 -0.033473092849914503 -0.00012196210419827345 0 -0.032858242748848555 6.7017019868929051e-05 0 -0.034118446093848558 -0.00018145134367305468 0 -0.032858242748848555 6.7017019868929051e-05 0 -0.034118446093848558 -0.00018145134367305468 0 -0.034444033710095273 0.0002615292168739501 0 -0.034118446093848558 -0.00018145134367305468 0 -0.034882682273598101 -3.2420254678966377e-05 0 -0.034444033710095273 0.0002615292168739501 0 -0.034118446093848558 -0.00018145134367305468 0 -0.034997660473840446 -7.4666265717062975e-07 0 -0.034882682273598101 -3.2420254678966377e-05 0 -0.034999999242045894 6.3663273841852986e-11 0 -0.034999042104390442 -3.4827325747491374e-07 0 -0.034999998881827671 -4.4365414009732638e-10 0 -0.034998984670559938 3.9222304876593181e-07 0 -0.034497219232827017 0.00012279681929865298 0 -0.034999998881827671 -4.4365414009732638e-10 0 -0.034998863239103742 -6.0792745914428413e-07 0 -0.034999555715672231 -9.4727140427785915e-07 0 -0.034999998881827671 -4.4365414009732638e-10 0 -0.034999997952991704 -1.3480626035952415e-09 0 -0.034999555715672231 -9.4727140427785915e-07 0 -0.034999042104390442 -3.4827325747491374e-07 0 -0.034999998881827671 -4.4365414009732638e-10 0 -0.034998863239103742 -6.0792745914428413e-07 0 -0.034999042104390442 -3.4827325747491374e-07 0 -0.034998863239103742 -6.0792745914428413e-07 0 -0.034997591145136626 -5.374163319509067e-07 0 -0.034497219232827017 0.00012279681929865298 0 -0.033723232768986686 0.00013957878197138693 0 -0.034998863239103742 -6.0792745914428413e-07 0 -0.034998622725097329 -6.8106007947453216e-07 0 -0.034997591145136626 -5.374163319509067e-07 0 -0.034998863239103742 -6.0792745914428413e-07 0 -0.034998622725097329 -6.8106007947453216e-07 0 -0.034999555715672231 -9.4727140427785915e-07 0 -0.034270912550788374 4.9921023903064863e-05 0 -0.033723232768986686 0.00013957878197138693 0 -0.033720189896065046 0.00011434100397216641 0 -0.033537572186289839 0.00032357272189793672 0 -0.033280817179866966 0.00021916268845305247 0 -0.033720189896065046 0.00011434100397216641 0 -0.033537572186289839 0.00032357272189793672 0 -0.033764557127147148 0.00037308441754626854 0 -0.033537572186289839 0.00032357272189793672 0 -0.033280817179866966 0.00021916268845305247 0 -0.033488593369284114 0.00058521250706553821 0 -0.032060927964899018 0.00033939178083798523 0 -0.031967956264241849 0.00018197170565352431 0 -0.032153878035652027 0.00021045989210946581 0 -0.033723232768986686 0.00013957878197138693 0 -0.032916909970503935 0.00038047939104263564 0 -0.031967956264241849 0.00018197170565352431 0 -0.032153878035652027 0.00021045989210946581 0 -0.032103333304400149 0.00011405025819426875 0 -0.033488593369284114 0.00058521250706553821 0 -0.033764557127147148 0.00037308441754626854 0 -0.033833577820375646 0.00060153295149735411 0 -0.033537572186289839 0.00032357272189793672 0 -0.033488593369284114 0.00058521250706553821 0 -0.033764557127147148 0.00037308441754626854 0 -0.032060927964899018 0.00033939178083798523 0 -0.032312308724081605 0.0002996595261278536 0 -0.032153878035652027 0.00021045989210946581 0 -0.033723232768986686 0.00013957878197138693 0 -0.033393244191304565 0.00019792708349959833 0 -0.034882682273598101 -3.2420254678966377e-05 0 -0.035004209713545384 0.00023439978923912416 0 -0.034444033710095273 0.0002615292168739501 0 -0.032153878035652027 0.00021045989210946581 0 -0.032261274580121388 9.6073480205869209e-05 0 -0.032194637982790215 0.0001210389751643047 0 -0.032153878035652027 0.00021045989210946581 0 -0.032194637982790215 0.0001210389751643047 0 -0.032103333304400149 0.00011405025819426875 0 -0.032312308724081605 0.0002996595261278536 0 -0.032153878035652027 0.00021045989210946581 0 -0.032261274580121388 9.6073480205869209e-05 0 -0.032261274580121388 9.6073480205869209e-05 0 -0.032262397074772589 7.0926983430789824e-05 0 -0.032287142256438035 1.4325058045479577e-05 0 -0.032262397074772589 7.0926983430789824e-05 0 -0.032265195058869316 0.00013209024799932053 0 -0.032287142256438035 1.4325058045479577e-05 0 -0.032262397074772589 7.0926983430789824e-05 0 -0.03224911799785677 7.7276019276654095e-05 0 -0.032258021457251713 9.7327713611645577e-05 0 -0.032262397074772589 7.0926983430789824e-05 0 -0.032237777608959316 8.3726171660841647e-05 0 -0.03224911799785677 7.7276019276654095e-05 0 -0.032261274580121388 9.6073480205869209e-05 0 -0.032262397074772589 7.0926983430789824e-05 0 -0.032237777608959316 8.3726171660841647e-05 0 -0.032261274580121388 9.6073480205869209e-05 0 -0.032194637982790215 0.0001210389751643047 0 -0.032237777608959316 8.3726171660841647e-05 0 -0.032194637982790215 0.0001210389751643047 0 -0.032237777608959316 8.3726171660841647e-05 0 -0.032203333845316824 7.4906982175007792e-05 0 -0.032194637982790215 0.0001210389751643047 0 -0.032203333845316824 7.4906982175007792e-05 0 -0.032103333304400149 0.00011405025819426875 0 -0.032203333845316824 7.4906982175007792e-05 0 -0.032103333304400149 0.00011405025819426875 0 -0.03210378921053194 2.2352052524202966e-05 0 -0.028987727511522492 0.00086480498738290758 0 -0.02888295267441018 0.00092720760696429576 0 -0.032203333845316824 7.4906982175007792e-05 0 -0.032236345412736782 6.6007826142890433e-05 0 -0.032213187185231348 2.4005042891688954e-05 0 -0.032203333845316824 7.4906982175007792e-05 0 -0.032181567944917271 -2.3222262374290584e-05 0 -0.03210378921053194 2.2352052524202966e-05 0 -0.028982063421125442 0.000957907605619567 0 -0.02888295267441018 0.00092720760696429576 0 -0.032236345412736782 6.6007826142890433e-05 0 -0.032258021457251713 9.7327713611645577e-05 0 -0.032282079786407215 0.00010312721054894489 0 -0.032237777608959316 8.3726171660841647e-05 0 -0.03224911799785677 7.7276019276654095e-05 0 -0.032236345412736782 6.6007826142890433e-05 0 -0.032237777608959316 8.3726171660841647e-05 0 -0.032203333845316824 7.4906982175007792e-05 0 -0.032236345412736782 6.6007826142890433e-05 0 -0.03224911799785677 7.7276019276654095e-05 0 -0.032236345412736782 6.6007826142890433e-05 0 -0.032258021457251713 9.7327713611645577e-05 0 -0.032258021457251713 9.7327713611645577e-05 0 -0.032282079786407215 0.00010312721054894489 0 -0.032268435878883422 0.00014562581758716578 0 -0.02888295267441018 0.00092720760696429576 0 -0.028115068542708097 0.00075491873142099044 0 -0.032282079786407215 0.00010312721054894489 0 -0.032268435878883422 0.00014562581758716578 0 -0.032300745224932204 0.00019481810294925484 0 -0.032268435878883422 0.00014562581758716578 0 -0.032265195058869316 0.00013209024799932053 0 -0.032242932356865352 0.0002062248977088817 0 -0.032265195058869316 0.00013209024799932053 0 -0.032242932356865352 0.0002062248977088817 0 -0.032220864782244472 0.00020437295093847011 0 -0.032258021457251713 9.7327713611645577e-05 0 -0.032268435878883422 0.00014562581758716578 0 -0.032265195058869316 0.00013209024799932053 0 -0.032262397074772589 7.0926983430789824e-05 0 -0.032258021457251713 9.7327713611645577e-05 0 -0.032265195058869316 0.00013209024799932053 0 -0.031967956264241849 0.00018197170565352431 0 -0.031848493511337519 7.9706025559200341e-06 0 -0.032001360590922907 3.375207526273929e-05 0 -0.033488593369284114 0.00058521250706553821 0 -0.033693676162875517 0.00094120870392838565 0 -0.033833577820375646 0.00060153295149735411 0 -0.032916909970503935 0.00038047939104263564 0 -0.032275138112067336 0.00076964960786544132 0 -0.031848493511337519 7.9706025559200341e-06 0 -0.032001360590922907 3.375207526273929e-05 0 -0.031939218255996028 -5.5006645479812329e-05 0 -0.031967956264241849 0.00018197170565352431 0 -0.032001360590922907 3.375207526273929e-05 0 -0.032103333304400149 0.00011405025819426875 0 -0.032001360590922907 3.375207526273929e-05 0 -0.032103333304400149 0.00011405025819426875 0 -0.03210378921053194 2.2352052524202966e-05 0 -0.032181567944917271 -2.3222262374290584e-05 0 -0.032041241925660241 -8.8195236622925455e-05 0 -0.032048828241103978 -0.00024362760655590167 0 -0.02888295267441018 0.00092720760696429576 0 -0.028239323847770177 0.0010684111166606725 0 -0.032001360590922907 3.375207526273929e-05 0 -0.03210378921053194 2.2352052524202966e-05 0 -0.032041241925660241 -8.8195236622925455e-05 0 -0.032181567944917271 -2.3222262374290584e-05 0 -0.03210378921053194 2.2352052524202966e-05 0 -0.032041241925660241 -8.8195236622925455e-05 0 -0.032001360590922907 3.375207526273929e-05 0 -0.032041241925660241 -8.8195236622925455e-05 0 -0.031939218255996028 -5.5006645479812329e-05 0 -0.032041241925660241 -8.8195236622925455e-05 0 -0.031939218255996028 -5.5006645479812329e-05 0 -0.031866257960903616 -0.0001747877308305523 0 -0.031848493511337519 7.9706025559200341e-06 0 -0.031866257960903616 -0.0001747877308305523 0 -0.031735473855305132 -0.00017669989061366671 0 -0.031848493511337519 7.9706025559200341e-06 0 -0.031939218255996028 -5.5006645479812329e-05 0 -0.031866257960903616 -0.0001747877308305523 0 -0.031866257960903616 -0.0001747877308305523 0 -0.0319021789892849 -0.0003072165006234063 0 -0.032048828241103978 -0.00024362760655590167 0 -0.031866257960903616 -0.0001747877308305523 0 -0.0319021789892849 -0.0003072165006234063 0 -0.03178289869285425 -0.00032353322005708619 0 -0.032041241925660241 -8.8195236622925455e-05 0 -0.031866257960903616 -0.0001747877308305523 0 -0.032048828241103978 -0.00024362760655590167 0 -0.028239323847770177 0.0010684111166606725 0 -0.026496723776713742 0.0012716154093581589 0 -0.027552987542835722 0.00095402723811814844 0 -0.027639170450784616 0.0006346099155400734 0 -0.027370943515096998 0.00063882427439910865 0 -0.027552987542835722 0.00095402723811814844 0 -0.027639170450784616 0.0006346099155400734 0 -0.027687244050196361 0.00095195085639516151 0 -0.026498458272896024 0.00050862265384587753 0 -0.026496723776713742 0.0012716154093581589 0 -0.0319088628279895 -0.00048893740753566965 0 -0.03178289869285425 -0.00032353322005708619 0 -0.031715377422763411 -0.00048948686717939862 0 -0.0319021789892849 -0.0003072165006234063 0 -0.0319088628279895 -0.00048893740753566965 0 -0.03178289869285425 -0.00032353322005708619 0 -0.026496723776713742 0.0012716154093581589 0 -0.028130455287644046 0.0012306735753978314 0 -0.0319021789892849 -0.0003072165006234063 0 -0.032048828241103978 -0.00024362760655590167 0 -0.0319088628279895 -0.00048893740753566965 0 -0.027736305123977581 0.0012688099444110208 0 -0.027552987542835722 0.00095402723811814844 0 -0.027687244050196361 0.00095195085639516151 0 -0.032268435878883422 0.00014562581758716578 0 -0.032242932356865352 0.0002062248977088817 0 -0.032300745224932204 0.00019481810294925484 0 -0.032298865069766473 0.00026035934721421744 0 -0.032242932356865352 0.0002062248977088817 0 -0.032300745224932204 0.00019481810294925484 0 -0.026498458272896024 0.00050862265384587753 0 -0.028115068542708097 0.00075491873142099044 0 -0.032298865069766473 0.00026035934721421744 0 -0.032242932356865352 0.0002062248977088817 0 -0.032222690431063392 0.00026167659817834715 0 -0.032242932356865352 0.0002062248977088817 0 -0.032204536267458526 0.00022173166239396042 0 -0.032222690431063392 0.00026167659817834715 0 -0.032204536267458526 0.00022173166239396042 0 -0.032153140826476183 0.00026532545268844631 0 -0.032222690431063392 0.00026167659817834715 0 -0.032242932356865352 0.0002062248977088817 0 -0.032204536267458526 0.00022173166239396042 0 -0.032220864782244472 0.00020437295093847011 0 -0.032204536267458526 0.00022173166239396042 0 -0.032185109630964506 0.00020667042191274102 0 -0.032220864782244472 0.00020437295093847011 0 -0.031709551202447353 0.00064018454153341189 0 -0.029710756364022921 0.00074408814157475838 0 -0.031080749639192669 0.00022300917846605008 0 -0.023721776245495062 0.0017000258507672114 0 -0.023942026609525522 0.00087059084461380595 0 -0.024912925635496609 0.001068264975978932 0 -0.028326858749305541 -0.00055122858859076973 0 -0.027406096911476937 -3.3663754051339313e-05 0 -0.028326858749305541 -0.00055122858859076973 0 -0.028336189744370733 -0.000547724439732234 0 -0.028326858749305541 -0.00055122858859076973 0 -0.027573678070137591 0.00018765765831052429 0 -0.032204536267458526 0.00022173166239396042 0 -0.032185109630964506 0.00020667042191274102 0 -0.032168070997954115 0.00023164704350938316 0 -0.032204536267458526 0.00022173166239396042 0 -0.032168070997954115 0.00023164704350938316 0 -0.032153140826476183 0.00026532545268844631 0 -0.027573678070137591 0.00018765765831052429 0 -0.026765955132343474 0.00071019173798444882 0 -0.023942026609525522 0.00087059084461380595 0 -0.024505720432297821 0.00056735026448135196 0 -0.024164122079909988 2.561369351927347e-05 0 -0.024505720432297821 0.00056735026448135196 0 -0.024912925635496609 0.001068264975978932 0 -0.02482890325076673 8.2390490484170768e-06 0 -0.024912925635496609 0.001068264975978932 0 -0.025527980008896334 -0.00012705102213001997 0 -0.02482890325076673 8.2390490484170768e-06 0 -0.024505720432297821 0.00056735026448135196 0 -0.02482890325076673 8.2390490484170768e-06 0 -0.024164122079909988 2.561369351927347e-05 0 -0.023942026609525522 0.00087059084461380595 0 -0.024505720432297821 0.00056735026448135196 0 -0.024912925635496609 0.001068264975978932 0 -0.026667569825145777 2.1231229295381416e-07 0 -0.027406096911476937 -3.3663754051339313e-05 0 -0.026663350971092632 1.8128823450700603e-06 0 -0.024912925635496609 0.001068264975978932 0 -0.025527980008896334 -0.00012705102213001997 0 -0.02666974107974002 2.8406734593131067e-06 0 -0.029710756364022921 0.00074408814157475838 0 -0.028698740935164981 -4.9340859674812307e-07 0 -0.029710756364022921 0.00074408814157475838 0 -0.031080749639192669 0.00022300917846605008 0 -0.028698740935164981 -4.9340859674812307e-07 0 -0.031080749639192669 0.00022300917846605008 0 -0.028698740935164981 -4.9340859674812307e-07 0 -0.031216269539504363 -6.7632657447190295e-05 0 -0.031404214762247244 -2.7465961586645163e-07 0 -0.028698740935164981 -4.9340859674812307e-07 0 -0.031216269539504363 -6.7632657447190295e-05 0 -0.031080749639192669 0.00022300917846605008 0 -0.031216269539504363 -6.7632657447190295e-05 0 -0.031956503648068665 2.7639801440545528e-05 0 -0.032858242748848555 6.7017019868929051e-05 0 -0.031216269539504363 -6.7632657447190295e-05 0 -0.031956503648068665 2.7639801440545528e-05 0 -0.032858242748848555 6.7017019868929051e-05 0 -0.031956503648068665 2.7639801440545528e-05 0 -0.032287142256438035 1.4325058045479577e-05 0 -0.031956503648068665 2.7639801440545528e-05 0 -0.032287142256438035 1.4325058045479577e-05 0 -0.031972892724401729 0.00015418824036261637 0 -0.032287142256438035 1.4325058045479577e-05 0 -0.032220864782244472 0.00020437295093847011 0 -0.031972892724401729 0.00015418824036261637 0 -0.032265195058869316 0.00013209024799932053 0 -0.032287142256438035 1.4325058045479577e-05 0 -0.032220864782244472 0.00020437295093847011 0 -0.031750042543522414 0.00061346377360511775 0 -0.032220864782244472 0.00020437295093847011 0 -0.031771152140083553 0.00050811068143906889 0 -0.032220864782244472 0.00020437295093847011 0 -0.031771152140083553 0.00050811068143906889 0 -0.031972892724401729 0.00015418824036261637 0 -0.028326858749305541 -0.00055122858859076973 0 -0.029268353953051347 -0.00078250069337231279 0 -0.031080749639192669 0.00022300917846605008 0 -0.031771152140083553 0.00050811068143906889 0 -0.031972892724401729 0.00015418824036261637 0 -0.031709551202447353 0.00064018454153341189 0 -0.031080749639192669 0.00022300917846605008 0 -0.031771152140083553 0.00050811068143906889 0 -0.031080749639192669 0.00022300917846605008 0 -0.031956503648068665 2.7639801440545528e-05 0 -0.031972892724401729 0.00015418824036261637 0 -0.032293872309467168 0.00044690347156451878 0 -0.030811784971001545 0.0015645488447961677 0 -0.034778576871005613 -0.0003013431507003904 0 -0.034822953786173401 -0.0013390582953612176 0 -0.034266631189381919 -0.0004981142670557032 0 -0.034940804796504445 7.2192405865515976e-05 0 -0.034948017431182796 5.5360085786696145e-05 0 -0.034952557729889151 9.0070595581745892e-05 0 -0.034940804796504445 7.2192405865515976e-05 0 -0.034935944601368701 0.00010093855584239146 0 -0.034952557729889151 9.0070595581745892e-05 0 -0.034940804796504445 7.2192405865515976e-05 0 -0.034924681198122698 0.00010376705715740688 0 -0.034935944601368701 0.00010093855584239146 0 -0.034940804796504445 7.2192405865515976e-05 0 -0.034940354901227128 4.2947172503616549e-05 0 -0.034952146001128157 4.0259454274758939e-05 0 -0.034940804796504445 7.2192405865515976e-05 0 -0.034940354901227128 4.2947172503616549e-05 0 -0.034948017431182796 5.5360085786696145e-05 0 -0.032293872309467168 0.00044690347156451878 0 -0.032741206655935461 0.00030429120555449708 0 -0.034940354901227128 4.2947172503616549e-05 0 -0.034948017431182796 5.5360085786696145e-05 0 -0.034892946083532009 5.1365053050257465e-05 0 -0.034778576871005613 -0.0003013431507003904 0 -0.034892946083532009 5.1365053050257465e-05 0 -0.034334217411953034 4.9913743147950263e-05 0 -0.034892946083532009 5.1365053050257465e-05 0 -0.034999891470066817 1.0721007176069329e-07 0 -0.034960818551942031 3.2155309637831501e-05 0 -0.034892946083532009 5.1365053050257465e-05 0 -0.034999891470066817 1.0721007176069329e-07 0 -0.03474073035153722 6.3234644791944255e-05 0 -0.034999891470066817 1.0721007176069329e-07 0 -0.034960818551942031 3.2155309637831501e-05 0 -0.034999943199671348 -1.9945232671931307e-09 0 -0.034940354901227128 4.2947172503616549e-05 0 -0.034892946083532009 5.1365053050257465e-05 0 -0.034960818551942031 3.2155309637831501e-05 0 -0.034940354901227128 4.2947172503616549e-05 0 -0.034960818551942031 3.2155309637831501e-05 0 -0.034952146001128157 4.0259454274758939e-05 0 -0.034952146001128157 4.0259454274758939e-05 0 -0.034971093606291158 9.8683032918995035e-06 0 -0.034946460005997645 3.0165566145346353e-05 0 -0.034960818551942031 3.2155309637831501e-05 0 -0.034952146001128157 4.0259454274758939e-05 0 -0.034971093606291158 9.8683032918995035e-06 0 -0.034999943199671348 -1.9945232671931307e-09 0 -0.034971093606291158 9.8683032918995035e-06 0 -0.034999945269838108 8.5802841619034997e-09 0 -0.034960818551942031 3.2155309637831501e-05 0 -0.034999943199671348 -1.9945232671931307e-09 0 -0.034971093606291158 9.8683032918995035e-06 0 -0.034971093606291158 9.8683032918995035e-06 0 -0.034999945269838108 8.5802841619034997e-09 0 -0.034960468779615325 -6.4330441428751886e-06 0 -0.034960468779615325 -6.4330441428751886e-06 0 -0.034946460005997645 3.0165566145346353e-05 0 -0.034885311011326595 2.452199590118601e-05 0 -0.034971093606291158 9.8683032918995035e-06 0 -0.034960468779615325 -6.4330441428751886e-06 0 -0.034946460005997645 3.0165566145346353e-05 0 -0.034946460005997645 3.0165566145346353e-05 0 -0.034902579774901667 6.836215199166755e-05 0 -0.034885311011326595 2.452199590118601e-05 0 -0.034902579774901667 6.836215199166755e-05 0 -0.034897981239524131 0.00