<?xml version="1.0"?>
<VTKFile type="UnstructuredGrid" version="0.1" byte_order="LittleEndian">
<UnstructuredGrid>
<Piece NumberOfPoints="31898" NumberOfCells="11152">
<Points>
<DataArray type="Float64" NumberOfComponents="3" format="ascii">
-0.5 -0.5 0 -0.47620991077874902 -0.44978878706170539 0 -0.49999999999999473 -0.42132396840504388 0 -0.5 -0.5 0 -0.47160970827802529 -0.4793630013852106 0 -0.47620991077874902 -0.44978878706170539 0 -0.5 -0.5 0 -0.47160970827802529 -0.4793630013852106 0 -0.44860394795025399 -0.5 0 -0.47160970827802529 -0.4793630013852106 0 -0.44860394795025399 -0.5 0 -0.4490820238307246 -0.45820516232899983 0 -0.44860394795025399 -0.5 0 -0.4490820238307246 -0.45820516232899983 0 -0.42881687682924802 -0.47781464288736519 0 -0.4490820238307246 -0.45820516232899983 0 -0.45555437223955858 -0.42914059360647611 0 -0.4490820238307246 -0.45820516232899983 0 -0.45555437223955858 -0.42914059360647611 0 -0.43867285131603428 -0.4271457417558665 0 -0.4490820238307246 -0.45820516232899983 0 -0.43867285131603428 -0.4271457417558665 0 -0.4263356171060747 -0.44269880333887462 0 -0.47160970827802529 -0.4793630013852106 0 -0.4490820238307246 -0.45820516232899983 0 -0.47620991077874902 -0.44978878706170539 0 -0.4490820238307246 -0.45820516232899983 0 -0.47620991077874902 -0.44978878706170539 0 -0.45555437223955858 -0.42914059360647611 0 -0.47620991077874902 -0.44978878706170539 0 -0.48101336032419229 -0.41069999664450008 0 -0.45555437223955858 -0.42914059360647611 0 -0.47620991077874902 -0.44978878706170539 0 -0.49999999999999473 -0.42132396840504388 0 -0.48101336032419229 -0.41069999664450008 0 -0.49999999999999473 -0.42132396840504388 0 -0.48101336032419229 -0.41069999664450008 0 -0.5 -0.393886241813306 0 -0.49999999999999473 -0.42132396840504388 0 -0.48101336032419229 -0.41069999664450008 0 -0.5 -0.393886241813306 0 -0.47854472220918332 -0.38978458738689759 0 -0.48422759779560409 -0.37130120630367158 0 -0.5 -0.393886241813306 0 -0.5 -0.36644851522156802 0 -0.48422759779560409 -0.37130120630367158 0 -0.48101336032419229 -0.41069999664450008 0 -0.5 -0.393886241813306 0 -0.47854472220918332 -0.38978458738689759 0 -0.48101336032419229 -0.41069999664450008 0 -0.47854472220918332 -0.38978458738689759 0 -0.46202672064839212 -0.40007602488395211 0 -0.48101336032419229 -0.41069999664450008 0 -0.46202672064839212 -0.40007602488395211 0 -0.47854472220918332 -0.38978458738689759 0 -0.46725442735267431 -0.37660061361585562 0 -0.46202672064839212 -0.40007602488395211 0 -0.47854472220918332 -0.38978458738689759 0 -0.46725442735267431 -0.37660061361585562 0 -0.48422759779560409 -0.37130120630367158 0 -0.46725442735267431 -0.37660061361585562 0 -0.46202672064839212 -0.40007602488395211 0 -0.46725442735267431 -0.37660061361585562 0 -0.45645674801697989 -0.38644133236760531 0 -0.46202672064839212 -0.40007602488395211 0 -0.46725442735267431 -0.37660061361585562 0 -0.45645674801697989 -0.38644133236760531 0 -0.4540003998136638 -0.37455519391687309 0 -0.45645674801697989 -0.38644133236760531 0 -0.46202672064839212 -0.40007602488395211 0 -0.44257020456291563 -0.38918913383950271 0 -0.46202672064839212 -0.40007602488395211 0 -0.44257020456291563 -0.38918913383950271 0 -0.44727608925983742 -0.41095911152778891 0 -0.46202672064839212 -0.40007602488395211 0 -0.44257020456291563 -0.38918913383950271 0 -0.44257020456291563 -0.38918913383950271 0 -0.44727608925983742 -0.41095911152778891 0 -0.43479358559901082 -0.4041454901736512 0 -0.44257020456291563 -0.38918913383950271 0 -0.4540003998136638 -0.37455519391687309 0 -0.44172858264042247 -0.37082207246888088 0 -0.45645674801697989 -0.38644133236760531 0 -0.44257020456291563 -0.38918913383950271 0 -0.4540003998136638 -0.37455519391687309 0 -0.46202672064839212 -0.40007602488395211 0 -0.45555437223955858 -0.42914059360647611 0 -0.44727608925983742 -0.41095911152778891 0 -0.46202672064839212 -0.40007602488395211 0 -0.45555437223955858 -0.42914059360647611 0 -0.48101336032419229 -0.41069999664450008 0 -0.46202672064839212 -0.40007602488395211 0 -0.45555437223955858 -0.42914059360647611 0 -0.44727608925983742 -0.41095911152778891 0 -0.43867285131603428 -0.4271457417558665 0 -0.43676601469929588 -0.41441201227470881 0 -0.44727608925983742 -0.41095911152778891 0 -0.43676601469929588 -0.41441201227470881 0 -0.43479358559901082 -0.4041454901736512 0 -0.45555437223955858 -0.42914059360647611 0 -0.44727608925983742 -0.41095911152778891 0 -0.43867285131603428 -0.4271457417558665 0 -0.43867285131603428 -0.4271457417558665 0 -0.42681803064840879 -0.42717069814352421 0 -0.4263356171060747 -0.44269880333887462 0 -0.42681803064840879 -0.42717069814352421 0 -0.41531815884496182 -0.42985383783075998 0 -0.4263356171060747 -0.44269880333887462 0 -0.42681803064840879 -0.42717069814352421 0 -0.42624289495594048 -0.42089725947505818 0 -0.42083332353326591 -0.42146747131641099 0 -0.42681803064840879 -0.42717069814352421 0 -0.43096994786351572 -0.41951492446283251 0 -0.42624289495594048 -0.42089725947505818 0 -0.43867285131603428 -0.4271457417558665 0 -0.42681803064840879 -0.42717069814352421 0 -0.43096994786351572 -0.41951492446283251 0 -0.43867285131603428 -0.4271457417558665 0 -0.43676601469929588 -0.41441201227470881 0 -0.43096994786351572 -0.41951492446283251 0 -0.43676601469929588 -0.41441201227470881 0 -0.43096994786351572 -0.41951492446283251 0 -0.42907264086257813 -0.41311715872526122 0 -0.43676601469929588 -0.41441201227470881 0 -0.42907264086257813 -0.41311715872526122 0 -0.43479358559901082 -0.4041454901736512 0 -0.42907264086257813 -0.41311715872526122 0 -0.43479358559901082 -0.4041454901736512 0 -0.42460885511582858 -0.40417321677700252 0 -0.42907264086257813 -0.41311715872526122 0 -0.41997834854398469 -0.41180534796019508 0 -0.42907264086257813 -0.41311715872526122 0 -0.42635027777857132 -0.41543594397746519 0 -0.41997834854398469 -0.41180534796019508 0 -0.42907264086257813 -0.41311715872526122 0 -0.41997834854398469 -0.41180534796019508 0 -0.42460885511582858 -0.40417321677700252 0 -0.42635027777857132 -0.41543594397746519 0 -0.41997834854398469 -0.41180534796019508 0 -0.42635027777857132 -0.41543594397746519 0 -0.42083332353326591 -0.42146747131641099 0 -0.41997834854398469 -0.41180534796019508 0 -0.43096994786351572 -0.41951492446283251 0 -0.42624289495594048 -0.42089725947505818 0 -0.42635027777857132 -0.41543594397746519 0 -0.43096994786351572 -0.41951492446283251 0 -0.42907264086257813 -0.41311715872526122 0 -0.42635027777857132 -0.41543594397746519 0 -0.42624289495594048 -0.42089725947505818 0 -0.42635027777857132 -0.41543594397746519 0 -0.42083332353326591 -0.42146747131641099 0 -0.42083332353326591 -0.42146747131641099 0 -0.41997834854398469 -0.41180534796019508 0 -0.40992282953163789 -0.42011435591993562 0 -0.41997834854398469 -0.41180534796019508 0 -0.39756877647335259 -0.40857286797681719 0 -0.41997834854398469 -0.41180534796019508 0 -0.40992282953163789 -0.42011435591993562 0 -0.39756877647335259 -0.40857286797681719 0 -0.40992282953163789 -0.42011435591993562 0 -0.41531815884496182 -0.42985383783075998 0 -0.39591554026262499 -0.42887225451549271 0 -0.41531815884496182 -0.42985383783075998 0 -0.39591554026262499 -0.42887225451549271 0 -0.41160927495564159 -0.44339431233754628 0 -0.42083332353326591 -0.42146747131641099 0 -0.40992282953163789 -0.42011435591993562 0 -0.41531815884496182 -0.42985383783075998 0 -0.42681803064840879 -0.42717069814352421 0 -0.42083332353326591 -0.42146747131641099 0 -0.41531815884496182 -0.42985383783075998 0 -0.44257020456291563 -0.38918913383950271 0 -0.42311368847744002 -0.37830224279505142 0 -0.42594061475171041 -0.39368797999533162 0 -0.44257020456291563 -0.38918913383950271 0 -0.42311368847744002 -0.37830224279505142 0 -0.44172858264042247 -0.37082207246888088 0 -0.44257020456291563 -0.38918913383950271 0 -0.42311368847744002 -0.37830224279505142 0 -0.42311368847744002 -0.37830224279505142 0 -0.42594061475171041 -0.39368797999533162 0 -0.416587075656149 -0.38785930376960043 0 -0.44257020456291563 -0.38918913383950271 0 -0.42594061475171041 -0.39368797999533162 0 -0.43479358559901082 -0.4041454901736512 0 -0.42594061475171041 -0.39368797999533162 0 -0.43479358559901082 -0.4041454901736512 0 -0.42460885511582858 -0.40417321677700252 0 -0.41997834854398469 -0.41180534796019508 0 -0.41325908582185972 -0.39811010703057192 0 -0.39770572831670092 -0.39911486077581648 0 -0.41997834854398469 -0.41180534796019508 0 -0.39770572831670092 -0.39911486077581648 0 -0.42594061475171041 -0.39368797999533162 0 -0.42460885511582858 -0.40417321677700252 0 -0.41325908582185972 -0.39811010703057192 0 -0.41997834854398469 -0.41180534796019508 0 -0.42460885511582858 -0.40417321677700252 0 -0.41325908582185972 -0.39811010703057192 0 -0.42594061475171041 -0.39368797999533162 0 -0.41325908582185972 -0.39811010703057192 0 -0.416587075656149 -0.38785930376960043 0 -0.41325908582185972 -0.39811010703057192 0 -0.416587075656149 -0.38785930376960043 0 -0.40403491357358612 -0.38133688525744702 0 -0.42311368847744002 -0.37830224279505142 0 -0.40403491357358612 -0.38133688525744702 0 -0.40365717239196519 -0.36741535175059892 0 -0.42311368847744002 -0.37830224279505142 0 -0.416587075656149 -0.38785930376960043 0 -0.40403491357358612 -0.38133688525744702 0 -0.40403491357358612 -0.38133688525744702 0 -0.39190790742475001 -0.38540387676521748 0 -0.39770572831670092 -0.39911486077581648 0 -0.40403491357358612 -0.38133688525744702 0 -0.39190790742475001 -0.38540387676521748 0 -0.3904578797192948 -0.37473938743617019 0 -0.41325908582185972 -0.39811010703057192 0 -0.40403491357358612 -0.38133688525744702 0 -0.39770572831670092 -0.39911486077581648 0 -0.39770572831670092 -0.39911486077581648 0 -0.37543310808941849 -0.38642437359143528 0 -0.39770572831670092 -0.39911486077581648 0 -0.37515920440272033 -0.40534038799344108 0 -0.37543310808941849 -0.38642437359143528 0 -0.39770572831670092 -0.39911486077581648 0 -0.37515920440272033 -0.40534038799344108 0 -0.39756877647335259 -0.40857286797681719
[...]
<PointData Scalars="" Vectors="displacement," Tensors="">
<DataArray type="Float64" Name="displacement" NumberOfComponents="3" format="ascii">
-1.7030110576252183e-06 -0.034996798401023932 0 -0.00017039599505929399 -0.032724319956605664 0 3.610099844328998e-06 -0.029500843576387388 0 -1.7030110576252183e-06 -0.034996798401023932 0 -0.00015703035369808049 -0.034201974631387438 0 -0.00017039599505929399 -0.032724319956605664 0 -1.7030110576252183e-06 -0.034996798401023932 0 -0.00015703035369808049 -0.034201974631387438 0 3.6540606580447743e-09 -0.034999152185032432 0 -0.00015703035369808049 -0.034201974631387438 0 3.6540606580447743e-09 -0.034999152185032432 0 -8.6011110221901349e-05 -0.034205391242413972 0 3.6540606580447743e-09 -0.034999152185032432 0 -8.6011110221901349e-05 -0.034205391242413972 0 -6.8402772869668736e-05 -0.034772685511861974 0 -0.00028680764211190367 -0.032042751691379268 0 4.2368091099035621e-05 -0.031121428085307004 0 -8.6011110221901349e-05 -0.034205391242413972 0 0.00042195243402541312 -0.034160215404855386 0 0.00045567065403326372 -0.034384437654844065 0 -8.6011110221901349e-05 -0.034205391242413972 0 0.00045567065403326372 -0.034384437654844065 0 0.00022318538249964625 -0.034610280363208477 0 -0.00015703035369808049 -0.034201974631387438 0 -8.6011110221901349e-05 -0.034205391242413972 0 -0.00017039599505929399 -0.032724319956605664 0 -8.6011110221901349e-05 -0.034205391242413972 0 -0.00017039599505929399 -0.032724319956605664 0 0.00062550136576481003 -0.033385461771858325 0 -0.00017039599505929399 -0.032724319956605664 0 0.0013285881068638035 -0.031628921816971717 0 0.00062550136576481003 -0.033385461771858325 0 -0.00017039599505929399 -0.032724319956605664 0 3.610099844328998e-06 -0.029500843576387388 0 0.0013285881068638035 -0.031628921816971717 0 1.9817901388965982e-06 -0.029489652529209223 0 0.0003015322622589534 -0.027193064309779014 0 -8.3639061179982101e-07 -0.027572046996977826 0 1.3320869188540499e-06 -0.029491476011851397 0 0.00056570650877667977 -0.02893947528821722 0 -8.3639061179982101e-07 -0.027572046996977826 0 -7.9634667675454763e-05 -0.02648814737740365 0 -0.00016791927322782843 -0.025781219733342426 0 -8.3639061179982101e-07 -0.027572046996977826 0 -2.552909982972898e-07 -0.025651173422870023 0 -0.00016791927322782843 -0.025781219733342426 0 0.0003015322622589534 -0.027193064309779014 0 -8.3639061179982101e-07 -0.027572046996977826 0 -7.9634667675454763e-05 -0.02648814737740365 0 0.0003015322622589534 -0.027193064309779014 0 -7.9634667675454763e-05 -0.02648814737740365 0 0.00013212791364590015 -0.026228696493771912 0 0.00056570650877667977 -0.02893947528821722 0 0.00087333174405253419 -0.027840835388719527 0 -7.9634667675454763e-05 -0.02648814737740365 0 -0.00020680077870940532 -0.026002801357158746 0 0.00013212791364590015 -0.026228696493771912 0 -7.9634667675454763e-05 -0.02648814737740365 0 -0.00020680077870940532 -0.026002801357158746 0 -0.00016791927322782843 -0.025781219733342426 0 0.00068160267137373093 -0.025298550662997722 0 0.00087333174405253419 -0.027840835388719527 0 0.0011272379822028877 -0.020331743106820288 0 0.00094611453190853237 -0.020508228007782413 0 0.00071497784735220619 -0.020420438130418238 0 0.0011272379822028877 -0.020331743106820288 0 0.00094611453190853237 -0.020508228007782413 0 0.0011317576515727827 -0.020535957866701208 0 0.00094611453190853237 -0.020508228007782413 0 0.00071497784735220619 -0.020420438130418238 0 0.00089126646891239181 -0.020740008617703296 0 0.00066943843389896012 -0.034197323203135441 0 0.00065966810090661507 -0.034343161811001402 0 0.00060368694855803537 -0.034292080475051785 0 0.00087333174405253419 -0.027840835388719527 0 0.00085561333866531082 -0.027527635592770223 0 0.00065966810090661507 -0.034343161811001402 0 0.00060368694855803537 -0.034292080475051785 0 0.00063896433998434775 -0.034369368283319199 0 0.00089126646891239181 -0.020740008617703296 0 0.0011317576515727827 -0.020535957866701208 0 0.0011865292303513623 -0.020746823501061187 0 0.00094611453190853237 -0.020508228007782413 0 0.00089126646891239181 -0.020740008617703296 0 0.0011317576515727827 -0.020535957866701208 0 0.00066943843389896012 -0.034197323203135441 0 0.00042195243402541312 -0.034160215404855386 0 0.00060368694855803537 -0.034292080475051785 0 0.00087333174405253419 -0.027840835388719527 0 4.2368091099035621e-05 -0.031121428085307004 0 0.0013285881068638035 -0.031628921816971717 0 0.0020518162637589471 -0.032806970347743082 0 0.00062550136576481003 -0.033385461771858325 0 0.00060368694855803537 -0.034292080475051785 0 0.00045567065403326372 -0.034384437654844065 0 0.00059320236314415985 -0.034380185272294472 0 0.00060368694855803537 -0.034292080475051785 0 0.00059320236314415985 -0.034380185272294472 0 0.00063896433998434775 -0.034369368283319199 0 0.00042195243402541312 -0.034160215404855386 0 0.00060368694855803537 -0.034292080475051785 0 0.00045567065403326372 -0.034384437654844065 0 0.00045567065403326372 -0.034384437654844065 0 0.00044000707898720883 -0.034550273216089361 0 0.00022318538249964625 -0.034610280363208477 0 0.00044000707898720883 -0.034550273216089361 0 0.00039706307233755756 -0.034726854945125084 0 0.00022318538249964625 -0.034610280363208477 0 0.00044000707898720883 -0.034550273216089361 0 0.00052460558580497238 -0.034535531773929103 0 0.00051397061445438742 -0.034628195992965308 0 0.00044000707898720883 -0.034550273216089361 0 0.0005447235400302963 -0.034454609417524096 0 0.00052460558580497238 -0.034535531773929103 0 0.00045567065403326372 -0.034384437654844065 0 0.00044000707898720883 -0.034550273216089361 0 0.0005447235400302963 -0.034454609417524096 0 0.00045567065403326372 -0.034384437654844065 0 0.00059320236314415985 -0.034380185272294472 0 0.0005447235400302963 -0.034454609417524096 0 0.00059320236314415985 -0.034380185272294472 0 0.0005447235400302963 -0.034454609417524096 0 0.0006433028044272891 -0.034428107715091284 0 0.00059320236314415985 -0.034380185272294472 0 0.0006433028044272891 -0.034428107715091284 0 0.00063896433998434775 -0.034369368283319199 0 0.0006433028044272891 -0.034428107715091284 0 0.00063896433998434775 -0.034369368283319199 0 0.00064562819058931948 -0.034355023769704632 0 0.0013775572169541753 -0.033688960917262228 0 0.0013925057874975978 -0.033596977925068584 0 0.0006433028044272891 -0.034428107715091284 0 0.00060121160928930969 -0.034510667165016572 0 0.00070429357811045462 -0.034679157323426857 0 0.0006433028044272891 -0.034428107715091284 0 0.00069292595620482501 -0.034330654819193111 0 0.00064562819058931948 -0.034355023769704632 0 0.0013894291729976888 -0.03364043585534493 0 0.0013925057874975978 -0.033596977925068584 0 0.00060121160928930969 -0.034510667165016572 0 0.00051397061445438742 -0.034628195992965308 0 0.00066314087300857602 -0.034638827455270582 0 0.0005447235400302963 -0.034454609417524096 0 0.00052460558580497238 -0.034535531773929103 0 0.00060121160928930969 -0.034510667165016572 0 0.0005447235400302963 -0.034454609417524096 0 0.0006433028044272891 -0.034428107715091284 0 0.00060121160928930969 -0.034510667165016572 0 0.00052460558580497238 -0.034535531773929103 0 0.00060121160928930969 -0.034510667165016572 0 0.00051397061445438742 -0.034628195992965308 0 0.00051397061445438742 -0.034628195992965308 0 0.00066314087300857602 -0.034638827455270582 0 0.00053426276509097059 -0.034793948861346111 0 0.0013925057874975978 -0.033596977925068584 0 0.0011568840275117029 -0.033368639026897344 0 0.00066314087300857602 -0.034638827455270582 0 0.00053426276509097059 -0.034793948861346111 0 0.0006937521061487834 -0.034966613031149112 0 0.00053426276509097059 -0.034793948861346111 0 0.00039706307233755756 -0.034726854945125084 0 0.00041271194327229167 -0.034990883264253946 0 0.00039706307233755756 -0.034726854945125084 0 0.00041271194327229167 -0.034990883264253946 0 0.00021569118387103321 -0.034796232196407165 0 0.00051397061445438742 -0.034628195992965308 0 0.00053426276509097059 -0.034793948861346111 0 0.00039706307233755756 -0.034726854945125084 0 0.00044000707898720883 -0.034550273216089361 0 0.00051397061445438742 -0.034628195992965308 0 0.00039706307233755756 -0.034726854945125084 0 0.00065966810090661507 -0.034343161811001402 0 0.00052966996233451966 -0.034314639856676675 0 0.00061933197418660723 -0.034337398332721654 0 0.00089126646891239181 -0.020740008617703296 0 0.0010576031740287825 -0.021073967272271666 0 0.0011865292303513623 -0.020746823501061187 0 0.00085561333866531082 -0.027527635592770223 0 0.00093748729882562503 -0.02732290020201503 0 0.00052966996233451966 -0.034314639856676675 0 0.00061933197418660723 -0.034337398332721654 0 0.00057741129456401977 -0.034274352789385606 0 0.00065966810090661507 -0.034343161811001402 0 0.00061933197418660723 -0.034337398332721654 0 0.00063896433998434775 -0.034369368283319199 0 0.00061933197418660723 -0.034337398332721654 0 0.00063896433998434775 -0.034369368283319199 0 0.00064562819058931948 -0.034355023769704632 0 0.00069292595620482501 -0.034330654819193111 0 0.00063667129367175771 -0.034262008256856789 0 0.00066826239684005895 -0.034123100530154021 0 0.0013925057874975978 -0.033596977925068584 0 0.0015050634927443116 -0.032550407419261851 0 0.00061933197418660723 -0.034337398332721654 0 0.00064562819058931948 -0.034355023769704632 0 0.00063667129367175771 -0.034262008256856789 0 0.00069292595620482501 -0.034330654819193111 0 0.00064562819058931948 -0.034355023769704632 0 0.00063667129367175771 -0.034262008256856789 0 0.00061933197418660723 -0.034337398332721654 0 0.00063667129367175771 -0.034262008256856789 0 0.00057741129456401977 -0.034274352789385606 0 0.00063667129367175771 -0.034262008256856789 0 0.00057741129456401977 -0.034274352789385606 0 0.0005200511053662898 -0.034175173707857068 0 0.00052966996233451966 -0.034314639856676675 0 0.0005200511053662898 -0.034175173707857068 0 0.00042212405226217886 -0.03416455937723871 0 0.00052966996233451966 -0.034314639856676675 0 0.00057741129456401977 -0.034274352789385606 0 0.0005200511053662898 -0.034175173707857068 0 0.0005200511053662898 -0.034175173707857068 0 0.00054890062245248209 -0.03404853783173676 0 0.00066826239684005895 -0.034123100530154021 0 0.0005200511053662898 -0.034175173707857068 0 0.00054890062245248209 -0.03404853783173676 0 0.00043750439501328756 -0.034024245538450987 0 0.00063667129367175771 -0.034262008256856789 0 0.0005200511053662898 -0.034175173707857068 0 0.00066826239684005895 -0.034123100530154021 0 0.0015050634927443116 -0.032550407419261851 0 0.001409332737972574 -0.030244393037441877 0 0.0014005026249463135 -0.032414060103269714 0 0.001650433176776913 -0.03150661467291295 0 0.0008910468115796359 -0.031515974457818521 0 0.0014005026249463135 -0.032414060103269714 0 0.001650433176776913 -0.03150661467291295 0 0.0017807475388732844 -0.032409106573121189 0 0.00080204926044330385 -0.032421848183809443 0 0.001409332737972574 -0.030244393037441877 0 0.00056507426018545645 -0.033863650054595545 0 0.00043750439501328756 -0.034024245538450987 0 0.00037536961771048884 -0.033852859706481116 0 0.00054890062245248209 -0.03404853783173676 0 0.00056507426018545645 -0.033863650054595545 0 0.00043750439501328756 -0.034024245538450987 0 0.001409332737972574 -0.030244393037441877 0 0.0010527466109764136 -0.02830630563885065 0 0.00054890062245248209 -0.03404853783173676 0 0.00066826239684005895 -0.034123100530154021 0 0.00056507426018545645 -0.033863650054595545 0 0.0019102919142502854 -0.033312712985188869 0 0.0014005026249463135 -0.032414060103269714 0 0.0017807475388732844 -0.032409106573121189 0 0.00053426276509097059 -0.034793948861346111 0 0.00041271194327229167 -0.034990883264253946 0 0.0006937521061487834 -0.034966613031149112 0 0.00073403112245199007 -0.035265750591905516 0 0.00041271194327229167 -0.034990883264253946 0 0.0006937521061487834 -0.034966613031149112 0 0.00080204926044330385 -0.032421848183809443 0 0.0011568840275117029 -0.033368639026897344 0 0.00073403112245199007 -0.035265750591905516 0 0.00041271194327229167 -0.034990883264253946 0 0.00032571589664700672 -0.035270831426178935 0 0.00041271194327229167 -0.034990883264253946 0 0.00017967430440295074 -0.035031015157988787 0 0.00032571589664700672 -0.035270831426178935 0 0.00017967430440295074 -0.035031015157988787 0 -6.6787950840725027e-05 -0.035273700042133337 0 0.00032571589664700672 -0.035270831426178935 0 0.00041271194327229167 -0.034990883264253946 0 0.00017967430440295074 -0.035031015157988787 0 0.00021569118387103321 -0.034796232196407165 0 0.00017967430440295074 -0.035031015157988787 0 3.8792196658386614e-05 -0.034891955476451887 0 0.00021569118387103321 -0.034796232196407165 0 5.0956625927846857e-05 -0.034888750403803646 0 -2.0587713253988066e-05 -0.034958234818529332 0 -2.061091905010835e-05 -0.034852429620761315 0 3.4964831300103096e-06 -0.034996344738727446 0 2.8531927861246222e-06 -0.03499832310850845 0 7.3550311576747078e-07 -0.034998319451470195 0 6.3797596657510765e-05 -0.034915724963218993 0 7.6741614484040636e-06 -0.034970898308163086 0 6.3797596657510765e-05 -0.034915724963218993 0 6.3874162572151601e-05 -0.034915265032489574 0 6.3797596657510765e-05 -0.034915724963218993 0 6.8688591108953144e-05 -0.034880537062720575 0 0.00017967430440295074 -0.035031015157988787 0 3.8792196658386614e-05 -0.034891955476451887 0 -1.4058154216681315e-05 -0.035081541973901391 0 0.00017967430440295074 -0.035031015157988787 0 -1.4058154216681315e-05 -0.035081541973901391 0 -6.6787950840725027e-05 -0.035273700042133337 0 6.8688591108953144e-05 -0.034880537062720575 0 0.00011861362711647001 -0.034701732488563862 0 2.8531927861246222e-06 -0.03499832310850845 0 1.5051523674515377e-06 -0.034998929418055935 0 2.2876875865840781e-06 -0.034999832859325224 0 1.5051523674515377e-06 -0.034998929418055935 0 7.3550311576747078e-07 -0.034998319451470195 0 5.9220812708589016e-07 -0.034999768323698423 0 7.3550311576747078e-07 -0.034998319451470195 0 3.5477827144841578e-07 -0.034999802143539399 0 5.9220812708589016e-07 -0.034999768323698423 0 1.5051523674515377e-06 -0.034998929418055935 0 5.9220812708589016e-07 -0.034999768323698423 0 2.2876875865840781e-06 -0.034999832859325224 0 2.8531927861246222e-06 -0.03499832310850845 0 1.5051523674515377e-06 -0.034998929418055935 0 7.3550311576747078e-07 -0.034998319451470195 0 -1.830692310628558e-08 -0.034999958069224506 0 7.6741614484040636e-06 -0.034970898308163086 0 -8.8655879997033019e-10 -0.03499999848830733 0 7.3550311576747078e-07 -0.034998319451470195 0 3.5477827144841578e-07 -0.034999802143539399 0 5.6820478691835821e-08 -0.034999984103655443 0 -2.0587713253988066e-05 -0.034958234818529332 0 -1.395895193061221e-07 -0.034999897576914317 0 -2.0587713253988066e-05 -0.034958234818529332 0 -2.061091905010835e-05 -0.034852429620761315 0 -1.395895193061221e-07 -0.034999897576914317 0 -2.061091905010835e-05 -0.034852429620761315 0 -1.395895193061221e-07 -0.034999897576914317 0 -6.8402772869668736e-05 -0.034772685511861974 0 3.6540606580447743e-09 -0.034999152185032432 0 -1.395895193061221e-07 -0.034999897576914317 0 -6.8402772869668736e-05 -0.034772685511861974 0 -2.061091905010835e-05 -0.034852429620761315 0 -6.8402772869668736e-05 -0.034772685511861974 0 4.8488058150029414e-06 -0.034670050808197843 0 -8.6011110221901349e-05 -0.034205391242413972 0 -6.8402772869668736e-05 -0.034772685511861974 0 4.8488058150029414e-06 -0.034670050808197843 0 -8.6011110221901349e-05 -0.034205391242413972 0 4.8488058150029414e-06 -0.034670050808197843 0 0.00022318538249964625 -0.034610280363208477 0 4.8488058150029414e-06 -0.034670050808197843 0 0.00022318538249964625 -0.034610280363208477 0 8.5526924460533469e-05 -0.034763966784826218 0 0.00022318538249964625 -0.034610280363208477 0 0.00021569118387103321 -0.034796232196407165 0 8.5526924460533469e-05 -0.034763966784826218 0 0.00039706307233755756 -0.034726854945125084 0 0.00022318538249964625 -0.034610280363208477 0 0.00021569118387103321 -0.034796232196407165 0 5.1055095287740011e-05 -0.034902752348577239 0 0.00021569118387103321 -0.034796232196407165 0 5.8825679181318316e-05 -0.034870803257983772 0 0.00021569118387103321 -0.034796232196407165 0 5.8825679181318316e-05 -0.034870803257983772 0 8.5526924460533469e-05 -0.034763966784826218 0 6.3797596657510765e-05 -0.034915724963218993 0 9.60983782428237e-05 -0.034894913714081599 0 -2.061091905010835e-05 -0.034852429620761315 0 5.8825679181318316e-05 -0.034870803257983772 0 8.5526924460533469e-05 -0.034763966784826218 0 5.0956625927846857e-05 -0.034888750403803646 0 -2.061091905010835e-05 -0.034852429620761315 0 5.8825679181318316e-05 -0.034870803257983772 0 -2.061091905010835e-05 -0.034852429620761315 0 4.8488058150029414e-06 -0.034670050808197843 0 8.5526924460533469e-05 -0.034763966784826218 0 0.0012102613836471392 -0.017979665669618224 0 0.0017273544559508673 -0.017003786934534776 0 0.00049364975110484735 -0.017586664238808499 0 0.00059118975401290885 -0.017035532112628204 0 0.000330086665146144 -0.0174084474207062 0 -0.00012667920667542692 -0.019572774617441394 0 0.00013078378936479714 -0.019535170355585964 0 6.0530496827124591e-05 -0.019650938191051164 0 -0.00012667920667542692 -0.019572774617441394 0 -7.7631748967063881e-05 -0.019594356502022126 0 6.0530496827124591e-05 -0.019650938191051164 0 -0.00012667920667542692 -0.019572774617441394 0 -6.8645012104944642e-05 -0.019501276378626156 0 -7.7631748967063881e-05 -0.019594356502022126 0 -0.00012667920667542692 -0.019572774617441394 0 -0.00011902287074993072 -0.019310381634453734 0 -0.00018319502625081975 -0.019651568658938474 0 -0.00012667920667542692 -0.019572774617441394 0 -0.00011902287074993072 -0.019310381634453734 0 0.00013078378936479714 -0.019535170355585964 0 0.0012102613836471392 -0.017979665669618224 0 0.0010392797696792536 -0.018158733595685143 0 -0.00011902287074993072 -0.019310381634453734 0 0.00013078378936479714 -0.019535170355585964 0 0.00013389220653961339 -0.018509522597629807 0 0.00049364975110484735 -0.017586664238808499 0 0.00013389220653961339 -0.018509522597629807 0 5.1142874354887306e-05 -0.017835819915682397 0 0.00013389220653961339 -0.018509522597629807 0 -4.2693377036470247e-07 -0.01796859629867191 0 -0.00012646199642970681 -0.019266143523651403 0 0.00013389220653961339 -0.018509522597629807 0 -4.2693377036470247e-07 -0.01796859629867191 0 -2.4092873736107285e-05 -0.017569059048975978 0 -4.2693377036470247e-07 -0.01796859629867191 0 -0.00012646199642970681 -0.019266143523651403 0 -3.6449981613382944e-07 -0.019889470265997654 0 -0.00011902287074993072 -0.019310381634453734 0 0.00013389220653961339 -0.018509522597629807 0 -0.00012646199642970681 -0.019266143523651403 0 -0.00011902287074993072 -0.019310381634453734 0 -0.00012646199642970681 -0.019266143523651403 0 -0.00018319502625081975 -0.019651568658938474 0 -0.00018319502625081975 -0.019651568658938474 0 -7.602723440611558e-05 -0.020268610176782401 0 -2.0851699836091666e-05 -0.020138926127273814 0 -0.00012646199642970681 -0.019266143523651403 0 -0.00018319502625081975 -0.019651568658938474 0 -7.602723440611558e-05 -0.020268610176782401 0 -3.6449981613382944e-07 -0.019889470265997654 0 -7.602723440611558e-05 -0.020268610176782401 0 4.6339646018701932e-07 -0.021809979258688834 0 -0.00012646199642970681 -0.019266143523651403 0 -3.6449981613382944e-07 -0.019889470265997654 0 -7.602723440611558e-05 -0.020268610176782401 0 -7.602723440611558e-05 -0.020268610176782401 0 4.6339646018701932e-07 -0.021809979258688834 0 0.00015035467651593973 -0.021043835395551814 0 0.00015035467651593973 -0.021043835395551814 0 -2.0851699836091666e-05 -0.020138926127273814 0 0.00055995301741057978 -0.020372037290363167 0 -7.602723440611558e-05 -0.020268610176782401 0 0.00015035467651593973 -0.021043835395551814 0 -2.0851699836091666e-05 -0.020138926127273814 0 -2.0851699836091666e-05 -0.020138926127273814 0 0.00026536981444316439 -0.019898679637879807 0 0.00055995301741057978 -0.020372037290363167 0 0.00026536981444316439 -0.019898679637879807 0 0.00019075319675661688 -0.01956894081371