<?xml version="1.0"?>
<VTKFile type="UnstructuredGrid" version="0.1" byte_order="LittleEndian">
<UnstructuredGrid>
<Piece NumberOfPoints="31898" NumberOfCells="11152">
<Points>
<DataArray type="Float64" NumberOfComponents="3" format="ascii">
-0.5 -0.5 0 -0.47620991077874902 -0.44978878706170539 0 -0.49999999999999473 -0.42132396840504388 0 -0.5 -0.5 0 -0.47160970827802529 -0.4793630013852106 0 -0.47620991077874902 -0.44978878706170539 0 -0.5 -0.5 0 -0.47160970827802529 -0.4793630013852106 0 -0.44860394795025399 -0.5 0 -0.47160970827802529 -0.4793630013852106 0 -0.44860394795025399 -0.5 0 -0.4490820238307246 -0.45820516232899983 0 -0.44860394795025399 -0.5 0 -0.4490820238307246 -0.45820516232899983 0 -0.42881687682924802 -0.47781464288736519 0 -0.4490820238307246 -0.45820516232899983 0 -0.45555437223955858 -0.42914059360647611 0 -0.4490820238307246 -0.45820516232899983 0 -0.45555437223955858 -0.42914059360647611 0 -0.43867285131603428 -0.4271457417558665 0 -0.4490820238307246 -0.45820516232899983 0 -0.43867285131603428 -0.4271457417558665 0 -0.4263356171060747 -0.44269880333887462 0 -0.47160970827802529 -0.4793630013852106 0 -0.4490820238307246 -0.45820516232899983 0 -0.47620991077874902 -0.44978878706170539 0 -0.4490820238307246 -0.45820516232899983 0 -0.47620991077874902 -0.44978878706170539 0 -0.45555437223955858 -0.42914059360647611 0 -0.47620991077874902 -0.44978878706170539 0 -0.48101336032419229 -0.41069999664450008 0 -0.45555437223955858 -0.42914059360647611 0 -0.47620991077874902 -0.44978878706170539 0 -0.49999999999999473 -0.42132396840504388 0 -0.48101336032419229 -0.41069999664450008 0 -0.49999999999999473 -0.42132396840504388 0 -0.48101336032419229 -0.41069999664450008 0 -0.5 -0.393886241813306 0 -0.49999999999999473 -0.42132396840504388 0 -0.48101336032419229 -0.41069999664450008 0 -0.5 -0.393886241813306 0 -0.47854472220918332 -0.38978458738689759 0 -0.48422759779560409 -0.37130120630367158 0 -0.5 -0.393886241813306 0 -0.5 -0.36644851522156802 0 -0.48422759779560409 -0.37130120630367158 0 -0.48101336032419229 -0.41069999664450008 0 -0.5 -0.393886241813306 0 -0.47854472220918332 -0.38978458738689759 0 -0.48101336032419229 -0.41069999664450008 0 -0.47854472220918332 -0.38978458738689759 0 -0.46202672064839212 -0.40007602488395211 0 -0.48101336032419229 -0.41069999664450008 0 -0.46202672064839212 -0.40007602488395211 0 -0.47854472220918332 -0.38978458738689759 0 -0.46725442735267431 -0.37660061361585562 0 -0.46202672064839212 -0.40007602488395211 0 -0.47854472220918332 -0.38978458738689759 0 -0.46725442735267431 -0.37660061361585562 0 -0.48422759779560409 -0.37130120630367158 0 -0.46725442735267431 -0.37660061361585562 0 -0.46202672064839212 -0.40007602488395211 0 -0.46725442735267431 -0.37660061361585562 0 -0.45645674801697989 -0.38644133236760531 0 -0.46202672064839212 -0.40007602488395211 0 -0.46725442735267431 -0.37660061361585562 0 -0.45645674801697989 -0.38644133236760531 0 -0.4540003998136638 -0.37455519391687309 0 -0.45645674801697989 -0.38644133236760531 0 -0.46202672064839212 -0.40007602488395211 0 -0.44257020456291563 -0.38918913383950271 0 -0.46202672064839212 -0.40007602488395211 0 -0.44257020456291563 -0.38918913383950271 0 -0.44727608925983742 -0.41095911152778891 0 -0.46202672064839212 -0.40007602488395211 0 -0.44257020456291563 -0.38918913383950271 0 -0.44257020456291563 -0.38918913383950271 0 -0.44727608925983742 -0.41095911152778891 0 -0.43479358559901082 -0.4041454901736512 0 -0.44257020456291563 -0.38918913383950271 0 -0.4540003998136638 -0.37455519391687309 0 -0.44172858264042247 -0.37082207246888088 0 -0.45645674801697989 -0.38644133236760531 0 -0.44257020456291563 -0.38918913383950271 0 -0.4540003998136638 -0.37455519391687309 0 -0.46202672064839212 -0.40007602488395211 0 -0.45555437223955858 -0.42914059360647611 0 -0.44727608925983742 -0.41095911152778891 0 -0.46202672064839212 -0.40007602488395211 0 -0.45555437223955858 -0.42914059360647611 0 -0.48101336032419229 -0.41069999664450008 0 -0.46202672064839212 -0.40007602488395211 0 -0.45555437223955858 -0.42914059360647611 0 -0.44727608925983742 -0.41095911152778891 0 -0.43867285131603428 -0.4271457417558665 0 -0.43676601469929588 -0.41441201227470881 0 -0.44727608925983742 -0.41095911152778891 0 -0.43676601469929588 -0.41441201227470881 0 -0.43479358559901082 -0.4041454901736512 0 -0.45555437223955858 -0.42914059360647611 0 -0.44727608925983742 -0.41095911152778891 0 -0.43867285131603428 -0.4271457417558665 0 -0.43867285131603428 -0.4271457417558665 0 -0.42681803064840879 -0.42717069814352421 0 -0.4263356171060747 -0.44269880333887462 0 -0.42681803064840879 -0.42717069814352421 0 -0.41531815884496182 -0.42985383783075998 0 -0.4263356171060747 -0.44269880333887462 0 -0.42681803064840879 -0.42717069814352421 0 -0.42624289495594048 -0.42089725947505818 0 -0.42083332353326591 -0.42146747131641099 0 -0.42681803064840879 -0.42717069814352421 0 -0.43096994786351572 -0.41951492446283251 0 -0.42624289495594048 -0.42089725947505818 0 -0.43867285131603428 -0.4271457417558665 0 -0.42681803064840879 -0.42717069814352421 0 -0.43096994786351572 -0.41951492446283251 0 -0.43867285131603428 -0.4271457417558665 0 -0.43676601469929588 -0.41441201227470881 0 -0.43096994786351572 -0.41951492446283251 0 -0.43676601469929588 -0.41441201227470881 0 -0.43096994786351572 -0.41951492446283251 0 -0.42907264086257813 -0.41311715872526122 0 -0.43676601469929588 -0.41441201227470881 0 -0.42907264086257813 -0.41311715872526122 0 -0.43479358559901082 -0.4041454901736512 0 -0.42907264086257813 -0.41311715872526122 0 -0.43479358559901082 -0.4041454901736512 0 -0.42460885511582858 -0.40417321677700252 0 -0.42907264086257813 -0.41311715872526122 0 -0.41997834854398469 -0.41180534796019508 0 -0.42907264086257813 -0.41311715872526122 0 -0.42635027777857132 -0.41543594397746519 0 -0.41997834854398469 -0.41180534796019508 0 -0.42907264086257813 -0.41311715872526122 0 -0.41997834854398469 -0.41180534796019508 0 -0.42460885511582858 -0.40417321677700252 0 -0.42635027777857132 -0.41543594397746519 0 -0.41997834854398469 -0.41180534796019508 0 -0.42635027777857132 -0.41543594397746519 0 -0.42083332353326591 -0.42146747131641099 0 -0.41997834854398469 -0.41180534796019508 0 -0.43096994786351572 -0.41951492446283251 0 -0.42624289495594048 -0.42089725947505818 0 -0.42635027777857132 -0.41543594397746519 0 -0.43096994786351572 -0.41951492446283251 0 -0.42907264086257813 -0.41311715872526122 0 -0.42635027777857132 -0.41543594397746519 0 -0.42624289495594048 -0.42089725947505818 0 -0.42635027777857132 -0.41543594397746519 0 -0.42083332353326591 -0.42146747131641099 0 -0.42083332353326591 -0.42146747131641099 0 -0.41997834854398469 -0.41180534796019508 0 -0.40992282953163789 -0.42011435591993562 0 -0.41997834854398469 -0.41180534796019508 0 -0.39756877647335259 -0.40857286797681719 0 -0.41997834854398469 -0.41180534796019508 0 -0.40992282953163789 -0.42011435591993562 0 -0.39756877647335259 -0.40857286797681719 0 -0.40992282953163789 -0.42011435591993562 0 -0.41531815884496182 -0.42985383783075998 0 -0.39591554026262499 -0.42887225451549271 0 -0.41531815884496182 -0.42985383783075998 0 -0.39591554026262499 -0.42887225451549271 0 -0.41160927495564159 -0.44339431233754628 0 -0.42083332353326591 -0.42146747131641099 0 -0.40992282953163789 -0.42011435591993562 0 -0.41531815884496182 -0.42985383783075998 0 -0.42681803064840879 -0.42717069814352421 0 -0.42083332353326591 -0.42146747131641099 0 -0.41531815884496182 -0.42985383783075998 0 -0.44257020456291563 -0.38918913383950271 0 -0.42311368847744002 -0.37830224279505142 0 -0.42594061475171041 -0.39368797999533162 0 -0.44257020456291563 -0.38918913383950271 0 -0.42311368847744002 -0.37830224279505142 0 -0.44172858264042247 -0.37082207246888088 0 -0.44257020456291563 -0.38918913383950271 0 -0.42311368847744002 -0.37830224279505142 0 -0.42311368847744002 -0.37830224279505142 0 -0.42594061475171041 -0.39368797999533162 0 -0.416587075656149 -0.38785930376960043 0 -0.44257020456291563 -0.38918913383950271 0 -0.42594061475171041 -0.39368797999533162 0 -0.43479358559901082 -0.4041454901736512 0 -0.42594061475171041 -0.39368797999533162 0 -0.43479358559901082 -0.4041454901736512 0 -0.42460885511582858 -0.40417321677700252 0 -0.41997834854398469 -0.41180534796019508 0 -0.41325908582185972 -0.39811010703057192 0 -0.39770572831670092 -0.39911486077581648 0 -0.41997834854398469 -0.41180534796019508 0 -0.39770572831670092 -0.39911486077581648 0 -0.42594061475171041 -0.39368797999533162 0 -0.42460885511582858 -0.40417321677700252 0 -0.41325908582185972 -0.39811010703057192 0 -0.41997834854398469 -0.41180534796019508 0 -0.42460885511582858 -0.40417321677700252 0 -0.41325908582185972 -0.39811010703057192 0 -0.42594061475171041 -0.39368797999533162 0 -0.41325908582185972 -0.39811010703057192 0 -0.416587075656149 -0.38785930376960043 0 -0.41325908582185972 -0.39811010703057192 0 -0.416587075656149 -0.38785930376960043 0 -0.40403491357358612 -0.38133688525744702 0 -0.42311368847744002 -0.37830224279505142 0 -0.40403491357358612 -0.38133688525744702 0 -0.40365717239196519 -0.36741535175059892 0 -0.42311368847744002 -0.37830224279505142 0 -0.416587075656149 -0.38785930376960043 0 -0.40403491357358612 -0.38133688525744702 0 -0.40403491357358612 -0.38133688525744702 0 -0.39190790742475001 -0.38540387676521748 0 -0.39770572831670092 -0.39911486077581648 0 -0.40403491357358612 -0.38133688525744702 0 -0.39190790742475001 -0.38540387676521748 0 -0.3904578797192948 -0.37473938743617019 0 -0.41325908582185972 -0.39811010703057192 0 -0.40403491357358612 -0.38133688525744702 0 -0.39770572831670092 -0.39911486077581648 0 -0.39770572831670092 -0.39911486077581648 0 -0.37543310808941849 -0.38642437359143528 0 -0.39770572831670092 -0.39911486077581648 0 -0.37515920440272033 -0.40534038799344108 0 -0.37543310808941849 -0.38642437359143528 0 -0.39770572831670092 -0.39911486077581648 0 -0.37515920440272033 -0.40534038799344108 0 -0.39756877647335259 -0.40857286797681719
[...]
<PointData Scalars="" Vectors="displacement," Tensors="">
<DataArray type="Float64" Name="displacement" NumberOfComponents="3" format="ascii">
-0.034997252916469934 -0.034997964620445757 0 -0.032565316879396532 -0.034284047839441091 0 -0.029503373747033011 -0.034995198768876384 0 -0.034997252916469934 -0.034997964620445757 0 -0.034351863670676573 -0.033630489218154903 0 -0.032565316879396532 -0.034284047839441091 0 -0.034997252916469934 -0.034997964620445757 0 -0.034351863670676573 -0.033630489218154903 0 -0.03499799049002595 -0.031404961133399481 0 -0.034351863670676573 -0.033630489218154903 0 -0.03499799049002595 -0.031404961133399481 0 -0.034414958796758696 -0.032876997955399313 0 -0.03499799049002595 -0.031404961133399481 0 -0.034414958796758696 -0.032876997955399313 0 -0.034994658334437899 -0.030742152970053203 0 -0.033308743766892343 -0.033690411906662457 0 -0.032923807241692367 -0.033930507171854148 0 -0.034414958796758696 -0.032876997955399313 0 -0.036062915487485817 -0.032321247748497747 0 -0.036241170563895066 -0.031620808806111386 0 -0.034414958796758696 -0.032876997955399313 0 -0.036241170563895066 -0.031620808806111386 0 -0.035690749352828052 -0.030938801749198695 0 -0.034351863670676573 -0.033630489218154903 0 -0.034414958796758696 -0.032876997955399313 0 -0.032565316879396532 -0.034284047839441091 0 -0.034414958796758696 -0.032876997955399313 0 -0.032565316879396532 -0.034284047839441091 0 -0.03187686293251768 -0.034732597486893772 0 -0.032565316879396532 -0.034284047839441091 0 -0.030452203269332685 -0.034526473370495643 0 -0.03187686293251768 -0.034732597486893772 0 -0.032565316879396532 -0.034284047839441091 0 -0.029503373747033011 -0.034995198768876384 0 -0.030452203269332685 -0.034526473370495643 0 -0.029492627656519568 -0.034999978999177117 0 -0.028739443077385657 -0.036284333883698797 0 -0.027572053242853386 -0.034999971610959017 0 -0.02949298037783793 -0.03499999574856965 0 -0.029625108229749644 -0.034972474172367249 0 -0.027572053242853386 -0.034999971610959017 0 -0.02729288083517363 -0.036450549007387624 0 -0.025999526788867751 -0.036069065411099548 0 -0.027572053242853386 -0.034999971610959017 0 -0.025651406199094003 -0.034999970894871058 0 -0.025999526788867751 -0.036069065411099548 0 -0.028739443077385657 -0.036284333883698797 0 -0.027572053242853386 -0.034999971610959017 0 -0.02729288083517363 -0.036450549007387624 0 -0.028739443077385657 -0.036284333883698797 0 -0.02729288083517363 -0.036450549007387624 0 -0.028013708863596359 -0.037551504237344137 0 -0.029625108229749644 -0.034972474172367249 0 -0.030087317332921259 -0.034233070301650841 0 -0.02729288083517363 -0.036450549007387624 0 -0.026377982008991642 -0.037218685018455759 0 -0.028013708863596359 -0.037551504237344137 0 -0.02729288083517363 -0.036450549007387624 0 -0.026377982008991642 -0.037218685018455759 0 -0.025999526788867751 -0.036069065411099548 0 -0.026277377707937602 -0.035155548800222036 0 -0.030087317332921259 -0.034233070301650841 0 -0.02419472933719272 -0.036259608155153014 0 -0.023917636695335309 -0.036007701418211469 0 -0.023629148621499296 -0.036136726081470498 0 -0.02419472933719272 -0.036259608155153014 0 -0.023917636695335309 -0.036007701418211469 0 -0.024129581389804894 -0.035995090788863142 0 -0.023917636695335309 -0.036007701418211469 0 -0.023629148621499296 -0.036136726081470498 0 -0.023799200293068697 -0.035639301842861806 0 -0.036481761201258359 -0.031931779411909278 0 -0.036388435174239231 -0.031590540292460743 0 -0.036418117642869278 -0.03178414052982903 0 -0.030087317332921259 -0.034233070301650841 0 -0.029802793084571205 -0.033519276152962775 0 -0.036388435174239231 -0.031590540292460743 0 -0.036418117642869278 -0.03178414052982903 0 -0.036417371004185455 -0.031526296241128682 0 -0.023799200293068697 -0.035639301842861806 0 -0.024129581389804894 -0.035995090788863142 0 -0.024208408963586614 -0.035609585117719965 0 -0.023917636695335309 -0.036007701418211469 0 -0.023799200293068697 -0.035639301842861806 0 -0.024129581389804894 -0.035995090788863142 0 -0.036481761201258359 -0.031931779411909278 0 -0.036062915487485817 -0.032321247748497747 0 -0.036418117642869278 -0.03178414052982903 0 -0.030087317332921259 -0.034233070301650841 0 -0.032923807241692367 -0.033930507171854148 0 -0.030452203269332685 -0.034526473370495643 0 -0.030361241733696472 -0.034938322043288707 0 -0.03187686293251768 -0.034732597486893772 0 -0.036418117642869278 -0.03178414052982903 0 -0.036241170563895066 -0.031620808806111386 0 -0.036436867125081172 -0.031545844318639632 0 -0.036418117642869278 -0.03178414052982903 0 -0.036436867125081172 -0.031545844318639632 0 -0.036417371004185455 -0.031526296241128682 0 -0.036062915487485817 -0.032321247748497747 0 -0.036418117642869278 -0.03178414052982903 0 -0.036241170563895066 -0.031620808806111386 0 -0.036241170563895066 -0.031620808806111386 0 -0.036207114278478704 -0.031103705657922292 0 -0.035690749352828052 -0.030938801749198695 0 -0.036207114278478704 -0.031103705657922292 0 -0.036126330768725914 -0.030554184993264202 0 -0.035690749352828052 -0.030938801749198695 0 -0.036207114278478704 -0.031103705657922292 0 -0.036381857893737025 -0.031143009126708802 0 -0.036381917321344374 -0.030867945258196815 0 -0.036207114278478704 -0.031103705657922292 0 -0.036405340643079154 -0.031361395766594892 0 -0.036381857893737025 -0.031143009126708802 0 -0.036241170563895066 -0.031620808806111386 0 -0.036207114278478704 -0.031103705657922292 0 -0.036405340643079154 -0.031361395766594892 0 -0.036241170563895066 -0.031620808806111386 0 -0.036436867125081172 -0.031545844318639632 0 -0.036405340643079154 -0.031361395766594892 0 -0.036436867125081172 -0.031545844318639632 0 -0.036405340643079154 -0.031361395766594892 0 -0.036524779102497365 -0.031386537440139146 0 -0.036436867125081172 -0.031545844318639632 0 -0.036524779102497365 -0.031386537440139146 0 -0.036417371004185455 -0.031526296241128682 0 -0.036524779102497365 -0.031386537440139146 0 -0.036417371004185455 -0.031526296241128682 0 -0.036375632389470836 -0.031513701534305882 0 -0.03522962060087647 -0.029918664597749858 0 -0.035201520045654251 -0.029753482068804755 0 -0.036524779102497365 -0.031386537440139146 0 -0.036527963350807741 -0.031227419817088223 0 -0.036696799546721663 -0.03095361781180456 0 -0.036524779102497365 -0.031386537440139146 0 -0.036472226221367685 -0.031550282628933141 0 -0.036375632389470836 -0.031513701534305882 0 -0.035217433355168151 -0.02980651635663548 0 -0.035201520045654251 -0.029753482068804755 0 -0.036527963350807741 -0.031227419817088223 0 -0.036381917321344374 -0.030867945258196815 0 -0.036798254557193655 -0.030823423028250443 0 -0.036405340643079154 -0.031361395766594892 0 -0.036381857893737025 -0.031143009126708802 0 -0.036527963350807741 -0.031227419817088223 0 -0.036405340643079154 -0.031361395766594892 0 -0.036524779102497365 -0.031386537440139146 0 -0.036527963350807741 -0.031227419817088223 0 -0.036381857893737025 -0.031143009126708802 0 -0.036527963350807741 -0.031227419817088223 0 -0.036381917321344374 -0.030867945258196815 0 -0.036381917321344374 -0.030867945258196815 0 -0.036798254557193655 -0.030823423028250443 0 -0.03647615625454894 -0.030357920887066184 0 -0.035201520045654251 -0.029753482068804755 0 -0.035547545008506806 -0.028621514603712712 0 -0.036798254557193655 -0.030823423028250443 0 -0.03647615625454894 -0.030357920887066184 0 -0.036942286596409711 -0.029827035139806606 0 -0.03647615625454894 -0.030357920887066184 0 -0.036126330768725914 -0.030554184993264202 0 -0.036175372695018727 -0.029768952776005976 0 -0.036126330768725914 -0.030554184993264202 0 -0.036175372695018727 -0.029768952776005976 0 -0.035709667364508833 -0.030311907822699196 0 -0.036381917321344374 -0.030867945258196815 0 -0.03647615625454894 -0.030357920887066184 0 -0.036126330768725914 -0.030554184993264202 0 -0.036207114278478704 -0.031103705657922292 0 -0.036381917321344374 -0.030867945258196815 0 -0.036126330768725914 -0.030554184993264202 0 -0.036388435174239231 -0.031590540292460743 0 -0.036012777234458469 -0.031530086955910704 0 -0.036266787089299049 -0.031531325112856425 0 -0.023799200293068697 -0.035639301842861806 0 -0.024006513816550452 -0.034985862949291686 0 -0.024208408963586614 -0.035609585117719965 0 -0.029802793084571205 -0.033519276152962775 0 -0.029424628776615721 -0.032721704387874688 0 -0.036012777234458469 -0.031530086955910704 0 -0.036266787089299049 -0.031531325112856425 0 -0.0361122017352438 -0.031588547296035288 0 -0.036388435174239231 -0.031590540292460743 0 -0.036266787089299049 -0.031531325112856425 0 -0.036417371004185455 -0.031526296241128682 0 -0.036266787089299049 -0.031531325112856425 0 -0.036417371004185455 -0.031526296241128682 0 -0.036375632389470836 -0.031513701534305882 0 -0.036472226221367685 -0.031550282628933141 0 -0.036260099135020193 -0.03161881640425477 0 -0.036244219788542649 -0.031810765026762798 0 -0.035201520045654251 -0.029753482068804755 0 -0.034626930383108455 -0.029029467408191598 0 -0.036266787089299049 -0.031531325112856425 0 -0.036375632389470836 -0.031513701534305882 0 -0.036260099135020193 -0.03161881640425477 0 -0.036472226221367685 -0.031550282628933141 0 -0.036375632389470836 -0.031513701534305882 0 -0.036260099135020193 -0.03161881640425477 0 -0.036266787089299049 -0.031531325112856425 0 -0.036260099135020193 -0.03161881640425477 0 -0.0361122017352438 -0.031588547296035288 0 -0.036260099135020193 -0.03161881640425477 0 -0.0361122017352438 -0.031588547296035288 0 -0.03590546390861013 -0.031688993066376049 0 -0.036012777234458469 -0.031530086955910704 0 -0.03590546390861013 -0.031688993066376049 0 -0.035708772923275109 -0.031699730951935845 0 -0.036012777234458469 -0.031530086955910704 0 -0.0361122017352438 -0.031588547296035288 0 -0.03590546390861013 -0.031688993066376049 0 -0.03590546390861013 -0.031688993066376049 0 -0.035933998986734134 -0.031931483813800607 0 -0.036244219788542649 -0.031810765026762798 0 -0.03590546390861013 -0.031688993066376049 0 -0.035933998986734134 -0.031931483813800607 0 -0.035638296672345068 -0.03195895212734319 0 -0.036260099135020193 -0.03161881640425477 0 -0.03590546390861013 -0.031688993066376049 0 -0.036244219788542649 -0.031810765026762798 0 -0.034626930383108455 -0.029029467408191598 0 -0.033839086801033751 -0.026970737649505177 0 -0.035249528390503992 -0.028234854970457086 0 -0.034951247307944425 -0.027148963877406784 0 -0.035827940535817171 -0.027158668295198918 0 -0.035249528390503992 -0.028234854970457086 0 -0.034951247307944425 -0.027148963877406784 0 -0.034802595448467512 -0.028230993875701008 0 -0.035846683415716049 -0.026644599218979648 0 -0.033839086801033751 -0.026970737649505177 0 -0.035932792425730588 -0.032297174428877334 0 -0.035638296672345068 -0.03195895212734319 0 -0.035441577354526452 -0.032318120653408097 0 -0.035933998986734134 -0.031931483813800607 0 -0.035932792425730588 -0.032297174428877334 0 -0.035638296672345068 -0.03195895212734319 0 -0.033839086801033751 -0.026970737649505177 0 -0.031937295809876823 -0.027674757281816103 0 -0.035933998986734134 -0.031931483813800607 0 -0.036244219788542649 -0.031810765026762798 0 -0.035932792425730588 -0.032297174428877334 0 -0.034665185950808843 -0.029327976384810592 0 -0.035249528390503992 -0.028234854970457086 0 -0.034802595448467512 -0.028230993875701008 0 -0.03647615625454894 -0.030357920887066184 0 -0.036175372695018727 -0.029768952776005976 0 -0.036942286596409711 -0.029827035139806606 0 -0.037050866706522571 -0.028959497898516671 0 -0.036175372695018727 -0.029768952776005976 0 -0.036942286596409711 -0.029827035139806606 0 -0.035846683415716049 -0.026644599218979648 0 -0.035547545008506806 -0.028621514603712712 0 -0.037050866706522571 -0.028959497898516671 0 -0.036175372695018727 -0.029768952776005976 0 -0.035951626217192896 -0.028971701045039048 0 -0.036175372695018727 -0.029768952776005976 0 -0.03557251628258213 -0.029635389309951948 0 -0.035951626217192896 -0.028971701045039048 0 -0.03557251628258213 -0.029635389309951948 0 -0.034910534623336591 -0.028940451541273966 0 -0.035951626217192896 -0.028971701045039048 0 -0.036175372695018727 -0.029768952776005976 0 -0.03557251628258213 -0.029635389309951948 0 -0.035709667364508833 -0.030311907822699196 0 -0.03557251628258213 -0.029635389309951948 0 -0.035189706931412781 -0.030018419507415472 0 -0.035709667364508833 -0.030311907822699196 0 -0.035620427910154698 -0.02967671042454843 0 -0.035479632193374577 -0.028333326798377217 0 -0.035347925603456669 -0.029800399933196435 0 -0.037610181684060676 -0.027975268014709651 0 -0.037385401843250954 -0.027109396273237982 0 -0.036371539208613399 -0.027322280679376205 0 -0.036285721612545251 -0.028075141327611828 0 -0.035669705370118314 -0.027445845221298684 0 -0.036285721612545251 -0.028075141327611828 0 -0.036286662276624353 -0.028090365979434588 0 -0.036285721612545251 -0.028075141327611828 0 -0.036200493532660985 -0.027626061717785616 0 -0.03557251628258213 -0.029635389309951948 0 -0.035189706931412781 -0.030018419507415472 0 -0.035048235475401611 -0.029480563220398395 0 -0.03557251628258213 -0.029635389309951948 0 -0.035048235475401611 -0.029480563220398395 0 -0.034910534623336591 -0.028940451541273966 0 -0.036200493532660985 -0.027626061717785616 0 -0.035998941586295755 -0.026630181622102768 0 -0.037385401843250954 -0.027109396273237982 0 -0.036800862736565972 -0.026784310507053821 0 -0.037156574925875034 -0.026213104250789231 0 -0.036800862736565972 -0.026784310507053821 0 -0.036371539208613399 -0.027322280679376205 0 -0.036467756126511625 -0.026179001086045466 0 -0.036371539208613399 -0.027322280679376205 0 -0.035673880620840072 -0.02606621120813904 0 -0.036467756126511625 -0.026179001086045466 0 -0.036800862736565972 -0.026784310507053821 0 -0.036467756126511625 -0.026179001086045466 0 -0.037156574925875034 -0.026213104250789231 0 -0.037385401843250954 -0.027109396273237982 0 -0.036800862736565972 -0.026784310507053821 0 -0.036371539208613399 -0.027322280679376205 0 -0.035000321867371093 -0.026667371719181213 0 -0.035669705370118314 -0.027445845221298684 0 -0.034999999587974832 -0.026666101235808117 0 -0.036371539208613399 -0.027322280679376205 0 -0.035673880620840072 -0.02606621120813904 0 -0.034999826273687057 -0.026667669153738475 0 -0.035479632193374577 -0.028333326798377217 0 -0.034999093348486575 -0.028699316030110281 0 -0.035479632193374577 -0.028333326798377217 0 -0.035347925603456669 -0.029800399933196435 0 -0.034999093348486575 -0.028699316030110281 0 -0.035347925603456669 -0.029800399933196435 0 -0.034999093348486575 -0.028699316030110281 0 -0.034994658334437899 -0.030742152970053203 0 -0.03499799049002595 -0.031404961133399481 0 -0.034999093348486575 -0.028699316030110281 0 -0.034994658334437899 -0.030742152970053203 0 -0.035347925603456669 -0.029800399933196435 0 -0.034994658334437899 -0.030742152970053203 0 -0.03514343522275816 -0.030869040838076928 0 -0.034414958796758696 -0.032876997955399313 0 -0.034994658334437899 -0.030742152970053203 0 -0.03514343522275816 -0.030869040838076928 0 -0.034414958796758696 -0.032876997955399313 0 -0.03514343522275816 -0.030869040838076928 0 -0.035690749352828052 -0.030938801749198695 0 -0.03514343522275816 -0.030869040838076928 0 -0.035690749352828052 -0.030938801749198695 0 -0.035496315047758638 -0.030341322510461535 0 -0.035690749352828052 -0.030938801749198695 0 -0.035709667364508833 -0.030311907822699196 0 -0.035496315047758638 -0.030341322510461535 0 -0.036126330768725914 -0.030554184993264202 0 -0.035690749352828052 -0.030938801749198695 0 -0.035709667364508833 -0.030311907822699196 0 -0.035588736324164046 -0.029732560525797119 0 -0.035709667364508833 -0.030311907822699196 0 -0.035586269419182859 -0.029826676279937847 0 -0.035709667364508833 -0.030311907822699196 0 -0.035586269419182859 -0.029826676279937847 0 -0.035496315047758638 -0.030341322510461535 0 -0.036285721612545251 -0.028075141327611828 0 -0.036249927536270057 -0.028293300174098018 0 -0.035347925603456669 -0.029800399933196435 0 -0.035586269419182859 -0.029826676279937847 0 -0.035496315047758638 -0.030341322510461535 0 -0.035620427910154698 -0.02967671042454843 0 -0.035347925603456669 -0.029800399933196435 0 -0.035586269419182859 -0.029826676279937847 0 -0.035347925603456669 -0.029800399933196435 0 -0.03514343522275816 -0.030869040838076928 0 -0.035496315047758638 -0.030341322510461535 0 -0.015822285488180588 -0.035893345637540396 0 -0.014813537365912732 -0.034204046575946473 0 -0.017212170025152615 -0.036495096745009024 0 -0.01709438574388341 -0.037643592398216394 0 -0.016433199635507354 -0.036682629726514711 0 -0.019203624679912251 -0.037639354271375228 0 -0.018013684752057831 -0.037288246943808806 0 -0.017934411505899861 -0.03850893244612761 0 -0.019203624679912251 -0.037639354271375228 0 -0.019136590775598577 -0.038715972518451519 0 -0.017934411505899861 -0.03850893244612761 0 -0.019203624679912251 -0.037639354271375228 0 -0.020297275561359174 -0.038068001907319376 0 -0.019136590775598577 -0.038715972518451519 0 -0.019203624679912251 -0.037639354271375228 0 -0.018714848756457441 -0.036700006334546495 0 -0.019723911756261026 -0.036590776007157967 0 -0.019203624679912251 -0.037639354271375228 0 -0.018714848756457441 -0.036700006334546495 0 -0.018013684752057831 -0.037288246943808806 0 -0.015822285488180588 -0.035893345637540396 0 -0.016164985674460119 -0.03589549170807483 0 -0.018714848756457441 -0.036700006334546495 0 -0.018013684752057831 -0.037288246943808806 0 -0.017828119643013722 -0.035918693040295858 0 -0.017212170025152615 -0.036495096745009024 0 -0.017828119643013722 -0.035918693040295858 0 -0.016348861489309863 -0.035941126856828619 0 -0.017828119643013722 -0.035918693040295858 0 -0.017968303112194904 -0.034999439741282903 0 -0.019112769629303587 -0.035780027657232476 0 -0.017828119643013722 -0.035918693040295858 0 -0.017968303112194904 -0.034999439741282903 0 -0.016855656679612974 -0.03546993981550637 0 -0.017968303112194904 -0.034999439741282903 0 -0.019112769629303587 -0.035780027657232476 0 -0.019889430955953722 -0.034999783223858813 0 -0.018714848756457441 -0.036700006334546495 0 -0.017828119643013722 -0.035918693040295858 0 -0.019112769629303587 -0.035780027657232476 0 -0.018714848756457441 -0.036700006334546495 0 -0.019112769629303587 -0.035780027657232476 0 -0.019723911756261026 -0.036590776007157967 0 -0.019723911756261026 -0.036590776007157967 0 -0.020356501974107818 -0.035740778404414829 0 -0.020743943885129578 -0.036445913911924838 0 -0.019112769629303587 -0.035780027657232476 0 -0.019723911756261026 -0.036590776007157967 0 -0.020356501974107818 -0.035740778404414829 0 -0.019889430955953722 -0.034999783223858813 0 -0.020356501974107818 -0.035740778404414829 0 -0.021809817576793213 -0.034999817938432549 0 -0.019112769629303587 -0.035780027657232476 0 -0.019889430955953722 -0.034999783223858813 0 -0.020356501974107818 -0.035740778404414829 0 -0.020356501974107818 -0.035740778404414829 0 -0.021809817576793213 -0.034999817938432549 0 -0.021287780517536777 -0.035934707346937628 0 -0.021287780517536777 -0.035934707346937628 0 -0.020743943885129578 -0.036445913911924838 0 -0.021712003342428694 -0.036339572098780228 0 -0.020356501974107818 -0.035740778404414829 0 -0.021287780517536777 -0.035934707346937628 0 -0.020743943885129578 -0.036445913911924838 0 -0.020743943885129578 -0.036445913911924838 0 -0.021190978003325485 -0.036936214664115216 0 -0.021712003342428694 -0.036339572098780228 0 -0.021190978003325485 -0.036936214664115216 0 -0.020963985287477446 -0.037693202181351283 0 -0.021600041156498041 -0.037352163693425436 0 -0.021190978003325485 -0.036936214664115216 0 -0.020337959131372742 -0.037223056901382973 0 -0.020963985287477446 -0.037693202181351283 0 -0.020743943885129578 -0.036445913911924838 0 -0.021190978003325485 -0.036936214664115216 0 -0.020337959131372742 -0.037223056901382973 0 -0.019203624679912251 -0.037639354271375228 0 -0.019723911756261026 -0.036590776007157967 0 -0.020337959131372742 -0.037223056901382973 0 -0.019723911