<?xml version="1.0"?>
<VTKFile type="UnstructuredGrid" version="0.1" byte_order="LittleEndian">
<UnstructuredGrid>
<Piece NumberOfPoints="31898" NumberOfCells="11152">
<Points>
<DataArray type="Float64" NumberOfComponents="3" format="ascii">
-0.5 -0.5 0 -0.47620991077874902 -0.44978878706170539 0 -0.49999999999999473 -0.42132396840504388 0 -0.5 -0.5 0 -0.47160970827802529 -0.4793630013852106 0 -0.47620991077874902 -0.44978878706170539 0 -0.5 -0.5 0 -0.47160970827802529 -0.4793630013852106 0 -0.44860394795025399 -0.5 0 -0.47160970827802529 -0.4793630013852106 0 -0.44860394795025399 -0.5 0 -0.4490820238307246 -0.45820516232899983 0 -0.44860394795025399 -0.5 0 -0.4490820238307246 -0.45820516232899983 0 -0.42881687682924802 -0.47781464288736519 0 -0.4490820238307246 -0.45820516232899983 0 -0.45555437223955858 -0.42914059360647611 0 -0.4490820238307246 -0.45820516232899983 0 -0.45555437223955858 -0.42914059360647611 0 -0.43867285131603428 -0.4271457417558665 0 -0.4490820238307246 -0.45820516232899983 0 -0.43867285131603428 -0.4271457417558665 0 -0.4263356171060747 -0.44269880333887462 0 -0.47160970827802529 -0.4793630013852106 0 -0.4490820238307246 -0.45820516232899983 0 -0.47620991077874902 -0.44978878706170539 0 -0.4490820238307246 -0.45820516232899983 0 -0.47620991077874902 -0.44978878706170539 0 -0.45555437223955858 -0.42914059360647611 0 -0.47620991077874902 -0.44978878706170539 0 -0.48101336032419229 -0.41069999664450008 0 -0.45555437223955858 -0.42914059360647611 0 -0.47620991077874902 -0.44978878706170539 0 -0.49999999999999473 -0.42132396840504388 0 -0.48101336032419229 -0.41069999664450008 0 -0.49999999999999473 -0.42132396840504388 0 -0.48101336032419229 -0.41069999664450008 0 -0.5 -0.393886241813306 0 -0.49999999999999473 -0.42132396840504388 0 -0.48101336032419229 -0.41069999664450008 0 -0.5 -0.393886241813306 0 -0.47854472220918332 -0.38978458738689759 0 -0.48422759779560409 -0.37130120630367158 0 -0.5 -0.393886241813306 0 -0.5 -0.36644851522156802 0 -0.48422759779560409 -0.37130120630367158 0 -0.48101336032419229 -0.41069999664450008 0 -0.5 -0.393886241813306 0 -0.47854472220918332 -0.38978458738689759 0 -0.48101336032419229 -0.41069999664450008 0 -0.47854472220918332 -0.38978458738689759 0 -0.46202672064839212 -0.40007602488395211 0 -0.48101336032419229 -0.41069999664450008 0 -0.46202672064839212 -0.40007602488395211 0 -0.47854472220918332 -0.38978458738689759 0 -0.46725442735267431 -0.37660061361585562 0 -0.46202672064839212 -0.40007602488395211 0 -0.47854472220918332 -0.38978458738689759 0 -0.46725442735267431 -0.37660061361585562 0 -0.48422759779560409 -0.37130120630367158 0 -0.46725442735267431 -0.37660061361585562 0 -0.46202672064839212 -0.40007602488395211 0 -0.46725442735267431 -0.37660061361585562 0 -0.45645674801697989 -0.38644133236760531 0 -0.46202672064839212 -0.40007602488395211 0 -0.46725442735267431 -0.37660061361585562 0 -0.45645674801697989 -0.38644133236760531 0 -0.4540003998136638 -0.37455519391687309 0 -0.45645674801697989 -0.38644133236760531 0 -0.46202672064839212 -0.40007602488395211 0 -0.44257020456291563 -0.38918913383950271 0 -0.46202672064839212 -0.40007602488395211 0 -0.44257020456291563 -0.38918913383950271 0 -0.44727608925983742 -0.41095911152778891 0 -0.46202672064839212 -0.40007602488395211 0 -0.44257020456291563 -0.38918913383950271 0 -0.44257020456291563 -0.38918913383950271 0 -0.44727608925983742 -0.41095911152778891 0 -0.43479358559901082 -0.4041454901736512 0 -0.44257020456291563 -0.38918913383950271 0 -0.4540003998136638 -0.37455519391687309 0 -0.44172858264042247 -0.37082207246888088 0 -0.45645674801697989 -0.38644133236760531 0 -0.44257020456291563 -0.38918913383950271 0 -0.4540003998136638 -0.37455519391687309 0 -0.46202672064839212 -0.40007602488395211 0 -0.45555437223955858 -0.42914059360647611 0 -0.44727608925983742 -0.41095911152778891 0 -0.46202672064839212 -0.40007602488395211 0 -0.45555437223955858 -0.42914059360647611 0 -0.48101336032419229 -0.41069999664450008 0 -0.46202672064839212 -0.40007602488395211 0 -0.45555437223955858 -0.42914059360647611 0 -0.44727608925983742 -0.41095911152778891 0 -0.43867285131603428 -0.4271457417558665 0 -0.43676601469929588 -0.41441201227470881 0 -0.44727608925983742 -0.41095911152778891 0 -0.43676601469929588 -0.41441201227470881 0 -0.43479358559901082 -0.4041454901736512 0 -0.45555437223955858 -0.42914059360647611 0 -0.44727608925983742 -0.41095911152778891 0 -0.43867285131603428 -0.4271457417558665 0 -0.43867285131603428 -0.4271457417558665 0 -0.42681803064840879 -0.42717069814352421 0 -0.4263356171060747 -0.44269880333887462 0 -0.42681803064840879 -0.42717069814352421 0 -0.41531815884496182 -0.42985383783075998 0 -0.4263356171060747 -0.44269880333887462 0 -0.42681803064840879 -0.42717069814352421 0 -0.42624289495594048 -0.42089725947505818 0 -0.42083332353326591 -0.42146747131641099 0 -0.42681803064840879 -0.42717069814352421 0 -0.43096994786351572 -0.41951492446283251 0 -0.42624289495594048 -0.42089725947505818 0 -0.43867285131603428 -0.4271457417558665 0 -0.42681803064840879 -0.42717069814352421 0 -0.43096994786351572 -0.41951492446283251 0 -0.43867285131603428 -0.4271457417558665 0 -0.43676601469929588 -0.41441201227470881 0 -0.43096994786351572 -0.41951492446283251 0 -0.43676601469929588 -0.41441201227470881 0 -0.43096994786351572 -0.41951492446283251 0 -0.42907264086257813 -0.41311715872526122 0 -0.43676601469929588 -0.41441201227470881 0 -0.42907264086257813 -0.41311715872526122 0 -0.43479358559901082 -0.4041454901736512 0 -0.42907264086257813 -0.41311715872526122 0 -0.43479358559901082 -0.4041454901736512 0 -0.42460885511582858 -0.40417321677700252 0 -0.42907264086257813 -0.41311715872526122 0 -0.41997834854398469 -0.41180534796019508 0 -0.42907264086257813 -0.41311715872526122 0 -0.42635027777857132 -0.41543594397746519 0 -0.41997834854398469 -0.41180534796019508 0 -0.42907264086257813 -0.41311715872526122 0 -0.41997834854398469 -0.41180534796019508 0 -0.42460885511582858 -0.40417321677700252 0 -0.42635027777857132 -0.41543594397746519 0 -0.41997834854398469 -0.41180534796019508 0 -0.42635027777857132 -0.41543594397746519 0 -0.42083332353326591 -0.42146747131641099 0 -0.41997834854398469 -0.41180534796019508 0 -0.43096994786351572 -0.41951492446283251 0 -0.42624289495594048 -0.42089725947505818 0 -0.42635027777857132 -0.41543594397746519 0 -0.43096994786351572 -0.41951492446283251 0 -0.42907264086257813 -0.41311715872526122 0 -0.42635027777857132 -0.41543594397746519 0 -0.42624289495594048 -0.42089725947505818 0 -0.42635027777857132 -0.41543594397746519 0 -0.42083332353326591 -0.42146747131641099 0 -0.42083332353326591 -0.42146747131641099 0 -0.41997834854398469 -0.41180534796019508 0 -0.40992282953163789 -0.42011435591993562 0 -0.41997834854398469 -0.41180534796019508 0 -0.39756877647335259 -0.40857286797681719 0 -0.41997834854398469 -0.41180534796019508 0 -0.40992282953163789 -0.42011435591993562 0 -0.39756877647335259 -0.40857286797681719 0 -0.40992282953163789 -0.42011435591993562 0 -0.41531815884496182 -0.42985383783075998 0 -0.39591554026262499 -0.42887225451549271 0 -0.41531815884496182 -0.42985383783075998 0 -0.39591554026262499 -0.42887225451549271 0 -0.41160927495564159 -0.44339431233754628 0 -0.42083332353326591 -0.42146747131641099 0 -0.40992282953163789 -0.42011435591993562 0 -0.41531815884496182 -0.42985383783075998 0 -0.42681803064840879 -0.42717069814352421 0 -0.42083332353326591 -0.42146747131641099 0 -0.41531815884496182 -0.42985383783075998 0 -0.44257020456291563 -0.38918913383950271 0 -0.42311368847744002 -0.37830224279505142 0 -0.42594061475171041 -0.39368797999533162 0 -0.44257020456291563 -0.38918913383950271 0 -0.42311368847744002 -0.37830224279505142 0 -0.44172858264042247 -0.37082207246888088 0 -0.44257020456291563 -0.38918913383950271 0 -0.42311368847744002 -0.37830224279505142 0 -0.42311368847744002 -0.37830224279505142 0 -0.42594061475171041 -0.39368797999533162 0 -0.416587075656149 -0.38785930376960043 0 -0.44257020456291563 -0.38918913383950271 0 -0.42594061475171041 -0.39368797999533162 0 -0.43479358559901082 -0.4041454901736512 0 -0.42594061475171041 -0.39368797999533162 0 -0.43479358559901082 -0.4041454901736512 0 -0.42460885511582858 -0.40417321677700252 0 -0.41997834854398469 -0.41180534796019508 0 -0.41325908582185972 -0.39811010703057192 0 -0.39770572831670092 -0.39911486077581648 0 -0.41997834854398469 -0.41180534796019508 0 -0.39770572831670092 -0.39911486077581648 0 -0.42594061475171041 -0.39368797999533162 0 -0.42460885511582858 -0.40417321677700252 0 -0.41325908582185972 -0.39811010703057192 0 -0.41997834854398469 -0.41180534796019508 0 -0.42460885511582858 -0.40417321677700252 0 -0.41325908582185972 -0.39811010703057192 0 -0.42594061475171041 -0.39368797999533162 0 -0.41325908582185972 -0.39811010703057192 0 -0.416587075656149 -0.38785930376960043 0 -0.41325908582185972 -0.39811010703057192 0 -0.416587075656149 -0.38785930376960043 0 -0.40403491357358612 -0.38133688525744702 0 -0.42311368847744002 -0.37830224279505142 0 -0.40403491357358612 -0.38133688525744702 0 -0.40365717239196519 -0.36741535175059892 0 -0.42311368847744002 -0.37830224279505142 0 -0.416587075656149 -0.38785930376960043 0 -0.40403491357358612 -0.38133688525744702 0 -0.40403491357358612 -0.38133688525744702 0 -0.39190790742475001 -0.38540387676521748 0 -0.39770572831670092 -0.39911486077581648 0 -0.40403491357358612 -0.38133688525744702 0 -0.39190790742475001 -0.38540387676521748 0 -0.3904578797192948 -0.37473938743617019 0 -0.41325908582185972 -0.39811010703057192 0 -0.40403491357358612 -0.38133688525744702 0 -0.39770572831670092 -0.39911486077581648 0 -0.39770572831670092 -0.39911486077581648 0 -0.37543310808941849 -0.38642437359143528 0 -0.39770572831670092 -0.39911486077581648 0 -0.37515920440272033 -0.40534038799344108 0 -0.37543310808941849 -0.38642437359143528 0 -0.39770572831670092 -0.39911486077581648 0 -0.37515920440272033 -0.40534038799344108 0 -0.39756877647335259 -0.40857286797681719
[...]
<PointData Scalars="" Vectors="displacement," Tensors="">
<DataArray type="Float64" Name="displacement" NumberOfComponents="3" format="ascii">
-0.034997044140962615 -2.3342625775086209e-07 0 -0.034069752562138796 -0.00014347688055379112 0 -0.034997552260150555 -6.8885549828330988e-07 0 -0.034997044140962615 -2.3342625775086209e-07 0 -0.033416507051155321 -7.7999176241396622e-05 0 -0.034069752562138796 -0.00014347688055379112 0 -0.034997044140962615 -2.3342625775086209e-07 0 -0.033416507051155321 -7.7999176241396622e-05 0 -0.03140415306646966 -1.1405134822615022e-07 0 -0.033416507051155321 -7.7999176241396622e-05 0 -0.03140415306646966 -1.1405134822615022e-07 0 -0.032692780246648331 0.00022068761438801557 0 -0.03140415306646966 -1.1405134822615022e-07 0 -0.032692780246648331 0.00022068761438801557 0 -0.031123099293093912 -6.0352973052012481e-05 0 -0.032876616600930587 0.00036389907141955803 0 -0.032948617254004178 0.00036849180888212082 0 -0.032692780246648331 0.00022068761438801557 0 -0.031560389904981292 0.00074996691198402966 0 -0.031464760835438747 0.00025419337674742552 0 -0.032692780246648331 0.00022068761438801557 0 -0.031464760835438747 0.00025419337674742552 0 -0.031752069109389519 -6.2501287928402549e-06 0 -0.033416507051155321 -7.7999176241396622e-05 0 -0.032692780246648331 0.00022068761438801557 0 -0.034069752562138796 -0.00014347688055379112 0 -0.032692780246648331 0.00022068761438801557 0 -0.034069752562138796 -0.00014347688055379112 0 -0.034420593588972578 0.00035601139948003048 0 -0.034069752562138796 -0.00014347688055379112 0 -0.034889665399978551 6.3256390466398364e-06 0 -0.034420593588972578 0.00035601139948003048 0 -0.034069752562138796 -0.00014347688055379112 0 -0.034997552260150555 -6.8885549828330988e-07 0 -0.034889665399978551 6.3256390466398364e-06 0 -0.034999990000218334 1.1378471266015063e-09 0 -0.034988033643357848 -2.1618023272294867e-07 0 -0.034999982597986541 -9.9560546609596054e-10 0 -0.034998500068669947 6.2364433179648639e-07 0 -0.034258199297378292 0.00020510629641740764 0 -0.034999982597986541 -9.9560546609596054e-10 0 -0.034986108327213362 -1.4170146677318061e-06 0 -0.034992336015458231 -3.893514033570395e-06 0 -0.034999982597986541 -9.9560546609596054e-10 0 -0.034999981663820082 -7.1764823376072288e-09 0 -0.034992336015458231 -3.893514033570395e-06 0 -0.034988033643357848 -2.1618023272294867e-07 0 -0.034999982597986541 -9.9560546609596054e-10 0 -0.034986108327213362 -1.4170146677318061e-06 0 -0.034988033643357848 -2.1618023272294867e-07 0 -0.034986108327213362 -1.4170146677318061e-06 0 -0.034972413470731108 9.9495156812239591e-07 0 -0.034258199297378292 0.00020510629641740764 0 -0.033103834740694345 0.00024657921620225486 0 -0.034986108327213362 -1.4170146677318061e-06 0 -0.034981471633939401 -4.5885521898135372e-07 0 -0.034972413470731108 9.9495156812239591e-07 0 -0.034986108327213362 -1.4170146677318061e-06 0 -0.034981471633939401 -4.5885521898135372e-07 0 -0.034992336015458231 -3.893514033570395e-06 0 -0.03355741121833327 0.00014283037709024931 0 -0.033103834740694345 0.00024657921620225486 0 -0.032053113564573167 0.0003607357627717519 0 -0.032006709279303928 0.00048280941161017775 0 -0.03191375218217473 0.00044566815086762398 0 -0.032053113564573167 0.0003607357627717519 0 -0.032006709279303928 0.00048280941161017775 0 -0.032121828950402685 0.00052360120452812019 0 -0.032006709279303928 0.00048280941161017775 0 -0.03191375218217473 0.00044566815086762398 0 -0.032001953323484468 0.00059290574005814456 0 -0.03078802063994129 0.00092532880592677985 0 -0.030483472742948152 0.00043652484890177926 0 -0.031062436292761415 0.00053577183841250185 0 -0.033103834740694345 0.00024657921620225486 0 -0.031826931515561846 0.00028537675720830739 0 -0.030483472742948152 0.00043652484890177926 0 -0.031062436292761415 0.00053577183841250185 0 -0.030871760011888547 0.00023670111992574807 0 -0.032001953323484468 0.00059290574005814456 0 -0.032121828950402685 0.00052360120452812019 0 -0.032150255127314953 0.0006051502188013897 0 -0.032006709279303928 0.00048280941161017775 0 -0.032001953323484468 0.00059290574005814456 0 -0.032121828950402685 0.00052360120452812019 0 -0.03078802063994129 0.00092532880592677985 0 -0.031560389904981292 0.00074996691198402966 0 -0.031062436292761415 0.00053577183841250185 0 -0.033103834740694345 0.00024657921620225486 0 -0.032948617254004178 0.00036849180888212082 0 -0.034889665399978551 6.3256390466398364e-06 0 -0.035009098744067532 0.00030365529645329047 0 -0.034420593588972578 0.00035601139948003048 0 -0.031062436292761415 0.00053577183841250185 0 -0.031464760835438747 0.00025419337674742552 0 -0.031157142500380167 0.00026812619021637915 0 -0.031062436292761415 0.00053577183841250185 0 -0.031157142500380167 0.00026812619021637915 0 -0.030871760011888547 0.00023670111992574807 0 -0.031560389904981292 0.00074996691198402966 0 -0.031062436292761415 0.00053577183841250185 0 -0.031464760835438747 0.00025419337674742552 0 -0.031464760835438747 0.00025419337674742552 0 -0.031446473942016148 5.7919505114150084e-05 0 -0.031752069109389519 -6.2501287928402549e-06 0 -0.031446473942016148 5.7919505114150084e-05 0 -0.031467733478982143 -3.544220274598152e-05 0 -0.031752069109389519 -6.2501287928402549e-06 0 -0.031446473942016148 5.7919505114150084e-05 0 -0.031323945862067278 5.4762316004509102e-05 0 -0.031337430252837736 8.9625306954744619e-07 0 -0.031446473942016148 5.7919505114150084e-05 0 -0.031293113587563377 0.0001338736792169561 0 -0.031323945862067278 5.4762316004509102e-05 0 -0.031464760835438747 0.00025419337674742552 0 -0.031446473942016148 5.7919505114150084e-05 0 -0.031293113587563377 0.0001338736792169561 0 -0.031464760835438747 0.00025419337674742552 0 -0.031157142500380167 0.00026812619021637915 0 -0.031293113587563377 0.0001338736792169561 0 -0.031157142500380167 0.00026812619021637915 0 -0.031293113587563377 0.0001338736792169561 0 -0.031128207416796536 0.00010146549182251044 0 -0.031157142500380167 0.00026812619021637915 0 -0.031128207416796536 0.00010146549182251044 0 -0.030871760011888547 0.00023670111992574807 0 -0.031128207416796536 0.00010146549182251044 0 -0.030871760011888547 0.00023670111992574807 0 -0.030852892167001461 -1.834332239268617e-05 0 -0.028199614757359107 0.00054287110001422076 0 -0.028101218310729922 0.00056739584336624441 0 -0.031128207416796536 0.00010146549182251044 0 -0.031215392208281657 3.8272028254580691e-05 0 -0.03109092526921867 -0.00014286040700780341 0 -0.031128207416796536 0.00010146549182251044 0 -0.031048845696947432 -0.00013699097093602296 0 -0.030852892167001461 -1.834332239268617e-05 0 -0.028199437727892532 0.00061256936609501691 0 -0.028101218310729922 0.00056739584336624441 0 -0.031215392208281657 3.8272028254580691e-05 0 -0.031337430252837736 8.9625306954744619e-07 0 -0.031224185144496878 -2.5266126640947316e-06 0 -0.031293113587563377 0.0001338736792169561 0 -0.031323945862067278 5.4762316004509102e-05 0 -0.031215392208281657 3.8272028254580691e-05 0 -0.031293113587563377 0.0001338736792169561 0 -0.031128207416796536 0.00010146549182251044 0 -0.031215392208281657 3.8272028254580691e-05 0 -0.031323945862067278 5.4762316004509102e-05 0 -0.031215392208281657 3.8272028254580691e-05 0 -0.031337430252837736 8.9625306954744619e-07 0 -0.031337430252837736 8.9625306954744619e-07 0 -0.031224185144496878 -2.5266126640947316e-06 0 -0.03132055259485652 -7.8157433106385355e-05 0 -0.028101218310729922 0.00056739584336624441 0 -0.027388616335163908 0.00029707576947135599 0 -0.031224185144496878 -2.5266126640947316e-06 0 -0.03132055259485652 -7.8157433106385355e-05 0 -0.031193935718895015 -0.00015973628052030618 0 -0.03132055259485652 -7.8157433106385355e-05 0 -0.031467733478982143 -3.544220274598152e-05 0 -0.031385295518050742 -0.00016569006126087069 0 -0.031467733478982143 -3.544220274598152e-05 0 -0.031385295518050742 -0.00016569006126087069 0 -0.031609263512444058 -7.9138977373172497e-06 0 -0.031337430252837736 8.9625306954744619e-07 0 -0.03132055259485652 -7.8157433106385355e-05 0 -0.031467733478982143 -3.544220274598152e-05 0 -0.031446473942016148 5.7919505114150084e-05 0 -0.031337430252837736 8.9625306954744619e-07 0 -0.031467733478982143 -3.544220274598152e-05 0 -0.030483472742948152 0.00043652484890177926 0 -0.03015383248646826 -4.9096210952492676e-05 0 -0.030570661759664941 1.8534581159418897e-05 0 -0.032001953323484468 0.00059290574005814456 0 -0.032092673453155807 0.00069478722034360403 0 -0.032150255127314953 0.0006051502188013897 0 -0.031826931515561846 0.00028537675720830739 0 -0.030891915443413149 0.00039290253855967227 0 -0.03015383248646826 -4.9096210952492676e-05 0 -0.030570661759664941 1.8534581159418897e-05 0 -0.030392747073235634 -0.00021184601836365835 0 -0.030483472742948152 0.00043652484890177926 0 -0.030570661759664941 1.8534581159418897e-05 0 -0.030871760011888547 0.00023670111992574807 0 -0.030570661759664941 1.8534581159418897e-05 0 -0.030871760011888547 0.00023670111992574807 0 -0.030852892167001461 -1.834332239268617e-05 0 -0.031048845696947432 -0.00013699097093602296 0 -0.030664272105670125 -0.00030094157908328755 0 -0.030663160826851766 -0.00070059152689841029 0 -0.028101218310729922 0.00056739584336624441 0 -0.02741013641306007 0.00045594358358649949 0 -0.030570661759664941 1.8534581159418897e-05 0 -0.030852892167001461 -1.834332239268617e-05 0 -0.030664272105670125 -0.00030094157908328755 0 -0.031048845696947432 -0.00013699097093602296 0 -0.030852892167001461 -1.834332239268617e-05 0 -0.030664272105670125 -0.00030094157908328755 0 -0.030570661759664941 1.8534581159418897e-05 0 -0.030664272105670125 -0.00030094157908328755 0 -0.030392747073235634 -0.00021184601836365835 0 -0.030664272105670125 -0.00030094157908328755 0 -0.030392747073235634 -0.00021184601836365835 0 -0.030185605602648987 -0.00051561094799386354 0 -0.03015383248646826 -4.9096210952492676e-05 0 -0.030185605602648987 -0.00051561094799386354 0 -0.029860670733677271 -0.00051722858140742394 0 -0.03015383248646826 -4.9096210952492676e-05 0 -0.030392747073235634 -0.00021184601836365835 0 -0.030185605602648987 -0.00051561094799386354 0 -0.030185605602648987 -0.00051561094799386354 0 -0.030266295409923528 -0.00086722935025326776 0 -0.030663160826851766 -0.00070059152689841029 0 -0.030185605602648987 -0.00051561094799386354 0 -0.030266295409923528 -0.00086722935025326776 0 -0.029943889379426176 -0.00091028188840281831 0 -0.030664272105670125 -0.00030094157908328755 0 -0.030185605602648987 -0.00051561094799386354 0 -0.030663160826851766 -0.00070059152689841029 0 -0.02741013641306007 0.00045594358358649949 0 -0.02576009102678431 0.00038020441531014492 0 -0.026853758317620567 0.00039229515241839916 0 -0.026950302441172188 -4.6224463512535933e-06 0 -0.026615641497590395 9.180034442499836e-07 0 -0.026853758317620567 0.00039229515241839916 0 -0.026950302441172188 -4.6224463512535933e-06 0 -0.027022460719984778 0.00038956119572968628 0 -0.025904545259250619 -2.0325288145931574e-06 0 -0.02576009102678431 0.00038020441531014492 0 -0.030266094996642439 -0.0013473962190425279 0 -0.029943889379426176 -0.00091028188840281831 0 -0.029751178556313023 -0.0013510416621960982 0 -0.030266295409923528 -0.00086722935025326776 0 -0.030266094996642439 -0.0013473962190425279 0 -0.029943889379426176 -0.00091028188840281831 0 -0.02576009102678431 0.00038020441531014492 0 -0.026864895362463698 0.00013434134745405815 0 -0.030266295409923528 -0.00086722935025326776 0 -0.030663160826851766 -0.00070059152689841029 0 -0.030266094996642439 -0.0013473962190425279 0 -0.027100929586411561 0.00078418620650377629 0 -0.026853758317620567 0.00039229515241839916 0 -0.027022460719984778 0.00038956119572968628 0 -0.03132055259485652 -7.8157433106385355e-05 0 -0.031385295518050742 -0.00016569006126087069 0 -0.031193935718895015 -0.00015973628052030618 0 -0.031122702446699298 -0.00032950931671893468 0 -0.031385295518050742 -0.00016569006126087069 0 -0.031193935718895015 -0.00015973628052030618 0 -0.025904545259250619 -2.0325288145931574e-06 0 -0.027388616335163908 0.00029707576947135599 0 -0.031122702446699298 -0.00032950931671893468 0 -0.031385295518050742 -0.00016569006126087069 0 -0.031401692733423428 -0.00030672142114344405 0 -0.031385295518050742 -0.00016569006126087069 0 -0.031521100996184291 -0.00016708016029548528 0 -0.031401692733423428 -0.00030672142114344405 0 -0.031521100996184291 -0.00016708016029548528 0 -0.031563041568310315 -0.00026246909458945778 0 -0.031401692733423428 -0.00030672142114344405 0 -0.031385295518050742 -0.00016569006126087069 0 -0.031521100996184291 -0.00016708016029548528 0 -0.031609263512444058 -7.9138977373172497e-06 0 -0.031521100996184291 -0.00016708016029548528 0 -0.031588402416571543 -9.0290355431801224e-05 0 -0.031609263512444058 -7.9138977373172497e-06 0 -0.031412646435626738 0.00043884678961047478 0 -0.029612903390049638 0.00064053112019515305 0 -0.030912184379460576 0.00012993797728378935 0 -0.024299913203398978 0.0011620225692107269 0 -0.024411169130512441 0.00064531539938665421 0 -0.025060352756087364 0.00082551700696755273 0 -0.028140649798949816 -0.00063857648460346225 0 -0.027391227962386765 -0.00013219788780082778 0 -0.028140649798949816 -0.00063857648460346225 0 -0.028149770858434866 -0.00063584023926099875 0 -0.028140649798949816 -0.00063857648460346225 0 -0.027358175075844322 2.9315500410114577e-05 0 -0.031521100996184291 -0.00016708016029548528 0 -0.031588402416571543 -9.0290355431801224e-05 0 -0.03157220300165034 -0.00018416439313654026 0 -0.031521100996184291 -0.00016708016029548528 0 -0.03157220300165034 -0.00018416439313654026 0 -0.031563041568310315 -0.00026246909458945778 0 -0.027358175075844322 2.9315500410114577e-05 0 -0.026455858205342003 0.00064377025722756412 0 -0.024411169130512441 0.00064531539938665421 0 -0.024769268980179969 0.00043451436571782201 0 -0.024532417151110614 4.9816042410658175e-05 0 -0.024769268980179969 0.00043451436571782201 0 -0.025060352756087364 0.00082551700696755273 0 -0.024970070815876332 5.3855856702685472e-07 0 -0.025060352756087364 0.00082551700696755273 0 -0.025569453705214597 -0.00012415529182435928 0 -0.024970070815876332 5.3855856702685472e-07 0 -0.024769268980179969 0.00043451436571782201 0 -0.024970070815876332 5.3855856702685472e-07 0 -0.024532417151110614 4.9816042410658175e-05 0 -0.024411169130512441 0.00064531539938665421 0 -0.024769268980179969 0.00043451436571782201 0 -0.025060352756087364 0.00082551700696755273 0 -0.026667525989165382 7.3741633917343948e-09 0 -0.027391227962386765 -0.00013219788780082778 0 -0.026663302201861704 1.5537225333278311e-06 0 -0.025060352756087364 0.00082551700696755273 0 -0.025569453705214597 -0.00012415529182435928 0 -0.026669689912731755 2.6949567223761427e-06 0 -0.029612903390049638 0.00064053112019515305 0 -0.028698703084013032 -6.126826093847933e-07 0 -0.029612903390049638 0.00064053112019515305 0 -0.030912184379460576 0.00012993797728378935 0 -0.028698703084013032 -6.126826093847933e-07 0 -0.030912184379460576 0.00012993797728378935 0 -0.028698703084013032 -6.126826093847933e-07 0 -0.031123099293093912 -6.0352973052012481e-05 0 -0.03140415306646966 -1.1405134822615022e-07 0 -0.028698703084013032 -6.126826093847933e-07 0 -0.031123099293093912 -6.0352973052012481e-05 0 -0.030912184379460576 0.00012993797728378935 0 -0.031123099293093912 -6.0352973052012481e-05 0 -0.031708029866301342 1.4011957863871342e-05 0 -0.032692780246648331 0.00022068761438801557 0 -0.031123099293093912 -6.0352973052012481e-05 0 -0.031708029866301342 1.4011957863871342e-05 0 -0.032692780246648331 0.00022068761438801557 0 -0.031708029866301342 1.4011957863871342e-05 0 -0.031752069109389519 -6.2501287928402549e-06 0 -0.031708029866301342 1.4011957863871342e-05 0 -0.031752069109389519 -6.2501287928402549e-06 0 -0.031612401648562251 4.6733158271204541e-05 0 -0.031752069109389519 -6.2501287928402549e-06 0 -0.031609263512444058 -7.9138977373172497e-06 0 -0.031612401648562251 4.6733158271204541e-05 0 -0.031467733478982143 -3.544220274598152e-05 0 -0.031752069109389519 -6.2501287928402549e-06 0 -0.031609263512444058 -7.9138977373172497e-06 0 -0.03145410868963934 0.00037700187331992773 0 -0.031609263512444058 -7.9138977373172497e-06 0 -0.031460373671668894 0.00030999251197001248 0 -0.031609263512444058 -7.9138977373172497e-06 0 -0.031460373671668894 0.00030999251197001248 0 -0.031612401648562251 4.6733158271204541e-05 0 -0.028140649798949816 -0.00063857648460346225 0 -0.028973243364782519 -0.00084402830418976965 0 -0.030912184379460576 0.00012993797728378935 0 -0.031460373671668894 0.00030999251197001248 0 -0.031612401648562251 4.6733158271204541e-05 0 -0.031412646435626738 0.00043884678961047478 0 -0.030912184379460576 0.00012993797728378935 0 -0.031460373671668894 0.00030999251197001248 0 -0.030912184379460576 0.00012993797728378935 0 -0.031708029866301342 1.4011957863871342e-05 0 -0.031612401648562251 4.6733158271204541e-05 0 -0.032145445199570993 7.8381208487245379e-05 0 -0.030536399769837467 0.00022409303837374675 0 -0.03470071367694668 -0.0004797306280370155 0 -0.034743740945699861 -0.0020055550347494152 0 -0.03395464606467976 -0.00078197333558313055 0 -0.034830678489159522 0.00031604914942692753 0 -0.034948925602437779 0.0002395562663599638 0 -0.034937593355354998 0.00043468307077054323 0 -0.034830678489159522 0.00031604914942692753 0 -0.034799868185408277 0.00048635764106685854 0 -0.034937593355354998 0.00043468307077054323 0 -0.034830678489159522 0.00031604914942692753 0 -0.034683512199230666 0.0004468909488598862 0 -0.034799868185408277 0.00048635764106685854 0 -0.034830678489159522 0.00031604914942692753 0 -0.034886360499521332 0.00015161197602562505 0 -0.034846645819814885 0.00013590077935582583 0 -0.034830678489159522 0.00031604914942692753 0 -0.034886360499521332 0.00015161197602562505 0 -0.034948925602437779 0.0002395562663599638 0 -0.032145445199570993 7.8381208487245379e-05 0 -0.032624328617634521 0.00014963195557350116 0 -0.034886360499521332 0.00015161197602562505 0 -0.034948925602437779 0.0002395562663599638 0 -0.034860356247810857 8.9187380250164172e-05 0 -0.03470071367694668 -0.0004797306280370155 0 -0.034860356247810857 8.9187380250164172e-05 0 -0.03404832694089447 5.975067382113317e-05 0 -0.034860356247810857 8.9187380250164172e-05 0 -0.034999905442681382 1.4890426967991387e-07 0 -0.034920851036713586 5.4556363988578418e-05 0 -0.034860356247810857 8.9187380250164172e-05 0 -0.034999905442681382 1.4890426967991387e-07 0 -0.03464056738718306 9.7439363620105922e-05 0 -0.034999905442681382 1.4890426967991387e-07 0 -0.034920851036713586 5.4556363988578418e-05 0 -0.034999802929230106 -2.7109635798524865e-08 0 -0.034886360499521332 0.00015161197602562505 0 -0.034860356247810857 8.9187380250164172e-05 0 -0.034920851036713586 5.4556363988578418e-05 0 -0.034886360499521332 0.00015161197602562505 0 -0.034920851036713586 5.4556363988578418e-05 0 -0.034846645819814885 0.00013590077935582583 0 -0.034846645819814885 0.00013590077935582583 0 -0.034889681462471393 3.2448795981140631e-06 0 -0.034773058009791365 9.7604543122898864e-05 0 -0.034920851036713586 5.4556363988578418e-05 0 -0.034846645819814885 0.00013590077935582583 0 -0.034889681462471393 3.2448795981140631e-06 0 -0.034999802929230106 -2.7109635798524865e-08 0 -0.034889681462471393 3.2448795981140631e-06 0 -0.034999755033933433 1.4212344784942687e-08 0 -0.034920851036713586 5.4556363988578418e-05 0 -0.034999802929230106 -2.7109635798524865e-08 0 -0.034889681462471393 3.2448795981140631e-06 0 -0.034889681462471393 3.2448795981140631e-06 0 -0.034999755033933433 1.4212344784942687e-08 0 -0.034820726715027117 -4.7396517789513351e-05 0 -0.034820726715027117 -4.7396517789513351e-05 0 -0.034773058009791365 9.7604543122898864e-05 0 -0.034493097024210398 8.5637295228561345e-05 0 -0.034889681462471393 3.2448795981140631e-06 0 -0.034820726715027117 -4.7396517789513351e-05 0 -0.034773058009791365 9.7604543122898864e-05 0 -0.034773058009791365 9.7604543122898864e-05 0 -0.034573967114287764 0.00025105454566643241 0 -0.034493097024210398