<?xml version="1.0"?>
<VTKFile type="UnstructuredGrid" version="0.1" byte_order="LittleEndian">
<UnstructuredGrid>
<Piece NumberOfPoints="31898" NumberOfCells="11152">
<Points>
<DataArray type="Float64" NumberOfComponents="3" format="ascii">
-0.5 -0.5 0 -0.47620991077874902 -0.44978878706170539 0 -0.49999999999999473 -0.42132396840504388 0 -0.5 -0.5 0 -0.47160970827802529 -0.4793630013852106 0 -0.47620991077874902 -0.44978878706170539 0 -0.5 -0.5 0 -0.47160970827802529 -0.4793630013852106 0 -0.44860394795025399 -0.5 0 -0.47160970827802529 -0.4793630013852106 0 -0.44860394795025399 -0.5 0 -0.4490820238307246 -0.45820516232899983 0 -0.44860394795025399 -0.5 0 -0.4490820238307246 -0.45820516232899983 0 -0.42881687682924802 -0.47781464288736519 0 -0.4490820238307246 -0.45820516232899983 0 -0.45555437223955858 -0.42914059360647611 0 -0.4490820238307246 -0.45820516232899983 0 -0.45555437223955858 -0.42914059360647611 0 -0.43867285131603428 -0.4271457417558665 0 -0.4490820238307246 -0.45820516232899983 0 -0.43867285131603428 -0.4271457417558665 0 -0.4263356171060747 -0.44269880333887462 0 -0.47160970827802529 -0.4793630013852106 0 -0.4490820238307246 -0.45820516232899983 0 -0.47620991077874902 -0.44978878706170539 0 -0.4490820238307246 -0.45820516232899983 0 -0.47620991077874902 -0.44978878706170539 0 -0.45555437223955858 -0.42914059360647611 0 -0.47620991077874902 -0.44978878706170539 0 -0.48101336032419229 -0.41069999664450008 0 -0.45555437223955858 -0.42914059360647611 0 -0.47620991077874902 -0.44978878706170539 0 -0.49999999999999473 -0.42132396840504388 0 -0.48101336032419229 -0.41069999664450008 0 -0.49999999999999473 -0.42132396840504388 0 -0.48101336032419229 -0.41069999664450008 0 -0.5 -0.393886241813306 0 -0.49999999999999473 -0.42132396840504388 0 -0.48101336032419229 -0.41069999664450008 0 -0.5 -0.393886241813306 0 -0.47854472220918332 -0.38978458738689759 0 -0.48422759779560409 -0.37130120630367158 0 -0.5 -0.393886241813306 0 -0.5 -0.36644851522156802 0 -0.48422759779560409 -0.37130120630367158 0 -0.48101336032419229 -0.41069999664450008 0 -0.5 -0.393886241813306 0 -0.47854472220918332 -0.38978458738689759 0 -0.48101336032419229 -0.41069999664450008 0 -0.47854472220918332 -0.38978458738689759 0 -0.46202672064839212 -0.40007602488395211 0 -0.48101336032419229 -0.41069999664450008 0 -0.46202672064839212 -0.40007602488395211 0 -0.47854472220918332 -0.38978458738689759 0 -0.46725442735267431 -0.37660061361585562 0 -0.46202672064839212 -0.40007602488395211 0 -0.47854472220918332 -0.38978458738689759 0 -0.46725442735267431 -0.37660061361585562 0 -0.48422759779560409 -0.37130120630367158 0 -0.46725442735267431 -0.37660061361585562 0 -0.46202672064839212 -0.40007602488395211 0 -0.46725442735267431 -0.37660061361585562 0 -0.45645674801697989 -0.38644133236760531 0 -0.46202672064839212 -0.40007602488395211 0 -0.46725442735267431 -0.37660061361585562 0 -0.45645674801697989 -0.38644133236760531 0 -0.4540003998136638 -0.37455519391687309 0 -0.45645674801697989 -0.38644133236760531 0 -0.46202672064839212 -0.40007602488395211 0 -0.44257020456291563 -0.38918913383950271 0 -0.46202672064839212 -0.40007602488395211 0 -0.44257020456291563 -0.38918913383950271 0 -0.44727608925983742 -0.41095911152778891 0 -0.46202672064839212 -0.40007602488395211 0 -0.44257020456291563 -0.38918913383950271 0 -0.44257020456291563 -0.38918913383950271 0 -0.44727608925983742 -0.41095911152778891 0 -0.43479358559901082 -0.4041454901736512 0 -0.44257020456291563 -0.38918913383950271 0 -0.4540003998136638 -0.37455519391687309 0 -0.44172858264042247 -0.37082207246888088 0 -0.45645674801697989 -0.38644133236760531 0 -0.44257020456291563 -0.38918913383950271 0 -0.4540003998136638 -0.37455519391687309 0 -0.46202672064839212 -0.40007602488395211 0 -0.45555437223955858 -0.42914059360647611 0 -0.44727608925983742 -0.41095911152778891 0 -0.46202672064839212 -0.40007602488395211 0 -0.45555437223955858 -0.42914059360647611 0 -0.48101336032419229 -0.41069999664450008 0 -0.46202672064839212 -0.40007602488395211 0 -0.45555437223955858 -0.42914059360647611 0 -0.44727608925983742 -0.41095911152778891 0 -0.43867285131603428 -0.4271457417558665 0 -0.43676601469929588 -0.41441201227470881 0 -0.44727608925983742 -0.41095911152778891 0 -0.43676601469929588 -0.41441201227470881 0 -0.43479358559901082 -0.4041454901736512 0 -0.45555437223955858 -0.42914059360647611 0 -0.44727608925983742 -0.41095911152778891 0 -0.43867285131603428 -0.4271457417558665 0 -0.43867285131603428 -0.4271457417558665 0 -0.42681803064840879 -0.42717069814352421 0 -0.4263356171060747 -0.44269880333887462 0 -0.42681803064840879 -0.42717069814352421 0 -0.41531815884496182 -0.42985383783075998 0 -0.4263356171060747 -0.44269880333887462 0 -0.42681803064840879 -0.42717069814352421 0 -0.42624289495594048 -0.42089725947505818 0 -0.42083332353326591 -0.42146747131641099 0 -0.42681803064840879 -0.42717069814352421 0 -0.43096994786351572 -0.41951492446283251 0 -0.42624289495594048 -0.42089725947505818 0 -0.43867285131603428 -0.4271457417558665 0 -0.42681803064840879 -0.42717069814352421 0 -0.43096994786351572 -0.41951492446283251 0 -0.43867285131603428 -0.4271457417558665 0 -0.43676601469929588 -0.41441201227470881 0 -0.43096994786351572 -0.41951492446283251 0 -0.43676601469929588 -0.41441201227470881 0 -0.43096994786351572 -0.41951492446283251 0 -0.42907264086257813 -0.41311715872526122 0 -0.43676601469929588 -0.41441201227470881 0 -0.42907264086257813 -0.41311715872526122 0 -0.43479358559901082 -0.4041454901736512 0 -0.42907264086257813 -0.41311715872526122 0 -0.43479358559901082 -0.4041454901736512 0 -0.42460885511582858 -0.40417321677700252 0 -0.42907264086257813 -0.41311715872526122 0 -0.41997834854398469 -0.41180534796019508 0 -0.42907264086257813 -0.41311715872526122 0 -0.42635027777857132 -0.41543594397746519 0 -0.41997834854398469 -0.41180534796019508 0 -0.42907264086257813 -0.41311715872526122 0 -0.41997834854398469 -0.41180534796019508 0 -0.42460885511582858 -0.40417321677700252 0 -0.42635027777857132 -0.41543594397746519 0 -0.41997834854398469 -0.41180534796019508 0 -0.42635027777857132 -0.41543594397746519 0 -0.42083332353326591 -0.42146747131641099 0 -0.41997834854398469 -0.41180534796019508 0 -0.43096994786351572 -0.41951492446283251 0 -0.42624289495594048 -0.42089725947505818 0 -0.42635027777857132 -0.41543594397746519 0 -0.43096994786351572 -0.41951492446283251 0 -0.42907264086257813 -0.41311715872526122 0 -0.42635027777857132 -0.41543594397746519 0 -0.42624289495594048 -0.42089725947505818 0 -0.42635027777857132 -0.41543594397746519 0 -0.42083332353326591 -0.42146747131641099 0 -0.42083332353326591 -0.42146747131641099 0 -0.41997834854398469 -0.41180534796019508 0 -0.40992282953163789 -0.42011435591993562 0 -0.41997834854398469 -0.41180534796019508 0 -0.39756877647335259 -0.40857286797681719 0 -0.41997834854398469 -0.41180534796019508 0 -0.40992282953163789 -0.42011435591993562 0 -0.39756877647335259 -0.40857286797681719 0 -0.40992282953163789 -0.42011435591993562 0 -0.41531815884496182 -0.42985383783075998 0 -0.39591554026262499 -0.42887225451549271 0 -0.41531815884496182 -0.42985383783075998 0 -0.39591554026262499 -0.42887225451549271 0 -0.41160927495564159 -0.44339431233754628 0 -0.42083332353326591 -0.42146747131641099 0 -0.40992282953163789 -0.42011435591993562 0 -0.41531815884496182 -0.42985383783075998 0 -0.42681803064840879 -0.42717069814352421 0 -0.42083332353326591 -0.42146747131641099 0 -0.41531815884496182 -0.42985383783075998 0 -0.44257020456291563 -0.38918913383950271 0 -0.42311368847744002 -0.37830224279505142 0 -0.42594061475171041 -0.39368797999533162 0 -0.44257020456291563 -0.38918913383950271 0 -0.42311368847744002 -0.37830224279505142 0 -0.44172858264042247 -0.37082207246888088 0 -0.44257020456291563 -0.38918913383950271 0 -0.42311368847744002 -0.37830224279505142 0 -0.42311368847744002 -0.37830224279505142 0 -0.42594061475171041 -0.39368797999533162 0 -0.416587075656149 -0.38785930376960043 0 -0.44257020456291563 -0.38918913383950271 0 -0.42594061475171041 -0.39368797999533162 0 -0.43479358559901082 -0.4041454901736512 0 -0.42594061475171041 -0.39368797999533162 0 -0.43479358559901082 -0.4041454901736512 0 -0.42460885511582858 -0.40417321677700252 0 -0.41997834854398469 -0.41180534796019508 0 -0.41325908582185972 -0.39811010703057192 0 -0.39770572831670092 -0.39911486077581648 0 -0.41997834854398469 -0.41180534796019508 0 -0.39770572831670092 -0.39911486077581648 0 -0.42594061475171041 -0.39368797999533162 0 -0.42460885511582858 -0.40417321677700252 0 -0.41325908582185972 -0.39811010703057192 0 -0.41997834854398469 -0.41180534796019508 0 -0.42460885511582858 -0.40417321677700252 0 -0.41325908582185972 -0.39811010703057192 0 -0.42594061475171041 -0.39368797999533162 0 -0.41325908582185972 -0.39811010703057192 0 -0.416587075656149 -0.38785930376960043 0 -0.41325908582185972 -0.39811010703057192 0 -0.416587075656149 -0.38785930376960043 0 -0.40403491357358612 -0.38133688525744702 0 -0.42311368847744002 -0.37830224279505142 0 -0.40403491357358612 -0.38133688525744702 0 -0.40365717239196519 -0.36741535175059892 0 -0.42311368847744002 -0.37830224279505142 0 -0.416587075656149 -0.38785930376960043 0 -0.40403491357358612 -0.38133688525744702 0 -0.40403491357358612 -0.38133688525744702 0 -0.39190790742475001 -0.38540387676521748 0 -0.39770572831670092 -0.39911486077581648 0 -0.40403491357358612 -0.38133688525744702 0 -0.39190790742475001 -0.38540387676521748 0 -0.3904578797192948 -0.37473938743617019 0 -0.41325908582185972 -0.39811010703057192 0 -0.40403491357358612 -0.38133688525744702 0 -0.39770572831670092 -0.39911486077581648 0 -0.39770572831670092 -0.39911486077581648 0 -0.37543310808941849 -0.38642437359143528 0 -0.39770572831670092 -0.39911486077581648 0 -0.37515920440272033 -0.40534038799344108 0 -0.37543310808941849 -0.38642437359143528 0 -0.39770572831670092 -0.39911486077581648 0 -0.37515920440272033 -0.40534038799344108 0 -0.39756877647335259 -0.40857286797681719
[...]
<PointData Scalars="" Vectors="displacement," Tensors="">
<DataArray type="Float64" Name="displacement" NumberOfComponents="3" format="ascii">
-1.6159223982602426e-06 -0.034996806602130427 0 -0.00016487056587423455 -0.032678500665016409 0 3.3965912314199334e-06 -0.029500722600854148 0 -1.6159223982602426e-06 -0.034996806602130427 0 -0.00014529852709361548 -0.034171392761717594 0 -0.00016487056587423455 -0.032678500665016409 0 -1.6159223982602426e-06 -0.034996806602130427 0 -0.00014529852709361548 -0.034171392761717594 0 2.5361058284024074e-08 -0.03499900800422942 0 -0.00014529852709361548 -0.034171392761717594 0 2.5361058284024074e-08 -0.03499900800422942 0 -7.0843155029698632e-05 -0.034085730992342515 0 2.5361058284024074e-08 -0.03499900800422942 0 -7.0843155029698632e-05 -0.034085730992342515 0 -5.7491867683152259e-05 -0.034685603361326624 0 -0.00030479143014888613 -0.032013720351306459 0 -7.4726565448858027e-05 -0.031154787341718657 0 -7.0843155029698632e-05 -0.034085730992342515 0 0.00035595621805362669 -0.033985609450219383 0 0.0003756078740919411 -0.034081323578953215 0 -7.0843155029698632e-05 -0.034085730992342515 0 0.0003756078740919411 -0.034081323578953215 0 0.00019691041721552237 -0.034346404327648489 0 -0.00014529852709361548 -0.034171392761717594 0 -7.0843155029698632e-05 -0.034085730992342515 0 -0.00016487056587423455 -0.032678500665016409 0 -7.0843155029698632e-05 -0.034085730992342515 0 -0.00016487056587423455 -0.032678500665016409 0 0.00058250376364848294 -0.033249771257472867 0 -0.00016487056587423455 -0.032678500665016409 0 0.0012530657152581045 -0.031553769636860948 0 0.00058250376364848294 -0.033249771257472867 0 -0.00016487056587423455 -0.032678500665016409 0 3.3965912314199334e-06 -0.029500722600854148 0 0.0012530657152581045 -0.031553769636860948 0 1.9579199905795321e-06 -0.029489668373725041 0 0.00029620132163565393 -0.02721054518605635 0 -8.2861155315292553e-07 -0.027572052071366423 0 8.4536521074160317e-07 -0.029491706715824139 0 0.00033761798201042736 -0.029041374802704755 0 -8.2861155315292553e-07 -0.027572052071366423 0 -7.7981545694311824e-05 -0.026500690573366417 0 -0.00016461938259571229 -0.025786721686640313 0 -8.2861155315292553e-07 -0.027572052071366423 0 -2.4978423612804715e-07 -0.025651177591325201 0 -0.00016461938259571229 -0.025786721686640313 0 0.00029620132163565393 -0.02721054518605635 0 -8.2861155315292553e-07 -0.027572052071366423 0 -7.7981545694311824e-05 -0.026500690573366417 0 0.00029620132163565393 -0.02721054518605635 0 -7.7981545694311824e-05 -0.026500690573366417 0 0.00012918183437360541 -0.026260530512024018 0 0.00033761798201042736 -0.029041374802704755 0 0.000361963248582587 -0.028135307536857661 0 -7.7981545694311824e-05 -0.026500690573366417 0 -0.00020145164649383967 -0.026013891182305578 0 0.00012918183437360541 -0.026260530512024018 0 -7.7981545694311824e-05 -0.026500690573366417 0 -0.00020145164649383967 -0.026013891182305578 0 -0.00016461938259571229 -0.025786721686640313 0 9.06559517193417e-05 -0.025587587732131895 0 0.000361963248582587 -0.028135307536857661 0 -0.00031908062759929574 -0.02100006655305527 0 -0.00079113466623115432 -0.021541737691825796 0 -0.0014136500953877639 -0.021330378929559291 0 -0.00031908062759929574 -0.02100006655305527 0 -0.00079113466623115432 -0.021541737691825796 0 -0.00026147000786487621 -0.021610096759522794 0 -0.00079113466623115432 -0.021541737691825796 0 -0.0014136500953877639 -0.021330378929559291 0 -0.00093115939099424575 -0.022198967045430784 0 0.00018806048721055905 -0.034175795641848347 0 -0.00015446258679935833 -0.033996983553452695 0 0.00032452144382694924 -0.034040758292672037 0 0.000361963248582587 -0.028135307536857661 0 -5.2620356910021795e-05 -0.027830124166899679 0 -0.00015446258679935833 -0.033996983553452695 0 0.00032452144382694924 -0.034040758292672037 0 0.00022978672818990052 -0.03386418361558937 0 -0.00093115939099424575 -0.022198967045430784 0 -0.00026147000786487621 -0.021610096759522794 0 -8.9924422477284454e-05 -0.022207653674334849 0 -0.00079113466623115432 -0.021541737691825796 0 -0.00093115939099424575 -0.022198967045430784 0 -0.00026147000786487621 -0.021610096759522794 0 0.00018806048721055905 -0.034175795641848347 0 0.00035595621805362669 -0.033985609450219383 0 0.00032452144382694924 -0.034040758292672037 0 0.000361963248582587 -0.028135307536857661 0 -7.4726565448858027e-05 -0.031154787341718657 0 0.0012530657152581045 -0.031553769636860948 0 0.0019156396325786323 -0.032640301169624582 0 0.00058250376364848294 -0.033249771257472867 0 0.00032452144382694924 -0.034040758292672037 0 0.0003756078740919411 -0.034081323578953215 0 0.00039920389292883509 -0.033979914839278494 0 0.00032452144382694924 -0.034040758292672037 0 0.00039920389292883509 -0.033979914839278494 0 0.00022978672818990052 -0.03386418361558937 0 0.00035595621805362669 -0.033985609450219383 0 0.00032452144382694924 -0.034040758292672037 0 0.0003756078740919411 -0.034081323578953215 0 0.0003756078740919411 -0.034081323578953215 0 0.00034032994942187781 -0.03418874951603651 0 0.00019691041721552237 -0.034346404327648489 0 0.00034032994942187781 -0.03418874951603651 0 0.00030747480093431531 -0.034364069502256338 0 0.00019691041721552237 -0.034346404327648489 0 0.00034032994942187781 -0.03418874951603651 0 0.00039390988017226272 -0.034123276943389805 0 0.00038018406649461888 -0.034234826246221546 0 0.00034032994942187781 -0.03418874951603651 0 0.00040924071551973743 -0.034029184521382032 0 0.00039390988017226272 -0.034123276943389805 0 0.0003756078740919411 -0.034081323578953215 0 0.00034032994942187781 -0.03418874951603651 0 0.00040924071551973743 -0.034029184521382032 0 0.0003756078740919411 -0.034081323578953215 0 0.00039920389292883509 -0.033979914839278494 0 0.00040924071551973743 -0.034029184521382032 0 0.00039920389292883509 -0.033979914839278494 0 0.00040924071551973743 -0.034029184521382032 0 0.00051002226512488565 -0.033877851646464341 0 0.00039920389292883509 -0.033979914839278494 0 0.00051002226512488565 -0.033877851646464341 0 0.00022978672818990052 -0.03386418361558937 0 0.00051002226512488565 -0.033877851646464341 0 0.00022978672818990052 -0.03386418361558937 0 0.00025098683154450597 -0.033504611740692858 0 0.00086611165559071662 -0.033052313231852752 0 0.0008669792849891108 -0.03295606240434755 0 0.00051002226512488565 -0.033877851646464341 0 0.00045136728911796854 -0.034046838670779206 0 0.00064843008351267016 -0.03435325509229932 0 0.00051002226512488565 -0.033877851646464341 0 0.00061497963805881518 -0.033289424977540866 0 0.00025098683154450597 -0.033504611740692858 0 0.00088187493598014424 -0.033020963046012319 0 0.0008669792849891108 -0.03295606240434755 0 0.00045136728911796854 -0.034046838670779206 0 0.00038018406649461888 -0.034234826246221546 0 0.00051218647597835827 -0.034236397751406321 0 0.00040924071551973743 -0.034029184521382032 0 0.00039390988017226272 -0.034123276943389805 0 0.00045136728911796854 -0.034046838670779206 0 0.00040924071551973743 -0.034029184521382032 0 0.00051002226512488565 -0.033877851646464341 0 0.00045136728911796854 -0.034046838670779206 0 0.00039390988017226272 -0.034123276943389805 0 0.00045136728911796854 -0.034046838670779206 0 0.00038018406649461888 -0.034234826246221546 0 0.00038018406649461888 -0.034234826246221546 0 0.00051218647597835827 -0.034236397751406321 0 0.00039210024274230118 -0.034375206569468443 0 0.0008669792849891108 -0.03295606240434755 0 0.00072086831916634206 -0.032891176468778122 0 0.00051218647597835827 -0.034236397751406321 0 0.00039210024274230118 -0.034375206569468443 0 0.00047513805842518375 -0.034472340465521951 0 0.00039210024274230118 -0.034375206569468443 0 0.00030747480093431531 -0.034364069502256338 0 0.00031795668889794307 -0.034498233055577705 0 0.00030747480093431531 -0.034364069502256338 0 0.00031795668889794307 -0.034498233055577705 0 0.00021341854983357523 -0.03448142571932742 0 0.00038018406649461888 -0.034234826246221546 0 0.00039210024274230118 -0.034375206569468443 0 0.00030747480093431531 -0.034364069502256338 0 0.00034032994942187781 -0.03418874951603651 0 0.00038018406649461888 -0.034234826246221546 0 0.00030747480093431531 -0.034364069502256338 0 -0.00015446258679935833 -0.033996983553452695 0 -0.00081115456453254063 -0.033306026690207852 0 -0.0001241349035474897 -0.03347915198899621 0 -0.00093115939099424575 -0.022198967045430784 0 -0.00044363527464323898 -0.023127805307930464 0 -8.9924422477284454e-05 -0.022207653674334849 0 -5.2620356910021795e-05 -0.027830124166899679 0 -0.00014247716279889487 -0.02761453175460734 0 -0.00081115456453254063 -0.033306026690207852 0 -0.0001241349035474897 -0.03347915198899621 0 -0.00039578908606027502 -0.033007572127501827 0 -0.00015446258679935833 -0.033996983553452695 0 -0.0001241349035474897 -0.03347915198899621 0 0.00022978672818990052 -0.03386418361558937 0 -0.0001241349035474897 -0.03347915198899621 0 0.00022978672818990052 -0.03386418361558937 0 0.00025098683154450597 -0.033504611740692858 0 0.00061497963805881518 -0.033289424977540866 0 5.2114815083790389e-05 -0.03288725380475347 0 0.00015429312044303012 -0.032057227013982524 0 0.0008669792849891108 -0.03295606240434755 0 0.00068462009851064651 -0.031709976712032517 0 -0.0001241349035474897 -0.03347915198899621 0 0.00025098683154450597 -0.033504611740692858 0 5.2114815083790389e-05 -0.03288725380475347 0 0.00061497963805881518 -0.033289424977540866 0 0.00025098683154450597 -0.033504611740692858 0 5.2114815083790389e-05 -0.03288725380475347 0 -0.0001241349035474897 -0.03347915198899621 0 5.2114815083790389e-05 -0.03288725380475347 0 -0.00039578908606027502 -0.033007572127501827 0 5.2114815083790389e-05 -0.03288725380475347 0 -0.00039578908606027502 -0.033007572127501827 0 -0.0007119601041995112 -0.032343712411296084 0 -0.00081115456453254063 -0.033306026690207852 0 -0.0007119601041995112 -0.032343712411296084 0 -0.001405564445687174 -0.032282654483828332 0 -0.00081115456453254063 -0.033306026690207852 0 -0.00039578908606027502 -0.033007572127501827 0 -0.0007119601041995112 -0.032343712411296084 0 -0.0007119601041995112 -0.032343712411296084 0 -0.00051148418906215383 -0.031720479945867047 0 0.00015429312044303012 -0.032057227013982524 0 -0.0007119601041995112 -0.032343712411296084 0 -0.00051148418906215383 -0.031720479945867047 0 -0.0010468148007180265 -0.031618764182494569 0 5.2114815083790389e-05 -0.03288725380475347 0 -0.0007119601041995112 -0.032343712411296084 0 0.00015429312044303012 -0.032057227013982524 0 0.00068462009851064651 -0.031709976712032517 0 0.00048711417495398898 -0.030049942009385346 0 0.00080419815476183442 -0.031941508926411191 0 0.00099615029800496522 -0.031231104736767972 0 0.00040517205727946581 -0.031229434595453721 0 0.00080419815476183442 -0.031941508926411191 0 0.00099615029800496522 -0.031231104736767972 0 0.0011025419831410508 -0.031940859050485063 0 0.00046523561817855331 -0.03215020701154684 0 0.00048711417495398898 -0.030049942009385346 0 -0.00044553342454567245 -0.030855850700784011 0 -0.0010468148007180265 -0.031618764182494569 0 -0.0013184581823365519 -0.03084376587142525 0 -0.00051148418906215383 -0.031720479945867047 0 -0.00044553342454567245 -0.030855850700784011 0 -0.0010468148007180265 -0.031618764182494569 0 0.00048711417495398898 -0.030049942009385346 0 1.4298186937318399e-05 -0.02833353234187613 0 -0.00051148418906215383 -0.031720479945867047 0 0.00015429312044303012 -0.032057227013982524 0 -0.00044553342454567245 -0.030855850700784011 0 0.0012091326222172947 -0.032658533242264698 0 0.00080419815476183442 -0.031941508926411191 0 0.0011025419831410508 -0.031940859050485063 0 0.00039210024274230118 -0.034375206569468443 0 0.00031795668889794307 -0.034498233055577705 0 0.00047513805842518375 -0.034472340465521951 0 0.00048027095262526468 -0.034595974211356482 0 0.00031795668889794307 -0.034498233055577705 0 0.00047513805842518375 -0.034472340465521951 0 0.00046523561817855331 -0.03215020701154684 0 0.00072086831916634206 -0.032891176468778122 0 0.00048027095262526468 -0.034595974211356482 0 0.00031795668889794307 -0.034498233055577705 0 0.0002830686769268107 -0.034605290142061755 0 0.00031795668889794307 -0.034498233055577705 0 0.00022616429663923813 -0.034523013395085934 0 0.0002830686769268107 -0.034605290142061755 0 0.00022616429663923813 -0.034523013395085934 0 0.00014868149331899553 -0.034599978749294991 0 0.0002830686769268107 -0.034605290142061755 0 0.00031795668889794307 -0.034498233055577705 0 0.00022616429663923813 -0.034523013395085934 0 0.00021341854983357523 -0.03448142571932742 0 0.00022616429663923813 -0.034523013395085934 0 0.00018778204427936362 -0.034494623899205941 0 0.00021341854983357523 -0.03448142571932742 0 6.5482046978871511e-05 -0.034736520998376583 0 -1.9151313304477753e-05 -0.034912620935703451 0 -1.3743588017206953e-05 -0.034728305643096369 0 3.7921353353428716e-05 -0.034952928786184445 0 2.9980737534627762e-05 -0.034977681346727033 0 4.6741880354374535e-06 -0.034978544724712464 0 0.00011358352475440227 -0.034733384070505142 0 8.0245986934538805e-06 -0.03490160712563737 0 0.00011358352475440227 -0.034733384070505142 0 0.00011353987290679701 -0.034733067492234551 0 0.00011358352475440227 -0.034733384070505142 0 0.0001167093090812759 -0.034641030382660164 0 0.00022616429663923813 -0.034523013395085934 0 0.00018778204427936362 -0.034494623899205941 0 0.00016779309451675983 -0.034540433309012165 0 0.00022616429663923813 -0.034523013395085934 0 0.00016779309451675983 -0.034540433309012165 0 0.00014868149331899553 -0.034599978749294991 0 0.0001167093090812759 -0.034641030382660164 0 0.0001445106555389325 -0.034447361785803383 0 2.9980737534627762e-05 -0.034977681346727033 0 1.3882323331358895e-05 -0.034985552550086813 0 2.2560316004656406e-05 -0.034995852264259789 0 1.3882323331358895e-05 -0.034985552550086813 0 4.6741880354374535e-06 -0.034978544724712464 0 3.5774460678006721e-06 -0.034995778710552511 0 4.6741880354374535e-06 -0.034978544724712464 0 -2.7606170031136137e-08 -0.034998369248328311 0 3.5774460678006721e-06 -0.034995778710552511 0 1.3882323331358895e-05 -0.034985552550086813 0 3.5774460678006721e-06 -0.034995778710552511 0 2.2560316004656406e-05 -0.034995852264259789 0 2.9980737534627762e-05 -0.034977681346727033 0 1.3882323331358895e-05 -0.034985552550086813 0 4.6741880354374535e-06 -0.034978544724712464 0 -5.4838906559641182e-08 -0.034999841267669925 0 8.0245986934538805e-06 -0.03490160712563737 0 -1.3380422479689947e-08 -0.034999979326781366 0 4.6741880354374535e-06 -0.034978544724712464 0 -2.7606170031136137e-08 -0.034998369248328311 0 6.4710543799202399e-08 -0.034999998532763331 0 -1.9151313304477753e-05 -0.034912620935703451 0 -1.5392119990293492e-07 -0.034999757141373426 0 -1.9151313304477753e-05 -0.034912620935703451 0 -1.3743588017206953e-05 -0.034728305643096369 0 -1.5392119990293492e-07 -0.034999757141373426 0 -1.3743588017206953e-05 -0.034728305643096369 0 -1.5392119990293492e-07 -0.034999757141373426 0 -5.7491867683152259e-05 -0.034685603361326624 0 2.5361058284024074e-08 -0.03499900800422942 0 -1.5392119990293492e-07 -0.034999757141373426 0 -5.7491867683152259e-05 -0.034685603361326624 0 -1.3743588017206953e-05 -0.034728305643096369 0 -5.7491867683152259e-05 -0.034685603361326624 0 1.5579349424019072e-05 -0.034498934820121903 0 -7.0843155029698632e-05 -0.034085730992342515 0 -5.7491867683152259e-05 -0.034685603361326624 0 1.5579349424019072e-05 -0.034498934820121903 0 -7.0843155029698632e-05 -0.034085730992342515 0 1.5579349424019072e-05 -0.034498934820121903 0 0.00019691041721552237 -0.034346404327648489 0 1.5579349424019072e-05 -0.034498934820121903 0 0.00019691041721552237 -0.034346404327648489 0 9.5168538210244703e-05 -0.034545391163344562 0 0.00019691041721552237 -0.034346404327648489 0 0.00021341854983357523 -0.03448142571932742 0 9.5168538210244703e-05 -0.034545391163344562 0 0.00030747480093431531 -0.034364069502256338 0 0.00019691041721552237 -0.034346404327648489 0 0.00021341854983357523 -0.03448142571932742 0 6.9799893109171986e-05 -0.034751434102472084 0 0.00021341854983357523 -0.03448142571932742 0 7.3884894740028391e-05 -0.03469925038883373 0 0.00021341854983357523 -0.03448142571932742 0 7.3884894740028391e-05 -0.03469925038883373 0 9.5168538210244703e-05 -0.034545391163344562 0 0.00011358352475440227 -0.034733384070505142 0 0.00013376161161658234 -0.034706436071718243 0 -1.3743588017206953e-05 -0.034728305643096369 0 7.3884894740028391e-05 -0.03469925038883373 0 9.5168538210244703e-05 -0.034545391163344562 0 6.5482046978871511e-05 -0.034736520998376583 0 -1.3743588017206953e-05 -0.034728305643096369 0 7.3884894740028391e-05 -0.03469925038883373 0 -1.3743588017206953e-05 -0.034728305643096369 0 1.5579349424019072e-05 -0.034498934820121903 0 9.5168538210244703e-05 -0.034545391163344562 0 0.00069029049086003207 -0.01818831212054536 0 0.00086639607409106127 -0.017744107728393268 0 0.00057833241606067179 -0.01734856667761207 0 0.00065224154533415318 -0.016655695311127566 0 0.000323534474641685 -0.017111525117957264 0 -7.3587670039360094e-05 -0.019780599757746004 0 0.00027475963283865503 -0.01969002277331031 0 0.0002166905178471201 -0.019910600736597579 0 -7.3587670039360094e-05 -0.019780599757746004 0 -1.5557565584512211e-05 -0.019885070163856693 0 0.0002166905178471201 -0.019910600736597579 0 -7.3587670039360094e-05 -0.019780599757746004 0 -7.4288018764468336e-05 -0.019778936069923963 0 -1.5557565584512211e-05 -0.019885070163856693 0 -7.3587670039360094e-05 -0.019780599757746004 0 -5.4198175019040674e-05 -0.0194021319852857 0 -0.00016145590529891696 -0.019763779865096327 0 -7.3587670039360094e-05 -0.019780599757746004 0 -5.4198175019040674e-05 -0.0194021319852857 0 0.00027475963283865503 -0.01969002277331031 0 0.00069029049086003207 -0.01818831212054536 0 0.00062105299959271533 -0.018268220368634763 0 -5.4198175019040674e-05 -0.0194021319852857 0 0.00027475963283865503 -0.01969002277331031 0 0.00021058859965803573 -0.018494665353253992 0 0.00057833241606067179 -0.01734856667761207 0 0.00021058859965803573 -0.018494665353253992 0 2.2184848992858091e-05 -0.017700748647679891 0 0.00021058859965803573 -0.018494665353253992 0 -2.6775396320929668e-07 -0.017968582783742044 0 -9.1393429982419798e-05 -0.019284611968229184 0 0.00021058859965803573 -0.018494665353253992 0 -2.6775396320929668e-07 -0.017968582783742044 0 -2.0907049737325737e-05 -0.017548034106326837 0 -2.6775396320929668e-07 -0.017968582783742044 0 -9.1393429982419798e-05 -0.019284611968229184 0 -3.4062297745253009e-07 -0.019889494328281198 0 -5.4198175019040674e-05 -0.0194021319852857 0 0.00021058859965803573 -0.018494665353253992 0 -9.1393429982419798e-05 -0.019284611968229184 0 -5.4198175019040674e-05 -0.0194021319852857 0 -9.1393429982419798e-05 -0.019284611968229184 0 -0.00016145590529891696 -0.019763779865096327 0 -0.00016145590529891696 -0.019763779865096327 0 -7.5861760204861678e-05 -0.020305939066555284 0 -3.9256679750814296e-05 -0.020272594716273386 0 -9.1393429982419798e-05 -0.019284611968229184 0 -0.00016145590529891696 -0.019763779865096327 0 -7.5861760204861678e-05 -0.020305939066555284 0 -3.4062297745253009e-07 -0.019889494328281198 0 -7.5861760204861678e-05 -0.020305939066555284 0 4.0488856051862804e-07 -0.021810013635732827 0 -9.1393429982419798e-05 -0.019284611968229184 0 -3.4062297745253009e-07 -0.019889494328281198 0 -7.5861760204861678e-05 -0.020305939066555284 0 -7.5861760204861678e-05 -0.020305939066555284 0 4.0488856051862804e-07 -0.021810013635732827 0 0.00012255002683198807 -0.02110204471158713 0 0.00012255002683198807 -0.02110204471158713 0 -3.9256679750814296e-05 -0.020272594716273386 0 0.00046178565384431711 -0.020565674345522859 0 -7.5861760204861678e-05 -0.020305939066555284 0 0.00012255002683198807 -0.02110204471158713 0 -3.9256679750814296e-05 -0.020272594716273386 0 -3.9256679750814296e-05 -0.020272594716273386 0 0.00019765571943622167 -0.020132859885614675 0 0.00046178565384431711 -0.020565674345522859 0 0.00019765571943622167 -0.020132859885614675 