<?xml version="1.0"?>
<VTKFile type="UnstructuredGrid" version="0.1" byte_order="LittleEndian">
<UnstructuredGrid>
<Piece NumberOfPoints="31898" NumberOfCells="11152">
<Points>
<DataArray type="Float64" NumberOfComponents="3" format="ascii">
-0.5 -0.5 0 -0.47620991077874902 -0.44978878706170539 0 -0.49999999999999473 -0.42132396840504388 0 -0.5 -0.5 0 -0.47160970827802529 -0.4793630013852106 0 -0.47620991077874902 -0.44978878706170539 0 -0.5 -0.5 0 -0.47160970827802529 -0.4793630013852106 0 -0.44860394795025399 -0.5 0 -0.47160970827802529 -0.4793630013852106 0 -0.44860394795025399 -0.5 0 -0.4490820238307246 -0.45820516232899983 0 -0.44860394795025399 -0.5 0 -0.4490820238307246 -0.45820516232899983 0 -0.42881687682924802 -0.47781464288736519 0 -0.4490820238307246 -0.45820516232899983 0 -0.45555437223955858 -0.42914059360647611 0 -0.4490820238307246 -0.45820516232899983 0 -0.45555437223955858 -0.42914059360647611 0 -0.43867285131603428 -0.4271457417558665 0 -0.4490820238307246 -0.45820516232899983 0 -0.43867285131603428 -0.4271457417558665 0 -0.4263356171060747 -0.44269880333887462 0 -0.47160970827802529 -0.4793630013852106 0 -0.4490820238307246 -0.45820516232899983 0 -0.47620991077874902 -0.44978878706170539 0 -0.4490820238307246 -0.45820516232899983 0 -0.47620991077874902 -0.44978878706170539 0 -0.45555437223955858 -0.42914059360647611 0 -0.47620991077874902 -0.44978878706170539 0 -0.48101336032419229 -0.41069999664450008 0 -0.45555437223955858 -0.42914059360647611 0 -0.47620991077874902 -0.44978878706170539 0 -0.49999999999999473 -0.42132396840504388 0 -0.48101336032419229 -0.41069999664450008 0 -0.49999999999999473 -0.42132396840504388 0 -0.48101336032419229 -0.41069999664450008 0 -0.5 -0.393886241813306 0 -0.49999999999999473 -0.42132396840504388 0 -0.48101336032419229 -0.41069999664450008 0 -0.5 -0.393886241813306 0 -0.47854472220918332 -0.38978458738689759 0 -0.48422759779560409 -0.37130120630367158 0 -0.5 -0.393886241813306 0 -0.5 -0.36644851522156802 0 -0.48422759779560409 -0.37130120630367158 0 -0.48101336032419229 -0.41069999664450008 0 -0.5 -0.393886241813306 0 -0.47854472220918332 -0.38978458738689759 0 -0.48101336032419229 -0.41069999664450008 0 -0.47854472220918332 -0.38978458738689759 0 -0.46202672064839212 -0.40007602488395211 0 -0.48101336032419229 -0.41069999664450008 0 -0.46202672064839212 -0.40007602488395211 0 -0.47854472220918332 -0.38978458738689759 0 -0.46725442735267431 -0.37660061361585562 0 -0.46202672064839212 -0.40007602488395211 0 -0.47854472220918332 -0.38978458738689759 0 -0.46725442735267431 -0.37660061361585562 0 -0.48422759779560409 -0.37130120630367158 0 -0.46725442735267431 -0.37660061361585562 0 -0.46202672064839212 -0.40007602488395211 0 -0.46725442735267431 -0.37660061361585562 0 -0.45645674801697989 -0.38644133236760531 0 -0.46202672064839212 -0.40007602488395211 0 -0.46725442735267431 -0.37660061361585562 0 -0.45645674801697989 -0.38644133236760531 0 -0.4540003998136638 -0.37455519391687309 0 -0.45645674801697989 -0.38644133236760531 0 -0.46202672064839212 -0.40007602488395211 0 -0.44257020456291563 -0.38918913383950271 0 -0.46202672064839212 -0.40007602488395211 0 -0.44257020456291563 -0.38918913383950271 0 -0.44727608925983742 -0.41095911152778891 0 -0.46202672064839212 -0.40007602488395211 0 -0.44257020456291563 -0.38918913383950271 0 -0.44257020456291563 -0.38918913383950271 0 -0.44727608925983742 -0.41095911152778891 0 -0.43479358559901082 -0.4041454901736512 0 -0.44257020456291563 -0.38918913383950271 0 -0.4540003998136638 -0.37455519391687309 0 -0.44172858264042247 -0.37082207246888088 0 -0.45645674801697989 -0.38644133236760531 0 -0.44257020456291563 -0.38918913383950271 0 -0.4540003998136638 -0.37455519391687309 0 -0.46202672064839212 -0.40007602488395211 0 -0.45555437223955858 -0.42914059360647611 0 -0.44727608925983742 -0.41095911152778891 0 -0.46202672064839212 -0.40007602488395211 0 -0.45555437223955858 -0.42914059360647611 0 -0.48101336032419229 -0.41069999664450008 0 -0.46202672064839212 -0.40007602488395211 0 -0.45555437223955858 -0.42914059360647611 0 -0.44727608925983742 -0.41095911152778891 0 -0.43867285131603428 -0.4271457417558665 0 -0.43676601469929588 -0.41441201227470881 0 -0.44727608925983742 -0.41095911152778891 0 -0.43676601469929588 -0.41441201227470881 0 -0.43479358559901082 -0.4041454901736512 0 -0.45555437223955858 -0.42914059360647611 0 -0.44727608925983742 -0.41095911152778891 0 -0.43867285131603428 -0.4271457417558665 0 -0.43867285131603428 -0.4271457417558665 0 -0.42681803064840879 -0.42717069814352421 0 -0.4263356171060747 -0.44269880333887462 0 -0.42681803064840879 -0.42717069814352421 0 -0.41531815884496182 -0.42985383783075998 0 -0.4263356171060747 -0.44269880333887462 0 -0.42681803064840879 -0.42717069814352421 0 -0.42624289495594048 -0.42089725947505818 0 -0.42083332353326591 -0.42146747131641099 0 -0.42681803064840879 -0.42717069814352421 0 -0.43096994786351572 -0.41951492446283251 0 -0.42624289495594048 -0.42089725947505818 0 -0.43867285131603428 -0.4271457417558665 0 -0.42681803064840879 -0.42717069814352421 0 -0.43096994786351572 -0.41951492446283251 0 -0.43867285131603428 -0.4271457417558665 0 -0.43676601469929588 -0.41441201227470881 0 -0.43096994786351572 -0.41951492446283251 0 -0.43676601469929588 -0.41441201227470881 0 -0.43096994786351572 -0.41951492446283251 0 -0.42907264086257813 -0.41311715872526122 0 -0.43676601469929588 -0.41441201227470881 0 -0.42907264086257813 -0.41311715872526122 0 -0.43479358559901082 -0.4041454901736512 0 -0.42907264086257813 -0.41311715872526122 0 -0.43479358559901082 -0.4041454901736512 0 -0.42460885511582858 -0.40417321677700252 0 -0.42907264086257813 -0.41311715872526122 0 -0.41997834854398469 -0.41180534796019508 0 -0.42907264086257813 -0.41311715872526122 0 -0.42635027777857132 -0.41543594397746519 0 -0.41997834854398469 -0.41180534796019508 0 -0.42907264086257813 -0.41311715872526122 0 -0.41997834854398469 -0.41180534796019508 0 -0.42460885511582858 -0.40417321677700252 0 -0.42635027777857132 -0.41543594397746519 0 -0.41997834854398469 -0.41180534796019508 0 -0.42635027777857132 -0.41543594397746519 0 -0.42083332353326591 -0.42146747131641099 0 -0.41997834854398469 -0.41180534796019508 0 -0.43096994786351572 -0.41951492446283251 0 -0.42624289495594048 -0.42089725947505818 0 -0.42635027777857132 -0.41543594397746519 0 -0.43096994786351572 -0.41951492446283251 0 -0.42907264086257813 -0.41311715872526122 0 -0.42635027777857132 -0.41543594397746519 0 -0.42624289495594048 -0.42089725947505818 0 -0.42635027777857132 -0.41543594397746519 0 -0.42083332353326591 -0.42146747131641099 0 -0.42083332353326591 -0.42146747131641099 0 -0.41997834854398469 -0.41180534796019508 0 -0.40992282953163789 -0.42011435591993562 0 -0.41997834854398469 -0.41180534796019508 0 -0.39756877647335259 -0.40857286797681719 0 -0.41997834854398469 -0.41180534796019508 0 -0.40992282953163789 -0.42011435591993562 0 -0.39756877647335259 -0.40857286797681719 0 -0.40992282953163789 -0.42011435591993562 0 -0.41531815884496182 -0.42985383783075998 0 -0.39591554026262499 -0.42887225451549271 0 -0.41531815884496182 -0.42985383783075998 0 -0.39591554026262499 -0.42887225451549271 0 -0.41160927495564159 -0.44339431233754628 0 -0.42083332353326591 -0.42146747131641099 0 -0.40992282953163789 -0.42011435591993562 0 -0.41531815884496182 -0.42985383783075998 0 -0.42681803064840879 -0.42717069814352421 0 -0.42083332353326591 -0.42146747131641099 0 -0.41531815884496182 -0.42985383783075998 0 -0.44257020456291563 -0.38918913383950271 0 -0.42311368847744002 -0.37830224279505142 0 -0.42594061475171041 -0.39368797999533162 0 -0.44257020456291563 -0.38918913383950271 0 -0.42311368847744002 -0.37830224279505142 0 -0.44172858264042247 -0.37082207246888088 0 -0.44257020456291563 -0.38918913383950271 0 -0.42311368847744002 -0.37830224279505142 0 -0.42311368847744002 -0.37830224279505142 0 -0.42594061475171041 -0.39368797999533162 0 -0.416587075656149 -0.38785930376960043 0 -0.44257020456291563 -0.38918913383950271 0 -0.42594061475171041 -0.39368797999533162 0 -0.43479358559901082 -0.4041454901736512 0 -0.42594061475171041 -0.39368797999533162 0 -0.43479358559901082 -0.4041454901736512 0 -0.42460885511582858 -0.40417321677700252 0 -0.41997834854398469 -0.41180534796019508 0 -0.41325908582185972 -0.39811010703057192 0 -0.39770572831670092 -0.39911486077581648 0 -0.41997834854398469 -0.41180534796019508 0 -0.39770572831670092 -0.39911486077581648 0 -0.42594061475171041 -0.39368797999533162 0 -0.42460885511582858 -0.40417321677700252 0 -0.41325908582185972 -0.39811010703057192 0 -0.41997834854398469 -0.41180534796019508 0 -0.42460885511582858 -0.40417321677700252 0 -0.41325908582185972 -0.39811010703057192 0 -0.42594061475171041 -0.39368797999533162 0 -0.41325908582185972 -0.39811010703057192 0 -0.416587075656149 -0.38785930376960043 0 -0.41325908582185972 -0.39811010703057192 0 -0.416587075656149 -0.38785930376960043 0 -0.40403491357358612 -0.38133688525744702 0 -0.42311368847744002 -0.37830224279505142 0 -0.40403491357358612 -0.38133688525744702 0 -0.40365717239196519 -0.36741535175059892 0 -0.42311368847744002 -0.37830224279505142 0 -0.416587075656149 -0.38785930376960043 0 -0.40403491357358612 -0.38133688525744702 0 -0.40403491357358612 -0.38133688525744702 0 -0.39190790742475001 -0.38540387676521748 0 -0.39770572831670092 -0.39911486077581648 0 -0.40403491357358612 -0.38133688525744702 0 -0.39190790742475001 -0.38540387676521748 0 -0.3904578797192948 -0.37473938743617019 0 -0.41325908582185972 -0.39811010703057192 0 -0.40403491357358612 -0.38133688525744702 0 -0.39770572831670092 -0.39911486077581648 0 -0.39770572831670092 -0.39911486077581648 0 -0.37543310808941849 -0.38642437359143528 0 -0.39770572831670092 -0.39911486077581648 0 -0.37515920440272033 -0.40534038799344108 0 -0.37543310808941849 -0.38642437359143528 0 -0.39770572831670092 -0.39911486077581648 0 -0.37515920440272033 -0.40534038799344108 0 -0.39756877647335259 -0.40857286797681719
[...]
<PointData Scalars="" Vectors="displacement," Tensors="">
<DataArray type="Float64" Name="displacement" NumberOfComponents="3" format="ascii">
4.1297174201006475e-06 0.084992228259216152 0 0.000414358122333387 0.07946898395987459 0 -8.7394737716055809e-06 0.071644890651329729 0 4.1297174201006475e-06 0.084992228259216152 0 0.00038198263938422791 0.083060103723344381 0 0.000414358122333387 0.07946898395987459 0 4.1297174201006475e-06 0.084992228259216152 0 0.00038198263938422791 0.083060103723344381 0 -1.3797547215913675e-08 0.084997927650043076 0 0.00038198263938422791 0.083060103723344381 0 -1.3797547215913675e-08 0.084997927650043076 0 0.00021244358965060898 0.083063965583352106 0 -1.3797547215913675e-08 0.084997927650043076 0 0.00021244358965060898 0.083063965583352106 0 0.00016678291963932127 0.084430465371653551 0 0.00073187986754522777 0.077865309407166683 0 -1.5545430530402142e-05 0.075656867015487975 0 0.00021244358965060898 0.083063965583352106 0 -0.00094275674904131367 0.082997900766034402 0 -0.0010173053212192426 0.083464656765138007 0 0.00021244358965060898 0.083063965583352106 0 -0.0010173053212192426 0.083464656765138007 0 -0.00049738678293699437 0.083994909560255598 0 0.00038198263938422791 0.083060103723344381 0 0.00021244358965060898 0.083063965583352106 0 0.000414358122333387 0.07946898395987459 0 0.00021244358965060898 0.083063965583352106 0 0.000414358122333387 0.07946898395987459 0 -0.0015138031135538794 0.081064516345228335 0 0.000414358122333387 0.07946898395987459 0 -0.0032172944705212711 0.076803828362425483 0 -0.0015138031135538794 0.081064516345228335 0 0.000414358122333387 0.07946898395987459 0 -8.7394737716055809e-06 0.071644890651329729 0 -0.0032172944705212711 0.076803828362425483 0 -4.8092617451096572e-06 0.071617730093516449 0 -0.00073162952619188653 0.066042995696451515 0 2.0295620866240946e-06 0.06696068629065767 0 -2.944198287411915e-06 0.071622315861373131 0 -0.0012388204475916327 0.0703563555558884 0 2.0295620866240946e-06 0.06696068629065767 0 0.00019293971243622285 0.064330175391948935 0 0.00040711831682994952 0.062612182790428905 0 2.0295620866240946e-06 0.06696068629065767 0 6.1920765497377826e-07 0.062295707187947996 0 0.00040711831682994952 0.062612182790428905 0 -0.00073162952619188653 0.066042995696451515 0 2.0295620866240946e-06 0.06696068629065767 0 0.00019293971243622285 0.064330175391948935 0 -0.00073162952619188653 0.066042995696451515 0 0.00019293971243622285 0.064330175391948935 0 -0.00032075311230418029 0.06370310501866891 0 -0.0012388204475916327 0.0703563555558884 0 -0.0018025945262150132 0.067801812303566161 0 0.00019293971243622285 0.064330175391948935 0 0.00050109410562850355 0.063151108251179422 0 -0.00032075311230418029 0.06370310501866891 0 0.00019293971243622285 0.064330175391948935 0 0.00050109410562850355 0.063151108251179422 0 0.00040711831682994952 0.062612182790428905 0 -0.0012665707235036767 0.061575106622457826 0 -0.0018025945262150132 0.067801812303566161 0 -0.0017819794463147737 0.049537283850201237 0 -0.0011050224188459963 0.050225840382844007 0 -0.0002224629285979173 0.049887690068678374 0 -0.0017819794463147737 0.049537283850201237 0 -0.0011050224188459963 0.050225840382844007 0 -0.0018317768371134528 0.050343552680208153 0 -0.0011050224188459963 0.050225840382844007 0 -0.0002224629285979173 0.049887690068678374 0 -0.00090389835289064009 0.051118562758818209 0 -0.0013400687436662011 0.08317733977440829 0 -0.001180368675754409 0.083383633640719476 0 -0.0012724074584278882 0.083289257934324595 0 -0.0018025945262150132 0.067801812303566161 0 -0.0014904389332214877 0.067117580681203728 0 -0.001180368675754409 0.083383633640719476 0 -0.0012724074584278882 0.083289257934324595 0 -0.0012980883100040042 0.083371502608300674 0 -0.00090389835289064009 0.051118562758818209 0 -0.0018317768371134528 0.050343552680208153 0 -0.0020514098144410026 0.05115032461227062 0 -0.0011050224188459963 0.050225840382844007 0 -0.00090389835289064009 0.051118562758818209 0 -0.0018317768371134528 0.050343552680208153 0 -0.0013400687436662011 0.08317733977440829 0 -0.00094275674904131367 0.082997900766034402 0 -0.0012724074584278882 0.083289257934324595 0 -0.0018025945262150132 0.067801812303566161 0 -1.5545430530402142e-05 0.075656867015487975 0 -0.0032172944705212711 0.076803828362425483 0 -0.0049656139501398121 0.079652571067023864 0 -0.0015138031135538794 0.081064516345228335 0 -0.0012724074584278882 0.083289257934324595 0 -0.0010173053212192426 0.083464656765138007 0 -0.001283568027393377 0.083429249812198777 0 -0.0012724074584278882 0.083289257934324595 0 -0.001283568027393377 0.083429249812198777 0 -0.0012980883100040042 0.083371502608300674 0 -0.00094275674904131367 0.082997900766034402 0 -0.0012724074584278882 0.083289257934324595 0 -0.0010173053212192426 0.083464656765138007 0 -0.0010173053212192426 0.083464656765138007 0 -0.00097273693729721064 0.08382639129368176 0 -0.00049738678293699437 0.083994909560255598 0 -0.00097273693729721064 0.08382639129368176 0 -0.00087671378176581169 0.084235863354709409 0 -0.00049738678293699437 0.083994909560255598 0 -0.00097273693729721064 0.08382639129368176 0 -0.0011554128627579967 0.08377587303447423 0 -0.0011311466422711974 0.083996613677942686 0 -0.00097273693729721064 0.08382639129368176 0 -0.0011988145400879332 0.083585770253363584 0 -0.0011554128627579967 0.08377587303447423 0 -0.0010173053212192426 0.083464656765138007 0 -0.00097273693729721064 0.08382639129368176 0 -0.0011988145400879332 0.083585770253363584 0 -0.0010173053212192426 0.083464656765138007 0 -0.001283568027393377 0.083429249812198777 0 -0.0011988145400879332 0.083585770253363584 0 -0.001283568027393377 0.083429249812198777 0 -0.0011988145400879332 0.083585770253363584 0 -0.0014213814966583136 0.083482138137329465 0 -0.001283568027393377 0.083429249812198777 0 -0.0014213814966583136 0.083482138137329465 0 -0.0012980883100040042 0.083371502608300674 0 -0.0014213814966583136 0.083482138137329465 0 -0.0012980883100040042 0.083371502608300674 0 -0.001318491527308487 0.083204373975641288 0 -0.0029029746831079704 0.081752608277376987 0 -0.0029297038544740255 0.08153859843478925 0 -0.0014213814966583136 0.083482138137329465 0 -0.001323318781277315 0.083700604339510681 0 -0.0015920664299042008 0.084134025605961019 0 -0.0014213814966583136 0.083482138137329465 0 -0.0015539593426397544 0.08307415532766875 0 -0.001318491527308487 0.083204373975641288 0 -0.0029320383868470241 0.081648409344734676 0 -0.0029297038544740255 0.08153859843478925 0 -0.001323318781277315 0.083700604339510681 0 -0.0011311466422711974 0.083996613677942686 0 -0.0014725966908078539 0.084019353068003927 0 -0.0011988145400879332 0.083585770253363584 0 -0.0011554128627579967 0.08377587303447423 0 -0.001323318781277315 0.083700604339510681 0 -0.0011988145400879332 0.083585770253363584 0 -0.0014213814966583136 0.083482138137329465 0 -0.001323318781277315 0.083700604339510681 0 -0.0011554128627579967 0.08377587303447423 0 -0.001323318781277315 0.083700604339510681 0 -0.0011311466422711974 0.083996613677942686 0 -0.0011311466422711974 0.083996613677942686 0 -0.0014725966908078539 0.084019353068003927 0 -0.0011779432213872177 0.084375719918725806 0 -0.0029297038544740255 0.08153859843478925 0 -0.0024125744032015149 0.081068066253078372 0 -0.0014725966908078539 0.084019353068003927 0 -0.0011779432213872177 0.084375719918725806 0 -0.0015274824458510513 0.084756979701647389 0 -0.0011779432213872177 0.084375719918725806 0 -0.00087671378176581169 0.084235863354709409 0 -0.00091136103080582227 0.084812440984792153 0 -0.00087671378176581169 0.084235863354709409 0 -0.00091136103080582227 0.084812440984792153 0 -0.00048457467620527709 0.084412451745923878 0 -0.0011311466422711974 0.083996613677942686 0 -0.0011779432213872177 0.084375719918725806 0 -0.00087671378176581169 0.084235863354709409 0 -0.00097273693729721064 0.08382639129368176 0 -0.0011311466422711974 0.083996613677942686 0 -0.00087671378176581169 0.084235863354709409 0 -0.001180368675754409 0.083383633640719476 0 -0.00065836709013881696 0.083061444857476241 0 -0.0011131221783216615 0.083166025792847861 0 -0.00090389835289064009 0.051118562758818209 0 -0.0015601708582236307 0.052394155986215947 0 -0.0020514098144410026 0.05115032461227062 0 -0.0014904389332214877 0.067117580681203728 0 -0.0015845151467150868 0.066753856231621167 0 -0.00065836709013881696 0.083061444857476241 0 -0.0011131221783216615 0.083166025792847861 0 -0.00091737615869284534 0.08286210193859242 0 -0.001180368675754409 0.083383633640719476 0 -0.0011131221783216615 0.083166025792847861 0 -0.0012980883100040042 0.083371502608300674 0 -0.0011131221783216615 0.083166025792847861 0 -0.0012980883100040042 0.083371502608300674 0 -0.001318491527308487 0.083204373975641288 0 -0.0015539593426397544 0.08307415532766875 0 -0.0012180639179054868 0.082785759947148957 0 -0.0013233506440085694 0.082181556073555137 0 -0.0029297038544740255 0.08153859843478925 0 -0.0030378697972966886 0.079024423124004192 0 -0.0011131221783216615 0.083166025792847861 0 -0.001318491527308487 0.083204373975641288 0 -0.0012180639179054868 0.082785759947148957 0 -0.0015539593426397544 0.08307415532766875 0 -0.001318491527308487 0.083204373975641288 0 -0.0012180639179054868 0.082785759947148957 0 -0.0011131221783216615 0.083166025792847861 0 -0.0012180639179054868 0.082785759947148957 0 -0.00091737615869284534 0.08286210193859242 0 -0.0012180639179054868 0.082785759947148957 0 -0.00091737615869284534 0.08286210193859242 0 -0.00066811276645983495 0.082411234279660739 0 -0.00065836709013881696 0.083061444857476241 0 -0.00066811276645983495 0.082411234279660739 0 -0.0002045181570764296 0.082373056686177934 0 -0.00065836709013881696 0.083061444857476241 0 -0.00091737615869284534 0.08286210193859242 0 -0.00066811276645983495 0.082411234279660739 0 -0.00066811276645983495 0.082411234279660739 0 -0.00080370244659119837 0.081890733687520867 0 -0.0013233506440085694 0.082181556073555137 0 -0.00066811276645983495 0.082411234279660739 0 -0.00080370244659119837 0.081890733687520867 0 -0.00034631425692013324 0.081800963474152721 0 -0.0012180639179054868 0.082785759947148957 0 -0.00066811276645983495 0.082411234279660739 0 -0.0013233506440085694 0.082181556073555137 0 -0.0030378697972966886 0.079024423124004192 0 -0.0026858921342316957 0.073886428731653672 0 -0.0028869614544640996 0.078854587121541475 0 -0.0034481297299729097 0.076814605540000191 0 -0.0017421337990069102 0.076834052021222302 0 -0.0028869614544640996 0.078854587121541475 0 -0.0034481297299729097 0.076814605540000191 0 -0.0037416602200318243 0.078843994603601766 0 -0.0016049808885400133 0.078948903395933426 0 -0.0026858921342316957 0.073886428731653672 0 -0.00086352778295620985 0.081146353949664921 0 -0.00034631425692013324 0.081800963474152721 0 -9.6647882474983711e-05 0.081117783570301916 0 -0.00080370244659119837 0.081890733687520867 0 -0.00086352778295620985 0.081146353949664921 0 -0.00034631425692013324 0.081800963474152721 0 -0.0026858921342316957 0.073886428731653672 0 -0.0017677819207857497 0.069349208341723798 0 -0.00080370244659119837 0.081890733687520867 0 -0.0013233506440085694 0.082181556073555137 0 -0.00086352778295620985 0.081146353949664921 0 -0.0040331704888787482 0.080877095093904131 0 -0.0028869614544640996 0.078854587121541475 0 -0.0037416602200318243 0.078843994603601766 0 -0.0011779432213872177 0.084375719918725806 0 -0.00091136103080582227 0.084812440984792153 0 -0.0015274824458510513 0.084756979701647389 0 -0.0016108327614739681 0.085402073579177812 0 -0.00091136103080582227 0.084812440984792153 0 -0.0015274824458510513 0.084756979701647389 0 -0.0016049808885400133 0.078948903395933426 0 -0.0024125744032015149 0.081068066253078372 0 -0.0016108327614739681 0.085402073579177812 0 -0.00091136103080582227 0.084812440984792153 0 -0.00072523117051079115 0.085412172156236546 0 -0.00091136103080582227 0.084812440984792153 0 -0.00041359983910653562 0.084901158490003292 0 -0.00072523117051079115 0.085412172156236546 0 -0.00041359983910653562 0.084901158490003292 0 0.00010818307187777954 0.085415384522672541 0 -0.00072523117051079115 0.085412172156236546 0 -0.00091136103080582227 0.084812440984792153 0 -0.00041359983910653562 0.084901158490003292 0 -0.00048457467620527709 0.084412451745923878 0 -0.00041359983910653562 0.084901158490003292 0 -0.00011717731248698245 0.08461054335518628 0 -0.00048457467620527709 0.084412451745923878 0 -0.00011142350310786198 0.084680895180245963 0 5.3585759384362022e-05 0.084882146846146186 0 5.6350463070130798e-05 0.084606908138138079 0 -1.1546763798687183e-05 0.084987093305575551 0 -9.2734558948300242e-06 0.084994111423121466 0 -1.8853805400965445e-06 0.084994204002757631 0 -0.00015612455280945777 0.08474539860983106 0 -1.2649137618146019e-05 0.084910559627063925 0 -0.00015612455280945777 0.08474539860983106 0 -0.00015627460892926931 0.084744265610583097 0 -0.00015612455280945777 0.08474539860983106 0 -0.0001662503535495141 0.084647203142271005 0 -0.00041359983910653562 0.084901158490003292 0 -0.00011717731248698245 0.08461054335518628 0 -4.1891798788622564e-06 0.085008469746465726 0 -0.00041359983910653562 0.084901158490003292 0 -4.1891798788622564e-06 0.085008469746465726 0 0.00010818307187777954 0.085415384522672541 0 -0.0001662503535495141 0.084647203142271005 0 -0.00027520997469755899 0.084230384071023248 0 -9.2734558948300242e-06 0.084994111423121466 0 -4.5583854324601252e-06 0.084996271511467381 0 -7.2442359630817329e-06 0.084999372827814279 0 -4.5583854324601252e-06 0.084996271511467381 0 -1.8853805400965445e-06 0.084994204002757631 0 -1.3958694949913313e-06 0.084999181385021536 0 -1.8853805400965445e-06 0.084994204002757631 0 -6.7398709658767666e-07 0.084999432536996031 0 -1.3958694949913313e-06 0.084999181385021536 0 -4.5583854324601252e-06 0.084996271511467381 0 -1.3958694949913313e-06 0.084999181385021536 0 -7.2442359630817329e-06 0.084999372827814279 0 -9.2734558948300242e-06 0.084994111423121466 0 -4.5583854324601252e-06 0.084996271511467381 0 -1.8853805400965445e-06 0.084994204002757631 0 6.2821747419480084e-08 0.084999864600345684 0 -1.2649137618146019e-05 0.084910559627063925 0 3.7159070674128101e-09 0.084999995031300971 0 -1.8853805400965445e-06 0.084994204002757631 0 -6.7398709658767666e-07 0.084999432536996031 0 -1.3743188263001943e-07 0.084999958893135927 0 5.3585759384362022e-05 0.084882146846146186 0 3.4235819713058598e-07 0.084999710193989053 0 5.3585759384362022e-05 0.084882146846146186 0 5.6350463070130798e-05 0.084606908138138079 0 3.4235819713058598e-07 0.084999710193989053 0 5.6350463070130798e-05 0.084606908138138079 0 3.4235819713058598e-07 0.084999710193989053 0 0.00016678291963932127 0.084430465371653551 0 -1.3797547215913675e-08 0.084997927650043076 0 3.4235819713058598e-07 0.084999710193989053 0 0.00016678291963932127 0.084430465371653551 0 5.6350463070130798e-05 0.084606908138138079 0 0.00016678291963932127 0.084430465371653551 0 -8.957225589205492e-07 0.084160847514243728 0 0.00021244358965060898 0.083063965583352106 0 0.00016678291963932127 0.084430465371653551 0 -8.957225589205492e-07 0.084160847514243728 0 0.00021244358965060898 0.083063965583352106 0 -8.957225589205492e-07 0.084160847514243728 0 -0.00049738678293699437 0.083994909560255598 0 -8.957225589205492e-07 0.084160847514243728 0 -0.00049738678293699437 0.083994909560255598 0 -0.00018890897540846144 0.084368112875379042 0 -0.00049738678293699437 0.083994909560255598 0 -0.00048457467620527709 0.084412451745923878 0 -0.00018890897540846144 0.084368112875379042 0 -0.00087671378176581169 0.084235863354709409 0 -0.00049738678293699437 0.083994909560255598 0 -0.00048457467620527709 0.084412451745923878 0 -0.00011298301836386192 0.08471288806789054 0 -0.00048457467620527709 0.084412451745923878 0 -0.00012960978285328582 0.084632540254238206 0 -0.00048457467620527709 0.084412451745923878 0 -0.00012960978285328582 0.084632540254238206 0 -0.00018890897540846144 0.084368112875379042 0 -0.00015612455280945777 0.08474539860983106 0 -0.00022599806445923115 0.084694166427049994 0 5.6350463070130798e-05 0.084606908138138079 0 -0.00012960978285328582 0.084632540254238206 0 -0.00018890897540846144 0.084368112875379042 0 -0.00011142350310786198 0.084680895180245963 0 5.6350463070130798e-05 0.084606908138138079 0 -0.00012960978285328582 0.084632540254238206 0 5.6350463070130798e-05 0.084606908138138079 0 -8.957225589205492e-07 0.084160847514243728 0 -0.00018890897540846144 0.084368112875379042 0 -0.0029488718348861147 0.043792967343241382 0 -0.0041921424989420511 0.041668514209467454 0 -0.0012594363554794842 0.042706083608393328 0 -0.0014777885658561372 0.041542501185898854 0 -0.00093925971397646596 0.04229888740285484 0 0.00028336889952203297 0.04760441486780774 0 -0.00038128046504984277 0.047495100959772087 0 -0.00021628775077755074 0.047822095424984966 0 0.00028336889952203297 0.04760441486780774 0 0.00016066669253190764 0.047694632500921146 0 -0.00021628775077755074 0.047822095424984966 0 0.00028336889952203297 0.04760441486780774 0 0.00017096708087280843 0.047455786610649676 0 0.00016066669253190764 0.047694632500921146 0 0.00028336889952203297 0.04760441486780774 0 0.00025783475136400679 0.046922988669100218 0 0.0004350725409966611 0.047755275996170993 0 0.00028336889952203297 0.04760441486780774 0 0.00025783475136400679 0.046922988669100218 0 -0.00038128046504984277 0.047495100959772087 0 -0.0029488718348861147 0.043792967343241382 0 -0.0025370893252820931 0.044162145163835709 0 0.00025783475136400679 0.046922988669100218 0 -0.00038128046504984277 0.047495100959772087 0 -0.00036807782830767914 0.044938129715766953 0 -0.0012594363554794842 0.042706083608393328 0 -0.00036807782830767914 0.044938129715766953 0 -0.00024319084522832801 0.043267900622242096 0 -0.00036807782830767914 0.044938129715766953 0 9.7825635968526511e-07 0.043637998492794719 0 0.00029072190195432066 0.046787783797294882 0 -0.00036807782830767914 0.044938129715766953 0 9.7825635968526511e-07 0.043637998492794719 0 1.1571894475019042e-05 0.042648957287581571 0 9.7825635968526511e-07 0.043637998492794719 0 0.00029072190195432066 0.046787783797294882 0 8.7472611365984029e-07 0.0483030005702932 0 0.00025783475136400679 0.046922988669100218 0 -0.00036807782830767914 0.044938129715766953 0 0.00029072190195432066 0.046787783797294882 0 0.00025783475136400679 0.046922988669100218 0 0.00029072190195432066 0.046787783797294882 0 0.0004350725409966611 0.047755275996170993 0 0.0004350725409966611 0.047755275996170993 0 0.00018500522362781976 0.049228231222891473 0 5.8572637747437807e-05 0.04894132229944826 0 0.00029072190195432066 0.046787783797294882 0 0.0004350725409966611 0.047755275996170993 0 0.00018500522362781976 0.049228231222891473 0 8.7472611365984029e-07 0.0483030005702932 0 0.00018500522362781976 0.049228231222891473 0 -1.1068652422439066e-06 0.052967096955856802 0 0.00029072190195432066 0.046787783797294882 0 8.7472611365984029e-07 0.0483030005702932 0 0.00018500522362781976 0.049228231222891473 0 0.00018500522362781976 0.049228231222891473 0 -1.1068652422439066e-06 0.052967096955856802 0 -0.00035542100389975104 0.051113595578636664 0 -0.00035542100389975104 0.051113595578636664 0 5.8572637747437807e-05 0.04894132229944826 0 -0.0013182333560616594 0.049517838768253712 0 0.00018500522362781976 0.049228231222891473 0 -0.00035542100389975104 0.051113595578636664 0 5.8572637747437807e-05 0.04894132229944826 0 5.8572637747437807e-05 0.04894132229944826 0 -0.00061494490627721698 0.048392240151634139 0 -0.0013182333560616594 0.049517838768253712 0 -0.00061494490627721698 0.048392240151634139 0 -0.00043598896557901605 0.04761556932415946 0 -0.0011741840900013607 0.047920545335948084 0 -0.00061494490627721698 0.048392240151634139 0 0.00019245995057614435 0.047898412989291074 0 -0.00043598896557901605 0.04761556932415946 0 5.8572637747437807e-05 0.04894132229944826 0 -0.00061494490627721698 0.048392240151634139 0 0.00019245995057614435 0.047898412989291074 0 0.00028336889952203297