<?xml version="1.0"?>
<VTKFile type="UnstructuredGrid" version="0.1" byte_order="LittleEndian">
<UnstructuredGrid>
<Piece NumberOfPoints="31898" NumberOfCells="11152">
<Points>
<DataArray type="Float64" NumberOfComponents="3" format="ascii">
-0.5 -0.5 0 -0.47620991077874902 -0.44978878706170539 0 -0.49999999999999473 -0.42132396840504388 0 -0.5 -0.5 0 -0.47160970827802529 -0.4793630013852106 0 -0.47620991077874902 -0.44978878706170539 0 -0.5 -0.5 0 -0.47160970827802529 -0.4793630013852106 0 -0.44860394795025399 -0.5 0 -0.47160970827802529 -0.4793630013852106 0 -0.44860394795025399 -0.5 0 -0.4490820238307246 -0.45820516232899983 0 -0.44860394795025399 -0.5 0 -0.4490820238307246 -0.45820516232899983 0 -0.42881687682924802 -0.47781464288736519 0 -0.4490820238307246 -0.45820516232899983 0 -0.45555437223955858 -0.42914059360647611 0 -0.4490820238307246 -0.45820516232899983 0 -0.45555437223955858 -0.42914059360647611 0 -0.43867285131603428 -0.4271457417558665 0 -0.4490820238307246 -0.45820516232899983 0 -0.43867285131603428 -0.4271457417558665 0 -0.4263356171060747 -0.44269880333887462 0 -0.47160970827802529 -0.4793630013852106 0 -0.4490820238307246 -0.45820516232899983 0 -0.47620991077874902 -0.44978878706170539 0 -0.4490820238307246 -0.45820516232899983 0 -0.47620991077874902 -0.44978878706170539 0 -0.45555437223955858 -0.42914059360647611 0 -0.47620991077874902 -0.44978878706170539 0 -0.48101336032419229 -0.41069999664450008 0 -0.45555437223955858 -0.42914059360647611 0 -0.47620991077874902 -0.44978878706170539 0 -0.49999999999999473 -0.42132396840504388 0 -0.48101336032419229 -0.41069999664450008 0 -0.49999999999999473 -0.42132396840504388 0 -0.48101336032419229 -0.41069999664450008 0 -0.5 -0.393886241813306 0 -0.49999999999999473 -0.42132396840504388 0 -0.48101336032419229 -0.41069999664450008 0 -0.5 -0.393886241813306 0 -0.47854472220918332 -0.38978458738689759 0 -0.48422759779560409 -0.37130120630367158 0 -0.5 -0.393886241813306 0 -0.5 -0.36644851522156802 0 -0.48422759779560409 -0.37130120630367158 0 -0.48101336032419229 -0.41069999664450008 0 -0.5 -0.393886241813306 0 -0.47854472220918332 -0.38978458738689759 0 -0.48101336032419229 -0.41069999664450008 0 -0.47854472220918332 -0.38978458738689759 0 -0.46202672064839212 -0.40007602488395211 0 -0.48101336032419229 -0.41069999664450008 0 -0.46202672064839212 -0.40007602488395211 0 -0.47854472220918332 -0.38978458738689759 0 -0.46725442735267431 -0.37660061361585562 0 -0.46202672064839212 -0.40007602488395211 0 -0.47854472220918332 -0.38978458738689759 0 -0.46725442735267431 -0.37660061361585562 0 -0.48422759779560409 -0.37130120630367158 0 -0.46725442735267431 -0.37660061361585562 0 -0.46202672064839212 -0.40007602488395211 0 -0.46725442735267431 -0.37660061361585562 0 -0.45645674801697989 -0.38644133236760531 0 -0.46202672064839212 -0.40007602488395211 0 -0.46725442735267431 -0.37660061361585562 0 -0.45645674801697989 -0.38644133236760531 0 -0.4540003998136638 -0.37455519391687309 0 -0.45645674801697989 -0.38644133236760531 0 -0.46202672064839212 -0.40007602488395211 0 -0.44257020456291563 -0.38918913383950271 0 -0.46202672064839212 -0.40007602488395211 0 -0.44257020456291563 -0.38918913383950271 0 -0.44727608925983742 -0.41095911152778891 0 -0.46202672064839212 -0.40007602488395211 0 -0.44257020456291563 -0.38918913383950271 0 -0.44257020456291563 -0.38918913383950271 0 -0.44727608925983742 -0.41095911152778891 0 -0.43479358559901082 -0.4041454901736512 0 -0.44257020456291563 -0.38918913383950271 0 -0.4540003998136638 -0.37455519391687309 0 -0.44172858264042247 -0.37082207246888088 0 -0.45645674801697989 -0.38644133236760531 0 -0.44257020456291563 -0.38918913383950271 0 -0.4540003998136638 -0.37455519391687309 0 -0.46202672064839212 -0.40007602488395211 0 -0.45555437223955858 -0.42914059360647611 0 -0.44727608925983742 -0.41095911152778891 0 -0.46202672064839212 -0.40007602488395211 0 -0.45555437223955858 -0.42914059360647611 0 -0.48101336032419229 -0.41069999664450008 0 -0.46202672064839212 -0.40007602488395211 0 -0.45555437223955858 -0.42914059360647611 0 -0.44727608925983742 -0.41095911152778891 0 -0.43867285131603428 -0.4271457417558665 0 -0.43676601469929588 -0.41441201227470881 0 -0.44727608925983742 -0.41095911152778891 0 -0.43676601469929588 -0.41441201227470881 0 -0.43479358559901082 -0.4041454901736512 0 -0.45555437223955858 -0.42914059360647611 0 -0.44727608925983742 -0.41095911152778891 0 -0.43867285131603428 -0.4271457417558665 0 -0.43867285131603428 -0.4271457417558665 0 -0.42681803064840879 -0.42717069814352421 0 -0.4263356171060747 -0.44269880333887462 0 -0.42681803064840879 -0.42717069814352421 0 -0.41531815884496182 -0.42985383783075998 0 -0.4263356171060747 -0.44269880333887462 0 -0.42681803064840879 -0.42717069814352421 0 -0.42624289495594048 -0.42089725947505818 0 -0.42083332353326591 -0.42146747131641099 0 -0.42681803064840879 -0.42717069814352421 0 -0.43096994786351572 -0.41951492446283251 0 -0.42624289495594048 -0.42089725947505818 0 -0.43867285131603428 -0.4271457417558665 0 -0.42681803064840879 -0.42717069814352421 0 -0.43096994786351572 -0.41951492446283251 0 -0.43867285131603428 -0.4271457417558665 0 -0.43676601469929588 -0.41441201227470881 0 -0.43096994786351572 -0.41951492446283251 0 -0.43676601469929588 -0.41441201227470881 0 -0.43096994786351572 -0.41951492446283251 0 -0.42907264086257813 -0.41311715872526122 0 -0.43676601469929588 -0.41441201227470881 0 -0.42907264086257813 -0.41311715872526122 0 -0.43479358559901082 -0.4041454901736512 0 -0.42907264086257813 -0.41311715872526122 0 -0.43479358559901082 -0.4041454901736512 0 -0.42460885511582858 -0.40417321677700252 0 -0.42907264086257813 -0.41311715872526122 0 -0.41997834854398469 -0.41180534796019508 0 -0.42907264086257813 -0.41311715872526122 0 -0.42635027777857132 -0.41543594397746519 0 -0.41997834854398469 -0.41180534796019508 0 -0.42907264086257813 -0.41311715872526122 0 -0.41997834854398469 -0.41180534796019508 0 -0.42460885511582858 -0.40417321677700252 0 -0.42635027777857132 -0.41543594397746519 0 -0.41997834854398469 -0.41180534796019508 0 -0.42635027777857132 -0.41543594397746519 0 -0.42083332353326591 -0.42146747131641099 0 -0.41997834854398469 -0.41180534796019508 0 -0.43096994786351572 -0.41951492446283251 0 -0.42624289495594048 -0.42089725947505818 0 -0.42635027777857132 -0.41543594397746519 0 -0.43096994786351572 -0.41951492446283251 0 -0.42907264086257813 -0.41311715872526122 0 -0.42635027777857132 -0.41543594397746519 0 -0.42624289495594048 -0.42089725947505818 0 -0.42635027777857132 -0.41543594397746519 0 -0.42083332353326591 -0.42146747131641099 0 -0.42083332353326591 -0.42146747131641099 0 -0.41997834854398469 -0.41180534796019508 0 -0.40992282953163789 -0.42011435591993562 0 -0.41997834854398469 -0.41180534796019508 0 -0.39756877647335259 -0.40857286797681719 0 -0.41997834854398469 -0.41180534796019508 0 -0.40992282953163789 -0.42011435591993562 0 -0.39756877647335259 -0.40857286797681719 0 -0.40992282953163789 -0.42011435591993562 0 -0.41531815884496182 -0.42985383783075998 0 -0.39591554026262499 -0.42887225451549271 0 -0.41531815884496182 -0.42985383783075998 0 -0.39591554026262499 -0.42887225451549271 0 -0.41160927495564159 -0.44339431233754628 0 -0.42083332353326591 -0.42146747131641099 0 -0.40992282953163789 -0.42011435591993562 0 -0.41531815884496182 -0.42985383783075998 0 -0.42681803064840879 -0.42717069814352421 0 -0.42083332353326591 -0.42146747131641099 0 -0.41531815884496182 -0.42985383783075998 0 -0.44257020456291563 -0.38918913383950271 0 -0.42311368847744002 -0.37830224279505142 0 -0.42594061475171041 -0.39368797999533162 0 -0.44257020456291563 -0.38918913383950271 0 -0.42311368847744002 -0.37830224279505142 0 -0.44172858264042247 -0.37082207246888088 0 -0.44257020456291563 -0.38918913383950271 0 -0.42311368847744002 -0.37830224279505142 0 -0.42311368847744002 -0.37830224279505142 0 -0.42594061475171041 -0.39368797999533162 0 -0.416587075656149 -0.38785930376960043 0 -0.44257020456291563 -0.38918913383950271 0 -0.42594061475171041 -0.39368797999533162 0 -0.43479358559901082 -0.4041454901736512 0 -0.42594061475171041 -0.39368797999533162 0 -0.43479358559901082 -0.4041454901736512 0 -0.42460885511582858 -0.40417321677700252 0 -0.41997834854398469 -0.41180534796019508 0 -0.41325908582185972 -0.39811010703057192 0 -0.39770572831670092 -0.39911486077581648 0 -0.41997834854398469 -0.41180534796019508 0 -0.39770572831670092 -0.39911486077581648 0 -0.42594061475171041 -0.39368797999533162 0 -0.42460885511582858 -0.40417321677700252 0 -0.41325908582185972 -0.39811010703057192 0 -0.41997834854398469 -0.41180534796019508 0 -0.42460885511582858 -0.40417321677700252 0 -0.41325908582185972 -0.39811010703057192 0 -0.42594061475171041 -0.39368797999533162 0 -0.41325908582185972 -0.39811010703057192 0 -0.416587075656149 -0.38785930376960043 0 -0.41325908582185972 -0.39811010703057192 0 -0.416587075656149 -0.38785930376960043 0 -0.40403491357358612 -0.38133688525744702 0 -0.42311368847744002 -0.37830224279505142 0 -0.40403491357358612 -0.38133688525744702 0 -0.40365717239196519 -0.36741535175059892 0 -0.42311368847744002 -0.37830224279505142 0 -0.416587075656149 -0.38785930376960043 0 -0.40403491357358612 -0.38133688525744702 0 -0.40403491357358612 -0.38133688525744702 0 -0.39190790742475001 -0.38540387676521748 0 -0.39770572831670092 -0.39911486077581648 0 -0.40403491357358612 -0.38133688525744702 0 -0.39190790742475001 -0.38540387676521748 0 -0.3904578797192948 -0.37473938743617019 0 -0.41325908582185972 -0.39811010703057192 0 -0.40403491357358612 -0.38133688525744702 0 -0.39770572831670092 -0.39911486077581648 0 -0.39770572831670092 -0.39911486077581648 0 -0.37543310808941849 -0.38642437359143528 0 -0.39770572831670092 -0.39911486077581648 0 -0.37515920440272033 -0.40534038799344108 0 -0.37543310808941849 -0.38642437359143528 0 -0.39770572831670092 -0.39911486077581648 0 -0.37515920440272033 -0.40534038799344108 0 -0.39756877647335259 -0.40857286797681719
[...]
<PointData Scalars="" Vectors="displacement," Tensors="">
<DataArray type="Float64" Name="displacement" NumberOfComponents="3" format="ascii">
0.084993867084888333 0.084995213465429806 0 0.079243501040952249 0.083484225583834198 0 0.07165081149022591 0.084988673309946278 0 0.084993867084888333 0.084995213465429806 0 0.083643791106736184 0.081900103266425231 0 0.079243501040952249 0.083484225583834198 0 0.084993867084888333 0.084995213465429806 0 0.083643791106736184 0.081900103266425231 0 0.084995237716113184 0.076270010877121847 0 0.083643791106736184 0.081900103266425231 0 0.084995237716113184 0.076270010877121847 0 0.084158538587133583 0.080716007218138777 0 0.084995237716113184 0.076270010877121847 0 0.084158538587133583 0.080716007218138777 0 0.085270066828584415 0.074702422110602892 0 0.082454537302664971 0.082987570075525152 0 0.08212761945221482 0.083654772063475338 0 0.084158538587133583 0.080716007218138777 0 0.091440411011946943 0.081452588684367264 0 0.092009834885500075 0.077821605731522581 0 0.084158538587133583 0.080716007218138777 0 0.092009834885500075 0.077821605731522581 0 0.088957643921788496 0.07502817706239924 0 0.083643791106736184 0.081900103266425231 0 0.084158538587133583 0.080716007218138777 0 0.079243501040952249 0.083484225583834198 0 0.084158538587133583 0.080716007218138777 0 0.079243501040952249 0.083484225583834198 0 0.077337177238545426 0.084948913553756056 0 0.079243501040952249 0.083484225583834198 0 0.073749025750909858 0.084091611666905139 0 0.077337177238545426 0.084948913553756056 0 0.079243501040952249 0.083484225583834198 0 0.07165081149022591 0.084988673309946278 0 0.073749025750909858 0.084091611666905139 0 0.0716250519458001 0.084999990010081267 0 0.069816707441665099 0.08820615500038681 0 0.066960672860110773 0.08499998627750896 0 0.071627552750998649 0.085001075821413266 0 0.072774093734197173 0.085411038028600186 0 0.066960672860110773 0.08499998627750896 0 0.066269885238834494 0.088622319419051118 0 0.063126683875551176 0.08766373172826078 0 0.066960672860110773 0.08499998627750896 0 0.062296254235792332 0.084999983922174546 0 0.063126683875551176 0.08766373172826078 0 0.069816707441665099 0.08820615500038681 0 0.066960672860110773 0.08499998627750896 0 0.066269885238834494 0.088622319419051118 0 0.069816707441665099 0.08820615500038681 0 0.066269885238834494 0.088622319419051118 0 0.068022629142896085 0.091404031838170932 0 0.072774093734197173 0.085411038028600186 0 0.075258204836145079 0.083923346861675158 0 0.066269885238834494 0.088622319419051118 0 0.064032875391208333 0.090531317765307429 0 0.068022629142896085 0.091404031838170932 0 0.066269885238834494 0.088622319419051118 0 0.064032875391208333 0.090531317765307429 0 0.063126683875551176 0.08766373172826078 0 0.064510755489472701 0.086080685816809444 0 0.075258204836145079 0.083923346861675158 0 0.059111406033916174 0.089823225569609019 0 0.058932827220521976 0.089752511123908696 0 0.058798832371063342 0.08981477344696559 0 0.059111406033916174 0.089823225569609019 0 0.058932827220521976 0.089752511123908696 0 0.058977721844541114 0.089779329992781556 0 0.058932827220521976 0.089752511123908696 0 0.058798832371063342 0.08981477344696559 0 0.058844432962826855 0.08959149359635292 0 0.096545890551676297 0.081865129001109316 0 0.097997508210750303 0.078465229890971336 0 0.094770216052400866 0.079437323106463967 0 0.075258204836145079 0.083923346861675158 0 0.075945979505832151 0.082480369201864731 0 0.097997508210750303 0.078465229890971336 0 0.094770216052400866 0.079437323106463967 0 0.095809745741741267 0.077258202408774165 0 0.058844432962826855 0.08959149359635292 0 0.058977721844541114 0.089779329992781556 0 0.058988236762182622 0.089583150369822825 0 0.058932827220521976 0.089752511123908696 0 0.058844432962826855 0.08959149359635292 0 0.058977721844541114 0.089779329992781556 0 0.096545890551676297 0.081865129001109316 0 0.091440411011946943 0.081452588684367264 0 0.094770216052400866 0.079437323106463967 0 0.075258204836145079 0.083923346861675158 0 0.08212761945221482 0.083654772063475338 0 0.073749025750909858 0.084091611666905139 0 0.073379096197361049 0.085361843883409699 0 0.077337177238545426 0.084948913553756056 0 0.094770216052400866 0.079437323106463967 0 0.092009834885500075 0.077821605731522581 0 0.094237905755780033 0.077536941069151863 0 0.094770216052400866 0.079437323106463967 0 0.094237905755780033 0.077536941069151863 0 0.095809745741741267 0.077258202408774165 0 0.091440411011946943 0.081452588684367264 0 0.094770216052400866 0.079437323106463967 0 0.092009834885500075 0.077821605731522581 0 0.092009834885500075 0.077821605731522581 0 0.091930673690234888 0.075434836004768288 0 0.088957643921788496 0.07502817706239924 0 0.091930673690234888 0.075434836004768288 0 0.091410124006630802 0.073196147459253944 0 0.088957643921788496 0.07502817706239924 0 0.091930673690234888 0.075434836004768288 0 0.093095275483062429 0.075427073927732166 0 0.092976273172598836 0.074328398198271292 0 0.091930673690234888 0.075434836004768288 0 0.093363382646752091 0.076410662731675599 0 0.093095275483062429 0.075427073927732166 0 0.092009834885500075 0.077821605731522581 0 0.091930673690234888 0.075434836004768288 0 0.093363382646752091 0.076410662731675599 0 0.092009834885500075 0.077821605731522581 0 0.094237905755780033 0.077536941069151863 0 0.093363382646752091 0.076410662731675599 0 0.094237905755780033 0.077536941069151863 0 0.093363382646752091 0.076410662731675599 0 0.094568568635186312 0.076217259701995194 0 0.094237905755780033 0.077536941069151863 0 0.094568568635186312 0.076217259701995194 0 0.095809745741741267 0.077258202408774165 0 0.094568568635186312 0.076217259701995194 0 0.095809745741741267 0.077258202408774165 0 0.09578576930224178 0.075801540622864941 0 0.091402535823670458 0.071176805755059469 0 0.091352098302679277 0.070595014874710482 0 0.094568568635186312 0.076217259701995194 0 0.094112937557781925 0.07553731116109344 0 0.094985682125404786 0.074036413780997359 0 0.094568568635186312 0.076217259701995194 0 0.094855544987381135 0.075207831205620121 0 0.09578576930224178 0.075801540622864941 0 0.091343226337011002 0.070817935195949921 0 0.091352098302679277 0.070595014874710482 0 0.094112937557781925 0.07553731116109344 0 0.092976273172598836 0.074328398198271292 0 0.094838703960295534 0.074165408589364754 0 0.093363382646752091 0.076410662731675599 0 0.093095275483062429 0.075427073927732166 0 0.094112937557781925 0.07553731116109344 0 0.093363382646752091 0.076410662731675599 0 0.094568568635186312 0.076217259701995194 0 0.094112937557781925 0.07553731116109344 0 0.093095275483062429 0.075427073927732166 0 0.094112937557781925 0.07553731116109344 0 0.092976273172598836 0.074328398198271292 0 0.092976273172598836 0.074328398198271292 0 0.094838703960295534 0.074165408589364754 0 0.093234769168240667 0.072225976697079891 0 0.091352098302679277 0.070595014874710482 0 0.091926834916744665 0.067535637171540555 0 0.094838703960295534 0.074165408589364754 0 0.093234769168240667 0.072225976697079891 0 0.095366564103399026 0.069919093479366853 0 0.093234769168240667 0.072225976697079891 0 0.091410124006630802 0.073196147459253944 0 0.091627096885996698 0.069625130912139635 0 0.091410124006630802 0.073196147459253944 0 0.091627096885996698 0.069625130912139635 0 0.088996998118604315 0.07247087092262619 0 0.092976273172598836 0.074328398198271292 0 0.093234769168240667 0.072225976697079891 0 0.091410124006630802 0.073196147459253944 0 0.091930673690234888 0.075434836004768288 0 0.092976273172598836 0.074328398198271292 0 0.091410124006630802 0.073196147459253944 0 0.097997508210750303 0.078465229890971336 0 0.098960501862932898 0.075663700910028373 0 0.097154668475558398 0.076036719100239708 0 0.058844432962826855 0.08959149359635292 0 0.058884335890162606 0.089239051307771544 0 0.058988236762182622 0.089583150369822825 0 0.075945979505832151 0.082480369201864731 0 0.075869959061989151 0.079874038255267066 0 0.098960501862932898 0.075663700910028373 0 0.097154668475558398 0.076036719100239708 0 0.097769295465112691 0.074868419930342142 0 0.097997508210750303 0.078465229890971336 0 0.097154668475558398 0.076036719100239708 0 0.095809745741741267 0.077258202408774165 0 0.097154668475558398 0.076036719100239708 0 0.095809745741741267 0.077258202408774165 0 0.09578576930224178 0.075801540622864941 0 0.094855544987381135 0.075207831205620121 0 0.096555991208142206 0.07444957245632941 0 0.096494791133934027 0.072701906296354035 0 0.091352098302679277 0.070595014874710482 0 0.090790662986557052 0.067633047071775768 0 0.097154668475558398 0.076036719100239708 0 0.09578576930224178 0.075801540622864941 0 0.096555991208142206 0.07444957245632941 0 0.094855544987381135 0.075207831205620121 0 0.09578576930224178 0.075801540622864941 0 0.096555991208142206 0.07444957245632941 0 0.097154668475558398 0.076036719100239708 0 0.096555991208142206 0.07444957245632941 0 0.097769295465112691 0.074868419930342142 0 0.096555991208142206 0.07444957245632941 0 0.097769295465112691 0.074868419930342142 0 0.098394244390907035 0.073361461412371709 0 0.098960501862932898 0.075663700910028373 0 0.098394244390907035 0.073361461412371709 0 0.10003510106844977 0.073323025888257065 0 0.098960501862932898 0.075663700910028373 0 0.097769295465112691 0.074868419930342142 0 0.098394244390907035 0.073361461412371709 0 0.098394244390907035 0.073361461412371709 0 0.097898708005615981 0.072175499977132435 0 0.096494791133934027 0.072701906296354035 0 0.098394244390907035 0.073361461412371709 0 0.097898708005615981 0.072175499977132435 0 0.098876253311320453 0.072055311189149485 0 0.096555991208142206 0.07444957245632941 0 0.098394244390907035 0.073361461412371709 0 0.096494791133934027 0.072701906296354035 0 0.090790662986557052 0.067633047071775768 0 0.088706261708244277 0.062994970977200609 0 0.091460669623518356 0.066496854424373336 0 0.090748217935744391 0.063916634902334235 0 0.092899261802425054 0.063945920397045872 0 0.091460669623518356 0.066496854424373336 0 0.090748217935744391 0.063916634902334235 0 0.090380953318631649 0.066482778950052335 0 0.092225829708878479 0.063186920391071322 0 0.088706261708244277 0.062994970977200609 0 0.097799251167435056 0.070638226999047815 0 0.098876253311320453 0.072055311189149485 0 0.099331946782951847 0.070725725693213948 0 0.097898708005615981 0.072175499977132435 0 0.097799251167435056 0.070638226999047815 0 0.098876253311320453 0.072055311189149485 0 0.088706261708244277 0.062994970977200609 0 0.083965170088353705 0.064542120254572968 0 0.097898708005615981 0.072175499977132435 0 0.096494791133934027 0.072701906296354035 0 0.097799251167435056 0.070638226999047815 0 0.090017595470633552 0.069059517517978369 0 0.091460669623518356 0.066496854424373336 0 0.090380953318631649 0.066482778950052335 0 0.093234769168240667 0.072225976697079891 0 0.091627096885996698 0.069625130912139635 0 0.095366564103399026 0.069919093479366853 0 0.095940559282390162 0.065815013762893976 0 0.091627096885996698 0.069625130912139635 0 0.095366564103399026 0.069919093479366853 0 0.092225829708878479 0.063186920391071322 0 0.091926834916744665 0.067535637171540555 0 0.095940559282390162 0.065815013762893976 0 0.091627096885996698 0.069625130912139635 0 0.090434603371075506 0.065760956482406152 0 0.091627096885996698 0.069625130912139635 0 0.08842541506403262 0.069089589895226872 0 0.090434603371075506 0.065760956482406152 0 0.08842541506403262 0.069089589895226872 0 0.08498810736711479 0.065691126872654382 0 0.090434603371075506 0.065760956482406152 0 0.091627096885996698 0.069625130912139635 0 0.08842541506403262 0.069089589895226872 0 0.088996998118604315 0.07247087092262619 0 0.08842541506403262 0.069089589895226872 0 0.086439331318481971 0.07107238088493395 0 0.088996998118604315 0.07247087092262619 0 0.087512969667775956 0.071226931248658587 0 0.086454341229108569 0.068423513449781356 0 0.086401742332668133 0.071956119215348335 0 0.09204699829450276 0.068514170880993167 0 0.091391144152523723 0.066082825242845311 0 0.08856114161011662 0.066640802803419733 0 0.089086049985071317 0.067607420054117684 0 0.087154368138403868 0.066456249977615123 0 0.089086049985071317 0.067607420054117684 0 0.089088109459568632 0.067641908165228026 0 0.089086049985071317 0.067607420054117684 0 0.08909449549704225 0.066219105183294061 0 0.08842541506403262 0.069089589895226872 0 0.086439331318481971 0.07107238088493395 0 0.085714379799482793 0.068380687299851514 0 0.08842541506403262 0.069089589895226872 0 0.085714379799482793 0.068380687299851514 0 0.08498810736711479 0.065691126872654382 0 0.08909449549704225 0.066219105183294061 0 0.089062426416939455 0.064094427358108136 0 0.091391144152523723 0.066082825242845311 0 0.089743201021464991 0.065201562210446942 0 0.09073460536171743 0.063633239744921091 0 0.089743201021464991 0.065201562210446942 0 0.08856114161011662 0.066640802803419733 0 0.088800974136464761 0.063594288783398026 0 0.08856114161011662 0.066640802803419733 0 0.086723592050829398 0.063306185472614684 0 0.088800974136464761 0.063594288783398026 0 0.089743201021464991 0.065201562210446942 0 0.088800974136464761 0.063594288783398026 0 0.09073460536171743 0.063633239744921091 0 0.091391144152523723 0.066082825242845311 0 0.089743201021464991 0.065201562210446942 0 0.08856114161011662 0.066640802803419733 0 0.085001605935748473 0.064763111510341864 0 0.087154368138403868 0.066456249977615123 0 0.085000007919896564 0.064760914137429446 0 0.08856114161011662 0.066640802803419733 0 0.086723592050829398 0.063306185472614684 0 0.084999717276286163 0.064763921578652711 0 0.086454341229108569 0.068423513449781356 0 0.084997891483042515 0.069697772382156922 0 0.086454341229108569 0.068423513449781356 0 0.086401742332668133 0.071956119215348335 0 0.084997891483042515 0.069697772382156922 0 0.086401742332668133 0.071956119215348335 0 0.084997891483042515 0.069697772382156922 0 0.085270066828584415 0.074702422110602892 0 0.084995237716113184 0.076270010877121847 0 0.084997891483042515 0.069697772382156922 0 0.085270066828584415 0.074702422110602892 0 0.086401742332668133 0.071956119215348335 0 0.085270066828584415 0.074702422110602892 0 0.086242971657043796 0.074899158166382207 0 0.084158538587133583 0.080716007218138777 0 0.085270066828584415 0.074702422110602892 0 0.086242971657043796 0.074899158166382207 0 0.084158538587133583 0.080716007218138777 0 0.086242971657043796 0.074899158166382207 0 0.088957643921788496 0.07502817706239924 0 0.086242971657043796 0.074899158166382207 0 0.088957643921788496 0.07502817706239924 0 0.087524667784320345 0.073122435736734423 0 0.088957643921788496 0.07502817706239924 0 0.088996998118604315 0.07247087092262619 0 0.087524667784320345 0.073122435736734423 0 0.091410124006630802 0.073196147459253944 0 0.088957643921788496 0.07502817706239924 0 0.088996998118604315 0.07247087092262619 0 0.087422053223036145 0.071243991134229301 0 0.088996998118604315 0.07247087092262619 0 0.087492984408977292 0.071578913540573122 0 0.088996998118604315 0.07247087092262619 0 0.087492984408977292 0.071578913540573122 0 0.087524667784320345 0.073122435736734423 0 0.089086049985071317 0.067607420054117684 0 0.089260206003830334 0.068169597977312438 0 0.086401742332668133 0.071956119215348335 0 0.087492984408977292 0.071578913540573122 0 0.087524667784320345 0.073122435736734423 0 0.087512969667775956 0.071226931248658587 0 0.086401742332668133 0.071956119215348335 0 0.087492984408977292 0.071578913540573122 0 0.086401742332668133 0.071956119215348335 0 0.086242971657043796 0.074899158166382207 0 0.087524667784320345 0.073122435736734423 0 0.036221187316354514 0.089086655547173169 0 0.032309122073923294 0.084301006176605034 0 0.042759131841494817 0.091752532172573245 0 0.042527437655619137 0.096916176878110591 0 0.039787016908821554 0.092971234257534313 0 0.046706199582438677 0.092958155984539548 0 0.043494331269794052 0.091894253156446323 0 0.043220069645873743 0.095513678735392363 0 0.046706199582438677 0.092958155984539548 0 0.046530170765767376 0.096106220422782149 0 0.043220069645873743 0.095513678735392363 0 0.046706199582438677 0.092958155984539548 0 0.049631923624456731 0.094317941274819003 0 0.046530170765767376 0.096106220422782149 0 0.046706199582438677 0.092958155984539548 0 0.045484996254954176 0.09016757763160492 0 0.048029050119967817 0.089851419130638793 0 0.046706199582438677 0.092958155984539548 0 0.045484996254954176 0.09016757763160492 0 0.043494331269794052 0.091894253156446323 0 0.036221187316354514 0.089086655547173169 0 0.037497195410881132 0.088913200970406545 0 0.045484996254954176 0.09016757763160492 0 0.043494331269794052 0.091894253156446323 0 0.043571478586721835 0.088102251077627258 0 0.042759131841494817 0.091752532172573245 0 0.043571478586721835 0.088102251077627258 0 0.039217721140161262 0.088993873933693485 0 0.043571478586721835 0.088102251077627258 0 0.043638182338754272 0.084999236250696636 0 0.046505171034172614 0.087477662471553516 0 0.043571478586721835 0.088102251077627258 0 0.043638182338754272 0.084999236250696636 0 0.04078219094949434 0.086637950624933041 0 0.043638182338754272 0.084999236250696636 0 0.046505171034172614 0.087477662471553516 0 0.048302877798578316 0.084999892947592831 0 0.045484996254954176 0.09016757763160492 0 0.043571478586721835 0.088102251077627258 0 0.046505171034172614 0.087477662471553516 0 0.045484996254954176 0.09016757763160492 0 0.046505171034172614 0.087477662471553516 0 0.048029050119967817 0.089851419130638793 0 0.048029050119967817 0.089851419130638793 0 0.049558433156178118 0.08722259939367244 0 0.050636994117482653 0.089454718889022455 0 0.046505171034172614 0.087477662471553516 0 0.048029050119967817 0.089851419130638793 0 0.049558433156178118 0.08722259939367244 0 0.048302877798578316 0.084999892947592831 0 0.049558433156178118 0.08722259939367244 0 0.052967231116470767 0.084999857661146386 0 0.046505171034172614 0.087477662471553516 0 0.048302877798578316 0.084999892947592831 0 0.049558433156178118 0.08722259939367244 0 0.049558433156178118 0.08722259939367244 0 0.052967231116470767 0.084999857661146386 0 0.051950528169067804 0.08772754513910011 0 0.051950528169067804 0.08772754513910011 0 0.050636994117482653 0.089454718889022455 0 0.053327686946879338 0.089351161162382856 0 0.049558433156178118 0.08722259939367244 0 0.051950528169067804 0.08772754513910011 0 0.050636994117482653 0.089454718889022455 0 0.050636994117482653 0.089454718889022455 0 0.051960328434600037 0.091101292123374353 0 0.053327686946879338 0.089351161162382856 0 0.051960328434600037 0.091101292123374353 0 0.051430477570499081 0.093299361228965219 0 0.053146202190481974 0.092449678123297283 0 0.051960328434600037 0.091101292123374353 0 0.049681013241308289 0.091814640831731215 0 0.051430477570499081 0.093299361228965219 0 0.050636994117482653 0.089454718889022455 0 0.051960328434600037 0.091101292123374353 0 0.049681013241308289 0.091814640831731215 0 0.046706199582438677 0.092958155984539548 0 0.048029050119967817 0.089851419130638793 0 0.049681013241308289 0.091814640831731215 0 0.048029050119967817 0.089851419130638793 0 0.050636994117482653 0.089454718889022455 0 0.049681013241308289 0.091814640831731215 0 0.046706199582438677 0.092958155984539548 0 0.049681013241308289 0.091814640831731215 0 0.049631923624456731 0.094317941274819003 0 0.049681013241308289 0.091814640831731215 0 0.049631923624456731 0.094317941274819003 0 0.051430477570499081 0.093299361228965219 0 0.049631923624456731 0.094317941274819003 0 0.051430477570499081 0.093299361228965219 0 0.051530700585741655 0.09526763403073181 0 0.051430477570499081 0.093299361228965219 0 0.05386259618204952 0.094442021020628278 0 0.051530700585741655 0.09526763403073181 0 0.051430477570499081 0.093299361228965219 0 0.053146202190481974 0.092449678123297283 0 0.05386259618204952 0.094442021020628278 0 0.048666546581846645 0.088068035212017892 0 0.049211831732040114 0.08896622767870635 0 0.0539562454025171