<?xml version="1.0"?>
<VTKFile type="UnstructuredGrid" version="0.1" byte_order="LittleEndian">
<UnstructuredGrid>
<Piece NumberOfPoints="31898" NumberOfCells="11152">
<Points>
<DataArray type="Float64" NumberOfComponents="3" format="ascii">
-0.5 -0.5 0 -0.47620991077874902 -0.44978878706170539 0 -0.49999999999999473 -0.42132396840504388 0 -0.5 -0.5 0 -0.47160970827802529 -0.4793630013852106 0 -0.47620991077874902 -0.44978878706170539 0 -0.5 -0.5 0 -0.47160970827802529 -0.4793630013852106 0 -0.44860394795025399 -0.5 0 -0.47160970827802529 -0.4793630013852106 0 -0.44860394795025399 -0.5 0 -0.4490820238307246 -0.45820516232899983 0 -0.44860394795025399 -0.5 0 -0.4490820238307246 -0.45820516232899983 0 -0.42881687682924802 -0.47781464288736519 0 -0.4490820238307246 -0.45820516232899983 0 -0.45555437223955858 -0.42914059360647611 0 -0.4490820238307246 -0.45820516232899983 0 -0.45555437223955858 -0.42914059360647611 0 -0.43867285131603428 -0.4271457417558665 0 -0.4490820238307246 -0.45820516232899983 0 -0.43867285131603428 -0.4271457417558665 0 -0.4263356171060747 -0.44269880333887462 0 -0.47160970827802529 -0.4793630013852106 0 -0.4490820238307246 -0.45820516232899983 0 -0.47620991077874902 -0.44978878706170539 0 -0.4490820238307246 -0.45820516232899983 0 -0.47620991077874902 -0.44978878706170539 0 -0.45555437223955858 -0.42914059360647611 0 -0.47620991077874902 -0.44978878706170539 0 -0.48101336032419229 -0.41069999664450008 0 -0.45555437223955858 -0.42914059360647611 0 -0.47620991077874902 -0.44978878706170539 0 -0.49999999999999473 -0.42132396840504388 0 -0.48101336032419229 -0.41069999664450008 0 -0.49999999999999473 -0.42132396840504388 0 -0.48101336032419229 -0.41069999664450008 0 -0.5 -0.393886241813306 0 -0.49999999999999473 -0.42132396840504388 0 -0.48101336032419229 -0.41069999664450008 0 -0.5 -0.393886241813306 0 -0.47854472220918332 -0.38978458738689759 0 -0.48422759779560409 -0.37130120630367158 0 -0.5 -0.393886241813306 0 -0.5 -0.36644851522156802 0 -0.48422759779560409 -0.37130120630367158 0 -0.48101336032419229 -0.41069999664450008 0 -0.5 -0.393886241813306 0 -0.47854472220918332 -0.38978458738689759 0 -0.48101336032419229 -0.41069999664450008 0 -0.47854472220918332 -0.38978458738689759 0 -0.46202672064839212 -0.40007602488395211 0 -0.48101336032419229 -0.41069999664450008 0 -0.46202672064839212 -0.40007602488395211 0 -0.47854472220918332 -0.38978458738689759 0 -0.46725442735267431 -0.37660061361585562 0 -0.46202672064839212 -0.40007602488395211 0 -0.47854472220918332 -0.38978458738689759 0 -0.46725442735267431 -0.37660061361585562 0 -0.48422759779560409 -0.37130120630367158 0 -0.46725442735267431 -0.37660061361585562 0 -0.46202672064839212 -0.40007602488395211 0 -0.46725442735267431 -0.37660061361585562 0 -0.45645674801697989 -0.38644133236760531 0 -0.46202672064839212 -0.40007602488395211 0 -0.46725442735267431 -0.37660061361585562 0 -0.45645674801697989 -0.38644133236760531 0 -0.4540003998136638 -0.37455519391687309 0 -0.45645674801697989 -0.38644133236760531 0 -0.46202672064839212 -0.40007602488395211 0 -0.44257020456291563 -0.38918913383950271 0 -0.46202672064839212 -0.40007602488395211 0 -0.44257020456291563 -0.38918913383950271 0 -0.44727608925983742 -0.41095911152778891 0 -0.46202672064839212 -0.40007602488395211 0 -0.44257020456291563 -0.38918913383950271 0 -0.44257020456291563 -0.38918913383950271 0 -0.44727608925983742 -0.41095911152778891 0 -0.43479358559901082 -0.4041454901736512 0 -0.44257020456291563 -0.38918913383950271 0 -0.4540003998136638 -0.37455519391687309 0 -0.44172858264042247 -0.37082207246888088 0 -0.45645674801697989 -0.38644133236760531 0 -0.44257020456291563 -0.38918913383950271 0 -0.4540003998136638 -0.37455519391687309 0 -0.46202672064839212 -0.40007602488395211 0 -0.45555437223955858 -0.42914059360647611 0 -0.44727608925983742 -0.41095911152778891 0 -0.46202672064839212 -0.40007602488395211 0 -0.45555437223955858 -0.42914059360647611 0 -0.48101336032419229 -0.41069999664450008 0 -0.46202672064839212 -0.40007602488395211 0 -0.45555437223955858 -0.42914059360647611 0 -0.44727608925983742 -0.41095911152778891 0 -0.43867285131603428 -0.4271457417558665 0 -0.43676601469929588 -0.41441201227470881 0 -0.44727608925983742 -0.41095911152778891 0 -0.43676601469929588 -0.41441201227470881 0 -0.43479358559901082 -0.4041454901736512 0 -0.45555437223955858 -0.42914059360647611 0 -0.44727608925983742 -0.41095911152778891 0 -0.43867285131603428 -0.4271457417558665 0 -0.43867285131603428 -0.4271457417558665 0 -0.42681803064840879 -0.42717069814352421 0 -0.4263356171060747 -0.44269880333887462 0 -0.42681803064840879 -0.42717069814352421 0 -0.41531815884496182 -0.42985383783075998 0 -0.4263356171060747 -0.44269880333887462 0 -0.42681803064840879 -0.42717069814352421 0 -0.42624289495594048 -0.42089725947505818 0 -0.42083332353326591 -0.42146747131641099 0 -0.42681803064840879 -0.42717069814352421 0 -0.43096994786351572 -0.41951492446283251 0 -0.42624289495594048 -0.42089725947505818 0 -0.43867285131603428 -0.4271457417558665 0 -0.42681803064840879 -0.42717069814352421 0 -0.43096994786351572 -0.41951492446283251 0 -0.43867285131603428 -0.4271457417558665 0 -0.43676601469929588 -0.41441201227470881 0 -0.43096994786351572 -0.41951492446283251 0 -0.43676601469929588 -0.41441201227470881 0 -0.43096994786351572 -0.41951492446283251 0 -0.42907264086257813 -0.41311715872526122 0 -0.43676601469929588 -0.41441201227470881 0 -0.42907264086257813 -0.41311715872526122 0 -0.43479358559901082 -0.4041454901736512 0 -0.42907264086257813 -0.41311715872526122 0 -0.43479358559901082 -0.4041454901736512 0 -0.42460885511582858 -0.40417321677700252 0 -0.42907264086257813 -0.41311715872526122 0 -0.41997834854398469 -0.41180534796019508 0 -0.42907264086257813 -0.41311715872526122 0 -0.42635027777857132 -0.41543594397746519 0 -0.41997834854398469 -0.41180534796019508 0 -0.42907264086257813 -0.41311715872526122 0 -0.41997834854398469 -0.41180534796019508 0 -0.42460885511582858 -0.40417321677700252 0 -0.42635027777857132 -0.41543594397746519 0 -0.41997834854398469 -0.41180534796019508 0 -0.42635027777857132 -0.41543594397746519 0 -0.42083332353326591 -0.42146747131641099 0 -0.41997834854398469 -0.41180534796019508 0 -0.43096994786351572 -0.41951492446283251 0 -0.42624289495594048 -0.42089725947505818 0 -0.42635027777857132 -0.41543594397746519 0 -0.43096994786351572 -0.41951492446283251 0 -0.42907264086257813 -0.41311715872526122 0 -0.42635027777857132 -0.41543594397746519 0 -0.42624289495594048 -0.42089725947505818 0 -0.42635027777857132 -0.41543594397746519 0 -0.42083332353326591 -0.42146747131641099 0 -0.42083332353326591 -0.42146747131641099 0 -0.41997834854398469 -0.41180534796019508 0 -0.40992282953163789 -0.42011435591993562 0 -0.41997834854398469 -0.41180534796019508 0 -0.39756877647335259 -0.40857286797681719 0 -0.41997834854398469 -0.41180534796019508 0 -0.40992282953163789 -0.42011435591993562 0 -0.39756877647335259 -0.40857286797681719 0 -0.40992282953163789 -0.42011435591993562 0 -0.41531815884496182 -0.42985383783075998 0 -0.39591554026262499 -0.42887225451549271 0 -0.41531815884496182 -0.42985383783075998 0 -0.39591554026262499 -0.42887225451549271 0 -0.41160927495564159 -0.44339431233754628 0 -0.42083332353326591 -0.42146747131641099 0 -0.40992282953163789 -0.42011435591993562 0 -0.41531815884496182 -0.42985383783075998 0 -0.42681803064840879 -0.42717069814352421 0 -0.42083332353326591 -0.42146747131641099 0 -0.41531815884496182 -0.42985383783075998 0 -0.44257020456291563 -0.38918913383950271 0 -0.42311368847744002 -0.37830224279505142 0 -0.42594061475171041 -0.39368797999533162 0 -0.44257020456291563 -0.38918913383950271 0 -0.42311368847744002 -0.37830224279505142 0 -0.44172858264042247 -0.37082207246888088 0 -0.44257020456291563 -0.38918913383950271 0 -0.42311368847744002 -0.37830224279505142 0 -0.42311368847744002 -0.37830224279505142 0 -0.42594061475171041 -0.39368797999533162 0 -0.416587075656149 -0.38785930376960043 0 -0.44257020456291563 -0.38918913383950271 0 -0.42594061475171041 -0.39368797999533162 0 -0.43479358559901082 -0.4041454901736512 0 -0.42594061475171041 -0.39368797999533162 0 -0.43479358559901082 -0.4041454901736512 0 -0.42460885511582858 -0.40417321677700252 0 -0.41997834854398469 -0.41180534796019508 0 -0.41325908582185972 -0.39811010703057192 0 -0.39770572831670092 -0.39911486077581648 0 -0.41997834854398469 -0.41180534796019508 0 -0.39770572831670092 -0.39911486077581648 0 -0.42594061475171041 -0.39368797999533162 0 -0.42460885511582858 -0.40417321677700252 0 -0.41325908582185972 -0.39811010703057192 0 -0.41997834854398469 -0.41180534796019508 0 -0.42460885511582858 -0.40417321677700252 0 -0.41325908582185972 -0.39811010703057192 0 -0.42594061475171041 -0.39368797999533162 0 -0.41325908582185972 -0.39811010703057192 0 -0.416587075656149 -0.38785930376960043 0 -0.41325908582185972 -0.39811010703057192 0 -0.416587075656149 -0.38785930376960043 0 -0.40403491357358612 -0.38133688525744702 0 -0.42311368847744002 -0.37830224279505142 0 -0.40403491357358612 -0.38133688525744702 0 -0.40365717239196519 -0.36741535175059892 0 -0.42311368847744002 -0.37830224279505142 0 -0.416587075656149 -0.38785930376960043 0 -0.40403491357358612 -0.38133688525744702 0 -0.40403491357358612 -0.38133688525744702 0 -0.39190790742475001 -0.38540387676521748 0 -0.39770572831670092 -0.39911486077581648 0 -0.40403491357358612 -0.38133688525744702 0 -0.39190790742475001 -0.38540387676521748 0 -0.3904578797192948 -0.37473938743617019 0 -0.41325908582185972 -0.39811010703057192 0 -0.40403491357358612 -0.38133688525744702 0 -0.39770572831670092 -0.39911486077581648 0 -0.39770572831670092 -0.39911486077581648 0 -0.37543310808941849 -0.38642437359143528 0 -0.39770572831670092 -0.39911486077581648 0 -0.37515920440272033 -0.40534038799344108 0 -0.37543310808941849 -0.38642437359143528 0 -0.39770572831670092 -0.39911486077581648 0 -0.37515920440272033 -0.40534038799344108 0 -0.39756877647335259 -0.40857286797681719
[...]
<PointData Scalars="" Vectors="displacement," Tensors="">
<DataArray type="Float64" Name="displacement" NumberOfComponents="3" format="ascii">
-4.6133057247741131e-06 -0.094991313384827886 0 -0.00046243565777917583 -0.088817268593418916 0 9.7666364788460641e-06 -0.080073699636851431 0 -4.6133057247741131e-06 -0.094991313384827886 0 -0.00042596431173658325 -0.092830858979714326 0 -0.00046243565777917583 -0.088817268593418916 0 -4.6133057247741131e-06 -0.094991313384827886 0 -0.00042596431173658325 -0.092830858979714326 0 1.6343101783609203e-08 -0.094997679748997477 0 -0.00042596431173658325 -0.092830858979714326 0 1.6343101783609203e-08 -0.094997679748997477 0 -0.00023493738882019759 -0.092832189523966505 0 1.6343101783609203e-08 -0.094997679748997477 0 -0.00023493738882019759 -0.092832189523966505 0 -0.0001851070676009396 -0.094362528860149245 0 -0.00081201881711937028 -0.087014460730213863 0 2.8848178685632946e-05 -0.084542554016222377 0 -0.00023493738882019759 -0.092832189523966505 0 0.0010672589717133408 -0.092751044840303373 0 0.0011510164248280659 -0.093277594758854068 0 -0.00023493738882019759 -0.092832189523966505 0 0.0011510164248280659 -0.093277594758854068 0 0.00056436272817472321 -0.093874507522776401 0 -0.00042596431173658325 -0.092830858979714326 0 -0.00023493738882019759 -0.092832189523966505 0 -0.00046243565777917583 -0.088817268593418916 0 -0.00023493738882019759 -0.092832189523966505 0 -0.00046243565777917583 -0.088817268593418916 0 0.0016915863864716614 -0.090598920081134404 0 -0.00046243565777917583 -0.088817268593418916 0 0.0035949321217018169 -0.085838490960864322 0 0.0016915863864716614 -0.090598920081134404 0 -0.00046243565777917583 -0.088817268593418916 0 9.7666364788460641e-06 -0.080073699636851431 0 0.0035949321217018169 -0.085838490960864322 0 5.3751428430824511e-06 -0.080043345399716595 0 0.00081776546297438206 -0.073812751988243469 0 -2.2683161255465293e-06 -0.074838414066672673 0 3.3344100229629036e-06 -0.080048444443313369 0 0.0014046264771454121 -0.078620725254000934 0 -2.2683161255465293e-06 -0.074838414066672673 0 -0.00021556306636483197 -0.071898439885350787 0 -0.00045498270302334845 -0.069978387391100613 0 -2.2683161255465293e-06 -0.074838414066672673 0 -6.9177292904207281e-07 -0.069624614105214533 0 -0.00045498270302334845 -0.069978387391100613 0 0.00081776546297438206 -0.073812751988243469 0 -2.2683161255465293e-06 -0.074838414066672673 0 -0.00021556306636483197 -0.071898439885350787 0 0.00081776546297438206 -0.073812751988243469 0 -0.00021556306636483197 -0.071898439885350787 0 0.00035863623155491062 -0.071197534436463442 0 0.0014046264771454121 -0.078620725254000934 0 0.0020624531340841397 -0.075746865286237905 0 -0.00021556306636483197 -0.071898439885350787 0 -0.00055993943757619942 -0.070580650304552628 0 0.00035863623155491062 -0.071197534436463442 0 -0.00021556306636483197 -0.071898439885350787 0 -0.00055993943757619942 -0.070580650304552628 0 -0.00045498270302334845 -0.069978387391100613 0 0.0014719109728195015 -0.068799476030545939 0 0.0020624531340841397 -0.075746865286237905 0 0.0021286559995123593 -0.055349452026319551 0 0.0013945714340862989 -0.056093877319297124 0 0.00043926904689350411 -0.055728672677492652 0 0.0021286559995123593 -0.055349452026319551 0 0.0013945714340862989 -0.056093877319297124 0 0.002179644694227312 -0.056219703234740445 0 0.0013945714340862989 -0.056093877319297124 0 0.00043926904689350411 -0.055728672677492652 0 0.0011760747424150904 -0.057059711057460952 0 0.0015194480176945319 -0.092950005682490427 0 0.0013421668517082492 -0.093184780547160478 0 0.0014413649865785846 -0.093078491850275585 0 0.0020624531340841397 -0.075746865286237905 0 0.001769220073004333 -0.074950357845910032 0 0.0013421668517082492 -0.093184780547160478 0 0.0014413649865785846 -0.093078491850275585 0 0.0014719913851077263 -0.093172203032114279 0 0.0011760747424150904 -0.057059711057460952 0 0.002179644694227312 -0.056219703234740445 0 0.0024167528090953054 -0.057093157525668986 0 0.0013945714340862989 -0.056093877319297124 0 0.0011760747424150904 -0.057059711057460952 0 0.002179644694227312 -0.056219703234740445 0 0.0015194480176945319 -0.092950005682490427 0 0.0010672589717133408 -0.092751044840303373 0 0.0014413649865785846 -0.093078491850275585 0 0.0020624531340841397 -0.075746865286237905 0 2.8848178685632946e-05 -0.084542554016222377 0 0.0035949321217018169 -0.085838490960864322 0 0.0055484020682619716 -0.089021317519609525 0 0.0016915863864716614 -0.090598920081134404 0 0.0014413649865785846 -0.093078491850275585 0 0.0011510164248280659 -0.093277594758854068 0 0.0014532240336478015 -0.093237257190359177 0 0.0014413649865785846 -0.093078491850275585 0 0.0014532240336478015 -0.093237257190359177 0 0.0014719913851077263 -0.093172203032114279 0 0.0010672589717133408 -0.092751044840303373 0 0.0014413649865785846 -0.093078491850275585 0 0.0011510164248280659 -0.093277594758854068 0 0.0011510164248280659 -0.093277594758854068 0 0.0011010519595121887 -0.093685014828102528 0 0.00056436272817472321 -0.093874507522776401 0 0.0011010519595121887 -0.093685014828102528 0 0.00099280117517046448 -0.094145938431524773 0 0.00056436272817472321 -0.093874507522776401 0 0.0011010519595121887 -0.093685014828102528 0 0.0013075078437998512 -0.093628281176799166 0 0.0012800077533433676 -0.093876787570262021 0 0.0011010519595121887 -0.093685014828102528 0 0.0013566298627196915 -0.093414057098577044 0 0.0013075078437998512 -0.093628281176799166 0 0.0011510164248280659 -0.093277594758854068 0 0.0011010519595121887 -0.093685014828102528 0 0.0013566298627196915 -0.093414057098577044 0 0.0011510164248280659 -0.093277594758854068 0 0.0014532240336478015 -0.093237257190359177 0 0.0013566298627196915 -0.093414057098577044 0 0.0014532240336478015 -0.093237257190359177 0 0.0013566298627196915 -0.093414057098577044 0 0.0016087231126183481 -0.093297437332943184 0 0.0014532240336478015 -0.093237257190359177 0 0.0016087231126183481 -0.093297437332943184 0 0.0014719913851077263 -0.093172203032114279 0 0.0016087231126183481 -0.093297437332943184 0 0.0014719913851077263 -0.093172203032114279 0 0.0014954818416806936 -0.09298529402156433 0 0.0034270694685637265 -0.091270744244273047 0 0.0034614239046198429 -0.091021078143008 0 0.0016087231126183481 -0.093297437332943184 0 0.0014973294386946556 -0.093543815281834683 0 0.0018008608484570482 -0.094033149142110098 0 0.0016087231126183481 -0.093297437332943184 0 0.0017593880271247169 -0.092839308831992234 0 0.0014954818416806936 -0.09298529402156433 0 0.0034607384722809484 -0.091146564832789601 0 0.0034614239046198429 -0.091021078143008 0 0.0014973294386946556 -0.093543815281834683 0 0.0012800077533433676 -0.093876787570262021 0 0.0016646586091354227 -0.093902289752236107 0 0.0013566298627196915 -0.093414057098577044 0 0.0013075078437998512 -0.093628281176799166 0 0.0014973294386946556 -0.093543815281834683 0 0.0013566298627196915 -0.093414057098577044 0 0.0016087231126183481 -0.093297437332943184 0 0.0014973294386946556 -0.093543815281834683 0 0.0013075078437998512 -0.093628281176799166 0 0.0014973294386946556 -0.093543815281834683 0 0.0012800077533433676 -0.093876787570262021 0 0.0012800077533433676 -0.093876787570262021 0 0.0016646586091354227 -0.093902289752236107 0 0.001332505062280901 -0.094303383310564939 0 0.0034614239046198429 -0.091021078143008 0 0.0028768462085428173 -0.090470449178488468 0 0.0016646586091354227 -0.093902289752236107 0 0.001332505062280901 -0.094303383310564939 0 0.0017261661267283751 -0.094732341536677256 0 0.001332505062280901 -0.094303383310564939 0 0.00099280117517046448 -0.094145938431524773 0 0.0010320346642714569 -0.094794928427122158 0 0.00099280117517046448 -0.094145938431524773 0 0.0010320346642714569 -0.094794928427122158 0 0.00055046424207110607 -0.094344423288507895 0 0.0012800077533433676 -0.093876787570262021 0 0.001332505062280901 -0.094303383310564939 0 0.00099280117517046448 -0.094145938431524773 0 0.0011010519595121887 -0.093685014828102528 0 0.0012800077533433676 -0.093876787570262021 0 0.00099280117517046448 -0.094145938431524773 0 0.0013421668517082492 -0.093184780547160478 0 0.00075749559777464831 -0.092824198284262457 0 0.0012663604788062115 -0.092941793613129473 0 0.0011760747424150904 -0.057059711057460952 0 0.0018848654437872369 -0.058440959938549482 0 0.0024167528090953054 -0.057093157525668986 0 0.001769220073004333 -0.074950357845910032 0 0.001921589878102028 -0.074480482514794083 0 0.00075749559777464831 -0.092824198284262457 0 0.0012663604788062115 -0.092941793613129473 0 0.0010476458808822244 -0.092600565641353452 0 0.0013421668517082492 -0.093184780547160478 0 0.0012663604788062115 -0.092941793613129473 0 0.0014719913851077263 -0.093172203032114279 0 0.0012663604788062115 -0.092941793613129473 0 0.0014719913851077263 -0.093172203032114279 0 0.0014954818416806936 -0.09298529402156433 0 0.0017593880271247169 -0.092839308831992234 0 0.0013842335471695212 -0.092515201711740741 0 0.0015032231075632701 -0.091836992102232326 0 0.0034614239046198429 -0.091021078143008 0 0.0036278464096993418 -0.088127647562783962 0 0.0012663604788062115 -0.092941793613129473 0 0.0014954818416806936 -0.09298529402156433 0 0.0013842335471695212 -0.092515201711740741 0 0.0017593880271247169 -0.092839308831992234 0 0.0014954818416806936 -0.09298529402156433 0 0.0013842335471695212 -0.092515201711740741 0 0.0012663604788062115 -0.092941793613129473 0 0.0013842335471695212 -0.092515201711740741 0 0.0010476458808822244 -0.092600565641353452 0 0.0013842335471695212 -0.092515201711740741 0 0.0010476458808822244 -0.092600565641353452 0 0.00076908571492183872 -0.092094117060868702 0 0.00075749559777464831 -0.092824198284262457 0 0.00076908571492183872 -0.092094117060868702 0 0.00024892680377648776 -0.092051085192325063 0 0.00075749559777464831 -0.092824198284262457 0 0.0010476458808822244 -0.092600565641353452 0 0.00076908571492183872 -0.092094117060868702 0 0.00076908571492183872 -0.092094117060868702 0 0.00092149658428446505 -0.091510662943866797 0 0.0015032231075632701 -0.091836992102232326 0 0.00076908571492183872 -0.092094117060868702 0 0.00092149658428446505 -0.091510662943866797 0 0.00040953450844715333 -0.091409782717962934 0 0.0013842335471695212 -0.092515201711740741 0 0.00076908571492183872 -0.092094117060868702 0 0.0015032231075632701 -0.091836992102232326 0 0.0036278464096993418 -0.088127647562783962 0 0.0033190767835615887 -0.082214857856237639 0 0.0034534793839131159 -0.087920188614344669 0 0.0040996080786379766 -0.08557167451089763 0 0.002135766775884881 -0.085594075341034775 0 0.0034534793839131159 -0.087920188614344669 0 0.0040996080786379766 -0.08557167451089763 0 0.0044373829416596167 -0.087907998171400145 0 0.0019802668836512959 -0.088019499147713953 0 0.0033190767835615887 -0.082214857856237639 0 0.00098907196862039483 -0.090676292235836328 0 0.00040953450844715333 -0.091409782717962934 0 0.0001305445444450643 -0.090644238723244522 0 0.00092149658428446505 -0.091510662943866797 0 0.00098907196862039483 -0.090676292235836328 0 0.00040953450844715333 -0.091409782717962934 0 0.0033190767835615887 -0.082214857856237639 0 0.002281326071445496 -0.077100375759013601 0 0.00092149658428446505 -0.091510662943866797 0 0.0015032231075632701 -0.091836992102232326 0 0.00098907196862039483 -0.090676292235836328 0 0.0047727499370954218 -0.090248581158806587 0 0.0034534793839131159 -0.087920188614344669 0 0.0044373829416596167 -0.087907998171400145 0 0.001332505062280901 -0.094303383310564939 0 0.0010320346642714569 -0.094794928427122158 0 0.0017261661267283751 -0.094732341536677256 0 0.0018202650591892934 -0.095458556856065649 0 0.0010320346642714569 -0.094794928427122158 0 0.0017261661267283751 -0.094732341536677256 0 0.0019802668836512959 -0.088019499147713953 0 0.0028768462085428173 -0.090470449178488468 0 0.0018202650591892934 -0.095458556856065649 0 0.0010320346642714569 -0.094794928427122158 0 0.00082238579517791301 -0.095470210619950549 0 0.0010320346642714569 -0.094794928427122158 0 0.0004711011640925196 -0.094894722379761223 0 0.00082238579517791301 -0.095470210619950549 0 0.0004711011640925196 -0.094894722379761223 0 -0.00011648293941952592 -0.095473731804147741 0 0.00082238579517791301 -0.095470210619950549 0 0.0010320346642714569 -0.094794928427122158 0 0.0004711011640925196 -0.094894722379761223 0 0.00055046424207110607 -0.094344423288507895 0 0.0004711011640925196 -0.094894722379761223 0 0.00013721719961302145 -0.094567465631879705 0 0.00055046424207110607 -0.094344423288507895 0 0.00012864251421761659 -0.094645141792574855 0 -5.8727992319627106e-05 -0.094869351529360435 0 -6.0691780561022317e-05 -0.094561063098383358 0 1.3909537697583085e-05 -0.094984701690276188 0 1.1232686515650597e-05 -0.094992973239740819 0 2.4877077321067736e-06 -0.094993045240344215 0 0.00018075584280228163 -0.094711602800709144 0 1.6100453493200652e-05 -0.094898952646361348 0 0.00018075584280228163 -0.094711602800709144 0 0.00018090620001962848 -0.094710395720296395 0 0.00018075584280228163 -0.094711602800709144 0 0.00019674081405092193 -0.09459264196828214 0 0.0004711011640925196 -0.094894722379761223 0 0.00013721719961302145 -0.094567465631879705 0 1.0047190114332257e-05 -0.095015532264362268 0 0.0004711011640925196 -0.094894722379761223 0 1.0047190114332257e-05 -0.095015532264362268 0 -0.00011648293941952592 -0.095473731804147741 0 0.00019674081405092193 -0.09459264196828214 0 0.00032775983854550246 -0.094103253541540324 0 1.1232686515650597e-05 -0.094992973239740819 0 5.6629529146466596e-06 -0.09499552190524338 0 8.8448011373327804e-06 -0.094999206412616291 0 5.6629529146466596e-06 -0.09499552190524338 0 2.4877077321067736e-06 -0.094993045240344215 0 1.9364519742813899e-06 -0.094998980459460231 0 2.4877077321067736e-06 -0.094993045240344215 0 9.5765467611470401e-07 -0.094999294180601296 0 1.9364519742813899e-06 -0.094998980459460231 0 5.6629529146466596e-06 -0.09499552190524338 0 1.9364519742813899e-06 -0.094998980459460231 0 8.8448011373327804e-06 -0.094999206412616291 0 1.1232686515650597e-05 -0.094992973239740819 0 5.6629529146466596e-06 -0.09499552190524338 0 2.4877077321067736e-06 -0.094993045240344215 0 -6.8245666301842276e-08 -0.094999847680247398 0 1.6100453493200652e-05 -0.094898952646361348 0 -4.1058526873916754e-09 -0.094999993790230747 0 2.4877077321067736e-06 -0.094993045240344215 0 9.5765467611470401e-07 -0.094999294180601296 0 1.5418579756884772e-07 -0.094999955845380485 0 -5.8727992319627106e-05 -0.094869351529360435 0 -3.8237186386207502e-07 -0.094999676898805965 0 -5.8727992319627106e-05 -0.094869351529360435 0 -6.0691780561022317e-05 -0.094561063098383358 0 -3.8237186386207502e-07 -0.094999676898805965 0 -6.0691780561022317e-05 -0.094561063098383358 0 -3.8237186386207502e-07 -0.094999676898805965 0 -0.0001851070676009396 -0.094362528860149245 0 1.6343101783609203e-08 -0.094997679748997477 0 -3.8237186386207502e-07 -0.094999676898805965 0 -0.0001851070676009396 -0.094362528860149245 0 -6.0691780561022317e-05 -0.094561063098383358 0 -0.0001851070676009396 -0.094362528860149245 0 4.6509150874934662e-06 -0.094060779985111503 0 -0.00023493738882019759 -0.092832189523966505 0 -0.0001851070676009396 -0.094362528860149245 0 4.6509150874934662e-06 -0.094060779985111503 0 -0.00023493738882019759 -0.092832189523966505 0 4.6509150874934662e-06 -0.094060779985111503 0 0.00056436272817472321 -0.093874507522776401 0 4.6509150874934662e-06 -0.094060779985111503 0 0.00056436272817472321 -0.093874507522776401 0 0.00021640470033748425 -0.094293740410652721 0 0.00056436272817472321 -0.093874507522776401 0 0.00055046424207110607 -0.094344423288507895 0 0.00021640470033748425 -0.094293740410652721 0 0.00099280117517046448 -0.094145938431524773 0 0.00056436272817472321 -0.093874507522776401 0 0.00055046424207110607 -0.094344423288507895 0 0.00013038304888989414 -0.09468140729190401 0 0.00055046424207110607 -0.094344423288507895 0 0.00014921957674697312 -0.094590940475417162 0 0.00055046424207110607 -0.094344423288507895 0 0.00014921957674697312 -0.094590940475417162 0 0.00021640470033748425 -0.094293740410652721 0 0.00018075584280228163 -0.094711602800709144 0 0.0002588679870908094 -0.094654928160073995 0 -6.0691780561022317e-05 -0.094561063098383358 0 0.00014921957674697312 -0.094590940475417162 0 0.00021640470033748425 -0.094293740410652721 0 0.00012864251421761659 -0.094645141792574855 0 -6.0691780561022317e-05 -0.094561063098383358 0 0.00014921957674697312 -0.094590940475417162 0 -6.0691780561022317e-05 -0.094561063098383358 0 4.6509150874934662e-06 -0.094060779985111503 0 0.00021640470033748425 -0.094293740410652721 0 0.002971322656912767 -0.048938375656589796 0 0.0041900971570273662 -0.046618465047267646 0 0.0013603929539619437 -0.047666705937394797 0 0.0016197768621677745 -0.046115899233415032 0 0.00088367416417596534 -0.047164607276402586 0 -0.00032973257831496342 -0.053185563978308197 0 0.00039673781079150678 -0.053068497564348602 0 0.00021075134520639292 -0.05341659701642857 0 -0.00032973257831496342 -0.053185563978308197 0 -0.00019395070930082364 -0.053271495882165683 0 0.00021075134520639292 -0.05341659701642857 0 -0.00032973257831496342 -0.053185563978308197 0 -0.00019164575212704112 -0.053012400919385486 0 -0.00019395070930082364 -0.053271495882165683 0 -0.00032973257831496342 -0.053185563978308197 0 -0.00030530759157742647 -0.052439054307616258 0 -0.00049248516246767568 -0.053369024902953241 0 -0.00032973257831496342 -0.053185563978308197 0 -0.00030530759157742647 -0.052439054307616258 0 0.00039673781079150678 -0.053068497564348602 0 0.002971322656912767 -0.048938375656589796 0 0.0025631433784601989 -0.049361791874293959 0 -0.00030530759157742647 -0.052439054307616258 0 0.00039673781079150678 -0.053068497564348602 0 0.00038334098881351384 -0.050236617674409213 0 0.0013603929539619437 -0.047666705937394797 0 0.00038334098881351384 -0.050236617674409213 0 0.00012166952445405648 -0.048376763721827323 0 0.00038334098881351384 -0.050236617674409213 0 -1.116253887367544e-06 -0.048771901803256891 0 -0.00033434938049226541 -0.052297976605500118 0 0.00038334098881351384 -0.050236617674409213 0 -1.116253887367544e-06 -0.048771901803256891 0 -6.7912272129289937e-05 -0.047683192084666884 0 -1.116253887367544e-06 -0.048771901803256891 0 -0.00033434938049226541 -0.052297976605500118 0 -9.863231218263303e-07 -0.053985708831483945 0 -0.00030530759157742647 -0.052439054307616258 0 0.00038334098881351384 -0.050236617674409213 0 -0.00033434938049226541 -0.052297976605500118 0 -0.00030530759157742647 -0.052439054307616258 0 -0.00033434938049226541 -0.052297976605500118 0 -0.00049248516246767568 -0.053369024902953241 0 -0.00049248516246767568 -0.053369024902953241 0 -0.00020754162764067034 -0.055022097774533013 0 -6.393813187294286e-05 -0.054694770241927176 0 -0.00033434938049226541 -0.052297976605500118 0 -0.00049248516246767568 -0.053369024902953241 0 -0.00020754162764067034 -0.055022097774533013 0 -9.863231218263303e-07 -0.053985708831483945 0 -0.00020754162764067034 -0.055022097774533013 0 1.2424303485672143e-06 -0.059198521429836531 0 -0.00033434938049226541 -0.052297976605500118 0 -9.863231218263303e-07 -0.053985708831483945 0 -0.00020754162764067034 -0.055022097774533013 0 -0.00020754162764067034 -0.055022097774533013 0 1.2424303485672143e-06 -0.059198521429836531 0 0.0003999834884321404 -0.057128595238018956 0 0.0003999834884321404 -0.057128595238018956 0 -6.393813187294286e-05 -0.054694770241927176 0 0.0014858930089989523 -0.055338349071492751 0 -0.00020754162764067034 -0.055022097774533013 0 0.0003999834884321404 -0.057128595238018956 0 -6.393813187294286e-05 -0.054694770241927176 0 -6.393813187294286e-05 -0.054694770241927176 0 0.00069546331161629245 -0.054072467307319558 0 0.0014858930089989523 -0.055338349071492751 0 0.00069546331161629245 -0.054072467307319558 0 0.00049430562330440213 -0.053194861582785052 0 0.0013267158089404066 -0.053538181219031006 0 0.00069546331161629245 -0.054072467307319558 0 -0.00021565792399399895 -0.0535188