<?xml version="1.0"?>
<VTKFile type="UnstructuredGrid" version="0.1" byte_order="LittleEndian">
<UnstructuredGrid>
<Piece NumberOfPoints="31898" NumberOfCells="11152">
<Points>
<DataArray type="Float64" NumberOfComponents="3" format="ascii">
-0.5 -0.5 0 -0.47620991077874902 -0.44978878706170539 0 -0.49999999999999473 -0.42132396840504388 0 -0.5 -0.5 0 -0.47160970827802529 -0.4793630013852106 0 -0.47620991077874902 -0.44978878706170539 0 -0.5 -0.5 0 -0.47160970827802529 -0.4793630013852106 0 -0.44860394795025399 -0.5 0 -0.47160970827802529 -0.4793630013852106 0 -0.44860394795025399 -0.5 0 -0.4490820238307246 -0.45820516232899983 0 -0.44860394795025399 -0.5 0 -0.4490820238307246 -0.45820516232899983 0 -0.42881687682924802 -0.47781464288736519 0 -0.4490820238307246 -0.45820516232899983 0 -0.45555437223955858 -0.42914059360647611 0 -0.4490820238307246 -0.45820516232899983 0 -0.45555437223955858 -0.42914059360647611 0 -0.43867285131603428 -0.4271457417558665 0 -0.4490820238307246 -0.45820516232899983 0 -0.43867285131603428 -0.4271457417558665 0 -0.4263356171060747 -0.44269880333887462 0 -0.47160970827802529 -0.4793630013852106 0 -0.4490820238307246 -0.45820516232899983 0 -0.47620991077874902 -0.44978878706170539 0 -0.4490820238307246 -0.45820516232899983 0 -0.47620991077874902 -0.44978878706170539 0 -0.45555437223955858 -0.42914059360647611 0 -0.47620991077874902 -0.44978878706170539 0 -0.48101336032419229 -0.41069999664450008 0 -0.45555437223955858 -0.42914059360647611 0 -0.47620991077874902 -0.44978878706170539 0 -0.49999999999999473 -0.42132396840504388 0 -0.48101336032419229 -0.41069999664450008 0 -0.49999999999999473 -0.42132396840504388 0 -0.48101336032419229 -0.41069999664450008 0 -0.5 -0.393886241813306 0 -0.49999999999999473 -0.42132396840504388 0 -0.48101336032419229 -0.41069999664450008 0 -0.5 -0.393886241813306 0 -0.47854472220918332 -0.38978458738689759 0 -0.48422759779560409 -0.37130120630367158 0 -0.5 -0.393886241813306 0 -0.5 -0.36644851522156802 0 -0.48422759779560409 -0.37130120630367158 0 -0.48101336032419229 -0.41069999664450008 0 -0.5 -0.393886241813306 0 -0.47854472220918332 -0.38978458738689759 0 -0.48101336032419229 -0.41069999664450008 0 -0.47854472220918332 -0.38978458738689759 0 -0.46202672064839212 -0.40007602488395211 0 -0.48101336032419229 -0.41069999664450008 0 -0.46202672064839212 -0.40007602488395211 0 -0.47854472220918332 -0.38978458738689759 0 -0.46725442735267431 -0.37660061361585562 0 -0.46202672064839212 -0.40007602488395211 0 -0.47854472220918332 -0.38978458738689759 0 -0.46725442735267431 -0.37660061361585562 0 -0.48422759779560409 -0.37130120630367158 0 -0.46725442735267431 -0.37660061361585562 0 -0.46202672064839212 -0.40007602488395211 0 -0.46725442735267431 -0.37660061361585562 0 -0.45645674801697989 -0.38644133236760531 0 -0.46202672064839212 -0.40007602488395211 0 -0.46725442735267431 -0.37660061361585562 0 -0.45645674801697989 -0.38644133236760531 0 -0.4540003998136638 -0.37455519391687309 0 -0.45645674801697989 -0.38644133236760531 0 -0.46202672064839212 -0.40007602488395211 0 -0.44257020456291563 -0.38918913383950271 0 -0.46202672064839212 -0.40007602488395211 0 -0.44257020456291563 -0.38918913383950271 0 -0.44727608925983742 -0.41095911152778891 0 -0.46202672064839212 -0.40007602488395211 0 -0.44257020456291563 -0.38918913383950271 0 -0.44257020456291563 -0.38918913383950271 0 -0.44727608925983742 -0.41095911152778891 0 -0.43479358559901082 -0.4041454901736512 0 -0.44257020456291563 -0.38918913383950271 0 -0.4540003998136638 -0.37455519391687309 0 -0.44172858264042247 -0.37082207246888088 0 -0.45645674801697989 -0.38644133236760531 0 -0.44257020456291563 -0.38918913383950271 0 -0.4540003998136638 -0.37455519391687309 0 -0.46202672064839212 -0.40007602488395211 0 -0.45555437223955858 -0.42914059360647611 0 -0.44727608925983742 -0.41095911152778891 0 -0.46202672064839212 -0.40007602488395211 0 -0.45555437223955858 -0.42914059360647611 0 -0.48101336032419229 -0.41069999664450008 0 -0.46202672064839212 -0.40007602488395211 0 -0.45555437223955858 -0.42914059360647611 0 -0.44727608925983742 -0.41095911152778891 0 -0.43867285131603428 -0.4271457417558665 0 -0.43676601469929588 -0.41441201227470881 0 -0.44727608925983742 -0.41095911152778891 0 -0.43676601469929588 -0.41441201227470881 0 -0.43479358559901082 -0.4041454901736512 0 -0.45555437223955858 -0.42914059360647611 0 -0.44727608925983742 -0.41095911152778891 0 -0.43867285131603428 -0.4271457417558665 0 -0.43867285131603428 -0.4271457417558665 0 -0.42681803064840879 -0.42717069814352421 0 -0.4263356171060747 -0.44269880333887462 0 -0.42681803064840879 -0.42717069814352421 0 -0.41531815884496182 -0.42985383783075998 0 -0.4263356171060747 -0.44269880333887462 0 -0.42681803064840879 -0.42717069814352421 0 -0.42624289495594048 -0.42089725947505818 0 -0.42083332353326591 -0.42146747131641099 0 -0.42681803064840879 -0.42717069814352421 0 -0.43096994786351572 -0.41951492446283251 0 -0.42624289495594048 -0.42089725947505818 0 -0.43867285131603428 -0.4271457417558665 0 -0.42681803064840879 -0.42717069814352421 0 -0.43096994786351572 -0.41951492446283251 0 -0.43867285131603428 -0.4271457417558665 0 -0.43676601469929588 -0.41441201227470881 0 -0.43096994786351572 -0.41951492446283251 0 -0.43676601469929588 -0.41441201227470881 0 -0.43096994786351572 -0.41951492446283251 0 -0.42907264086257813 -0.41311715872526122 0 -0.43676601469929588 -0.41441201227470881 0 -0.42907264086257813 -0.41311715872526122 0 -0.43479358559901082 -0.4041454901736512 0 -0.42907264086257813 -0.41311715872526122 0 -0.43479358559901082 -0.4041454901736512 0 -0.42460885511582858 -0.40417321677700252 0 -0.42907264086257813 -0.41311715872526122 0 -0.41997834854398469 -0.41180534796019508 0 -0.42907264086257813 -0.41311715872526122 0 -0.42635027777857132 -0.41543594397746519 0 -0.41997834854398469 -0.41180534796019508 0 -0.42907264086257813 -0.41311715872526122 0 -0.41997834854398469 -0.41180534796019508 0 -0.42460885511582858 -0.40417321677700252 0 -0.42635027777857132 -0.41543594397746519 0 -0.41997834854398469 -0.41180534796019508 0 -0.42635027777857132 -0.41543594397746519 0 -0.42083332353326591 -0.42146747131641099 0 -0.41997834854398469 -0.41180534796019508 0 -0.43096994786351572 -0.41951492446283251 0 -0.42624289495594048 -0.42089725947505818 0 -0.42635027777857132 -0.41543594397746519 0 -0.43096994786351572 -0.41951492446283251 0 -0.42907264086257813 -0.41311715872526122 0 -0.42635027777857132 -0.41543594397746519 0 -0.42624289495594048 -0.42089725947505818 0 -0.42635027777857132 -0.41543594397746519 0 -0.42083332353326591 -0.42146747131641099 0 -0.42083332353326591 -0.42146747131641099 0 -0.41997834854398469 -0.41180534796019508 0 -0.40992282953163789 -0.42011435591993562 0 -0.41997834854398469 -0.41180534796019508 0 -0.39756877647335259 -0.40857286797681719 0 -0.41997834854398469 -0.41180534796019508 0 -0.40992282953163789 -0.42011435591993562 0 -0.39756877647335259 -0.40857286797681719 0 -0.40992282953163789 -0.42011435591993562 0 -0.41531815884496182 -0.42985383783075998 0 -0.39591554026262499 -0.42887225451549271 0 -0.41531815884496182 -0.42985383783075998 0 -0.39591554026262499 -0.42887225451549271 0 -0.41160927495564159 -0.44339431233754628 0 -0.42083332353326591 -0.42146747131641099 0 -0.40992282953163789 -0.42011435591993562 0 -0.41531815884496182 -0.42985383783075998 0 -0.42681803064840879 -0.42717069814352421 0 -0.42083332353326591 -0.42146747131641099 0 -0.41531815884496182 -0.42985383783075998 0 -0.44257020456291563 -0.38918913383950271 0 -0.42311368847744002 -0.37830224279505142 0 -0.42594061475171041 -0.39368797999533162 0 -0.44257020456291563 -0.38918913383950271 0 -0.42311368847744002 -0.37830224279505142 0 -0.44172858264042247 -0.37082207246888088 0 -0.44257020456291563 -0.38918913383950271 0 -0.42311368847744002 -0.37830224279505142 0 -0.42311368847744002 -0.37830224279505142 0 -0.42594061475171041 -0.39368797999533162 0 -0.416587075656149 -0.38785930376960043 0 -0.44257020456291563 -0.38918913383950271 0 -0.42594061475171041 -0.39368797999533162 0 -0.43479358559901082 -0.4041454901736512 0 -0.42594061475171041 -0.39368797999533162 0 -0.43479358559901082 -0.4041454901736512 0 -0.42460885511582858 -0.40417321677700252 0 -0.41997834854398469 -0.41180534796019508 0 -0.41325908582185972 -0.39811010703057192 0 -0.39770572831670092 -0.39911486077581648 0 -0.41997834854398469 -0.41180534796019508 0 -0.39770572831670092 -0.39911486077581648 0 -0.42594061475171041 -0.39368797999533162 0 -0.42460885511582858 -0.40417321677700252 0 -0.41325908582185972 -0.39811010703057192 0 -0.41997834854398469 -0.41180534796019508 0 -0.42460885511582858 -0.40417321677700252 0 -0.41325908582185972 -0.39811010703057192 0 -0.42594061475171041 -0.39368797999533162 0 -0.41325908582185972 -0.39811010703057192 0 -0.416587075656149 -0.38785930376960043 0 -0.41325908582185972 -0.39811010703057192 0 -0.416587075656149 -0.38785930376960043 0 -0.40403491357358612 -0.38133688525744702 0 -0.42311368847744002 -0.37830224279505142 0 -0.40403491357358612 -0.38133688525744702 0 -0.40365717239196519 -0.36741535175059892 0 -0.42311368847744002 -0.37830224279505142 0 -0.416587075656149 -0.38785930376960043 0 -0.40403491357358612 -0.38133688525744702 0 -0.40403491357358612 -0.38133688525744702 0 -0.39190790742475001 -0.38540387676521748 0 -0.39770572831670092 -0.39911486077581648 0 -0.40403491357358612 -0.38133688525744702 0 -0.39190790742475001 -0.38540387676521748 0 -0.3904578797192948 -0.37473938743617019 0 -0.41325908582185972 -0.39811010703057192 0 -0.40403491357358612 -0.38133688525744702 0 -0.39770572831670092 -0.39911486077581648 0 -0.39770572831670092 -0.39911486077581648 0 -0.37543310808941849 -0.38642437359143528 0 -0.39770572831670092 -0.39911486077581648 0 -0.37515920440272033 -0.40534038799344108 0 -0.37543310808941849 -0.38642437359143528 0 -0.39770572831670092 -0.39911486077581648 0 -0.37515920440272033 -0.40534038799344108 0 -0.39756877647335259 -0.40857286797681719
[...]
<PointData Scalars="" Vectors="displacement," Tensors="">
<DataArray type="Float64" Name="displacement" NumberOfComponents="3" format="ascii">
-0.094992183764730065 -7.2667390231918367e-07 0 -0.092596570411216453 -0.00048238177570924373 0 -0.09499363906167764 -2.012274829622398e-06 0 -0.094992183764730065 -7.2667390231918367e-07 0 -0.090842315831805617 -0.00031970924097718975 0 -0.092596570411216453 -0.00048238177570924373 0 -0.094992183764730065 -7.2667390231918367e-07 0 -0.090842315831805617 -0.00031970924097718975 0 -0.08524000010419365 -7.046011034684813e-07 0 -0.090842315831805617 -0.00031970924097718975 0 -0.08524000010419365 -7.046011034684813e-07 0 -0.089149086799255317 0.00022334732178536099 0 -0.08524000010419365 -7.046011034684813e-07 0 -0.089149086799255317 0.00022334732178536099 0 -0.084709595148818082 -0.00018296549297717646 0 -0.090044884708436079 0.00059464332965517214 0 -0.090514016265384703 0.00059664970234198078 0 -0.089149086799255317 0.00022334732178536099 0 -0.087505404014700111 0.00094670654777830651 0 -0.087355539487376566 0.00030445699033696325 0 -0.089149086799255317 0.00022334732178536099 0 -0.087355539487376566 0.00030445699033696325 0 -0.087503210153505234 2.935627706496641e-05 0 -0.090842315831805617 -0.00031970924097718975 0 -0.089149086799255317 0.00022334732178536099 0 -0.092596570411216453 -0.00048238177570924373 0 -0.089149086799255317 0.00022334732178536099 0 -0.092596570411216453 -0.00048238177570924373 0 -0.093489197971153196 0.00073580786949391903 0 -0.092596570411216453 -0.00048238177570924373 0 -0.09468712156164516 -7.7572548837041077e-05 0 -0.093489197971153196 0.00073580786949391903 0 -0.092596570411216453 -0.00048238177570924373 0 -0.09499363906167764 -2.012274829622398e-06 0 -0.09468712156164516 -7.7572548837041077e-05 0 -0.094999996767101191 2.710964984048101e-10 0 -0.094995985344798459 -1.143043428988049e-06 0 -0.094999995090317466 -1.4663073301367699e-09 0 -0.094997075819413898 1.1507275767861471e-06 0 -0.093553558171068016 0.00036725604791766853 0 -0.094999995090317466 -1.4663073301367699e-09 0 -0.09499526019428324 -2.0841219485519534e-06 0 -0.094997990335034296 -3.4016090535823058e-06 0 -0.094999995090317466 -1.4663073301367699e-09 0 -0.09499999190583297 -5.1467730576831721e-09 0 -0.094997990335034296 -3.4016090535823058e-06 0 -0.094995985344798459 -1.143043428988049e-06 0 -0.094999995090317466 -1.4663073301367699e-09 0 -0.09499526019428324 -2.0841219485519534e-06 0 -0.094995985344798459 -1.143043428988049e-06 0 -0.09499526019428324 -2.0841219485519534e-06 0 -0.094990089636552311 -1.6371518710024621e-06 0 -0.093553558171068016 0.00036725604791766853 0 -0.091324974271186118 0.00043617557067057256 0 -0.09499526019428324 -2.0841219485519534e-06 0 -0.09499413042227299 -2.2482381985905118e-06 0 -0.094990089636552311 -1.6371518710024621e-06 0 -0.09499526019428324 -2.0841219485519534e-06 0 -0.09499413042227299 -2.2482381985905118e-06 0 -0.094997990335034296 -3.4016090535823058e-06 0 -0.092758266234620246 0.00018182320513731941 0 -0.091324974271186118 0.00043617557067057256 0 -0.090889814661985022 0.00039687461338552105 0 -0.090392520063813694 0.00098362531474794029 0 -0.089684930958105064 0.00069626850511712174 0 -0.090889814661985022 0.00039687461338552105 0 -0.090392520063813694 0.00098362531474794029 0 -0.091025800381114422 0.0011254554798773458 0 -0.090392520063813694 0.00098362531474794029 0 -0.089684930958105064 0.00069626850511712174 0 -0.090261854677689185 0.0017074181645846975 0 -0.086650553835069283 0.0011099424435396322 0 -0.086323094097858807 0.0005705248023441232 0 -0.086967426075157256 0.00066940139111902532 0 -0.091324974271186118 0.00043617557067057256 0 -0.088977696136387438 0.0010282010676513579 0 -0.086323094097858807 0.0005705248023441232 0 -0.086967426075157256 0.00066940139111902532 0 -0.086784502822911197 0.00033812157197044869 0 -0.090261854677689185 0.0017074181645846975 0 -0.091025800381114422 0.0011254554798773458 0 -0.091217747978493136 0.0017536833485590599 0 -0.090392520063813694 0.00098362531474794029 0 -0.090261854677689185 0.0017074181645846975 0 -0.091025800381114422 0.0011254554798773458 0 -0.086650553835069283 0.0011099424435396322 0 -0.087505404014700111 0.00094670654777830651 0 -0.086967426075157256 0.00066940139111902532 0 -0.091324974271186118 0.00043617557067057256 0 -0.090514016265384703 0.00059664970234198078 0 -0.09468712156164516 -7.7572548837041077e-05 0 -0.09501982185781041 0.00065604145076086505 0 -0.093489197971153196 0.00073580786949391903 0 -0.086967426075157256 0.00066940139111902532 0 -0.087355539487376566 0.00030445699033696325 0 -0.087098940867506178 0.00036707597960983777 0 -0.086967426075157256 0.00066940139111902532 0 -0.087098940867506178 0.00036707597960983777 0 -0.086784502822911197 0.00033812157197044869 0 -0.087505404014700111 0.00094670654777830651 0 -0.086967426075157256 0.00066940139111902532 0 -0.087355539487376566 0.00030445699033696325 0 -0.087355539487376566 0.00030445699033696325 0 -0.087353614249854994 0.00018333357435682281 0 -0.087503210153505234 2.935627706496641e-05 0 -0.087353614249854994 0.00018333357435682281 0 -0.087369677287617478 0.0003032208328195794 0 -0.087503210153505234 2.935627706496641e-05 0 -0.087353614249854994 0.00018333357435682281 0 -0.087284085173770939 0.00019650422475905584 0 -0.087310284252041681 0.00022923315701691097 0 -0.087353614249854994 0.00018333357435682281 0 -0.087246699438466621 0.00023524035442839595 0 -0.087284085173770939 0.00019650422475905584 0 -0.087355539487376566 0.00030445699033696325 0 -0.087353614249854994 0.00018333357435682281 0 -0.087246699438466621 0.00023524035442839595 0 -0.087355539487376566 0.00030445699033696325 0 -0.087098940867506178 0.00036707597960983777 0 -0.087246699438466621 0.00023524035442839595 0 -0.087098940867506178 0.00036707597960983777 0 -0.087246699438466621 0.00023524035442839595 0 -0.087115067259157394 0.00020016852862441028 0 -0.087098940867506178 0.00036707597960983777 0 -0.087115067259157394 0.00020016852862441028 0 -0.086784502822911197 0.00033812157197044869 0 -0.087115067259157394 0.00020016852862441028 0 -0.086784502822911197 0.00033812157197044869 0 -0.086782221434432372 2.6522756428313136e-05 0 -0.078431066546411743 0.0022165956260603351 0 -0.078146702016061234 0.0023711361027816641 0 -0.087115067259157394 0.00020016852862441028 0 -0.087220207890816942 0.00016326587622307159 0 -0.087133868141352572 1.4716494081168547e-05 0 -0.087115067259157394 0.00020016852862441028 0 -0.087042963319066788 -0.00012684210507779608 0 -0.086782221434432372 2.6522756428313136e-05 0 -0.078417726911228461 0.0024618245227971112 0 -0.078146702016061234 0.0023711361027816641 0 -0.087220207890816942 0.00016326587622307159 0 -0.087310284252041681 0.00022923315701691097 0 -0.087332549113676175 0.00024198253456847503 0 -0.087246699438466621 0.00023524035442839595 0 -0.087284085173770939 0.00019650422475905584 0 -0.087220207890816942 0.00016326587622307159 0 -0.087246699438466621 0.00023524035442839595 0 -0.087115067259157394 0.00020016852862441028 0 -0.087220207890816942 0.00016326587622307159 0 -0.087284085173770939 0.00019650422475905584 0 -0.087220207890816942 0.00016326587622307159 0 -0.087310284252041681 0.00022923315701691097 0 -0.087310284252041681 0.00022923315701691097 0 -0.087332549113676175 0.00024198253456847503 0 -0.087330735036281262 0.00031812268067343542 0 -0.078146702016061234 0.0023711361027816641 0 -0.076052481414669096 0.0018634313899770609 0 -0.087332549113676175 0.00024198253456847503 0 -0.087330735036281262 0.00031812268067343542 0 -0.087365603463959954 0.00040410757305044733 0 -0.087330735036281262 0.00031812268067343542 0 -0.087369677287617478 0.0003032208328195794 0 -0.087295011414897955 0.00042888269993845876 0 -0.087369677287617478 0.0003032208328195794 0 -0.087295011414897955 0.00042888269993845876 0 -0.087310612481487165 0.00048901111555340704 0 -0.087310284252041681 0.00022923315701691097 0 -0.087330735036281262 0.00031812268067343542 0 -0.087369677287617478 0.0003032208328195794 0 -0.087353614249854994 0.00018333357435682281 0 -0.087310284252041681 0.00022923315701691097 0 -0.087369677287617478 0.0003032208328195794 0 -0.086323094097858807 0.0005705248023441232 0 -0.085913930364188346 -2.1341493744700908e-05 0 -0.08643462398287434 6.5763939322312153e-05 0 -0.090261854677689185 0.0017074181645846975 0 -0.090832529397116529 0.0026803473218932603 0 -0.091217747978493136 0.0017536833485590599 0 -0.088977696136387438 0.0010282010676513579 0 -0.087154230696187648 0.0019852777885434338 0 -0.085913930364188346 -2.1341493744700908e-05 0 -0.08643462398287434 6.5763939322312153e-05 0 -0.086221629636751687 -0.00023460363486828907 0 -0.086323094097858807 0.0005705248023441232 0 -0.08643462398287434 6.5763939322312153e-05 0 -0.086784502822911197 0.00033812157197044869 0 -0.08643462398287434 6.5763939322312153e-05 0 -0.086784502822911197 0.00033812157197044869 0 -0.086782221434432372 2.6522756428313136e-05 0 -0.087042963319066788 -0.00012684210507779608 0 -0.086568015582981772 -0.0003471059617141384 0 -0.086592438959178911 -0.00087421881063546431 0 -0.078146702016061234 0.0023711361027816641 0 -0.076375300328550041 0.0026348365510153143 0 -0.08643462398287434 6.5763939322312153e-05 0 -0.086782221434432372 2.6522756428313136e-05 0 -0.086568015582981772 -0.0003471059617141384 0 -0.087042963319066788 -0.00012684210507779608 0 -0.086782221434432372 2.6522756428313136e-05 0 -0.086568015582981772 -0.0003471059617141384 0 -0.08643462398287434 6.5763939322312153e-05 0 -0.086568015582981772 -0.0003471059617141384 0 -0.086221629636751687 -0.00023460363486828907 0 -0.086568015582981772 -0.0003471059617141384 0 -0.086221629636751687 -0.00023460363486828907 0 -0.08597160646074424 -0.00063971509636862403 0 -0.085913930364188346 -2.1341493744700908e-05 0 -0.08597160646074424 -0.00063971509636862403 0 -0.085530091421129259 -0.00064579042058038533 0 -0.085913930364188346 -2.1341493744700908e-05 0 -0.086221629636751687 -0.00023460363486828907 0 -0.08597160646074424 -0.00063971509636862403 0 -0.08597160646074424 -0.00063971509636862403 0 -0.086092033029428791 -0.0010916035537661959 0 -0.086592438959178911 -0.00087421881063546431 0 -0.08597160646074424 -0.00063971509636862403 0 -0.086092033029428791 -0.0010916035537661959 0 -0.08568417534760743 -0.0011475628458690336 0 -0.086568015582981772 -0.0003471059617141384 0 -0.08597160646074424 -0.00063971509636862403 0 -0.086592438959178911 -0.00087421881063546431 0 -0.076375300328550041 0.0026348365510153143 0 -0.071644050436242959 0.0030381183666756085 0 -0.07453743249357625 0.0023422145980905077 0 -0.074785754188158096 0.0014150863453232258 0 -0.074007060554699591 0.0014274431403131546 0 -0.07453743249357625 0.0023422145980905077 0 -0.074785754188158096 0.0014150863453232258 0 -0.074927372981441989 0.0023361284566744221 0 -0.071657999259925234 0.0011602869975436193 0 -0.071644050436242959 0.0030381183666756085 0 -0.086113204333675974 -0.0017122691191917563 0 -0.08568417534760743 -0.0011475628458690336 0 -0.085451936445937127 -0.0017149120693329873 0 -0.086092033029428791 -0.0010916035537661959 0 -0.086113204333675974 -0.0017122691191917563 0 -0.08568417534760743 -0.0011475628458690336 0 -0.071644050436242959 0.0030381183666756085 0 -0.07588524640677248 0.0027995027291058093 0 -0.086092033029428791 -0.0010916035537661959 0 -0.086592438959178911 -0.00087421881063546431 0 -0.086113204333675974 -0.0017122691191917563 0 -0.075072710320775921 0.0032556028111399432 0 -0.07453743249357625 0.0023422145980905077 0 -0.074927372981441989 0.0023361284566744221 0 -0.087330735036281262 0.00031812268067343542 0 -0.087295011414897955 0.00042888269993845876 0 -0.087365603463959954 0.00040410757305044733 0 -0.087339746805696311 0.00049287852843390675 0 -0.087295011414897955 0.00042888269993845876 0 -0.087365603463959954 0.00040410757305044733 0 -0.071657999259925234 0.0011602869975436193 0 -0.076052481414669096 0.0018634313899770609 0 -0.087339746805696311 0.00049287852843390675 0 -0.087295011414897955 0.00042888269993845876 0 -0.087260135290153723 0.00049899764878214459 0 -0.087295011414897955 0.00042888269993845876 0 -0.087259767723192203 0.00046221792902173585 0 -0.087260135290153723 0.00049899764878214459 0 -0.087259767723192203 0.00046221792902173585 0 -0.087177270431257239 0.00051481396646327175 0 -0.087260135290153723 0.00049899764878214459 0 -0.087295011414897955 0.00042888269993845876 0 -0.087259767723192203 0.00046221792902173585 0 -0.087310612481487165 0.00048901111555340704 0 -0.087259767723192203 0.00046221792902173585 0 -0.087246609220934815 0.00046218774865176783 0 -0.087310612481487165 0.00048901111555340704 0 -0.086000287732654349 0.0016838773167316425 0 -0.080621703481525905 0.0019938591600751499 0 -0.084323737742402177 0.00057903211963752704 0 -0.064512175726910731 0.0044978758001359594 0 -0.065086488475143922 0.0023144991904273425 0 -0.067651846873814953 0.0028472553514454746 0 -0.07682691743239102 -0.0015256958398137685 0 -0.074378007388177014 -0.00011807719511399511 0 -0.07682691743239102 -0.0015256958398137685 0 -0.076852252026268247 -0.0015163894891447576 0 -0.07682691743239102 -0.0015256958398137685 0 -0.074752780042449743 0.00047805367838988993 0 -0.087259767723192203 0.00046221792902173585 0 -0.087246609220934815 0.00046218774865176783 0 -0.087208607012283598 0.00047575430815370887 0 -0.087259767723192203 0.00046221792902173585 0 -0.087208607012283598 0.00047575430815370887 0 -0.087177270431257239 0.00051481396646327175 0 -0.074752780042449743 0.00047805367838988993 0 -0.072497299423097294 0.001967393280163677 0 -0.065086488475143922 0.0023144991904273425 0 -0.066571914977041582 0.0015114040723461018 0 -0.065667565053504531 7.5020049721870674e-05 0 -0.066571914977041582 0.0015114040723461018 0 -0.067651846873814953 0.0028472553514454746 0 -0.067422735226898026 2.0790054551477314e-05 0 -0.067651846873814953 0.0028472553514454746 0 -0.069298648413804828 -0.00034405730596591031 0 -0.067422735226898026 2.0790054551477314e-05 0 -0.066571914977041582 0.0015114040723461018 0 -0.067422735226898026 2.0790054551477314e-05 0 -0.065667565053504531 7.5020049721870674e-05 0 -0.065086488475143922 0.0023144991904273425 0 -0.066571914977041582 0.0015114040723461018 0 -0.067651846873814953 0.0028472553514454746 0 -0.07238338423592415 5.1986266279969277e-07 0 -0.074378007388177014 -0.00011807719511399511 0 -0.072371941334576778 4.8648854292063942e-06 0 -0.067651846873814953 0.0028472553514454746 0 -0.069298648413804828 -0.00034405730596591031 0 -0.072389285976494508 7.678400192444682e-06 0 -0.080621703481525905 0.0019938591600751499 0 -0.07789657454321329 -1.3730698448193702e-06 0 -0.080621703481525905 0.0019938591600751499 0 -0.084323737742402177 0.00057903211963752704 0 -0.07789657454321329 -1.3730698448193702e-06 0 -0.084323737742402177 0.00057903211963752704 0 -0.07789657454321329 -1.3730698448193702e-06 0 -0.084709595148818082 -0.00018296549297717646 0 -0.08524000010419365 -7.046011034684813e-07 0 -0.07789657454321329 -1.3730698448193702e-06 0 -0.084709595148818082 -0.00018296549297717646 0 -0.084323737742402177 0.00057903211963752704 0 -0.084709595148818082 -0.00018296549297717646 0 -0.086681258053776702 6.8491184991725841e-05 0 -0.089149086799255317 0.00022334732178536099 0 -0.084709595148818082 -0.00018296549297717646 0 -0.086681258053776702 6.8491184991725841e-05 0 -0.089149086799255317 0.00022334732178536099 0 -0.086681258053776702 6.8491184991725841e-05 0 -0.087503210153505234 2.935627706496641e-05 0 -0.086681258053776702 6.8491184991725841e-05 0 -0.087503210153505234 2.935627706496641e-05 0 -0.086698714140803032 0.00038494436979664433 0 -0.087503210153505234 2.935627706496641e-05 0 -0.087310612481487165 0.00048901111555340704 0 -0.086698714140803032 0.00038494436979664433 0 -0.087369677287617478 0.0003032208328195794 0 -0.087503210153505234 2.935627706496641e-05 0 -0.087310612481487165 0.00048901111555340704 0 -0.08611072813884954 0.0016031022453961183 0 -0.087310612481487165 0.00048901111555340704 0 -0.086164054348352642 0.0013252210231536334 0 -0.087310612481487165 0.00048901111555340704 0 -0.086164054348352642 0.0013252210231536334 0 -0.086698714140803032 0.00038494436979664433 0 -0.07682691743239102 -0.0015256958398137685 0 -0.079362066723164482 -0.0021499001719113447 0 -0.084323737742402177 0.00057903211963752704 0 -0.086164054348352642 0.0013252210231536334 0 -0.086698714140803032 0.00038494436979664433 0 -0.086000287732654349 0.0016838773167316425 0 -0.084323737742402177 0.00057903211963752704 0 -0.086164054348352642 0.0013252210231536334 0 -0.084323737742402177 0.00057903211963752704 0 -0.086681258053776702 6.8491184991725841e-05 0 -0.086698714140803032 0.00038494436979664433 0 -0.087633369926457566 0.0010109872208392686 0 -0.083565515961049566 0.0035662280853699748 0 -0.094389932818647285 -0.00091863135533118 0 -0.094520527602406174 -0.0039890960363622979 0 -0.092880615028648333 -0.0015071649359048801 0 -0.094823130762474728 0.0002818989292378086 0 -0.094880414063669274 0.0002163868479208022 0 -0.094894077612189126 0.00036653864697406066 0 -0.094823130762474728 0.0002818989292378086 0 -0.094806757525996654 0.00040801093358720081 0 -0.094894077612189126 0.00036653864697406066 0 -0.094823130762474728 0.0002818989292378086 0 -0.094741032113234952 0.00039990758256418024 0 -0.094806757525996654 0.00040801093358720081 0 -0.094823130762474728 0.0002818989292378086 0 -0.094834470861031972 0.00015569639551276643 0 -0.094849071977632635 0.0001448907617460284 0 -0.094823130762474728 0.0002818989292378086 0 -0.094834470861031972 0.00015569639551276643 0 -0.094880414063669274 0.0002163868479208022 0 -0.087633369926457566 0.0010109872208392686 0 -0.088857287355210798 0.0007328302277974162 0 -0.094834470861031972 0.00015569639551276643 0 -0.094880414063669274 0.0002163868479208022 0 -0.094707210593385827 0.00015286332817173931 0 -0.094389932818647285 -0.00091863135533118 0 -0.094707210593385827 0.00015286332817173931 0 -0.093066619067306081 0.00013221585654074551 0 -0.094707210593385827 0.00015286332817173931 0 -0.094999726199522516 3.0863911308912698e-07 0 -0.094887811328426316 9.6706175560166358e-05 0 -0.094707210593385827 0.00015286332817173931 0 -0.094999726199522516 3.0863911308912698e-07 0 -0.09425355660362629 0.00018567482472656605 0 -0.094999726199522516 3.0863911308912698e-07 0 -0.094887811328426316 9.6706175560166358e-05 0 -0.094999813155064339 -1.0442326527927449e-08 0 -0.094834470861031972 0.00015569639551276643 0 -0.094707210593385827 0.00015286332817173931 0 -0.094887811328426316 9.6706175560166358e-05 0 -0.094834470861031972 0.00015569639551276643 0 -0.094887811328426316 9.6706175560166358e-05 0 -0.094849071977632635 0.0001448907617460284 0 -0.094849071977632635 0.0001448907617460284 0 -0.094902261685003958 2.8025815181832833e-05 0 -0.094812472538891399 0.00010919269655518977 0 -0.094887811328426316 9.6706175560166358e-05 0 -0.094849071977632635 0.0001448907617460284 0 -0.094902261685003958 2.8025815181832833e-05 0 -0.094999813155064339 -1.0442326527927449e-08 0 -0.094902261685003958 2.8025815181832833e-05 0 -0.094999802141506259 2.6154497741478355e-08 0 -0.094887811328426316 9.6706175560166358e-05 0 -0.094999813155064339 -1.0442326527927449e-08 0 -0.094902261685003958 2.8025815181832833e-05 0 -0.094902261685003958 2.8025815181832833e-05 0 -0.094999802141506259 2.6154497741478355e-08 0 -0.09485733558126512 -2.5364785793563674e-05 0 -0.09485733558126512 -2.5364785793563674e-05 0 -0.094812472538891399 0.00010919269655518977 0 -0.094582833250329998 9.1558607811926163e-05 0 -0.094902261685003958 2.8025815181832833e-05 0 -0.09485733558126512 -2.5364785793563674e-05 0 -0.094812472538891399 0.00010919269655518977 0 -0.094812472538891399 0.00010919269655518977 0 -0.094650350928256494 0.00025171384896907742 0 -0.094582833250329998 9.1558607811926163e-05 0 -0.094650350928256494 0.00025171384896907742 0 -0.094636981707603832 0.00038595426134064984 0 -0.094507383101163342 0.00037619207726413651 0 -0.0946503