<?xml version="1.0"?>
<VTKFile type="UnstructuredGrid" version="0.1" byte_order="LittleEndian">
<UnstructuredGrid>
<Piece NumberOfPoints="31437" NumberOfCells="11058">
<Points>
<DataArray type="Float64" NumberOfComponents="3" format="ascii">
-0.5 -0.5 0 -0.4693898859210795 -0.46989398658712761 0 -0.50000000000000155 -0.43410224407606313 0 -0.5 -0.5 0 -0.4693898859210795 -0.46989398658712761 0 -0.4455677547368852 -0.49311614823673661 0 -0.5 -0.5 0 -0.4455677547368852 -0.49311614823673661 0 -0.44197976684141821 -0.5 0 -0.4693898859210795 -0.46989398658712761 0 -0.45159517787210068 -0.47236817397517178 0 -0.4455677547368852 -0.49311614823673661 0 -0.45159517787210068 -0.47236817397517178 0 -0.4455677547368852 -0.49311614823673661 0 -0.43616161820935878 -0.46826765614229893 0 -0.4455677547368852 -0.49311614823673661 0 -0.43616161820935878 -0.46826765614229893 0 -0.4455677547368852 -0.49311614823673661 0 -0.44197976684141821 -0.5 0 -0.42915695757430278 -0.48512374038843259 0 -0.4693898859210795 -0.46989398658712761 0 -0.45435423208969172 -0.45742703734763512 0 -0.47558516056061129 -0.43720788406666289 0 -0.4511703211212213 -0.44031352405726248 0 -0.42675548168183108 -0.44341916404786191 0 -0.4511703211212213 -0.44031352405726248 0 -0.45435423208969172 -0.45742703734763512 0 -0.42675548168183108 -0.44341916404786191 0 -0.45435423208969172 -0.45742703734763512 0 -0.43616161820935878 -0.46826765614229893 0 -0.42675548168183108 -0.44341916404786191 0 -0.45159517787210068 -0.47236817397517178 0 -0.45435423208969172 -0.45742703734763512 0 -0.43616161820935878 -0.46826765614229893 0 -0.4693898859210795 -0.46989398658712761 0 -0.45159517787210068 -0.47236817397517178 0 -0.45435423208969172 -0.45742703734763512 0 -0.4511703211212213 -0.44031352405726248 0 -0.47558516056061129 -0.43720788406666289 0 -0.4511703211212213 -0.44031352405726248 0 -0.45435423208969172 -0.45742703734763512 0 -0.47558516056061129 -0.43720788406666289 0 -0.4693898859210795 -0.46989398658712761 0 -0.50000000000000155 -0.43410224407606313 0 -0.47558516056061129 -0.43720788406666289 0 -0.50000000000000155 -0.43410224407606313 0 -0.47558516056061129 -0.43720788406666289 0 -0.50000000000000155 -0.43410224407606313 0 -0.48159678789274618 -0.41588014147794961 0 -0.47558516056061129 -0.43720788406666289 0 -0.50000000000000155 -0.43410224407606313 0 -0.48159678789274618 -0.41588014147794961 0 -0.5 -0.40435007947511409 0 -0.48159678789274618 -0.41588014147794961 0 -0.5 -0.40435007947511409 0 -0.47848868567956609 -0.40017211510486389 0 -0.48159678789274618 -0.41588014147794961 0 -0.46938220732299007 -0.40812115444227037 0 -0.46497389906557102 -0.42200011972238338 0 -0.48159678789274618 -0.41588014147794961 0 -0.46938220732299007 -0.40812115444227037 0 -0.47848868567956609 -0.40017211510486389 0 -0.48159678789274618 -0.41588014147794961 0 -0.47558516056061129 -0.43720788406666289 0 -0.46497389906557102 -0.42200011972238338 0 -0.48995874638196291 -0.38146906252364138 0 -0.5 -0.40435007947511409 0 -0.49999999999999561 -0.37459791487416488 0 -0.47813169204516442 -0.38401651827603911 0 -0.49149108773162042 -0.36848928190164348 0 -0.48995874638196291 -0.38146906252364138 0 -0.47813169204516442 -0.38401651827603911 0 -0.49149108773162042 -0.36848928190164348 0 -0.48995874638196291 -0.38146906252364138 0 -0.48653256441321657 -0.39192216899846299 0 -0.47813169204516442 -0.38401651827603911 0 -0.5 -0.40435007947511409 0 -0.48653256441321657 -0.39192216899846299 0 -0.47848868567956609 -0.40017211510486389 0 -0.48995874638196291 -0.38146906252364138 0 -0.5 -0.40435007947511409 0 -0.48653256441321657 -0.39192216899846299 0 -0.47848868567956609 -0.40017211510486389 0 -0.47813169204516442 -0.38401651827603911 0 -0.4676902102933998 -0.39615234829887119 0 -0.48653256441321657 -0.39192216899846299 0 -0.47848868567956609 -0.40017211510486389 0 -0.47813169204516442 -0.38401651827603911 0 -0.46938220732299007 -0.40812115444227037 0 -0.47848868567956609 -0.40017211510486389 0 -0.4676902102933998 -0.39615234829887119 0 -0.47813169204516442 -0.38401651827603911 0 -0.46100330925261301 -0.38461050287000431 0 -0.4676902102933998 -0.39615234829887119 0 -0.48653256441321657 -0.39192216899846299 0 -0.47813169204516442 -0.38401651827603911 0 -0.47813169204516442 -0.38401651827603911 0 -0.4676902102933998 -0.39615234829887119 0 -0.47813169204516442 -0.38401651827603911 0 -0.46512921493184201 -0.37178052205079692 0 -0.47813169204516442 -0.38401651827603911 0 -0.4763810039658154 -0.36947529490344572 0 -0.46512921493184201 -0.37178052205079692 0 -0.46100330925261301 -0.38461050287000431 0 -0.44898296761903578 -0.37831988735821998 0 -0.46512921493184201 -0.37178052205079692 0 -0.47813169204516442 -0.38401651827603911 0 -0.46100330925261301 -0.38461050287000431 0 -0.46512921493184201 -0.37178052205079692 0 -0.46100330925261301 -0.38461050287000431 0 -0.45208699884772019 -0.39225859342206842 0 -0.44898296761903578 -0.37831988735821998 0 -0.4676902102933998 -0.39615234829887119 0 -0.45208699884772019 -0.39225859342206842 0 -0.45724872854163517 -0.40828817832170328 0 -0.46100330925261301 -0.38461050287000431 0 -0.4676902102933998 -0.39615234829887119 0 -0.45208699884772019 -0.39225859342206842 0 -0.4676902102933998 -0.39615234829887119 0 -0.45724872854163517 -0.40828817832170328 0 -0.46938220732299007 -0.40812115444227037 0 -0.4676902102933998 -0.39615234829887119 0 -0.45724872854163517 -0.40828817832170328 0 -0.44098583873843128 -0.39894891315115588 0 -0.45208699884772019 -0.39225859342206842 0 -0.45724872854163517 -0.40828817832170328 0 -0.44098583873843128 -0.39894891315115588 0 -0.45208699884772019 -0.39225859342206842 0 -0.43661093864120648 -0.38723173053245591 0 -0.45208699884772019 -0.39225859342206842 0 -0.44898296761903578 -0.37831988735821998 0 -0.43661093864120648 -0.38723173053245591 0 -0.44898296761903578 -0.37831988735821998 0 -0.43661093864120648 -0.38723173053245591 0 -0.43437003921217299 -0.37166293730417471 0 -0.4511703211212213 -0.44031352405726248 0 -0.46497389906557102 -0.42200011972238338 0 -0.4487338767926719 -0.4220833155954189 0 -0.4511703211212213 -0.44031352405726248 0 -0.47558516056061129 -0.43720788406666289 0 -0.46497389906557102 -0.42200011972238338 0 -0.46497389906557102 -0.42200011972238338 0 -0.45724872854163517 -0.40828817832170328 0 -0.4487338767926719 -0.4220833155954189 0 -0.46938220732299007 -0.40812115444227037 0 -0.46497389906557102 -0.42200011972238338 0 -0.45724872854163517 -0.40828817832170328 0 -0.44098583873843128 -0.39894891315115588 0 -0.45724872854163517 -0.40828817832170328 0 -0.43630826276657569 -0.41239527853883118 0 -0.45724872854163517 -0.40828817832170328 0 -0.4487338767926719 -0.4220833155954189 0 -0.43630826276657569 -0.41239527853883118 0 -0.4487338767926719 -0.4220833155954189 0 -0.43472833862684679 -0.42734286431247009 0 -0.43630826276657569 -0.41239527853883118 0 -0.4511703211212213 -0.44031352405726248 0 -0.43472833862684679 -0.42734286431247009 0 -0.42675548168183108 -0.44341916404786191 0 -0.4511703211212213 -0.44031352405726248 0 -0.4487338767926719 -0.4220833155954189 0 -0.43472833862684679 -0.42734286431247009 0 -0.41729934322353962 -0.41843858025161568 0 -0.42675548168183108 -0.44341916404786191 0 -0.43472833862684679 -0.42734286431247009 0 -0.41729934322353962 -0.41843858025161568 0 -0.42675548168183108 -0.44341916404786191 0 -0.43630826276657569 -0.41239527853883118 0 -0.41729934322353962 -0.41843858025161568 0 -0.42669415989669429 -0.39861344655900138 0 -0.43472833862684679 -0.42734286431247009 0 -0.43630826276657569 -0.41239527853883118 0 -0.41729934322353962 -0.41843858025161568 0 -0.41729934322353962 -0.41843858025161568 0 -0.4045003483020449 -0.43038903260077521 0 -0.39960010968379012 -0.41453972798159527 0 -0.41729934322353962 -0.41843858025161568 0 -0.40784320476524683 -0.39345799645537022 0 -0.39960010968379012 -0.41453972798159527 0 -0.41729934322353962 -0.41843858025161568 0 -0.4045003483020449 -0.43038903260077521 0 -0.42675548168183108 -0.44341916404786191 0 -0.43661093864120648 -0.38723173053245591 0 -0.42669415989669429 -0.39861344655900138 0 -0.4211173712451669 -0.38120818042457999 0 -0.43661093864120648 -0.38723173053245591 0 -0.4211173712451669 -0.38120818042457999 0 -0.43437003921217299 -0.37166293730417471 0 -0.44098583873843128 -0.39894891315115588 0 -0.43661093864120648 -0.38723173053245591 0 -0.42669415989669429 -0.39861344655900138 0 -0.44098583873843128 -0.39894891315115588 0 -0.43630826276657569 -0.41239527853883118 0 -0.42669415989669429 -0.39861344655900138 0 -0.41729934322353962 -0.41843858025161568 0 -0.40784320476524683 -0.39345799645537022 0 -0.42669415989669429 -0.39861344655900138 0 -0.40784320476524683 -0.39345799645537022 0 -0.4211173712451669 -0.38120818042457999 0 -0.41729934322353962 -0.41843858025161568 0 -0.42669415989669429 -0.39861344655900138 0 -0.40784320476524683 -0.39345799645537022 0 -0.40784320476524683 -0.39345799645537022 0 -0.4211173712451669 -0.38120818042457999 0 -0.40530198185374822 -0.37456840561434901 0 -0.38997372814218478 -0.38968792006550251 0 -0.40530198185374822 -0.37456840561434901 0 -0.38210640565234888 -0.36209658018080798 0 -0.40784320476524683 -0.39345799645537022 0 -0.38997372814218478 -0.38968792006550251 0 -0.40530198185374822 -0.37456840561434901 0 -0.38997372814218478 -0.38968792006550251 0 -0.40530198185374822 -0.37456840561434901 0 -0.40784320476524683 -0.39345799645537022 0 -0.39404545923785889 -0.40396781220479328 0 -0.39960010968379012 -0.41453972798159527 0 -0.40784320476524683 -0.39345799645537022 0 -0.39404545923785889 -0.40396781220479328 0 -0.38997372814218478 -0.38968792006550251 0 -0.39404545923785889 -0.40396781220479328 0 -0.38997372814218478 -0.38968792006550251 0 -0.38997372814218478 -0.38968792006550251 0 -0.37087598893123191 -0.40852558738351169 0 -0.39404545923785889 -0.40396781220479328 0 -0.38997372814218478 -0.38968792006550251 0 -0.37087598893123191 -0.40852558738351169 0 -0.38997372814218478 -0.38968792006550251 0 -0.38210640565234888 -0
[...]
<PointData Scalars="" Vectors="displacement," Tensors="">
<DataArray type="Float64" Name="displacement" NumberOfComponents="3" format="ascii">
-0.014998691784845348 -0.014999103561682098 0 -0.01449682654682468 -0.014532897869515093 0 -0.013026600322529362 -0.014998753732666521 0 -0.014998691784845348 -0.014999103561682098 0 -0.01449682654682468 -0.014532897869515093 0 -0.01502877022533656 -0.013547844928616125 0 -0.014998691784845348 -0.014999103561682098 0 -0.01502877022533656 -0.013547844928616125 0 -0.014999381866837504 -0.013261092524867849 0 -0.01449682654682468 -0.014532897869515093 0 -0.014600877207974589 -0.014209107444751413 0 -0.01502877022533656 -0.013547844928616125 0 -0.014600877207974589 -0.014209107444751413 0 -0.01502877022533656 -0.013547844928616125 0 -0.014493778377089676 -0.014509416499414174 0 -0.014913078135487137 -0.013605902257591682 0 -0.015311514328430899 -0.013805661656136814 0 -0.01502877022533656 -0.013547844928616125 0 -0.014999381866837504 -0.013261092524867849 0 -0.015313308487877058 -0.0128552167366528 0 -0.01449682654682468 -0.014532897869515093 0 -0.014336321795891878 -0.014449441613623581 0 -0.013770474264084721 -0.014701271778998479 0 -0.012778793538905141 -0.014624280667792779 0 -0.014137816268437997 -0.012851820469383964 0 -0.014160583652825505 -0.01450792865149967 0 -0.014336321795891878 -0.014449441613623581 0 -0.014230573063794494 -0.014641266427475187 0 -0.014336321795891878 -0.014449441613623581 0 -0.014493778377089676 -0.014509416499414174 0 -0.014230573063794494 -0.014641266427475187 0 -0.014600877207974589 -0.014209107444751413 0 -0.014336321795891878 -0.014449441613623581 0 -0.014493778377089676 -0.014509416499414174 0 -0.01449682654682468 -0.014532897869515093 0 -0.014600877207974589 -0.014209107444751413 0 -0.014336321795891878 -0.014449441613623581 0 -0.012778793538905141 -0.014624280667792779 0 -0.013056481080811543 -0.014838206185853024 0 -0.014160583652825505 -0.01450792865149967 0 -0.014336321795891878 -0.014449441613623581 0 -0.013770474264084721 -0.014701271778998479 0 -0.01449682654682468 -0.014532897869515093 0 -0.013026600322529362 -0.014998753732666521 0 -0.013770474264084721 -0.014701271778998479 0 -0.01302306695427762 -0.01499981442162825 0 -0.013056481080811543 -0.014838206185853024 0 -0.013021685068646503 -0.015000126830314948 0 -0.012501747392383586 -0.015256667870220562 0 -0.012373924182675113 -0.015232513614950373 0 -0.013021685068646503 -0.015000126830314948 0 -0.012501747392383586 -0.015256667870220562 0 -0.012131243633149272 -0.014999808614182746 0 -0.012501747392383586 -0.015256667870220562 0 -0.012131243633149272 -0.014999808614182746 0 -0.012304859029932173 -0.015257803095882219 0 -0.012501747392383586 -0.015256667870220562 0 -0.012608218077456075 -0.015180267082876807 0 -0.012480231204403305 -0.015046738881886661 0 -0.012501747392383586 -0.015256667870220562 0 -0.012608218077456075 -0.015180267082876807 0 -0.012304859029932173 -0.015257803095882219 0 -0.012501747392383586 -0.015256667870220562 0 -0.012373924182675113 -0.015232513614950373 0 -0.012480231204403305 -0.015046738881886661 0 -0.011555225191547201 -0.015203837039002768 0 -0.012131243633149272 -0.014999808614182746 0 -0.011238180799309746 -0.014999814910450009 0 -0.013022826029448971 -0.015484142493608324 0 -0.01167747042741234 -0.015177409570112132 0 -0.011555225191547201 -0.015203837039002768 0 -0.011660774347121653 -0.015599672156434022 0 -0.011113322494463954 -0.015185114535564405 0 -0.011555225191547201 -0.015203837039002768 0 -0.011986433489304806 -0.015241899884486961 0 -0.011660774347121653 -0.015599672156434022 0 -0.012131243633149272 -0.014999808614182746 0 -0.011986433489304806 -0.015241899884486961 0 -0.012304859029932173 -0.015257803095882219 0 -0.011555225191547201 -0.015203837039002768 0 -0.012131243633149272 -0.014999808614182746 0 -0.011986433489304806 -0.015241899884486961 0 -0.012304859029932173 -0.015257803095882219 0 -0.012060771787464371 -0.01527896806000004 0 -0.012403492343163425 -0.015273414313929668 0 -0.011986433489304806 -0.015241899884486961 0 -0.012304859029932173 -0.015257803095882219 0 -0.012060771787464371 -0.01527896806000004 0 -0.012608218077456075 -0.015180267082876807 0 -0.012304859029932173 -0.015257803095882219 0 -0.012403492343163425 -0.015273414313929668 0 -0.014919415791726063 -0.016479485708294054 0 -0.01489109761626573 -0.015180471169305076 0 -0.013995519680792963 -0.015712500123528712 0 -0.012074113888338551 -0.015559885283649846 0 -0.013022826029448971 -0.015484142493608324 0 -0.013022826029448971 -0.015484142493608324 0 -0.013251962023690682 -0.015493740375193535 0 -0.013022826029448971 -0.015484142493608324 0 -0.014463319988599085 -0.015265274313784704 0 -0.012848916605971565 -0.015269812210386218 0 -0.013002604022058193 -0.015250536694105333 0 -0.012983369592409914 -0.01512915072530038 0 -0.01489109761626573 -0.015180471169305076 0 -0.015374105079667964 -0.014266281206705266 0 -0.015844671484254936 -0.015477924765736647 0 -0.014919415791726063 -0.016479485708294054 0 -0.01489109761626573 -0.015180471169305076 0 -0.015844671484254936 -0.015477924765736647 0 -0.01489109761626573 -0.015180471169305076 0 -0.014333342957918752 -0.014506452260254109 0 -0.015374105079667964 -0.014266281206705266 0 -0.013995519680792963 -0.015712500123528712 0 -0.014333342957918752 -0.014506452260254109 0 -0.012955962266647785 -0.014884808406558673 0 -0.01489109761626573 -0.015180471169305076 0 -0.013995519680792963 -0.015712500123528712 0 -0.014333342957918752 -0.014506452260254109 0 -0.013251962023690682 -0.015493740375193535 0 -0.012876565729991556 -0.014961271003918478 0 -0.012608218077456075 -0.015180267082876807 0 -0.012403492343163425 -0.015273414313929668 0 -0.012955962266647785 -0.014884808406558673 0 -0.013893222922324835 -0.013718729985260884 0 -0.014333342957918752 -0.014506452260254109 0 -0.012955962266647785 -0.014884808406558673 0 -0.013893222922324835 -0.013718729985260884 0 -0.014333342957918752 -0.014506452260254109 0 -0.014768150094320092 -0.013376899333436477 0 -0.014333342957918752 -0.014506452260254109 0 -0.015374105079667964 -0.014266281206705266 0 -0.014768150094320092 -0.013376899333436477 0 -0.015374105079667964 -0.014266281206705266 0 -0.014768150094320092 -0.013376899333436477 0 -0.015877191603884337 -0.013193174481731304 0 -0.011663458282020218 -0.014441308830430405 0 -0.012480231204403305 -0.015046738881886661 0 -0.012444034391518172 -0.014299972102413655 0 -0.011663458282020218 -0.014441308830430405 0 -0.012373924182675113 -0.015232513614950373 0 -0.012480231204403305 -0.015046738881886661 0 -0.012480231204403305 -0.015046738881886661 0 -0.012955962266647785 -0.014884808406558673 0 -0.012444034391518172 -0.014299972102413655 0 -0.012608218077456075 -0.015180267082876807 0 -0.012480231204403305 -0.015046738881886661 0 -0.012955962266647785 -0.014884808406558673 0 -0.013893222922324835 -0.013718729985260884 0 -0.012955962266647785 -0.014884808406558673 0 -0.013020777609476435 -0.01347116425700901 0 -0.012955962266647785 -0.014884808406558673 0 -0.012444034391518172 -0.014299972102413655 0 -0.013020777609476435 -0.01347116425700901 0 -0.012444034391518172 -0.014299972102413655 0 -0.012173869727766141 -0.013418116122132633 0 -0.013020777609476435 -0.01347116425700901 0 -0.011663458282020218 -0.014441308830430405 0 -0.012173869727766141 -0.013418116122132633 0 -0.011250610693492556 -0.012948903626198648 0 -0.011663458282020218 -0.014441308830430405 0 -0.012444034391518172 -0.014299972102413655 0 -0.012173869727766141 -0.013418116122132633 0 -0.013481972613976606 -0.011434852555074933 0 -0.014137816268437997 -0.012851820469383964 0 -0.012173869727766141 -0.013418116122132633 0 -0.012656174989176892 -0.012169742305679916 0 -0.011250610693492556 -0.012948903626198648 0 -0.013020777609476435 -0.01347116425700901 0 -0.012656174989176892 -0.012169742305679916 0 -0.014045564094314657 -0.012714912167076627 0 -0.012173869727766141 -0.013418116122132633 0 -0.013020777609476435 -0.01347116425700901 0 -0.012656174989176892 -0.012169742305679916 0 -0.014689152516072973 -0.010862907198606718 0 -0.014691411408859994 -0.010802790236517616 0 -0.014677227331808094 -0.010845267358338649 0 -0.014689152516072973 -0.010862907198606718 0 -0.014617438457383954 -0.011201993598348831 0 -0.014677227331808094 -0.010845267358338649 0 -0.014689152516072973 -0.010862907198606718 0 -0.014691411408859994 -0.010802790236517616 0 -0.014635480427064947 -0.010897864899065381 0 -0.014768150094320092 -0.013376899333436477 0 -0.014045564094314657 -0.012714912167076627 0 -0.015258948151431733 -0.012227750746482675 0 -0.014768150094320092 -0.013376899333436477 0 -0.015258948151431733 -0.012227750746482675 0 -0.015877191603884337 -0.013193174481731304 0 -0.013893222922324835 -0.013718729985260884 0 -0.014768150094320092 -0.013376899333436477 0 -0.014045564094314657 -0.012714912167076627 0 -0.013893222922324835 -0.013718729985260884 0 -0.013020777609476435 -0.01347116425700901 0 -0.014045564094314657 -0.012714912167076627 0 -0.013481972613976606 -0.011434852555074933 0 -0.014671440816941616 -0.011210816731000424 0 -0.014045564094314657 -0.012714912167076627 0 -0.014617438457383954 -0.011201993598348831 0 -0.015258948151431733 -0.012227750746482675 0 -0.012656174989176892 -0.012169742305679916 0 -0.014045564094314657 -0.012714912167076627 0 -0.014617438457383954 -0.011201993598348831 0 -0.014617438457383954 -0.011201993598348831 0 -0.015258948151431733 -0.012227750746482675 0 -0.0156292633040849 -0.011169636751031451 0 -0.011809927880287233 -0.011095532155472787 0 -0.0120950976299843 -0.0114152527883748 0 -0.012337771363150458 -0.010917589166983247 0 -0.014617438457383954 -0.011201993598348831 0 -0.014861519273558449 -0.010618979583235119 0 -0.0156292633040849 -0.011169636751031451 0 -0.013765056744998243 -0.010665500841073924 0 -0.013798789150902199 -0.011292536443497666 0 -0.014617438457383954 -0.011201993598348831 0 -0.014686871714504387 -0.010815429606332741 0 -0.014677227331808094 -0.010845267358338649 0 -0.014617438457383954 -0.011201993598348831 0 -0.014686871714504387 -0.010815429606332741 0 -0.014861519273558449 -0.010618979583235119 0 -0.014984626580887006 -0.010663928559289467 0 -0.013765056744998243 -0.010665500841073924 0 -0.013765056744998243 -0.010665500841073924 0 -0.014587918849237391 -0.010153839843593459 0 -0.014686871714504387 -0.010815429606332741 0 -0.014808616334902606 -0.010777412521880915 0 -0.014775112088788482 -0.010585128320061636 0 -0.013765056744998243 -0.010665500841073924 0 -0.012681014059643095 -0.010328365008048099 0 -0.014691411408859994 -0.010802790236517616 0 -0.014677227331808094 -0.010845267358338649 0 -0.014715364276787954 -0.010703615463742966 0 -0.014691411408859994 -0.010802790236517616 0 -0.014715364276787954 -0.010703615463742966 0 -0.014715849446295018 -0.010673634566394434 0 -0.014686871714504387 -0.010815429606332741 0 -0.014677227331808094 -0.010845267358338649 0 -0.014725313561155423 -0.010699016348727683 0 -0.014677227331808094 -0.010845267358338649 0 -0.014725313561155423 -0.010699016348727683 0 -0.014715364276787954 -0.010703615463742966 0 -0.014686871714504387 -0.010815429606332741 0 -0.014725313561155423 -0.010699016348727683 0 -0.014775112088788482 -0.010585128320061636 0 -0.014725313561155423 -0.010699016348727683 0 -0.01475398520529103 -0.010541855340145196 0 -0.014775112088788482 -0.010585128320061636 0 -0.014715364276787954 -0.010703615463742966 0 -0.014715849446295018 -0.010673634566394434 0 -0.01475398520529103 -0.010541855340145196 0 -0.014725313561155423 -0.010699016348727683 0 -0.014715364276787954 -0.010703615463742966 0 -0.01475398520529103 -0.010541855340145196 0 -0.014789630184684426 -0.010565747570732672 0 -0.014715849446295018 -0.010673634566394434 0 -0.01475398520529103 -0.010541855340145196 0 -0.014789630184684426 -0.010565747570732672 0 -0.014715849446295018 -0.010673634566394434 0 -0.014637748755587021 -0.010775826725257702 0 -0.015261953480876188 -0.010862104844626599 0 -0.01552067918019949 -0.011159647005951939 0 -0.014691411408859994 -0.010802790236517616 0 -0.014715849446295018 -0.010673634566394434 0 -0.014637748755587021 -0.010775826725257702 0 -0.01574079094516196 -0.010981909921247144 0 -0.016183460277829624 -0.011944040367255125 0 -0.015667508838618158 -0.011482067156759168 0 -0.016183460277829624 -0.011944040367255125 0 -0.015667508838618158 -0.011482067156759168 0 -0.015975587592762922 -0.012148384378495209 0 -0.015730945935716657 -0.011878879351923997 0 -0.015645551516852072 -0.012411330568462347 0 -0.015975587592762922 -0.012148384378495209 0 -0.015514165650615471 -0.01168658035631125 0 -0.015930870887932068 -0.012099302145958772 0 -0.015667508838618158 -0.011482067156759168 0 -0.015241853870542251 -0.011486324801510572 0 -0.015975587592762922 -0.012148384378495209 0 -0.015667508838618158 -0.011482067156759168 0 -0.015305908342428965 -0.010911678995726344 0 -0.015241853870542251 -0.011486324801510572 0 -0.01574079094516196 -0.010981909921247144 0 -0.015667508838618158 -0.011482067156759168 0 -0.015305908342428965 -0.010911678995726344 0 -0.015305908342428965 -0.010911678995726344 0 -0.015034918003454748 -0.011045054949142914 0 -0.015241853870542251 -0.011486324801510572 0 -0.015402916761207083 -0.011476008253249266 0 -0.015000025143091081 -0.011977375926897765 0 -0.01499993007682132 -0.011034582352116512 0 -0.015210636140537397 -0.011274841951849987 0 -0.015514165650615471 -0.01168658035631125 0 -0.015402916761207083 -0.011476008253249266 0 -0.015000025143091081 -0.011977375926897765 0 -0.015426970696696211 -0.012111903191500429 0 -0.015426970696696211 -0.012111903191500429 0 -0.015730945935716657 -0.011878879351923997 0 -0.015645551516852072 -0.012411330568462347 0 -0.015402916761207083 -0.011476008253249266 0 -0.015426970696696211 -0.012111903191500429 0 -0.015730945935716657 -0.011878879351923997 0 -0.014999381866837504 -0.013261092524867849 0 -0.015000025143091081 -0.011977375926897765 0 -0.015313308487877058 -0.0128552167366528 0 -0.015426970696696211 -0.012111903191500429 0 -0.015645551516852072 -0.012411330568462347 0 -0.015313308487877058 -0.0128552167366528 0 -0.015000025143091081 -0.011977375926897765 0 -0.015426970696696211 -0.012111903191500429 0 -0.015313308487877058 -0.0128552167366528 0 -0.015645551516852072 -0.012411330568462347 0 -0.015313308487877058 -0.0128552167366528 0 -0.015761972067661802 -0.013000010715835217 0 -0.01502877022533656 -0.013547844928616125 0 -0.015313308487877058 -0.0128552167366528 0 -0.015761972067661802 -0.013000010715835217 0 -0.015311514328430899 -0.013805661656136814 0 -0.014137816268437997 -0.012851820469383964 0 -0.015645551516852072 -0.012411330568462347 0 -0.015761972067661802 -0.013000010715835217 0 -0.016274949532560982 -0.012696823954387069 0 -0.01552067918019949 -0.011159647005951939 0 -0.014137816268437997 -0.012851820469383964 0 -0.014691411408859994 -0.010802790236517616 0 -0.014637748755587021 -0.010775826725257702 0 -0.014635480427064947 -0.010897864899065381 0 -0.016183460277829624 -0.011944040367255125 0 -0.016274949532560982 -0.012696823954387069 0 -0.015975587592762922 -0.012148384378495209 0 -0.015645551516852072 -0.012411330568462347 0 -0.016274949532560982 -0.012696823954387069 0 -0.015975587592762922 -0.012148384378495209 0 -0.0082169457814138067 -0.016328981528767342 0 -0.0077011641785000862 -0.016138819145400295 0 -0.0073810385326815503 -0.01649950470424847 0 -0.0086047859701859405 -0.016002485312108287 0 -0.0071347679559273921 -0.016323761440140649 0 -0.0074366925666687093 -0.016181456479336654 0 -0.0080571415064419425 -0.015878141925055881 0 -0.0070922013632993995 -0.016103880879721654 0 -0.0074366925666687093 -0.016181456479336654 0 -0.0071322863671242805 -0.016497743644622712 0 -0.0070922013632993995 -0.016103880879721654 0 -0.0077657058885440538 -0.01610310398390891 0 -0.0088600915520818425 -0.015980303384711025 0 -0.0074366925666687093 -0.016181456479336654 0 -0.0079106795787267023 -0.016325958945286288 0 -0.0076279584488827988 -0.016560125900465426 0 -0.0074366925666687093 -0.016181456479336654 0 -0.0079106795787267023 -0.016325958945286288 0 -0.0080571415064419425 -0.015878141925055881 0 -0.0091683313583946387 -0.015914266029490084 0 -0.0096059051951583423 -0.015665776926575937 0 -0.0097899175519814124 -0.015537663191697422 0 -0.009430470832810043 -0.015803062845419553 0 -0.0094697779171740385 -0.015539461683768938 0 -0.0091683313583946387 -0.015914266029490084 0 -0.0086047859701859405 -0.016002485312108287 0 -0.0095341937953975879 -0.015724727585615109 0 -0.0095045859362505782 -0.015823282947411962 0 -0.009430470832810043 -0.015803062845419553 0 -0.0095045859362505782 -0.015823282947411962 0 -0.0094665570269149221 -0.015833766793290315 0 -0.009430470832810043 -0.015803062845419553 0 -0.0086047859701859405 -0.016002485312108287 0 -0.0091527845231875321 -0.015889067080983525 0 -0.0082169457814138067 -0.016328981528767342 0 -0.00798878146360937 -0.015982430403552711 0 -0.0077011641785000862 -0.016138819145400295 0 -0.0095210074131435764 -0.015821945416329336 0 -0.0094665570269149221 -0.015833766793290315 0 -0.0094728440412250869 -0.015973522196285565 0 -0.0086047859701859405 -0.016002485312108287 0 -0.008752751426005019 -0.015895961579283132 0 -0.0082169457814138067 -0.016328981528767342 0 -0.0083421765554515994 -0.015945876223470202 0 -0.00798878146360937 -0.015982430403552711 0 -0.00798878146360937 -0.015982430403552711 0 -0.0077011641785000862 -0.016138819145400295 0 -0.0076876858989957577 -0.015839277685061118 0 -0.0077011641785000862 -0.016138819145400295 0 -0.0076876858989957577 -0.015839277685061118 0 -0.0072247608788947003 -0.016045147600748627 0 -0.0074966347433848687 -0.015481182896275411 0 -0.0076876858989957577 -0.015839277685061118 0 -0.0081055296713925529 -0.015466222993949272 0 -0.0074966347433848687 -0.015481182896275411 0 -0.0076876858989957577 -0.015839277685061118 0 -0.0072247608788947003 -0.016045147600748627 0 -0.0074966347433848687 -0.015481182896275411 0 -0.007907327918817297 -0.014999971778695779 0 -0.0071001794193404849 -0.014999965151100813 0 -0.0074966347433848687 -0.015481182896275411 0 -0.007907327918817297 -0.014999971778695779 0 -0.0081055296713925529 -0.015466222993949272 0 -0.0079075317317682491 -0.015000136390509407 0 -0.0081190763191378492 -0.015476202587454574 0 -0.0079074827445022103 -0.014999996729551709 0 -0.0081651125133026248 -0.01550893218669613 0 -0.0087629213155690656 -0.014999999015703598 0 -0.008752751426005019 -0.015895961579283132 0 -0.0081190763191378492 -0.015476202587454574 0 -0.0084212019887236061 -0.0160143864657558 0 -0.0081651125133026248 -0.01550893218669613 0 -0.0085902636416479734 -0.015508426273361041 0 -0.00798878146360937 -0.015982430403552711 0 -0.0076876858989957577 -0.015839277685061118 0 -0.0081055296713925529 -0.015466222993949272 0 -0.0083421765554515994 -0.015945876223470202 0 -0.00798878146360937 -0.015982430403552711 0 -0.0081055296713925529 -0.015466222993949272 0 -0.008752751426005019 -0.015895961579283132 0 -0.0086587256917131615 -0.01547622911734986 0 -0.0086872244506718942 -0.015807629155557997 0 -0.0087416626478167472 -0.015442619731481659 0 -0.0090112606849992484 -0.015833273203490469 0 -0.0087416626478167472 -0.015442619731481659 0 -0.0091432108424385067 -0.015363764236223383 0 -0.0090112606849992484 -0.015833273203490469 0 -0.0081651125133026248 -0.01550893218669613 0 -0.0085902636416479734 -0.015508426273361041 0 -0.0087629213155690656 -0.014999999015703598 0 -0.0086587256917131615 -0.01547622911734986 0 -0.0087629302170272524 -0.01500010526432841 0 -0.0087416626478167472 -0.015442619731481659 0 -0.0087631927129798674 -0.015000022641372717 0 -0.0091432108424385067 -0.015363764236223383 0 -0.0087631927129798674 -0.015000022641372717 0 -0.0091432108424385067 -0.015363764236223383 0 -0.0095462314593574554 -0.014999950855484586 0 -0.0091432108424385067 -0.015363764236223383 0 -0.0093274846999612682 -0.015760361909005004 0 -0.009599858412419792