<?xml version="1.0"?>
<VTKFile type="UnstructuredGrid" version="0.1" byte_order="LittleEndian">
<UnstructuredGrid>
<Piece NumberOfPoints="31437" NumberOfCells="11058">
<Points>
<DataArray type="Float64" NumberOfComponents="3" format="ascii">
-0.5 -0.5 0 -0.4693898859210795 -0.46989398658712761 0 -0.50000000000000155 -0.43410224407606313 0 -0.5 -0.5 0 -0.4693898859210795 -0.46989398658712761 0 -0.4455677547368852 -0.49311614823673661 0 -0.5 -0.5 0 -0.4455677547368852 -0.49311614823673661 0 -0.44197976684141821 -0.5 0 -0.4693898859210795 -0.46989398658712761 0 -0.45159517787210068 -0.47236817397517178 0 -0.4455677547368852 -0.49311614823673661 0 -0.45159517787210068 -0.47236817397517178 0 -0.4455677547368852 -0.49311614823673661 0 -0.43616161820935878 -0.46826765614229893 0 -0.4455677547368852 -0.49311614823673661 0 -0.43616161820935878 -0.46826765614229893 0 -0.4455677547368852 -0.49311614823673661 0 -0.44197976684141821 -0.5 0 -0.42915695757430278 -0.48512374038843259 0 -0.4693898859210795 -0.46989398658712761 0 -0.45435423208969172 -0.45742703734763512 0 -0.47558516056061129 -0.43720788406666289 0 -0.4511703211212213 -0.44031352405726248 0 -0.42675548168183108 -0.44341916404786191 0 -0.4511703211212213 -0.44031352405726248 0 -0.45435423208969172 -0.45742703734763512 0 -0.42675548168183108 -0.44341916404786191 0 -0.45435423208969172 -0.45742703734763512 0 -0.43616161820935878 -0.46826765614229893 0 -0.42675548168183108 -0.44341916404786191 0 -0.45159517787210068 -0.47236817397517178 0 -0.45435423208969172 -0.45742703734763512 0 -0.43616161820935878 -0.46826765614229893 0 -0.4693898859210795 -0.46989398658712761 0 -0.45159517787210068 -0.47236817397517178 0 -0.45435423208969172 -0.45742703734763512 0 -0.4511703211212213 -0.44031352405726248 0 -0.47558516056061129 -0.43720788406666289 0 -0.4511703211212213 -0.44031352405726248 0 -0.45435423208969172 -0.45742703734763512 0 -0.47558516056061129 -0.43720788406666289 0 -0.4693898859210795 -0.46989398658712761 0 -0.50000000000000155 -0.43410224407606313 0 -0.47558516056061129 -0.43720788406666289 0 -0.50000000000000155 -0.43410224407606313 0 -0.47558516056061129 -0.43720788406666289 0 -0.50000000000000155 -0.43410224407606313 0 -0.48159678789274618 -0.41588014147794961 0 -0.47558516056061129 -0.43720788406666289 0 -0.50000000000000155 -0.43410224407606313 0 -0.48159678789274618 -0.41588014147794961 0 -0.5 -0.40435007947511409 0 -0.48159678789274618 -0.41588014147794961 0 -0.5 -0.40435007947511409 0 -0.47848868567956609 -0.40017211510486389 0 -0.48159678789274618 -0.41588014147794961 0 -0.46938220732299007 -0.40812115444227037 0 -0.46497389906557102 -0.42200011972238338 0 -0.48159678789274618 -0.41588014147794961 0 -0.46938220732299007 -0.40812115444227037 0 -0.47848868567956609 -0.40017211510486389 0 -0.48159678789274618 -0.41588014147794961 0 -0.47558516056061129 -0.43720788406666289 0 -0.46497389906557102 -0.42200011972238338 0 -0.48995874638196291 -0.38146906252364138 0 -0.5 -0.40435007947511409 0 -0.49999999999999561 -0.37459791487416488 0 -0.47813169204516442 -0.38401651827603911 0 -0.49149108773162042 -0.36848928190164348 0 -0.48995874638196291 -0.38146906252364138 0 -0.47813169204516442 -0.38401651827603911 0 -0.49149108773162042 -0.36848928190164348 0 -0.48995874638196291 -0.38146906252364138 0 -0.48653256441321657 -0.39192216899846299 0 -0.47813169204516442 -0.38401651827603911 0 -0.5 -0.40435007947511409 0 -0.48653256441321657 -0.39192216899846299 0 -0.47848868567956609 -0.40017211510486389 0 -0.48995874638196291 -0.38146906252364138 0 -0.5 -0.40435007947511409 0 -0.48653256441321657 -0.39192216899846299 0 -0.47848868567956609 -0.40017211510486389 0 -0.47813169204516442 -0.38401651827603911 0 -0.4676902102933998 -0.39615234829887119 0 -0.48653256441321657 -0.39192216899846299 0 -0.47848868567956609 -0.40017211510486389 0 -0.47813169204516442 -0.38401651827603911 0 -0.46938220732299007 -0.40812115444227037 0 -0.47848868567956609 -0.40017211510486389 0 -0.4676902102933998 -0.39615234829887119 0 -0.47813169204516442 -0.38401651827603911 0 -0.46100330925261301 -0.38461050287000431 0 -0.4676902102933998 -0.39615234829887119 0 -0.48653256441321657 -0.39192216899846299 0 -0.47813169204516442 -0.38401651827603911 0 -0.47813169204516442 -0.38401651827603911 0 -0.4676902102933998 -0.39615234829887119 0 -0.47813169204516442 -0.38401651827603911 0 -0.46512921493184201 -0.37178052205079692 0 -0.47813169204516442 -0.38401651827603911 0 -0.4763810039658154 -0.36947529490344572 0 -0.46512921493184201 -0.37178052205079692 0 -0.46100330925261301 -0.38461050287000431 0 -0.44898296761903578 -0.37831988735821998 0 -0.46512921493184201 -0.37178052205079692 0 -0.47813169204516442 -0.38401651827603911 0 -0.46100330925261301 -0.38461050287000431 0 -0.46512921493184201 -0.37178052205079692 0 -0.46100330925261301 -0.38461050287000431 0 -0.45208699884772019 -0.39225859342206842 0 -0.44898296761903578 -0.37831988735821998 0 -0.4676902102933998 -0.39615234829887119 0 -0.45208699884772019 -0.39225859342206842 0 -0.45724872854163517 -0.40828817832170328 0 -0.46100330925261301 -0.38461050287000431 0 -0.4676902102933998 -0.39615234829887119 0 -0.45208699884772019 -0.39225859342206842 0 -0.4676902102933998 -0.39615234829887119 0 -0.45724872854163517 -0.40828817832170328 0 -0.46938220732299007 -0.40812115444227037 0 -0.4676902102933998 -0.39615234829887119 0 -0.45724872854163517 -0.40828817832170328 0 -0.44098583873843128 -0.39894891315115588 0 -0.45208699884772019 -0.39225859342206842 0 -0.45724872854163517 -0.40828817832170328 0 -0.44098583873843128 -0.39894891315115588 0 -0.45208699884772019 -0.39225859342206842 0 -0.43661093864120648 -0.38723173053245591 0 -0.45208699884772019 -0.39225859342206842 0 -0.44898296761903578 -0.37831988735821998 0 -0.43661093864120648 -0.38723173053245591 0 -0.44898296761903578 -0.37831988735821998 0 -0.43661093864120648 -0.38723173053245591 0 -0.43437003921217299 -0.37166293730417471 0 -0.4511703211212213 -0.44031352405726248 0 -0.46497389906557102 -0.42200011972238338 0 -0.4487338767926719 -0.4220833155954189 0 -0.4511703211212213 -0.44031352405726248 0 -0.47558516056061129 -0.43720788406666289 0 -0.46497389906557102 -0.42200011972238338 0 -0.46497389906557102 -0.42200011972238338 0 -0.45724872854163517 -0.40828817832170328 0 -0.4487338767926719 -0.4220833155954189 0 -0.46938220732299007 -0.40812115444227037 0 -0.46497389906557102 -0.42200011972238338 0 -0.45724872854163517 -0.40828817832170328 0 -0.44098583873843128 -0.39894891315115588 0 -0.45724872854163517 -0.40828817832170328 0 -0.43630826276657569 -0.41239527853883118 0 -0.45724872854163517 -0.40828817832170328 0 -0.4487338767926719 -0.4220833155954189 0 -0.43630826276657569 -0.41239527853883118 0 -0.4487338767926719 -0.4220833155954189 0 -0.43472833862684679 -0.42734286431247009 0 -0.43630826276657569 -0.41239527853883118 0 -0.4511703211212213 -0.44031352405726248 0 -0.43472833862684679 -0.42734286431247009 0 -0.42675548168183108 -0.44341916404786191 0 -0.4511703211212213 -0.44031352405726248 0 -0.4487338767926719 -0.4220833155954189 0 -0.43472833862684679 -0.42734286431247009 0 -0.41729934322353962 -0.41843858025161568 0 -0.42675548168183108 -0.44341916404786191 0 -0.43472833862684679 -0.42734286431247009 0 -0.41729934322353962 -0.41843858025161568 0 -0.42675548168183108 -0.44341916404786191 0 -0.43630826276657569 -0.41239527853883118 0 -0.41729934322353962 -0.41843858025161568 0 -0.42669415989669429 -0.39861344655900138 0 -0.43472833862684679 -0.42734286431247009 0 -0.43630826276657569 -0.41239527853883118 0 -0.41729934322353962 -0.41843858025161568 0 -0.41729934322353962 -0.41843858025161568 0 -0.4045003483020449 -0.43038903260077521 0 -0.39960010968379012 -0.41453972798159527 0 -0.41729934322353962 -0.41843858025161568 0 -0.40784320476524683 -0.39345799645537022 0 -0.39960010968379012 -0.41453972798159527 0 -0.41729934322353962 -0.41843858025161568 0 -0.4045003483020449 -0.43038903260077521 0 -0.42675548168183108 -0.44341916404786191 0 -0.43661093864120648 -0.38723173053245591 0 -0.42669415989669429 -0.39861344655900138 0 -0.4211173712451669 -0.38120818042457999 0 -0.43661093864120648 -0.38723173053245591 0 -0.4211173712451669 -0.38120818042457999 0 -0.43437003921217299 -0.37166293730417471 0 -0.44098583873843128 -0.39894891315115588 0 -0.43661093864120648 -0.38723173053245591 0 -0.42669415989669429 -0.39861344655900138 0 -0.44098583873843128 -0.39894891315115588 0 -0.43630826276657569 -0.41239527853883118 0 -0.42669415989669429 -0.39861344655900138 0 -0.41729934322353962 -0.41843858025161568 0 -0.40784320476524683 -0.39345799645537022 0 -0.42669415989669429 -0.39861344655900138 0 -0.40784320476524683 -0.39345799645537022 0 -0.4211173712451669 -0.38120818042457999 0 -0.41729934322353962 -0.41843858025161568 0 -0.42669415989669429 -0.39861344655900138 0 -0.40784320476524683 -0.39345799645537022 0 -0.40784320476524683 -0.39345799645537022 0 -0.4211173712451669 -0.38120818042457999 0 -0.40530198185374822 -0.37456840561434901 0 -0.38997372814218478 -0.38968792006550251 0 -0.40530198185374822 -0.37456840561434901 0 -0.38210640565234888 -0.36209658018080798 0 -0.40784320476524683 -0.39345799645537022 0 -0.38997372814218478 -0.38968792006550251 0 -0.40530198185374822 -0.37456840561434901 0 -0.38997372814218478 -0.38968792006550251 0 -0.40530198185374822 -0.37456840561434901 0 -0.40784320476524683 -0.39345799645537022 0 -0.39404545923785889 -0.40396781220479328 0 -0.39960010968379012 -0.41453972798159527 0 -0.40784320476524683 -0.39345799645537022 0 -0.39404545923785889 -0.40396781220479328 0 -0.38997372814218478 -0.38968792006550251 0 -0.39404545923785889 -0.40396781220479328 0 -0.38997372814218478 -0.38968792006550251 0 -0.38997372814218478 -0.38968792006550251 0 -0.37087598893123191 -0.40852558738351169 0 -0.39404545923785889 -0.40396781220479328 0 -0.38997372814218478 -0.38968792006550251 0 -0.37087598893123191 -0.40852558738351169 0 -0.38997372814218478 -0.38968792006550251 0 -0.38210640565234888 -0
[...]
<PointData Scalars="" Vectors="displacement," Tensors="">
<DataArray type="Float64" Name="displacement" NumberOfComponents="3" format="ascii">
-5.6420575610786632e-07 -0.014998531691731636 0 -8.0742486365910186e-05 -0.01458814540982181 0 1.0970461603576474e-06 -0.013026163393758681 0 -5.6420575610786632e-07 -0.014998531691731636 0 -8.0742486365910186e-05 -0.01458814540982181 0 -2.3560706075640956e-05 -0.01493996753560327 0 -5.6420575610786632e-07 -0.014998531691731636 0 -2.3560706075640956e-05 -0.01493996753560327 0 -2.3771007139479127e-09 -0.014999916816985174 0 -8.0742486365910186e-05 -0.01458814540982181 0 -2.819431164732747e-05 -0.01477119351847286 0 -2.3560706075640956e-05 -0.01493996753560327 0 -2.819431164732747e-05 -0.01477119351847286 0 -2.3560706075640956e-05 -0.01493996753560327 0 -1.7469882838128975e-05 -0.014849028160078079 0 -7.4841485882593393e-05 -0.014897849871745429 0 5.5756611037733425e-05 -0.015055353293953095 0 -2.3560706075640956e-05 -0.01493996753560327 0 -2.3771007139479127e-09 -0.014999916816985174 0 -2.2191213005901096e-05 -0.014999342472039675 0 -8.0742486365910186e-05 -0.01458814540982181 0 6.2156133489998507e-05 -0.014681967209487241 0 0.00030440313704660022 -0.014093809821010113 0 -2.242932030029193e-05 -0.01371020192512277 0 -0.00018546829298903887 -0.014161739445146671 0 0.00030708790406038883 -0.014685273466613852 0 6.2156133489998507e-05 -0.014681967209487241 0 0.00023851935085227139 -0.014958828175890129 0 6.2156133489998507e-05 -0.014681967209487241 0 -1.7469882838128975e-05 -0.014849028160078079 0 0.00023851935085227139 -0.014958828175890129 0 -2.819431164732747e-05 -0.01477119351847286 0 6.2156133489998507e-05 -0.014681967209487241 0 -1.7469882838128975e-05 -0.014849028160078079 0 -8.0742486365910186e-05 -0.01458814540982181 0 -2.819431164732747e-05 -0.01477119351847286 0 6.2156133489998507e-05 -0.014681967209487241 0 -2.242932030029193e-05 -0.01371020192512277 0 7.0791648408406103e-05 -0.013340708076386208 0 0.00030708790406038883 -0.014685273466613852 0 6.2156133489998507e-05 -0.014681967209487241 0 0.00030440313704660022 -0.014093809821010113 0 -8.0742486365910186e-05 -0.01458814540982181 0 1.0970461603576474e-06 -0.013026163393758681 0 0.00030440313704660022 -0.014093809821010113 0 4.4134620165426629e-08 -0.013023223402303616 0 7.0791648408406103e-05 -0.013340708076386208 0 9.4804102158309524e-08 -0.013021689163243285 0 -0.0001193359974910625 -0.012437454858330557 0 -0.00010970201526548506 -0.012510816365990924 0 9.4804102158309524e-08 -0.013021689163243285 0 -0.0001193359974910625 -0.012437454858330557 0 -4.7334809875251262e-07 -0.012130751211458081 0 -0.0001193359974910625 -0.012437454858330557 0 -4.7334809875251262e-07 -0.012130751211458081 0 -1.5591676618291357e-05 -0.012281940112320465 0 -0.0001193359974910625 -0.012437454858330557 0 -4.3407058391848709e-05 -0.012477218633982743 0 -0.00012456431809957066 -0.012557868964877083 0 -0.0001193359974910625 -0.012437454858330557 0 -4.3407058391848709e-05 -0.012477218633982743 0 -1.5591676618291357e-05 -0.012281940112320465 0 -0.0001193359974910625 -0.012437454858330557 0 -0.00010970201526548506 -0.012510816365990924 0 -0.00012456431809957066 -0.012557868964877083 0 1.3094170416192778e-05 -0.011739851221082408 0 -4.7334809875251262e-07 -0.012130751211458081 0 7.8768932091987238e-07 -0.011239017342202385 0 0.00021241231191723378 -0.011967576824312199 0 0.00013366371596845351 -0.011201800988713758 0 1.3094170416192778e-05 -0.011739851221082408 0 1.5632179366549803e-06 -0.011976510292088013 0 0.00027441492187768601 -0.011636267921823755 0 1.3094170416192778e-05 -0.011739851221082408 0 3.0041278596464589e-05 -0.012014270585388811 0 1.5632179366549803e-06 -0.011976510292088013 0 -4.7334809875251262e-07 -0.012130751211458081 0 3.0041278596464589e-05 -0.012014270585388811 0 -1.5591676618291357e-05 -0.012281940112320465 0 1.3094170416192778e-05 -0.011739851221082408 0 -4.7334809875251262e-07 -0.012130751211458081 0 3.0041278596464589e-05 -0.012014270585388811 0 -1.5591676618291357e-05 -0.012281940112320465 0 0.00023668775455213553 -0.012241812413576223 0 7.2194784777126551e-05 -0.012468877649918149 0 3.0041278596464589e-05 -0.012014270585388811 0 -1.5591676618291357e-05 -0.012281940112320465 0 0.00023668775455213553 -0.012241812413576223 0 -4.3407058391848709e-05 -0.012477218633982743 0 -1.5591676618291357e-05 -0.012281940112320465 0 7.2194784777126551e-05 -0.012468877649918149 0 0.00050717871507649905 -0.012237215660542844 0 0.00049731577928109063 -0.012582510406529003 0 0.00026599760271520844 -0.012446312503267033 0 8.8662959535946453e-05 -0.01200571060640988 0 0.00021241231191723378 -0.011967576824312199 0 0.00021241231191723378 -0.011967576824312199 0 0.00015175628087475384 -0.012464905737474526 0 0.00021241231191723378 -0.011967576824312199 0 0.00050373234721718015 -0.012086712255242897 0 9.0719429973141113e-05 -0.011503722159875366 0 0.00024217117632955559 -0.011519660533918553 0 0.00021848631612391933 -0.011639320296671862 0 0.00049731577928109063 -0.012582510406529003 0 0.00062378433204522124 -0.012827371032724374 0 0.00075214656692915291 -0.012499937394771189 0 0.00050717871507649905 -0.012237215660542844 0 0.00049731577928109063 -0.012582510406529003 0 0.00075214656692915291 -0.012499937394771189 0 0.00049731577928109063 -0.012582510406529003 0 0.00034791860957020297 -0.012760565496921972 0 0.00062378433204522124 -0.012827371032724374 0 0.00026599760271520844 -0.012446312503267033 0 0.00034791860957020297 -0.012760565496921972 0 1.8753311439365702e-05 -0.012652478064085893 0 0.00049731577928109063 -0.012582510406529003 0 0.00026599760271520844 -0.012446312503267033 0 0.00034791860957020297 -0.012760565496921972 0 0.00015175628087475384 -0.012464905737474526 0 2.5639474237462563e-05 -0.012621951539598046 0 -4.3407058391848709e-05 -0.012477218633982743 0 7.2194784777126551e-05 -0.012468877649918149 0 1.8753311439365702e-05 -0.012652478064085893 0 0.00022310396237643136 -0.012978091973879155 0 0.00034791860957020297 -0.012760565496921972 0 1.8753311439365702e-05 -0.012652478064085893 0 0.00022310396237643136 -0.012978091973879155 0 0.00034791860957020297 -0.012760565496921972 0 0.00045168782960526327 -0.013073700119405292 0 0.00034791860957020297 -0.012760565496921972 0 0.00062378433204522124 -0.012827371032724374 0 0.00045168782960526327 -0.013073700119405292 0 0.00062378433204522124 -0.012827371032724374 0 0.00045168782960526327 -0.013073700119405292 0 0.00075905648295924457 -0.013127046571207395 0 -0.00037462009544640126 -0.012765443478391118 0 -0.00012456431809957066 -0.012557868964877083 0 -0.00014798434271956923 -0.012811655806152811 0 -0.00037462009544640126 -0.012765443478391118 0 -0.00010970201526548506 -0.012510816365990924 0 -0.00012456431809957066 -0.012557868964877083 0 -0.00012456431809957066 -0.012557868964877083 0 1.8753311439365702e-05 -0.012652478064085893 0 -0.00014798434271956923 -0.012811655806152811 0 -4.3407058391848709e-05 -0.012477218633982743 0 -0.00012456431809957066 -0.012557868964877083 0 1.8753311439365702e-05 -0.012652478064085893 0 0.00022310396237643136 -0.012978091973879155 0 1.8753311439365702e-05 -0.012652478064085893 0 -8.6967112225518262e-06 -0.013051600046264804 0 1.8753311439365702e-05 -0.012652478064085893 0 -0.00014798434271956923 -0.012811655806152811 0 -8.6967112225518262e-06 -0.013051600046264804 0 -0.00014798434271956923 -0.012811655806152811 0 -0.00023659113147993176 -0.01306509766560413 0 -8.6967112225518262e-06 -0.013051600046264804 0 -0.00037462009544640126 -0.012765443478391118 0 -0.00023659113147993176 -0.01306509766560413 0 -0.0004980342368182426 -0.013202068507201254 0 -0.00037462009544640126 -0.012765443478391118 0 -0.00014798434271956923 -0.012811655806152811 0 -0.00023659113147993176 -0.01306509766560413 0 -0.00015478541936592299 -0.013439421018044878 0 -0.00018546829298903887 -0.014161739445146671 0 -0.00023659113147993176 -0.01306509766560413 0 -0.00011861711232249838 -0.013406661738783309 0 -0.0004980342368182426 -0.013202068507201254 0 -8.6967112225518262e-06 -0.013051600046264804 0 -0.00011861711232249838 -0.013406661738783309 0 0.00023331608227230847 -0.013265434789119937 0 -0.00023659113147993176 -0.01306509766560413 0 -8.6967112225518262e-06 -0.013051600046264804 0 -0.00011861711232249838 -0.013406661738783309 0 -5.0069262326797815e-05 -0.013692961732618185 0 -0.00020690168090952625 -0.013889204280875575 0 -2.2755806896861717e-06 -0.013936580310334413 0 -5.0069262326797815e-05 -0.013692961732618185 0 0.00032846772769303369 -0.013712245681498553 0 -2.2755806896861717e-06 -0.013936580310334413 0 -5.0069262326797815e-05 -0.013692961732618185 0 -0.00020690168090952625 -0.013889204280875575 0 -0.00038605001453111978 -0.013586522662913993 0 0.00045168782960526327 -0.013073700119405292 0 0.00023331608227230847 -0.013265434789119937 0 0.00057619619830339178 -0.013403180221746426 0 0.00045168782960526327 -0.013073700119405292 0 0.00057619619830339178 -0.013403180221746426 0 0.00075905648295924457 -0.013127046571207395 0 0.00022310396237643136 -0.012978091973879155 0 0.00045168782960526327 -0.013073700119405292 0 0.00023331608227230847 -0.013265434789119937 0 0.00022310396237643136 -0.012978091973879155 0 -8.6967112225518262e-06 -0.013051600046264804 0 0.00023331608227230847 -0.013265434789119937 0 -0.00015478541936592299 -0.013439421018044878 0 0.00035838503847847818 -0.013742544237672792 0 0.00023331608227230847 -0.013265434789119937 0 0.00032846772769303369 -0.013712245681498553 0 0.00057619619830339178 -0.013403180221746426 0 -0.00011861711232249838 -0.013406661738783309 0 0.00023331608227230847 -0.013265434789119937 0 0.00032846772769303369 -0.013712245681498553 0 0.00032846772769303369 -0.013712245681498553 0 0.00057619619830339178 -0.013403180221746426 0 0.00070721589277309305 -0.013746892534797623 0 -0.0017887367392388179 -0.014028684626778774 0 -0.0018429164389310211 -0.014064179735288337 0 -0.0018807067219454709 -0.014021774584003523 0 0.00032846772769303369 -0.013712245681498553 0 0.00040625201195695963 -0.014075890004425225 0 0.00070721589277309305 -0.013746892534797623 0 -0.00051045967254762675 -0.014161490396228172 0 -0.00059341606848160053 -0.013905763275799683 0 0.00032846772769303369 -0.013712245681498553 0 0.00014962533732599401 -0.014011023158676769 0 -2.2755806896861717e-06 -0.013936580310334413 0 0.00032846772769303369 -0.013712245681498553 0 0.00014962533732599401 -0.014011023158676769 0 0.00040625201195695963 -0.014075890004425225 0 0.00039909356314763399 -0.014117704643592362 0 -0.00051045967254762675 -0.014161490396228172 0 -0.00051045967254762675 -0.014161490396228172 0 -0.00014587875844094552 -0.014493650999211256 0 0.00014962533732599401 -0.014011023158676769 0 0.00035787734559538975 -0.014073395960203499 0 5.2593083296902778e-05 -0.014361449331012192 0 -0.00051045967254762675 -0.014161490396228172 0 -0.0016374606435493712 -0.014362602375329745 0 -0.00020690168090952625 -0.013889204280875575 0 -2.2755806896861717e-06 -0.013936580310334413 0 -0.00016152480274535561 -0.014113129919909014 0 -0.00020690168090952625 -0.013889204280875575 0 -0.00016152480274535561 -0.014113129919909014 0 -0.00029732360267564284 -0.014121004633337252 0 0.00014962533732599401 -0.014011023158676769 0 -2.2755806896861717e-06 -0.013936580310334413 0 -2.7297972303808745e-05 -0.014160453498297396 0 -2.2755806896861717e-06 -0.013936580310334413 0 -2.7297972303808745e-05 -0.014160453498297396 0 -0.00016152480274535561 -0.014113129919909014 0 0.00014962533732599401 -0.014011023158676769 0 -2.7297972303808745e-05 -0.014160453498297396 0 5.2593083296902778e-05 -0.014361449331012192 0 -2.7297972303808745e-05 -0.014160453498297396 0 -0.00021417948616529853 -0.014345444754335633 0 5.2593083296902778e-05 -0.014361449331012192 0 -0.00016152480274535561 -0.014113129919909014 0 -0.00029732360267564284 -0.014121004633337252 0 -0.00021417948616529853 -0.014345444754335633 0 -2.7297972303808745e-05 -0.014160453498297396 0 -0.00016152480274535561 -0.014113129919909014 0 -0.00021417948616529853 -0.014345444754335633 0 -0.0004043449342054573 -0.014298848054737478 0 -0.00029732360267564284 -0.014121004633337252 0 -0.00021417948616529853 -0.014345444754335633 0 -0.0004043449342054573 -0.014298848054737478 0 -0.00029732360267564284 -0.014121004633337252 0 -0.00042634031344227462 -0.013928493326638938 0 -0.00029963409460761619 -0.014594997174521219 0 -0.00028557547233327686 -0.014482341273403936 0 -0.00020690168090952625 -0.013889204280875575 0 -0.00029732360267564284 -0.014121004633337252 0 -0.00042634031344227462 -0.013928493326638938 0 -0.00021706368888711102 -0.014932909643247862 0 -0.00012610183205089795 -0.014982985187168972 0 -0.00014070529967677515 -0.014975067906519469 0 -0.00012610183205089795 -0.014982985187168972 0 -0.00014070529967677515 -0.014975067906519469 0 -0.00010680393245427254 -0.014986983885726019 0 -4.3891033798622481e-05 -0.014975566787482793 0 -4.2336468532186236e-05 -0.014998817802979857 0 -0.00010680393245427254 -0.014986983885726019 0 -7.9692888426047487e-05 -0.014982135544088141 0 -0.00010564872085178897 -0.014989798259823916 0 -0.00014070529967677515 -0.014975067906519469 0 -0.00011649480291299428 -0.014984091770595882 0 -0.00010680393245427254 -0.014986983885726019 0 -0.00014070529967677515 -0.014975067906519469 0 -0.00012304973451847243 -0.014930805938204747 0 -0.00011649480291299428 -0.014984091770595882 0 -0.00021706368888711102 -0.014932909643247862 0 -0.00014070529967677515 -0.014975067906519469 0 -0.00012304973451847243 -0.014930805938204747 0 -0.00012304973451847243 -0.014930805938204747 0 -5.1457253276425751e-05 -0.014967264256804431 0 -0.00011649480291299428 -0.014984091770595882 0 -1.312471978870654e-05 -0.014987424501546002 0 -2.8523762025094368e-08 -0.014999999787818106 0 2.7338019069901497e-09 -0.014999968299225407 0 -3.1016059737777512e-05 -0.014977669073472604 0 -7.9692888426047487e-05 -0.014982135544088141 0 -1.312471978870654e-05 -0.014987424501546002 0 -2.8523762025094368e-08 -0.014999999787818106 0 -2.2628467128363857e-05 -0.014992759516321416 0 -2.2628467128363857e-05 -0.014992759516321416 0 -4.3891033798622481e-05 -0.014975566787482793 0 -4.2336468532186236e-05 -0.014998817802979857 0 -1.312471978870654e-05 -0.014987424501546002 0 -2.2628467128363857e-05 -0.014992759516321416 0 -4.3891033798622481e-05 -0.014975566787482793 0 -2.3771007139479127e-09 -0.014999916816985174 0 -2.8523762025094368e-08 -0.014999999787818106 0 -2.2191213005901096e-05 -0.014999342472039675 0 -2.2628467128363857e-05 -0.014992759516321416 0 -4.2336468532186236e-05 -0.014998817802979857 0 -2.2191213005901096e-05 -0.014999342472039675 0 -2.8523762025094368e-08 -0.014999999787818106 0 -2.2628467128363857e-05 -0.014992759516321416 0 -2.2191213005901096e-05 -0.014999342472039675 0 -4.2336468532186236e-05 -0.014998817802979857 0 -2.2191213005901096e-05 -0.014999342472039675 0 -3.7988131696821081e-05 -0.015015798204582433 0 -2.3560706075640956e-05 -0.01493996753560327 0 -2.2191213005901096e-05 -0.014999342472039675 0 -3.7988131696821081e-05 -0.015015798204582433 0 5.5756611037733425e-05 -0.015055353293953095 0 -0.00018546829298903887 -0.014161739445146671 0 -4.2336468532186236e-05 -0.014998817802979857 0 -3.7988131696821081e-05 -0.015015798204582433 0 -0.00011137634921272043 -0.01501224975893775 0 -0.00028557547233327686 -0.014482341273403936 0 -0.00018546829298903887 -0.014161739445146671 0 -0.00020690168090952625 -0.013889204280875575 0 -0.00042634031344227462 -0.013928493326638938 0 -0.00038605001453111978 -0.013586522662913993 0 -0.00012610183205089795 -0.014982985187168972 0 -0.00011137634921272043 -0.01501224975893775 0 -0.00010680393245427254 -0.014986983885726019 0 -4.2336468532186236e-05 -0.014998817802979857 0 -0.00011137634921272043 -0.01501224975893775 0 -0.00010680393245427254 -0.014986983885726019 0 0.00084981945298737041 -0.0059737309338058313 0 0.00042892201056928398 -0.0061236372449922378 0 0.00022719847036468515 -0.0058420939488474273 0 0.00091132176029943472 -0.0064318958419034428 0 0.00093942129688912241 -0.0054574711735939996 0 0.0016476209150281074 -0.0052319550004865266 0 0.0019617690431816283 -0.0054003039969654446 0 0.00145460812219862 -0.0052786245746888087 0 0.0016476209150281074 -0.0052319550004865266 0 0.0014716938114547082 -0.0049831996049996717 0 0.00145460812219862 -0.0052786245746888087 0 0.001660753272339168 -0.0048335840771187594 0 0.00048704897239750162 -0.0061151203298869901 0 0.0016476209150281074 -0.0052319550004865266 0 0.0018774252582724402 -0.005172324617974987 0 0.0017337976409694969 -0.0050592055203424946 0 0.0016476209150281074 -0.0052319550004865266 0 0.0018774252582724402 -0.005172324617974987 0 0.0019617690431816283 -0.0054003039969654446 0 0.00054039128863585186 -0.0072036863636254179 0 0.0001664485718368998 -0.0079783195966777656 0 0.0003152441606772778 -0.0081020718798076076 0 5.0087174688250617e-05 -0.0078718517274924821 0 6.3646046447619006e-05 -0.0081008112883784785 0 0.00054039128863585186 -0.0072036863636254179 0 0.00091132176029943472 -0.0064318958419034428 0 0.00028941631227336794 -0.0080433395887366237 0 0.00021370118286819382 -0.0078331387007059879 0 5.0087174688250617e-05 -0.0078718517274924821 0 0.00021370118286819382 -0.0078331387007059879 0 0.00012646299882399187 -0.0078179072649795494 0 5.0087174688250617e-05 -0.0078718517274924821 0 0.00091132176029943472 -0.0064318958419034428 0 0.00056502405487134186 -0.0067120632230850347 0 0.00084981945298737041 -0.0059737309338058313 0 0.00065762862429262112 -0.0062830970100056123 0 0.00042892201056928398 -0.0061236372449922378 0 0.00022424510704182373 -0.0078358647298919989 0 0.00012646299882399187 -0.0078179072649795494 0 0.00014126556366456458 -0.0075877276450814352 0 0.00091132176029943472 -0.0064318958419034428 0 0.0003474200871907907 -0.0079927160576818146 0 0.00084981945298737041 -0.0059737309338058313 0 0.001012548044227717 -0.0063366167399967425 0 0.00065762862429262112 -0.0062830970100056123 0 0.00065762862429262112 -0.0062830970100056123 0 0.00042892201056928398 -0.0061236372449922378 0 0.00037341463841788049 -0.0064051989716979547 0 0.00042892201056928398 -0.0061236372449922378 0 0.00037341463841788049 -0.0064051989716979547 0 0.00012908171864817414 -0.0061110784187117127 0 9.8081468147044471e-05 -0.0068134414540633407 0 0.00037341463841788049 -0.0064051989716979547 0 0.00073687744572422862 -0.0069069841529215996 0 9.8081468147044471e-05 -0.0068134414540633407 0 0.00037341463841788049 -0.0064051989716979547 0 0.00012908171864817414 -0.0061110784187117127 0 9.8081468147044471e-05 -0.0068134414540633407 0 1.7629549327046777e-06 -0.0079058631213609031 0 -4.7596345608424057e-07 -0.0071000454852300412 0 9.8081468147044471e-05 -0.0068134414540633407 0 1.7629549327046777e-06 -0.0079058631213609031 0 0.00073687744572422862 -0.0069069841529215996 0 8.3743907643724214e-08 -0.0079075087862189083 0 0.00037612698138825751 -0.0074626957738556966 0 -5.7803244855162994e-09 -0.007909211749126956 0 -5.0856733961846861e-05 -0.0082824521489882324 0 1.6413818978710293e-08 -0.0087611832256916621 0 0.0003474200871907907 -0.0079927160576818146 0 0.00037612698138825751 -0.0074626957738556966 0 2.0771001614088825e-05 -0.0081757804220596066 0 -5.0856733961846861e-05 -0.0082824521489882324 0 6.5028223435805964e-05 -0.0083456864970121603 0 0.00065762862429262112 -0.0062830970100056123 0 0.00037341463841788049 -0.0064051989716979547 0 0.00073687744572422862 -0.0069069841529215996 0 0.001012548044227717 -0.0063366167399967425 0 0.00065762862429262112 -0.0062830970100056123 0 0.00073687744572422862 -0.0069069841529215996 0 0.0003474200871907907 -0.0079927160576818146 0 0.00018928782297875194 -0.0089870282622084349 0 0.00038676557253712894 -0.0096545948395660199 0 0.00027509368910400006 -0.0093597541446517399 0 0.00010958834154481455 -0.0096772564118163713 0 0.00027509368910400006 -0.0093597541446517399 0 -6.3230561588526106e-05 -0.0093424921598017664 0 0.00010958834154481455 -0.00967725641181637