<?xml version="1.0"?>
<VTKFile type="UnstructuredGrid" version="0.1" byte_order="LittleEndian">
<UnstructuredGrid>
<Piece NumberOfPoints="31002" NumberOfCells="10845">
<Points>
<DataArray type="Float64" NumberOfComponents="3" format="ascii">
-0.5 -0.5 0 -0.48151076082361371 -0.48595296808925548 0 -0.5 -0.43933529444290198 0 -0.5 -0.5 0 -0.47148678034791708 -0.49680415014755352 0 -0.45198732224700489 -0.5 0 -0.48151076082361371 -0.48595296808925548 0 -0.47811262387597719 -0.45967441005418058 0 -0.47228957227868579 -0.47160151072803141 0 -0.48151076082361371 -0.48595296808925548 0 -0.47811262387597719 -0.45967441005418058 0 -0.47228957227868579 -0.47160151072803141 0 -0.48151076082361371 -0.48595296808925548 0 -0.46528977505179392 -0.47883365632809588 0 -0.5 -0.5 0 -0.47148678034791708 -0.49680415014755352 0 -0.48151076082361371 -0.48595296808925548 0 -0.47148678034791708 -0.49680415014755352 0 -0.48151076082361371 -0.48595296808925548 0 -0.46528977505179392 -0.47883365632809588 0 -0.47148678034791708 -0.49680415014755352 0 -0.45742666788856978 -0.48517724163720261 0 -0.46528977505179392 -0.47883365632809588 0 -0.47148678034791708 -0.49680415014755352 0 -0.45742666788856978 -0.48517724163720261 0 -0.44510661451528277 -0.49114606240659853 0 -0.44510661451528277 -0.49114606240659853 0 -0.45198732224700489 -0.5 0 -0.4175102280155607 -0.50000000000000111 0 -0.47148678034791708 -0.49680415014755352 0 -0.44510661451528277 -0.49114606240659853 0 -0.45198732224700489 -0.5 0 -0.47148678034791708 -0.49680415014755352 0 -0.44510661451528277 -0.49114606240659853 0 -0.46528977505179392 -0.47883365632809588 0 -0.44782350163928553 -0.47392509766656238 0 -0.46424512936335849 -0.46194500844059377 0 -0.47228957227868579 -0.47160151072803141 0 -0.46528977505179392 -0.47883365632809588 0 -0.46424512936335849 -0.46194500844059377 0 -0.45742666788856978 -0.48517724163720261 0 -0.46528977505179392 -0.47883365632809588 0 -0.44782350163928553 -0.47392509766656238 0 -0.44782350163928553 -0.47392509766656238 0 -0.44510661451528277 -0.49114606240659853 0 -0.43328919874247551 -0.47649739707579619 0 -0.45742666788856978 -0.48517724163720261 0 -0.44782350163928553 -0.47392509766656238 0 -0.44510661451528277 -0.49114606240659853 0 -0.44782350163928553 -0.47392509766656238 0 -0.43328919874247551 -0.47649739707579619 0 -0.4346689776767394 -0.4630732060703181 0 -0.44771418536577928 -0.45799830971730748 0 -0.45504656838262292 -0.44373378228418359 0 -0.43678674976689008 -0.44731445412487941 0 -0.44301089450225167 -0.43773481489950039 0 -0.45504656838262292 -0.44373378228418359 0 -0.43678674976689008 -0.44731445412487941 0 -0.44301089450225167 -0.43773481489950039 0 -0.43436225245760629 -0.43436846706116522 0 -0.43678674976689008 -0.44731445412487941 0 -0.44771418536577928 -0.45799830971730748 0 -0.4346689776767394 -0.4630732060703181 0 -0.43678674976689008 -0.44731445412487941 0 -0.44782350163928553 -0.47392509766656238 0 -0.44771418536577928 -0.45799830971730748 0 -0.4346689776767394 -0.4630732060703181 0 -0.44782350163928553 -0.47392509766656238 0 -0.4346689776767394 -0.4630732060703181 0 -0.44782350163928553 -0.47392509766656238 0 -0.44771418536577928 -0.45799830971730748 0 -0.46424512936335849 -0.46194500844059377 0 -0.44771418536577928 -0.45799830971730748 0 -0.46424512936335849 -0.46194500844059377 0 -0.45504656838262292 -0.44373378228418359 0 -0.46424512936335849 -0.46194500844059377 0 -0.46802970213757478 -0.44968726319951591 0 -0.45504656838262292 -0.44373378228418359 0 -0.46424512936335849 -0.46194500844059377 0 -0.45504656838262292 -0.44373378228418359 0 -0.46802970213757478 -0.44968726319951591 0 -0.45504656838262292 -0.44373378228418359 0 -0.47471448692834067 -0.43339585201910558 0 -0.47811262387597719 -0.45967441005418058 0 -0.47471448692834067 -0.43339585201910558 0 -0.46802970213757478 -0.44968726319951591 0 -0.47811262387597719 -0.45967441005418058 0 -0.47471448692834067 -0.43339585201910558 0 -0.48151076082361371 -0.48595296808925548 0 -0.47811262387597719 -0.45967441005418058 0 -0.5 -0.43933529444290198 0 -0.47811262387597719 -0.45967441005418058 0 -0.5 -0.43933529444290198 0 -0.47471448692834067 -0.43339585201910558 0 -0.47228957227868579 -0.47160151072803141 0 -0.46424512936335849 -0.46194500844059377 0 -0.47811262387597719 -0.45967441005418058 0 -0.46424512936335849 -0.46194500844059377 0 -0.46802970213757478 -0.44968726319951591 0 -0.47811262387597719 -0.45967441005418058 0 -0.5 -0.43933529444290198 0 -0.47131634998070432 -0.40711729398403063 0 -0.47471448692834067 -0.43339585201910558 0 -0.5 -0.43933529444290198 0 -0.47131634998070432 -0.40711729398403063 0 -0.5 -0.39297041269338617 0 -0.47131634998070432 -0.40711729398403063 0 -0.47471448692834067 -0.43339585201910558 0 -0.47131634998070432 -0.40711729398403063 0 -0.5 -0.39297041269338617 0 -0.46791821303306769 -0.38083873594895562 0 -0.5 -0.39297041269338617 0 -0.46791821303306769 -0.38083873594895562 0 -0.47911643867925868 -0.35535761501186852 0 -0.47131634998070432 -0.40711729398403063 0 -0.46791821303306769 -0.38083873594895562 0 -0.46791821303306769 -0.38083873594895562 0 -0.45079697851140332 -0.38962909827856279 0 -0.44600954305540619 -0.37828215798421561 0 -0.46791821303306769 -0.38083873594895562 0 -0.44600954305540619 -0.37828215798421561 0 -0.4508545684080375 -0.36594782411886789 0 -0.46791821303306769 -0.38083873594895562 0 -0.45860971845162363 -0.39830558916607672 0 -0.45079697851140332 -0.38962909827856279 0 -0.47131634998070432 -0.40711729398403063 0 -0.46791821303306769 -0.38083873594895562 0 -0.45860971845162363 -0.39830558916607672 0 -0.47131634998070432 -0.40711729398403063 0 -0.45860971845162363 -0.39830558916607672 0 -0.4534406868032495 -0.41059936641546502 0 -0.4471589905132633 -0.39962434207104358 0 -0.44224237122483118 -0.390953934311006 0 -0.43664944642115222 -0.40731132997136299 0 -0.4471589905132633 -0.39962434207104358 0 -0.4534406868032495 -0.41059936641546502 0 -0.43664944642115222 -0.40731132997136299 0 -0.45860971845162363 -0.39830558916607672 0 -0.4471589905132633 -0.39962434207104358 0 -0.4534406868032495 -0.41059936641546502 0 -0.4471589905132633 -0.39962434207104358 0 -0.44224237122483118 -0.390953934311006 0 -0.45079697851140332 -0.38962909827856279 0 -0.45860971845162363 -0.39830558916607672 0 -0.4471589905132633 -0.39962434207104358 0 -0.45079697851140332 -0.38962909827856279 0 -0.44224237122483118 -0.390953934311006 0 -0.45079697851140332 -0.38962909827856279 0 -0.44600954305540619 -0.37828215798421561 0 -0.44224237122483118 -0.390953934311006 0 -0.44600954305540619 -0.37828215798421561 0 -0.43059689762293102 -0.37992274324984532 0 -0.45504656838262292 -0.44373378228418359 0 -0.47471448692834067 -0.43339585201910558 0 -0.4600732198993609 -0.42407377016611159 0 -0.45504656838262292 -0.44373378228418359 0 -0.4600732198993609 -0.42407377016611159 0 -0.44584800740188729 -0.42552255612777351 0 -0.47131634998070432 -0.40711729398403063 0 -0.4600732198993609 -0.42407377016611159 0 -0.4534406868032495 -0.41059936641546502 0 -0.47131634998070432 -0.40711729398403063 0 -0.47471448692834067 -0.43339585201910558 0 -0.4600732198993609 -0.42407377016611159 0 -0.43851799670713382 -0.4157667680450135 0 -0.44584800740188729 -0.42552255612777351 0 -0.43664944642115222 -0.40731132997136299 0 -0.4534406868032495 -0.41059936641546502 0 -0.44584800740188729 -0.42552255612777351 0 -0.43664944642115222 -0.40731132997136299 0 -0.4600732198993609 -0.42407377016611159 0 -0.4534406868032495 -0.41059936641546502 0 -0.44584800740188729 -0.42552255612777351 0 -0.44584800740188729 -0.42552255612777351 0 -0.43664944642115222 -0.40731132997136299 0 -0.43851799670713382 -0.4157667680450135 0 -0.43664944642115222 -0.40731132997136299 0 -0.43851799670713382 -0.4157667680450135 0 -0.44584800740188729 -0.42552255612777351 0 -0.43184961346180611 -0.42354009015530308 0 -0.45504656838262292 -0.44373378228418359 0 -0.44584800740188729 -0.42552255612777351 0 -0.44301089450225167 -0.43773481489950039 0 -0.45504656838262292 -0.44373378228418359 0 -0.44584800740188729 -0.42552255612777351 0 -0.44301089450225167 -0.43773481489950039 0 -0.44584800740188729 -0.42552255612777351 0 -0.43436225245760629 -0.43436846706116522 0 -0.43436225245760629 -0.43436846706116522 0 -0.42440804435841728 -0.43020935270746657 0 -0.42246852162415899 -0.44083731315358587 0 -0.42440804435841728 -0.43020935270746657 0 -0.43184961346180611 -0.42354009015530308 0 -0.41903151057635962 -0.42168652973888943 0 -0.44584800740188729 -0.42552255612777351 0 -0.43436225245760629 -0.43436846706116522 0 -0.43184961346180611 -0.42354009015530308 0 -0.43436225245760629 -0.43436846706116522 0 -0.42440804435841728 -0.43020935270746657 0 -0.43184961346180611 -0.42354009015530308 0 -0.43851799670713382 -0.4157667680450135 0 -0.43184961346180611 -0.42354009015530308 0 -0.42814992792232109 -0.41362380412717431 0 -0.43664944642115222 -0.40731132997136299 0 -0.42814992792232109 -0.41362380412717431 0 -0.42447514795651808 -0.40273017995059551 0 -0.43851799670713382 -0.4157667680450135 0 -0.43664944642115222 -0.40731132997136299 0 -0.42814992792232109 -0.41362380412717431 0 -0.43184961346180611 -0.42354009015530308 0 -0.42814992792232109 -0.41362380412717431 0 -0.41903151057635962 -0.42168652973888943 0 -0.42814992792232109 -0.41362380412717431 0 -0.41903151057635962 -0.42168652973888943 0 -0.4118441350607594 -0.40705581618646891 0 -0.42814992792232109 -0.41362380412717431 0 -0.4118441350607594 -0.40705581618646891 0 -0.42447514795651808 -0.40273017995059551 0 -0.41903151057635962 -0.42168652973888943 0 -0.4118441350607594 -0.40705581618646891 0 -0.40407452031221541 -0.42079739804836352 0 -0.4143283236721555 -0.43061436342838971 0 -0.4016819056908697 -0.43586035288859948 0 -0.40407452031221541 -0.42079739804836352 0 -0.41903151057635962 -0.42168652973888943 0 -0.4143283236721555 -0.43061436342838971 0 -0.40407452031221541 -0.42079739804836352 0 -0.4143283236721555 -0.43061436342838971 0 -0.4016819056908697 -0.43586035288859948 0 -
[...]
<PointData Scalars="" Vectors="displacement," Tensors="">
<DataArray type="Float64" Name="displacement" NumberOfComponents="3" format="ascii">
-0.044997837897039539 1.2787205382243423e-09 0 -0.044009342506918188 7.1659768723303531e-05 0 -0.044999879266606181 -8.999835297835494e-08 0 -0.044997837897039539 1.2787205382243423e-09 0 -0.042693042672562541 4.3618381881005986e-05 0 -0.040679389165518796 1.9948197641955771e-07 0 -0.043923883969836375 0.00013639024259460322 0 -0.043449812144044954 0.00027129935245941172 0 -0.042852070602677546 0.00020976025918644699 0 -0.044009342506918188 7.1659768723303531e-05 0 -0.042233753451769593 0.00043466392581552798 0 -0.042852070602677546 0.00020976025918644699 0 -0.044009342506918188 7.1659768723303531e-05 0 -0.04304998531674898 8.9119882865300857e-05 0 -0.044997837897039539 1.2787205382243423e-09 0 -0.042693042672562541 4.3618381881005986e-05 0 -0.044009342506918188 7.1659768723303531e-05 0 -0.042693042672562541 4.3618381881005986e-05 0 -0.044009342506918188 7.1659768723303531e-05 0 -0.04304998531674898 8.9119882865300857e-05 0 -0.042693042672562541 4.3618381881005986e-05 0 -0.042930255507630265 -3.4018054492796226e-05 0 -0.04304998531674898 8.9119882865300857e-05 0 -0.042693042672562541 4.3618381881005986e-05 0 -0.042930255507630265 -3.4018054492796226e-05 0 -0.043039338341055347 -0.0002477908250656225 0 -0.039820654040408077 -6.0139576593015299e-05 0 -0.040679389165518796 1.9948197641955771e-07 0 -0.037578114761082422 9.2670940508273572e-08 0 -0.042693042672562541 4.3618381881005986e-05 0 -0.039820654040408077 -6.0139576593015299e-05 0 -0.040679389165518796 1.9948197641955771e-07 0 -0.042356308559641148 -0.00011168455090122231 0 -0.041796924589484967 -0.00025801295886650704 0 -0.04304998531674898 8.9119882865300857e-05 0 -0.042567922113345057 -0.00028781534449822473 0 -0.042176491261714799 0.00034294266460831451 0 -0.042852070602677546 0.00020976025918644699 0 -0.04304998531674898 8.9119882865300857e-05 0 -0.042176491261714799 0.00034294266460831451 0 -0.042930255507630265 -3.4018054492796226e-05 0 -0.04304998531674898 8.9119882865300857e-05 0 -0.042567922113345057 -0.00028781534449822473 0 -0.042567922113345057 -0.00028781534449822473 0 -0.043039338341055347 -0.0002477908250656225 0 -0.042578793311404552 -0.00067822302456293094 0 -0.042930255507630265 -3.4018054492796226e-05 0 -0.042567922113345057 -0.00028781534449822473 0 -0.043039338341055347 -0.0002477908250656225 0 -0.042567922113345057 -0.00028781534449822473 0 -0.042578793311404552 -0.00067822302456293094 0 -0.04213269527378511 -0.00063834487896474116 0 -0.041435719733275485 -0.00029684330327192415 0 -0.04022669784111859 0.00028230517193305623 0 -0.04026902616156209 -0.00088657588096490358 0 -0.039609149901127967 -0.00048020716680462997 0 -0.04022669784111859 0.00028230517193305623 0 -0.04026902616156209 -0.00088657588096490358 0 -0.039609149901127967 -0.00048020716680462997 0 -0.039224831620168689 -0.00097132502109231592 0 -0.04026902616156209 -0.00088657588096490358 0 -0.041435719733275485 -0.00029684330327192415 0 -0.041634365729690967 -0.0011142449483979829 0 -0.04026902616156209 -0.00088657588096490358 0 -0.042567922113345057 -0.00028781534449822473 0 -0.041435719733275485 -0.00029684330327192415 0 -0.041634365729690967 -0.0011142449483979829 0 -0.042403947531987035 -0.00040426276624714035 0 -0.042065599641609358 -0.00063001361754609587 0 -0.042567922113345057 -0.00028781534449822473 0 -0.041435719733275485 -0.00029684330327192415 0 -0.042176491261714799 0.00034294266460831451 0 -0.041435719733275485 -0.00029684330327192415 0 -0.042176491261714799 0.00034294266460831451 0 -0.04022669784111859 0.00028230517193305623 0 -0.042176491261714799 0.00034294266460831451 0 -0.042398004557742619 0.00033950847080844955 0 -0.042522845248724496 0.00059730543690555569 0 -0.042031829617695866 0.0004097661820942508 0 -0.041354349456552461 0.00036164706950735575 0 -0.042398004557742619 0.00033950847080844955 0 -0.042522845248724496 0.00059730543690555569 0 -0.042787708601280047 4.6850212578490401e-05 0 -0.043449812144044954 0.00027129935245941172 0 -0.043871855322819904 0.00011594852062446638 0 -0.042398004557742619 0.00033950847080844955 0 -0.042233753451769593 0.00043466392581552798 0 -0.042787708601280047 4.6850212578490401e-05 0 -0.044009342506918188 7.1659768723303531e-05 0 -0.044582118609931651 0.0002325531945046037 0 -0.044999879266606181 -8.999835297835494e-08 0 -0.044582118609931651 0.0002325531945046037 0 -0.044999879266606181 -8.999835297835494e-08 0 -0.044947139118123564 0.00014074152999007337 0 -0.042852070602677546 0.00020976025918644699 0 -0.042176491261714799 0.00034294266460831451 0 -0.042233753451769593 0.00043466392581552798 0 -0.042176491261714799 0.00034294266460831451 0 -0.042398004557742619 0.00033950847080844955 0 -0.042233753451769593 0.00043466392581552798 0 -0.044999879266606181 -8.999835297835494e-08 0 -0.04496274716948117 8.2096611131243194e-05 0 -0.044947139118123564 0.00014074152999007337 0 -0.044999879266606181 -8.999835297835494e-08 0 -0.04496274716948117 8.2096611131243194e-05 0 -0.044999736463409573 1.5024217502788279e-07 0 -0.044354916437914456 4.2528648319296933e-05 0 -0.043871855322819904 0.00011594852062446638 0 -0.04496274716948117 8.2096611131243194e-05 0 -0.044999736463409573 1.5024217502788279e-07 0 -0.04478182804549817 0.00012161045554285678 0 -0.044999736463409573 1.5024217502788279e-07 0 -0.04478182804549817 0.00012161045554285678 0 -0.045004886937987425 4.1054237282487438e-05 0 -0.044354916437914456 4.2528648319296933e-05 0 -0.044760539697495903 0.00010928130252624841 0 -0.04478182804549817 0.00012161045554285678 0 -0.044349649332504619 0.00060848897434489342 0 -0.044642423350859342 0.00068863690061149745 0 -0.04478182804549817 0.00012161045554285678 0 -0.044642423350859342 0.00068863690061149745 0 -0.044897703571269737 0.00054014386162300578 0 -0.04478182804549817 0.00012161045554285678 0 -0.044070712070925507 0.00040150667486578873 0 -0.044349649332504619 0.00060848897434489342 0 -0.043732953973888544 -2.4951110358899569e-05 0 -0.04478182804549817 0.00012161045554285678 0 -0.044070712070925507 0.00040150667486578873 0 -0.043732953973888544 -2.4951110358899569e-05 0 -0.044070712070925507 0.00040150667486578873 0 -0.043619285293316594 0.00058285273610787476 0 -0.044008621901177436 0.0007383818346742868 0 -0.044275489095868481 0.00083045913424651719 0 -0.043749671891295493 0.0010730288651742345 0 -0.044008621901177436 0.0007383818346742868 0 -0.043619285293316594 0.00058285273610787476 0 -0.043749671891295493 0.0010730288651742345 0 -0.044070712070925507 0.00040150667486578873 0 -0.044008621901177436 0.0007383818346742868 0 -0.043619285293316594 0.00058285273610787476 0 -0.044008621901177436 0.0007383818346742868 0 -0.044275489095868481 0.00083045913424651719 0 -0.044349649332504619 0.00060848897434489342 0 -0.044070712070925507 0.00040150667486578873 0 -0.044008621901177436 0.0007383818346742868 0 -0.044349649332504619 0.00060848897434489342 0 -0.044275489095868481 0.00083045913424651719 0 -0.044349649332504619 0.00060848897434489342 0 -0.044642423350859342 0.00068863690061149745 0 -0.044275489095868481 0.00083045913424651719 0 -0.044642423350859342 0.00068863690061149745 0 -0.044578074208593381 0.0010518320170824365 0 -0.042522845248724496 0.00059730543690555569 0 -0.042787708601280047 4.6850212578490401e-05 0 -0.043127826862691745 0.00041652544085605858 0 -0.042522845248724496 0.00059730543690555569 0 -0.043127826862691745 0.00041652544085605858 0 -0.043093297532098007 0.00084453462878052046 0 -0.043732953973888544 -2.4951110358899569e-05 0 -0.043127826862691745 0.00041652544085605858 0 -0.043619285293316594 0.00058285273610787476 0 -0.043732953973888544 -2.4951110358899569e-05 0 -0.042787708601280047 4.6850212578490401e-05 0 -0.043127826862691745 0.00041652544085605858 0 -0.03834565935974172 -0.00080167640057418285 0 -0.038768300521527785 -0.00034395873026095848 0 -0.037972438802154201 -0.00095426168287163465 0 -0.043619285293316594 0.00058285273610787476 0 -0.043093297532098007 0.00084453462878052046 0 -0.043749671891295493 0.0010730288651742345 0 -0.043127826862691745 0.00041652544085605858 0 -0.043619285293316594 0.00058285273610787476 0 -0.043093297532098007 0.00084453462878052046 0 -0.041141797788392664 0.00033346495375369077 0 -0.039880791170391477 -0.00040337069763881776 0 -0.038253692184014865 -0.00080983422748682023 0 -0.039880791170391477 -0.00040337069763881776 0 -0.03834565935974172 -0.00080167640057418285 0 -0.038768300521527785 -0.00034395873026095848 0 -0.038624588270811881 -0.0010555585307268373 0 -0.041354349456552461 0.00036164706950735575 0 -0.041141797788392664 0.00033346495375369077 0 -0.039609149901127967 -0.00048020716680462997 0 -0.04022669784111859 0.00028230517193305623 0 -0.038768300521527785 -0.00034395873026095848 0 -0.039609149901127967 -0.00048020716680462997 0 -0.038768300521527785 -0.00034395873026095848 0 -0.039224831620168689 -0.00097132502109231592 0 -0.039224831620168689 -0.00097132502109231592 0 -0.038845098404791632 -0.0013265621082681398 0 -0.03931432107651902 -0.0015662190087368801 0 -0.038845098404791632 -0.0013265621082681398 0 -0.038624588270811881 -0.0010555585307268373 0 -0.038451639644217363 -0.0013518831767897145 0 -0.038768300521527785 -0.00034395873026095848 0 -0.039224831620168689 -0.00097132502109231592 0 -0.038624588270811881 -0.0010555585307268373 0 -0.039224831620168689 -0.00097132502109231592 0 -0.038845098404791632 -0.0013265621082681398 0 -0.038624588270811881 -0.0010555585307268373 0 -0.03834565935974172 -0.00080167640057418285 0 -0.038624588270811881 -0.0010555585307268373 0 -0.038292067981031144 -0.0011467163594982245 0 -0.038169421315180543 -0.00097895560715850977 0 -0.038292067981031144 -0.0011467163594982245 0 -0.038143341906613594 -0.0012033638086471903 0 -0.03834565935974172 -0.00080167640057418285 0 -0.038169421315180543 -0.00097895560715850977 0 -0.038292067981031144 -0.0011467163594982245 0 -0.038624588270811881 -0.0010555585307268373 0 -0.038292067981031144 -0.0011467163594982245 0 -0.038451639644217363 -0.0013518831767897145 0 -0.038292067981031144 -0.0011467163594982245 0 -0.038451639644217363 -0.0013518831767897145 0 -0.038110520271790127 -0.0013246082788696777 0 -0.038292067981031144 -0.0011467163594982245 0 -0.038110520271790127 -0.0013246082788696777 0 -0.038143341906613594 -0.0012033638086471903 0 -0.038451639644217363 -0.0013518831767897145 0 -0.038110520271790127 -0.0013246082788696777 0 -0.03819498273406275 -0.0014230556277268576 0 -0.038702985545022418 -0.0014809629270412746 0 -0.038610552599819763 -0.0015690471613277344 0 -0.03819498273406275 -0.0014230556277268576 0 -0.038451639644217363 -0.0013518831767897145 0 -0.038702985545022418 -0.0014809629270412746 0 -0.03819498273406275 -0.0014230556277268576 0 -0.038702985545022418 -0.0014809629270412746 0 -0.038610552599819763 -0.0015690471613277344 0 -0.03931432107651902 -0.0015662190087368801 0 -0.038845098404791632 -0.0013265621082681398 0 -0.038702985545022418 -0.0014809629270412746 0 -0.03931432107651902 -0.0015662190087368801 0 -0.038845098404791632 -0.0013265621082681398 0 -0.038451639644217363 -0.0013518831767897145 0 -0.038702985545022418 -0.0014809629270412746 0 -0.038213945837751402 -0.0012829018135714768 0 -0.038196709498791101 -0.0012410171937511647 0 -0.038283703409799343 -0.0012336699719337639 0 -0.038213945837751402 -0.0012829018135714768 0 -0.038138410675709368 -0.0012308074993083154 0 -0.038196709498791101 -0.0012410171937511647 0 -0.038169421315180543 -0.00097895560715850977 0 -0.038138410675709368 -0.0012308074993083154 0 -0.038143341906613594 -0.0012033638086471903 0 -0.044275489095868481 0.00083045913424651719 0 -0.043749671891295493 0.0010730288651742345 0 -0.044578074208593381 0.0010518320170824365 0 -0.039880791170391477 -0.00040337069763881776 0 -0.037569274708887171 -0.0014682179533190278 0 -0.038067864455212319 -0.0012073737355337518 0 -0.038213945837751402 -0.0012829018135714768 0 -0.038138410675709368 -0.0012308074993083154 0 -0.039880791170391477 -0.00040337069763881776 0 -0.041733938324698731 2.7268045510847986e-06 0 -0.038138410675709368 -0.0012308074993083154 0 -0.038143341906613594 -0.0012033638086471903 0 -0.038122359842141185 -0.0012450953188436055 0 -0.038110520271790127 -0.0013246082788696777 0 -0.038143341906613594 -0.0012033638086471903 0 -0.038122359842141185 -0.0012450953188436055 0 -0.038110520271790127 -0.0013246082788696777 0 -0.038114330853100495 -0.0012265642600097651 0 -0.038122359842141185 -0.0012450953188436055 0 -0.038138410675709368 -0.0012308074993083154 0 -0.038122359842141185 -0.0012450953188436055 0 -0.038196709498791101 -0.0012410171937511647 0 -0.038122359842141185 -0.0012450953188436055 0 -0.038180154675239115 -0.0012181666099010204 0 -0.038196709498791101 -0.0012410171937511647 0 -0.038114330853100495 -0.0012265642600097651 0 -0.038122359842141185 -0.0012450953188436055 0 -0.038180154675239115 -0.0012181666099010204 0 -0.038180154675239115 -0.0012181666099010204 0 -0.038196709498791101 -0.0012410171937511647 0 -0.038263543030854136 -0.0011956926966590422 0 -0.038180154675239115 -0.0012181666099010204 0 -0.03817379398491106 -0.001153692269567607 0 -0.038263543030854136 -0.0011956926966590422 0 -0.038196709498791101 -0.0012410171937511647 0 -0.038283703409799343 -0.0012336699719337639 0 -0.038263543030854136 -0.0011956926966590422 0 -0.03817379398491106 -0.001153692269567607 0 -0.038033863112860625 -0.0011672309123049482 0 -0.038119067196228588 -0.00076790050710180376 0 -0.03817379398491106 -0.001153692269567607 0 -0.038119067196228588 -0.00076790050710180376 0 -0.03832236223268437 -0.0011065797452562752 0 -0.03817379398491106 -0.001153692269567607 0 -0.038263543030854136 -0.0011956926966590422 0 -0.03832236223268437 -0.0011065797452562752 0 -0.038114330853100495 -0.0012265642600097651 0 -0.038180154675239115 -0.0012181666099010204 0 -0.03817379398491106 -0.001153692269567607 0 -0.038110520271790127 -0.0013246082788696777 0 -0.038033863112860625 -0.0011672309123049482 0 -0.037941200017122298 -0.0012714567932947971 0 -0.038114330853100495 -0.0012265642600097651 0 -0.03817379398491106 -0.001153692269567607 0 -0.038033863112860625 -0.0011672309123049482 0 -0.038110520271790127 -0.0013246082788696777 0 -0.038114330853100495 -0.0012265642600097651 0 -0.038033863112860625 -0.0011672309123049482 0 -0.038033863112860625 -0.0011672309123049482 0 -0.037886253608483009 -0.00099772881688780287 0 -0.037941200017122298 -0.0012714567932947971 0 -0.037886253608483009 -0.00099772881688780287 0 -0.038119067196228588 -0.00076790050710180376 0 -0.037758280204447506 -0.00055130877444824645 0 -0.038033863112860625 -0.0011672309123049482 0 -0.037886253608483009 -0.00099772881688780287 0 -0.038119067196228588 -0.00076790050710180376 0 -0.038119067196228588 -0.00076790050710180376 0 -0.037818631615063103 -0.00058422942135029137 0 -0.037987185751387313 -0.00070269825600338329 0 -0.038116274420289739 -0.00074459629083511612 0 -0.03806676066122127 -0.00081327932091450849 0 -0.037202172764336877 -0.0016210180731056243 0 -0.037571815668739426 -0.0010167889789878667 0 -0.038610552599819763 -0.0015690471613277344 0 -0.03819498273406275 -0.0014230556277268576 0 -0.037399120554092745 -0.0010806197712624637 0 -0.03819498273406275 -0.0014230556277268576 0 -0.037941200017122298 -0.0012714567932947971 0 -0.037399120554092745 -0.0010806197712624637 0 -0.038110520271790127 -0.0013246082788696777 0 -0.03819498273406275 -0.0014230556277268576 0 -0.037941200017122298 -0.0012714567932947971 0 -0.037886253608483009 -0.00099772881688780287 0 -0.037941200017122298 -0.0012714567932947971 0 -0.037399120554092745 -0.0010806197712624637 0 -0.037886253608483009 -0.00099772881688780287 0 -0.037399120554092745 -0.0010806197712624637 0 -0.037758280204447506 -0.00055130877444824645 0 -0.036177209447763703 -0.0016485085697111844 0 -0.037399120554092745 -0.0010806197712624637 0 -0.036024141562292097 -0.0010187203024639763 0 -0.037399120554092745 -0.0010806197712624637 0 -0.036024141562292097 -0.0010187203024639763 0 -0.036489081288422306 -0.00035169014867736278 0 -0.036024141562292097 -0.0010187203024639763 0 -0.035278808163241762 -0.0010947420529433594 0 -0.035274854576978425 -0.00067635731887203039 0 -0.036177209447763703 -0.0016485085697111844 0 -0.036024141562292097 -0.0010187203024639763 0 -0.035278808163241762 -0.0010947420529433594 0 -0.036177209447763703 -0.0016485085697111844 0 -0.035278808163241762 -0.0010947420529433594 0 -0.035418531471620711 -0.0016376193422707717 0 -0.035278808163241762 -0.0010947420529433594 0 -0.0349985368489436 -0.0014396972562372074 0 -0.035418531471620711 -0.0016376193422707717 0 -0.035278808163241762 -0.0010947420529433594 0 -0.034760022958135066 -0.00059389744225369419 0 -0.035274854576978425 -0.00067635731887203039 0 -0.035278808163241762 -0.0010947420529433594 0 -0.034760022958135066 -0.00059389744225369419 0 -0.03472685538302802 -0.00067464285876564414 0 -0.034760022958135066 -0.00059389744225369419 0 -0.034341808589222929 -0.00044411806702534265 0 -0.03472685538302802 -0.00067464285876564414 0 -0.034341808589222929 -0.00044411806702534265 0 -0.035500135416147036 -1.4111875978396252e-06 0 -0.033422129485829739 -1.1877928452015056e-06 0 -0.034341808589222929 -0.00044411806702534265 0 -0.035500135416147036 -1.4111875978396252e-06 0 -0.03472685538302802 -0.00067464285876564414 0 -0.035500135416147036 -1.4111875978396252e-06 0 -0.036005830449332497 -9.9689946769294406e-05 0 -0.037572677137469715 1.9567710498773927e-06 0 -0.035500135416147036 -1.4111875978396252e-06 0 -0.036005830449332497 -9.9689946769294406e-05 0 -0.03472685538302802 -0.00067464285876564414 0 -0.036005830449332497 -9.9689946769294406e-05 0 -0.03472685538302802 -0.00067464285876564414 0 -0.035879804579917032 0.00053963812000847955 0 -0.035278808163241762 -0.0010947420529433594 0 -0.03472685538302802 -0.00067464285876564414 0 -0.0349985368489436 -0.0014396972562372074 0 -0.03472685538302802 -0.00067464285876564414 0 -0.0349985368489436 -0.0014396972562372074 0 -0.034413641737244857 -0.0019555372569700939 0 -0.033987239663515662 -0.00097715200547986137 0 -0.038059521644534362 -0.00039672422019322351 0 -0.03874500597075034 -0.001554010723018345 0 -0.038059521644534362 -0.00039672422019322351 0 -0.0349985368489436 -0.0014396972562372074 0 -0.035094326742819246 -0.0019837506673362607 0 -0.034413641737244857 -0.0019555372569700939 0 -0.038059521644534362 -0.00039672422019322351 0 -0.037575069218094011 1.3469609323519087e-07 0 -0.036005830449332497 -9.9689946769294406e-05 0 -0.035879804579917032 0.00053963812000847955 0 -0.037572677137469715 1.9567710498773927e-06 0 -0.039820654040408077 -6.0139576593015299e-05 0 -0.038339894816887446 9.1336614029577476e-05 0 -0.037578114761082422 9.2670940508273572e-08 0 -0.041796924589484967 -0.00025801295886650704 0 -0.038059521644534362 -0.00039672422019322351 0 -0.043039338341055347 -0.0002477908250656225 0 -0.042847444118795014 -0.0011629880601445892 0 -0.042578793311404552 -0.00067822302456293094 0 -0.042302508355316799 -0.001130689405189381 0 -0.042847444118795014 -0.0011629880601445892 0 -0.042578793311404552 -0.00067822302456293094 0 -0.042302508355316799 -0.001130689405189381 0 -0.042578793311404552 -0.00067822302456293094 0 -0.04213269527378511 -0.00063834487896474116 0 -0.041634365729690967 -0.0011142449483979829 0 -0.04026902616156209 -0.00088657588096490358 0 -0.040504573597083544 -0.0019019626128986746 0 -0.042302508355316799 -0.001130689405189381 0 -0.04213269527378511 -0.00063834487896474116 0 -0.041708860147573891 -0.0010985716549208964 0 -0.042065599641609358 -0.00063001361754609587 0 -0.038964084414186979 -0.0017720038428683414 0 -0.039224831620168689 -0.00097132502109231592 0 -0.04026902616156209 -0.00088657588096490358 0 -0.03931432107651902 -0.0015662190087368801 0 -0.039650620619663852 -0.0016939716980108948 0 -0.038964084414186979 -0.0017720038428683414 0 -0.04026902616156209 -0.00088657588096490358