<?xml version="1.0"?>
<VTKFile type="UnstructuredGrid" version="0.1" byte_order="LittleEndian">
<UnstructuredGrid>
<Piece NumberOfPoints="29440" NumberOfCells="10265">
<Points>
<DataArray type="Float64" NumberOfComponents="3" format="ascii">
-0.5 -0.5 0 -0.50000000000000366 -0.4758940323610672 0 -0.48154466283124719 -0.48914367115642382 0 -0.5 -0.5 0 -0.48154466283124719 -0.48914367115642382 0 -0.45308059359875369 -0.5 0 -0.50000000000000366 -0.4758940323610672 0 -0.47309805772623531 -0.48068065226462803 0 -0.49999999999999872 -0.46919826660640068 0 -0.50000000000000366 -0.4758940323610672 0 -0.47855779320775899 -0.46218565898811509 0 -0.50000000000000366 -0.4758940323610672 0 -0.47309805772623531 -0.48068065226462803 0 -0.48154466283124719 -0.48914367115642382 0 -0.47309805772623531 -0.48068065226462803 0 -0.46492821400685858 -0.46750138682341369 0 -0.47855779320775899 -0.46218565898811509 0 -0.50000000000000366 -0.4758940323610672 0 -0.47309805772623531 -0.48068065226462803 0 -0.47855779320775899 -0.46218565898811509 0 -0.47309805772623531 -0.48068065226462803 0 -0.48154466283124719 -0.48914367115642382 0 -0.45308059359875369 -0.5 0 -0.47309805772623531 -0.48068065226462803 0 -0.44619611545246668 -0.48546727216818808 0 -0.45308059359875369 -0.5 0 -0.44619611545246668 -0.48546727216818808 0 -0.45308059359875369 -0.5 0 -0.41929417317869822 -0.49025389207174819 0 -0.47309805772623531 -0.48068065226462803 0 -0.45275063711340169 -0.47156228136029071 0 -0.44619611545246668 -0.48546727216818808 0 -0.47309805772623531 -0.48068065226462803 0 -0.45275063711340169 -0.47156228136029071 0 -0.46492821400685858 -0.46750138682341369 0 -0.47309805772623531 -0.48068065226462803 0 -0.44619611545246668 -0.48546727216818808 0 -0.45275063711340169 -0.47156228136029071 0 -0.44619611545246668 -0.48546727216818808 0 -0.43819159672332431 -0.46546700730528529 0 -0.442857329869486 -0.45018237785839038 0 -0.45711558641551953 -0.45517305136982888 0 -0.44809898974577789 -0.43449369051384862 0 -0.442857329869486 -0.45018237785839038 0 -0.44809898974577789 -0.43449369051384862 0 -0.42802314659332252 -0.44559576224459868 0 -0.45275063711340169 -0.47156228136029071 0 -0.43819159672332431 -0.46546700730528529 0 -0.45711558641551953 -0.45517305136982888 0 -0.442857329869486 -0.45018237785839038 0 -0.43819159672332431 -0.46546700730528529 0 -0.45711558641551953 -0.45517305136982888 0 -0.45711558641551953 -0.45517305136982888 0 -0.47855779320775899 -0.46218565898811509 0 -0.46492821400685858 -0.46750138682341369 0 -0.45711558641551953 -0.45517305136982888 0 -0.47855779320775899 -0.46218565898811509 0 -0.45275063711340169 -0.47156228136029071 0 -0.46492821400685858 -0.46750138682341369 0 -0.45711558641551953 -0.45517305136982888 0 -0.45711558641551953 -0.45517305136982888 0 -0.46641851180287469 -0.43948650374523202 0 -0.47085226186845069 -0.45076649041963712 0 -0.45711558641551953 -0.45517305136982888 0 -0.46641851180287469 -0.43948650374523202 0 -0.44809898974577789 -0.43449369051384862 0 -0.47949069118603521 -0.45266957084107662 0 -0.48114519832851549 -0.46234632374884982 0 -0.49057259916425799 -0.43833936654671463 0 -0.46641851180287469 -0.43948650374523202 0 -0.47085226186845069 -0.45076649041963712 0 -0.47686723534684372 -0.44399729909913022 0 -0.46641851180287469 -0.43948650374523202 0 -0.47686723534684372 -0.44399729909913022 0 -0.47684523831963571 -0.43396858891284601 0 -0.47085226186845069 -0.45076649041963712 0 -0.47949069118603521 -0.45266957084107662 0 -0.47686723534684372 -0.44399729909913022 0 -0.47686723534684372 -0.44399729909913022 0 -0.49057259916425799 -0.43833936654671463 0 -0.47684523831963571 -0.43396858891284601 0 -0.47949069118603521 -0.45266957084107662 0 -0.47686723534684372 -0.44399729909913022 0 -0.49057259916425799 -0.43833936654671463 0 -0.45711558641551953 -0.45517305136982888 0 -0.47085226186845069 -0.45076649041963712 0 -0.47855779320775899 -0.46218565898811509 0 -0.47085226186845069 -0.45076649041963712 0 -0.47949069118603521 -0.45266957084107662 0 -0.47855779320775899 -0.46218565898811509 0 -0.47949069118603521 -0.45266957084107662 0 -0.48114519832851549 -0.46234632374884982 0 -0.47855779320775899 -0.46218565898811509 0 -0.49999999999999872 -0.46919826660640068 0 -0.47855779320775899 -0.46218565898811509 0 -0.49999999999999872 -0.46919826660640068 0 -0.49190426051394631 -0.4526111685174028 0 -0.5 -0.44176533797549 0 -0.49999999999999872 -0.46919826660640068 0 -0.48114519832851549 -0.46234632374884982 0 -0.47855779320775899 -0.46218565898811509 0 -0.49999999999999872 -0.46919826660640068 0 -0.48114519832851549 -0.46234632374884982 0 -0.49190426051394631 -0.4526111685174028 0 -0.48114519832851549 -0.46234632374884982 0 -0.49057259916425799 -0.43833936654671463 0 -0.49190426051394631 -0.4526111685174028 0 -0.48114519832851549 -0.46234632374884982 0 -0.49057259916425799 -0.43833936654671463 0 -0.49057259916425799 -0.43833936654671463 0 -0.49190426051394631 -0.4526111685174028 0 -0.5 -0.44176533797549 0 -0.49057259916425799 -0.43833936654671463 0 -0.50000000000000022 -0.41433240934457932 0 -0.48251161804909493 -0.4236611728041596 0 -0.49057259916425799 -0.43833936654671463 0 -0.5 -0.44176533797549 0 -0.50000000000000022 -0.41433240934457932 0 -0.49057259916425799 -0.43833936654671463 0 -0.50000000000000022 -0.41433240934457932 0 -0.50000000000000022 -0.41433240934457932 0 -0.48251161804909493 -0.4236611728041596 0 -0.47590467334390352 -0.40485073726313892 0 -0.48251161804909493 -0.4236611728041596 0 -0.47590467334390352 -0.40485073726313892 0 -0.46780167560229868 -0.42472239338016499 0 -0.47684523831963571 -0.43396858891284601 0 -0.48251161804909493 -0.4236611728041596 0 -0.46780167560229868 -0.42472239338016499 0 -0.46641851180287469 -0.43948650374523202 0 -0.47684523831963571 -0.43396858891284601 0 -0.46780167560229868 -0.42472239338016499 0 -0.49057259916425799 -0.43833936654671463 0 -0.47684523831963571 -0.43396858891284601 0 -0.48251161804909493 -0.4236611728041596 0 -0.50000000000000011 -0.37554881876466428 0 -0.5 -0.39494061405462177 0 -0.48386056071607231 -0.38524471640964308 0 -0.50000000000000011 -0.37554881876466428 0 -0.48386056071607231 -0.38524471640964308 0 -0.48648544733228999 -0.36594165214355451 0 -0.5 -0.39494061405462177 0 -0.47590467334390352 -0.40485073726313892 0 -0.48386056071607231 -0.38524471640964308 0 -0.50000000000000022 -0.41433240934457932 0 -0.5 -0.39494061405462177 0 -0.47590467334390352 -0.40485073726313892 0 -0.47590467334390352 -0.40485073726313892 0 -0.48386056071607231 -0.38524471640964308 0 -0.46818935695393332 -0.38711367415766551 0 -0.48386056071607231 -0.38524471640964308 0 -0.46818935695393332 -0.38711367415766551 0 -0.47132803578186899 -0.37107715116434858 0 -0.46818935695393332 -0.38711367415766551 0 -0.45664811881057049 -0.37758651015383887 0 -0.45522140894635049 -0.39537139458888509 0 -0.46818935695393332 -0.38711367415766551 0 -0.45664811881057049 -0.37758651015383887 0 -0.47132803578186899 -0.37107715116434858 0 -0.47590467334390352 -0.40485073726313892 0 -0.45522140894635049 -0.39537139458888509 0 -0.45122710705687058 -0.41172543127077571 0 -0.47590467334390352 -0.40485073726313892 0 -0.46818935695393332 -0.38711367415766551 0 -0.45522140894635049 -0.39537139458888509 0 -0.45522140894635049 -0.39537139458888509 0 -0.43833336119685778 -0.40082466232310898 0 -0.44466701861025743 -0.38564726223926549 0 -0.45522140894635049 -0.39537139458888509 0 -0.43833336119685778 -0.40082466232310898 0 -0.45122710705687058 -0.41172543127077571 0 -0.44466701861025743 -0.38564726223926549 0 -0.43002722768137319 -0.37679217182334201 0 -0.44570328837050199 -0.36708158431690108 0 -0.45664811881057049 -0.37758651015383887 0 -0.45522140894635049 -0.39537139458888509 0 -0.44466701861025743 -0.38564726223926549 0 -0.45664811881057049 -0.37758651015383887 0 -0.44466701861025743 -0.38564726223926549 0 -0.44570328837050199 -0.36708158431690108 0 -0.46780167560229868 -0.42472239338016499 0 -0.45122710705687058 -0.41172543127077571 0 -0.44809898974577789 -0.43449369051384862 0 -0.46641851180287469 -0.43948650374523202 0 -0.46780167560229868 -0.42472239338016499 0 -0.44809898974577789 -0.43449369051384862 0 -0.47590467334390352 -0.40485073726313892 0 -0.46780167560229868 -0.42472239338016499 0 -0.45122710705687058 -0.41172543127077571 0 -0.45122710705687058 -0.41172543127077571 0 -0.44809898974577789 -0.43449369051384862 0 -0.42726110625909908 -0.4158409881398068 0 -0.45122710705687058 -0.41172543127077571 0 -0.42726110625909908 -0.4158409881398068 0 -0.43833336119685778 -0.40082466232310898 0 -0.45122710705687058 -0.41172543127077571 0 -0.42726110625909908 -0.4158409881398068 0 -0.44809898974577789 -0.43449369051384862 0 -0.42726110625909908 -0.4158409881398068 0 -0.42802314659332252 -0.44559576224459868 0 -0.42726110625909908 -0.4158409881398068 0 -0.41297322678284942 -0.43414684501444312 0 -0.42802314659332252 -0.44559576224459868 0 -0.42726110625909908 -0.4158409881398068 0 -0.41052093588224842 -0.40333225794007471 0 -0.40329510546132769 -0.41995654500883789 0 -0.42726110625909908 -0.4158409881398068 0 -0.42500930015586202 -0.40088392304800607 0 -0.41052093588224842 -0.40333225794007471 0 -0.42726110625909908 -0.4158409881398068 0 -0.40329510546132769 -0.41995654500883789 0 -0.42726110625909908 -0.4158409881398068 0 -0.41297322678284942 -0.43414684501444312 0 -0.40329510546132769 -0.41995654500883789 0 -0.44466701861025743 -0.38564726223926549 0 -0.43002722768137319 -0.37679217182334201 0 -0.42737866528993668 -0.38851991802351837 0 -0.43002722768137319 -0.37679217182334201 0 -0.42737866528993668 -0.38851991802351837 0 -0.41139876677512383 -0.37874811591356711 0 -0.43002722768137319 -0.37679217182334201 0 -0.42737866528993668 -0.38851991802351837 0 -0.44466701861025743 -0.38564726223926549 0 -0.43002722768137319 -0.37679217182334201 0 -0.43833336119685778 -0.40082466232310898 0 -0.44466701861025743 -0.38564726223926549 0 -0.42737866528993668 -0.38851991802351837 0 -0.42737866528993668 -0.38851991
[...]
<PointData Scalars="" Vectors="displacement," Tensors="">
<DataArray type="Float64" Name="displacement" NumberOfComponents="3" format="ascii">
4.202313991715564e-07 0.024998318461923533 0 -6.9526853492931418e-07 0.023797559149838846 0 6.1154878550193726e-05 0.024848108450710303 0 4.202313991715564e-07 0.024998318461923533 0 6.1154878550193726e-05 0.024848108450710303 0 -2.8036170032731016e-08 0.025000434473005931 0 -2.1153442612546685e-08 0.023794803200268874 0 3.032415738414065e-06 0.023903850777300614 0 7.2871322250258828e-07 0.023463127366890369 0 -6.1431399960865749e-07 0.023791275404186515 0 0.00032472760039941169 0.022963626780651947 0 -6.9526853492931418e-07 0.023797559149838846 0 -8.4650318133901178e-05 0.024994902369081116 0 6.1154878550193726e-05 0.024848108450710303 0 1.3826268860748346e-05 0.022778238273261 0 0.00015286602914236624 0.022710369282056209 0 0.00032472760039941169 0.022963626780651947 0 -6.1431399960865749e-07 0.023791275404186515 0 1.3826268860748346e-05 0.022778238273261 0 0.00032472760039941169 0.022963626780651947 0 -8.4650318133901178e-05 0.024994902369081116 0 6.1154878550193726e-05 0.024848108450710303 0 -2.8036170032731016e-08 0.025000434473005931 0 -8.4650318133901178e-05 0.024994902369081116 0 7.6880425421535059e-05 0.024950519502696073 0 -2.8036170032731016e-08 0.025000434473005931 0 7.6880425421535059e-05 0.024950519502696073 0 -2.8036170032731016e-08 0.025000434473005931 0 0.00018981725590516192 0.024742235023426481 0 1.3826268860748346e-05 0.022778238273261 0 0.00021611427748774724 0.022838552038925628 0 0.00048233697150593374 0.023071950554851874 0 1.3826268860748346e-05 0.022778238273261 0 0.00021611427748774724 0.022838552038925628 0 0.00015286602914236624 0.022710369282056209 0 3.032415738414065e-06 0.023903850777300614 0 0.00022946404454622462 0.024030264890211182 0 0.00021611427748774724 0.022838552038925628 0 0.00048233697150593374 0.023071950554851874 0 7.0305379690027369e-05 0.023275011676023426 0 -5.0812780481295485e-05 0.022841653604055472 0 0.00011828731908463416 0.02243386431595136 0 -0.00030923989820092775 0.022285864603833281 0 -5.0812780481295485e-05 0.022841653604055472 0 -0.00030923989820092775 0.022285864603833281 0 -0.00017632305940534611 0.023378635395376313 0 0.00021611427748774724 0.022838552038925628 0 7.0305379690027369e-05 0.023275011676023426 0 0.00011828731908463416 0.02243386431595136 0 -5.0812780481295485e-05 0.022841653604055472 0 7.0305379690027369e-05 0.023275011676023426 0 0.00011828731908463416 0.02243386431595136 0 0.00012177884095347031 0.022465820186086938 0 0.00019276132422019082 0.022436875611142926 0 0.00015286602914236624 0.022710369282056209 0 0.00011828731908463416 0.02243386431595136 0 0.00032472760039941169 0.022963626780651947 0 0.00021611427748774724 0.022838552038925628 0 0.00015286602914236624 0.022710369282056209 0 0.00011828731908463416 0.02243386431595136 0 0.00011828731908463416 0.02243386431595136 0 -0.00015369804032366831 0.021786892725826928 0 5.1582654157598756e-06 0.021900544843846587 0 0.00011828731908463416 0.02243386431595136 0 -0.00015369804032366831 0.021786892725826928 0 -0.00030923989820092775 0.022285864603833281 0 3.0291436414123625e-05 0.021767073406389101 0 8.4120848991576735e-05 0.022029809146288389 0 -9.6174983647856477e-05 0.02122732054874826 0 -0.00015369804032366831 0.021786892725826928 0 5.1582654157598756e-06 0.021900544843846587 0 -6.5572311474771636e-05 0.021632128576371493 0 -0.00015369804032366831 0.021786892725826928 0 -6.5572311474771636e-05 0.021632128576371493 0 -0.00017881065250028403 0.021415901072277328 0 5.1582654157598756e-06 0.021900544843846587 0 3.0291436414123625e-05 0.021767073406389101 0 -6.5572311474771636e-05 0.021632128576371493 0 -6.5572311474771636e-05 0.021632128576371493 0 -9.6174983647856477e-05 0.02122732054874826 0 -0.00017881065250028403 0.021415901072277328 0 3.0291436414123625e-05 0.021767073406389101 0 -6.5572311474771636e-05 0.021632128576371493 0 -9.6174983647856477e-05 0.02122732054874826 0 0.00011828731908463416 0.02243386431595136 0 5.1582654157598756e-06 0.021900544843846587 0 6.6115239050367879e-05 0.021842635892051987 0 5.1582654157598756e-06 0.021900544843846587 0 3.0291436414123625e-05 0.021767073406389101 0 6.6115239050367879e-05 0.021842635892051987 0 3.0291436414123625e-05 0.021767073406389101 0 8.4120848991576735e-05 0.022029809146288389 0 6.6115239050367879e-05 0.021842635892051987 0 6.9731169665465249e-08 0.023459489428498428 0 0.00019276132422019082 0.022436875611142926 0 -9.289873800801492e-07 0.023457815143872417 0 9.4640390236326721e-05 0.022393231519380483 0 8.8763321426813185e-07 0.022088767865435732 0 -9.289873800801492e-07 0.023457815143872417 0 8.4120848991576735e-05 0.022029809146288389 0 6.6115239050367879e-05 0.021842635892051987 0 -9.289873800801492e-07 0.023457815143872417 0 8.4120848991576735e-05 0.022029809146288389 0 9.4640390236326721e-05 0.022393231519380483 0 8.4120848991576735e-05 0.022029809146288389 0 5.2957402283560835e-05 0.022186835778924215 0 9.4640390236326721e-05 0.022393231519380483 0 2.7858798179394215e-05 0.021969823702076206 0 1.0592876711851963e-05 0.021657884693261947 0 5.2957402283560835e-05 0.022186835778924215 0 9.4640390236326721e-05 0.022393231519380483 0 8.8763321426813185e-07 0.022088767865435732 0 -9.6174983647856477e-05 0.02122732054874826 0 -5.8057996045984258e-07 0.020715580845221373 0 -0.00018103876750941159 0.021115300716409862 0 5.2957402283560835e-05 0.022186835778924215 0 8.8763321426813185e-07 0.022088767865435732 0 -6.1743235898002842e-07 0.020717148223599293 0 1.0592876711851963e-05 0.021657884693261947 0 9.5815600249875666e-08 0.020717073682623825 0 -5.8057996045984258e-07 0.020715580845221373 0 -0.00018103876750941159 0.021115300716409862 0 -0.00019418996012974534 0.020843528662698643 0 -0.00018103876750941159 0.021115300716409862 0 -0.00019418996012974534 0.020843528662698643 0 -0.00035856798350703759 0.021394054038979531 0 -0.00017881065250028403 0.021415901072277328 0 -0.00018103876750941159 0.021115300716409862 0 -0.00035856798350703759 0.021394054038979531 0 -0.00015369804032366831 0.021786892725826928 0 -0.00017881065250028403 0.021415901072277328 0 -0.00035856798350703759 0.021394054038979531 0 -9.6174983647856477e-05 0.02122732054874826 0 -0.00017881065250028403 0.021415901072277328 0 -0.00018103876750941159 0.021115300716409862 0 -1.6304779547323777e-06 0.018779917468867476 0 5.37052278010501e-07 0.019747376537058377 0 -0.00010073437134240241 0.020089908637842747 0 -1.6304779547323777e-06 0.018779917468867476 0 -0.00010073437134240241 0.020089908637842747 0 -0.00058225350198203582 0.019743583384848995 0 5.37052278010501e-07 0.019747376537058377 0 -0.00019418996012974534 0.020843528662698643 0 -0.00010073437134240241 0.020089908637842747 0 -5.8057996045984258e-07 0.020715580845221373 0 5.37052278010501e-07 0.019747376537058377 0 -0.00019418996012974534 0.020843528662698643 0 -0.00019418996012974534 0.020843528662698643 0 -0.00010073437134240241 0.020089908637842747 0 -0.00020851607114571099 0.02066172411124256 0 -0.00010073437134240241 0.020089908637842747 0 -0.00020851607114571099 0.02066172411124256 0 -0.00045601025349943929 0.02034765168953255 0 -0.00020851607114571099 0.02066172411124256 0 -0.00025041429786483064 0.020732813454522599 0 -0.00027234583410093915 0.021071422682436679 0 -0.00020851607114571099 0.02066172411124256 0 -0.00025041429786483064 0.020732813454522599 0 -0.00045601025349943929 0.02034765168953255 0 -0.00019418996012974534 0.020843528662698643 0 -0.00027234583410093915 0.021071422682436679 0 -0.00085305132104992098 0.02150986975560637 0 -0.00019418996012974534 0.020843528662698643 0 -0.00020851607114571099 0.02066172411124256 0 -0.00027234583410093915 0.021071422682436679 0 -0.00027234583410093915 0.021071422682436679 0 -0.00051312343452180492 0.020523801531431671 0 3.487412894685913e-05 0.02082619911802101 0 -0.00027234583410093915 0.021071422682436679 0 -0.00051312343452180492 0.020523801531431671 0 -0.00085305132104992098 0.02150986975560637 0 3.487412894685913e-05 0.02082619911802101 0 -0.00024129910670583947 0.021276663951781561 0 -0.0005224815133635898 0.020880197263361551 0 -0.00025041429786483064 0.020732813454522599 0 -0.00027234583410093915 0.021071422682436679 0 3.487412894685913e-05 0.02082619911802101 0 -0.00025041429786483064 0.020732813454522599 0 3.487412894685913e-05 0.02082619911802101 0 -0.0005224815133635898 0.020880197263361551 0 -0.00035856798350703759 0.021394054038979531 0 -0.00085305132104992098 0.02150986975560637 0 -0.00030923989820092775 0.022285864603833281 0 -0.00015369804032366831 0.021786892725826928 0 -0.00035856798350703759 0.021394054038979531 0 -0.00030923989820092775 0.022285864603833281 0 -0.00019418996012974534 0.020843528662698643 0 -0.00035856798350703759 0.021394054038979531 0 -0.00085305132104992098 0.02150986975560637 0 -0.00085305132104992098 0.02150986975560637 0 -0.00030923989820092775 0.022285864603833281 0 -0.0010115945422883678 0.023143382246811544 0 -0.00097936332390426172 0.021510781425915591 0 -0.0013884796992514742 0.021348741311692874 0 -0.00051312343452180492 0.020523801531431671 0 -0.00085305132104992098 0.02150986975560637 0 -0.0018717801866175265 0.019627260271382882 0 -0.00030923989820092775 0.022285864603833281 0 -0.0010115945422883678 0.023143382246811544 0 -0.00017632305940534611 0.023378635395376313 0 -0.0010115945422883678 0.023143382246811544 0 -0.00048508272301514641 0.023818689204365813 0 -0.00017632305940534611 0.023378635395376313 0 -0.0018717801866175265 0.019627260271382882 0 -0.00087112430999643719 0.017980940357136647 0 -0.0024409646523685415 0.017189056464674609 0 -0.0018717801866175265 0.019627260271382882 0 -0.00061942837026258968 0.019398661724094955 0 -0.00087112430999643719 0.017980940357136647 0 -0.0013884796992514742 0.021348741311692874 0 -0.0016075166445982008 0.020620596062133435 0 -0.0010115945422883678 0.023143382246811544 0 -0.00048508272301514641 0.023818689204365813 0 -0.00084002745219446614 0.024067164532979531 0 3.487412894685913e-05 0.02082619911802101 0 0.00090409919186041526 0.019829264889772862 0 0.00026968596007458724 0.019652962799140406 0 0.0014960708463210143 0.019892131729184456 0 0.00026968596007458724 0.019652962799140406 0 0.0013387509990162826 0.01805979865097251 0 0.00012103483892612837 0.016980255871195865 0 0.00091700296759097608 0.019102192392218661 0 -0.00041544757133581177 0.021612058013459237 0 0.00012103483892612837 0.016980255871195865 0 -0.00051312343452180492 0.020523801531431671 0 3.487412894685913e-05 0.02082619911802101 0 0.00026968596007458724 0.019652962799140406 0 0.00026968596007458724 0.019652962799140406 0 -0.00061942837026258968 0.019398661724094955 0 0.00021479559248536884 0.018425052185618539 0 -0.00051312343452180492 0.020523801531431671 0 0.00026968596007458724 0.019652962799140406 0 -0.00061942837026258968 0.019398661724094955 0 -0.00051312343452180492 0.020523801531431671 0 -0.0018717801866175265 0.019627260271382882 0 -0.00061942837026258968 0.019398661724094955 0 -0.00087112430999643719 0.017980940357136647 0 0.00021479559248536884 0.018425052185618539 0 0.00060204839563092027 0.016409307686471027 0 -0.00061942837026258968 0.019398661724094955 0 -0.00087112430999643719 0.017980940357136647 0 0.00021479559248536884 0.018425052185618539 0 0.00021479559248536884 0.018425052185618539 0 0.0013387509990162826 0.01805979865097251 0 0.00060204839563092027 0.016409307686471027 0 0.00026968596007458724 0.019652962799140406 0 0.00021479559248536884 0.018425052185618539 0 0.0013387509990162826 0.01805979865097251 0 0.0013387509990162826 0.01805979865097251 0 0.00060204839563092027 0.016409307686471027 0 0.0029973662123747801 0.017366707869499818 0 0.00060204839563092027 0.016409307686471027 0 -0.0011163758404183299 0.016712721973457079 0 -0.0017703911755696257 0.015279160279988385 0 -0.00087112430999643719 0.017980940357136647 0 0.00060204839563092027 0.016409307686471027 0 -0.0011163758404183299 0.016712721973457079 0 -0.0013386734218701598 0.01508864541584066 0 -0.0015864817958579408 0.0148543203699095 0 -0.0017703911755696257 0.015279160279988385 0 -0.00020608568350331783 0.016142040579366974 0 -0.0018207971042793749 0.015160408597573793 0 -0.0013386734218701598 0.01508864541584066 0 -0.0015864817958579408 0.0148543203699095 0 -0.001300211891790097 0.014712041682075594 0 -0.0013386734218701598 0.01508864541584066 0 -0.001300211891790097 0.014712041682075594 0 -0.00095760956684484255 0.01489230798614424 0 -0.0016075166445982008 0.020620596062133435 0 -0.0014539107546332759 0.019794985544544886 0 -0.00084002745219446614 0.024067164532979531 0 -0.00055264836282199238 0.024501464137928562 0 -0.00038574763032774554 0.024296911354802098 0 -0.00048508272301514641 0.023818689204365813 0 -0.00084002745219446614 0.024067164532979531 0 -0.00038574763032774554 0.024296911354802098 0 -0.00087112430999643719 0.017980940357136647 0 -0.0011163758404183299 0.016712721973457079 0 -0.0024409646523685415 0.017189056464674609 0 -0.0011163758404183299 0.016712721973457079 0 -0.0024409646523685415 0.017189056464674609 0 -0.0017703911755696257 0.015279160279988385 0 -0.0024409646523685415 0.017189056464674609 0 -0.0017703911755696257 0.015279160279988385 0 -0.0023708081925304619 0.015008915157168823 0 -0.0015864817958579408 0.0148543203699095 0 -0.0017703911755696257 0.015279160279988385 0 -0.0019579495294591099 0.014784127618941026 0 -0.0017703911755696257 0.015279160279988385 0 -0.0023708081925304619 0.015008915157168823 0 -0.0019579495294591099 0.014784127618941026 0 -0.00055264836282199238 0.024501464137928562 0 -0.000334308972926102 0.024481675815605293 0 -0.00038574763032774554 0.024296911354802098 0 -0.00055264836282199238 0.024501464137928562 0 -0.000334308972926102 0.024481675815605293 0 -0.00035192204550419677 0.024575292184436961 0 -2.8036170032731016e-08 0.025000434473005931 0 8.119909650463532e-07 0.024997088028113096 0 0.00018981725590516192 0.024742235023426481 0 -0.000334308972926102 0.024481675815605293 0 -0.00038574763032774554 0.024296911354802098 0 -0.00010588349508172403 0.024420287817422299 0 -0.000334308972926102 0.024481675815605293 0 -0.00010588349508172403 0.024420287817422299 0 -0.00019034511739665554 0.02458715209112728 0 -0.00038574763032774554 0.024296911354802098 0 -0.00010588349508172403 0.024420287817422299 0 -0.00016776106553438634 0.02403090920155217 0 -0.00048508272301514641 0.023818689204365813 0 -0.00038574763032774554 0.024296911354802098 0 -0.00016776106553438634 0.02403090920155217 0 -0.00010588349508172403 0.024420287817422299 0 8.3482343999536035e-05 0.024648681295427313 0 2.9018173785147093e-05 0.02411388041574802 0 -0.00010588349508172403 0.024420287817422299 0 -3.9521692645961582e-06 0.024617120034026732 0 8.3482343999536035e-05 0.024648681295427313 0 -0.00010588349508172403 0.024420287817422299 0 -3.9521692645961582e-06 0.024617120034026732 0 -0.00019034511739665554 0.02458715209112728 0 -3.9521692645961582e-06 0.024617120034026732 0 8.119909650463532e-07 0.024997088028113096 0 1.5543653955558669e-06 0.024663401592112374 0 -3.9521692645961582e-06 0.024617120034026732 0 8.119909650463532e-07 0.024997088028113096 0 8.3482343999536035e-05 0.024648681295427313 0 1.6108540488428689e-08 0.024999912536107682 0 -1.136281782453018e-06 0.024822684604206842 0 8.119909650463532e-07 0.024997088028113096 0 8.3482343999536035e-05 0.024648681295427313 0 0.00018981725590516192 0.024742235023426481 0 8.3482343999536035e-05 0.024648681295427313 0 0.00018981725590516192 0.024742235023426481 0 2.9018173785147093e-05 0.02411388041574802 0 0.00022946404454622462 0.024030264890211182 0 0.00022341270543991393 0.024649402316425071 0 7.0305379690027369e-05 0.023275011676023426 0 0.00018981725590516192 0.024742235023426481 0 2.9018173785147093e-05 0.02411388041574802 0 0.00048233697150593374 0.023071950554851874 0 7.0305379690027369e-05 0.023275011676023426 0 0.00018981725590516192 0.024742235023426481 0 -5.0812780481295485e-05 0.022841653604055472 0 7.0305379690027369e-05 0.023275011676023426 0 -0.00017632305940534611 0.023378635395376313 0 7.0305379690027369e-05 0.023275011676023426 0 -0.00017632305940534611 0.023378635395376313 0 2.9018173785147093e-05 0.02411388041574802 0 -0.00048508272301514641 0.023818689204365813 0 -0.00017632305940534611 0.023378635395376313 0 -0.00016776106553438634 0.02403090920155217 0 -0.00010588349508172403 0.024420287817422299 0 -0.00016776106553438634 0.02403090920155217 0 2.9018173785147093e-05 0.02411388041574802 0 -0.00017632305940534611 0.023378635395376313 0 -0.00016776106553438634 0.02403090920155217 0 2.9018173785147093e-05 0.02411388041574802 0 -0.0015395056540376667 0.010396465673613577 0 -0.001568598855080413 0.010418977219921579 0 -0.001611689752564747 0.010421109299776396 0 -0.0015776117298704579 0.010439588583385905 0 -0.001568598855080413 0.010418977219921579 0 -0.001611689752564747 0.010421109299776396 0 -0.0023901680351944357 0.0098016880072836036 0 -0.0016045129261860623 0.010828577643209044 0 -0.0012750040386282286 0.0097206845073665969 0 -0.0019217267266789719 0.010250268958867605 0 -0.0011292979448064868 0.011679343664973254 0 -0.0016127359581169448 0.010472929288237525 0 -0.00155004863468316 0.010448808656737118 0 -0.001568598855080413 0.010418977219921579 0 -0.0016127359581169448 0.010472929288237525 0 -0.00155004863468316 0.010448808656737118 0 -0.0015320944883075423 0.010511487064801742 0 -0.0014896183006440629 0.010462210330517143 0 -0.0014482850373943412 0.010502023783862139 0 -0.0015320944883075423 0.010511487064801742 0 -0.00155004863468316 0.010448808656737118 0 -0.0014896183006440629 0.010462210330517143 0 -0.0015320944883075423 0.010511487064801742 0 -0.00155004863468316 0.010448808656737118 0 -0.0014896183006440629 0.010462210330517143 0 -0.0015395056540376667 0.010396465673613577 0 -0.0019217267266789719 0.010250268958867605 0 -0.0017448301309147939 0.010365056210071841 0 -0.00155004863468316 0.010448808656737118 0 -0.0015395056540376667 0.010396465673613577 0 -0.001568598855080413 0.010418977219921579 0 -0.00019989285213509102 0.01501190453366014 0 -0.00023799660389465973 0.01484557108238976 0 -5.4440209410515066e-05 0.014920465043716781 0 -0.00019989285213509102 0.01501190453366014 0 -0.00023799660389465973 0.01484557108238976 0 -0.00055979945382201386 0.014970945441620351 0 -0.00023799660389465973 0.01484557108238976 0 -0.00055979945382201386 0.014970945441620351 0 -0.0005067047251108434 0.014788729227065235 0 -0.00081896014874822314 0.012703690424674612 0 -0.0011292979448064868 0.011679343664973254 0 -0.00055979945382201386 0.014970945441620351 0 -0.0005067047251108434 0.014788729227065235 0 -0.00070803415828775147 0.01478016043654776 0 -0.00018517165855876113 0.013830050943958637 0 -0.00055132960962357138 0.013443357364241385 0 -0.0005067047251108434 0.014788729227065235 0 -0.00048508030892659089 0.014572492784420178 0 -0.00070803415828775147 0.01478016043654776 0 -0.00023799660389465973 0.01484557108238976 0 -0.0005067047251108434 0.014788729227065235 0 -0.00048508030892659089 0.014572492784420178 0 8.1872985068780538e-08 0.012658378057151254 0 4.6215276971993033e-05 0.012950548532686864 0 -0.0002194957373804453 0.012993601379059331 0 8.1872985068780538e-08 0.012658378057151254 0 4.6215276971993033e-05 0.012950548532686864 0 -8.4792809690396285e-08 0.014008359030021799 0 -0.00018517165855876113 0.013830050943958637 0 1.0162353435413263e-07 0.014010327195620145 0 -0.00048508030892659089 0.014572492784420178 0 -4.3171909154891588e-07 0.014012661271125599 0 -8.4090060317599402e-05 0.014680884868308944 0 -0.00023799660389465973 0.01484557108238976 0 -0.00048508030892659089 0.014572492784420178 0 -8.4090060317599402e-05 0.014680884868308944 0 -0.00023799660389465973 0.01484557108238976 0 -8.4090060317599402e-05 0.014680884868308944 0 -3.6565252354636394e-06 0.014839572870065539 0 -3.6565252354636394e-06 0.014839572870065539 0 8.9589889433836964e-05 0.014809113559411013 0 1.786258699