<?xml version="1.0"?>
<VTKFile type="UnstructuredGrid" version="0.1" byte_order="LittleEndian">
<UnstructuredGrid>
<Piece NumberOfPoints="29440" NumberOfCells="10265">
<Points>
<DataArray type="Float64" NumberOfComponents="3" format="ascii">
-0.5 -0.5 0 -0.50000000000000366 -0.4758940323610672 0 -0.48154466283124719 -0.48914367115642382 0 -0.5 -0.5 0 -0.48154466283124719 -0.48914367115642382 0 -0.45308059359875369 -0.5 0 -0.50000000000000366 -0.4758940323610672 0 -0.47309805772623531 -0.48068065226462803 0 -0.49999999999999872 -0.46919826660640068 0 -0.50000000000000366 -0.4758940323610672 0 -0.47855779320775899 -0.46218565898811509 0 -0.50000000000000366 -0.4758940323610672 0 -0.47309805772623531 -0.48068065226462803 0 -0.48154466283124719 -0.48914367115642382 0 -0.47309805772623531 -0.48068065226462803 0 -0.46492821400685858 -0.46750138682341369 0 -0.47855779320775899 -0.46218565898811509 0 -0.50000000000000366 -0.4758940323610672 0 -0.47309805772623531 -0.48068065226462803 0 -0.47855779320775899 -0.46218565898811509 0 -0.47309805772623531 -0.48068065226462803 0 -0.48154466283124719 -0.48914367115642382 0 -0.45308059359875369 -0.5 0 -0.47309805772623531 -0.48068065226462803 0 -0.44619611545246668 -0.48546727216818808 0 -0.45308059359875369 -0.5 0 -0.44619611545246668 -0.48546727216818808 0 -0.45308059359875369 -0.5 0 -0.41929417317869822 -0.49025389207174819 0 -0.47309805772623531 -0.48068065226462803 0 -0.45275063711340169 -0.47156228136029071 0 -0.44619611545246668 -0.48546727216818808 0 -0.47309805772623531 -0.48068065226462803 0 -0.45275063711340169 -0.47156228136029071 0 -0.46492821400685858 -0.46750138682341369 0 -0.47309805772623531 -0.48068065226462803 0 -0.44619611545246668 -0.48546727216818808 0 -0.45275063711340169 -0.47156228136029071 0 -0.44619611545246668 -0.48546727216818808 0 -0.43819159672332431 -0.46546700730528529 0 -0.442857329869486 -0.45018237785839038 0 -0.45711558641551953 -0.45517305136982888 0 -0.44809898974577789 -0.43449369051384862 0 -0.442857329869486 -0.45018237785839038 0 -0.44809898974577789 -0.43449369051384862 0 -0.42802314659332252 -0.44559576224459868 0 -0.45275063711340169 -0.47156228136029071 0 -0.43819159672332431 -0.46546700730528529 0 -0.45711558641551953 -0.45517305136982888 0 -0.442857329869486 -0.45018237785839038 0 -0.43819159672332431 -0.46546700730528529 0 -0.45711558641551953 -0.45517305136982888 0 -0.45711558641551953 -0.45517305136982888 0 -0.47855779320775899 -0.46218565898811509 0 -0.46492821400685858 -0.46750138682341369 0 -0.45711558641551953 -0.45517305136982888 0 -0.47855779320775899 -0.46218565898811509 0 -0.45275063711340169 -0.47156228136029071 0 -0.46492821400685858 -0.46750138682341369 0 -0.45711558641551953 -0.45517305136982888 0 -0.45711558641551953 -0.45517305136982888 0 -0.46641851180287469 -0.43948650374523202 0 -0.47085226186845069 -0.45076649041963712 0 -0.45711558641551953 -0.45517305136982888 0 -0.46641851180287469 -0.43948650374523202 0 -0.44809898974577789 -0.43449369051384862 0 -0.47949069118603521 -0.45266957084107662 0 -0.48114519832851549 -0.46234632374884982 0 -0.49057259916425799 -0.43833936654671463 0 -0.46641851180287469 -0.43948650374523202 0 -0.47085226186845069 -0.45076649041963712 0 -0.47686723534684372 -0.44399729909913022 0 -0.46641851180287469 -0.43948650374523202 0 -0.47686723534684372 -0.44399729909913022 0 -0.47684523831963571 -0.43396858891284601 0 -0.47085226186845069 -0.45076649041963712 0 -0.47949069118603521 -0.45266957084107662 0 -0.47686723534684372 -0.44399729909913022 0 -0.47686723534684372 -0.44399729909913022 0 -0.49057259916425799 -0.43833936654671463 0 -0.47684523831963571 -0.43396858891284601 0 -0.47949069118603521 -0.45266957084107662 0 -0.47686723534684372 -0.44399729909913022 0 -0.49057259916425799 -0.43833936654671463 0 -0.45711558641551953 -0.45517305136982888 0 -0.47085226186845069 -0.45076649041963712 0 -0.47855779320775899 -0.46218565898811509 0 -0.47085226186845069 -0.45076649041963712 0 -0.47949069118603521 -0.45266957084107662 0 -0.47855779320775899 -0.46218565898811509 0 -0.47949069118603521 -0.45266957084107662 0 -0.48114519832851549 -0.46234632374884982 0 -0.47855779320775899 -0.46218565898811509 0 -0.49999999999999872 -0.46919826660640068 0 -0.47855779320775899 -0.46218565898811509 0 -0.49999999999999872 -0.46919826660640068 0 -0.49190426051394631 -0.4526111685174028 0 -0.5 -0.44176533797549 0 -0.49999999999999872 -0.46919826660640068 0 -0.48114519832851549 -0.46234632374884982 0 -0.47855779320775899 -0.46218565898811509 0 -0.49999999999999872 -0.46919826660640068 0 -0.48114519832851549 -0.46234632374884982 0 -0.49190426051394631 -0.4526111685174028 0 -0.48114519832851549 -0.46234632374884982 0 -0.49057259916425799 -0.43833936654671463 0 -0.49190426051394631 -0.4526111685174028 0 -0.48114519832851549 -0.46234632374884982 0 -0.49057259916425799 -0.43833936654671463 0 -0.49057259916425799 -0.43833936654671463 0 -0.49190426051394631 -0.4526111685174028 0 -0.5 -0.44176533797549 0 -0.49057259916425799 -0.43833936654671463 0 -0.50000000000000022 -0.41433240934457932 0 -0.48251161804909493 -0.4236611728041596 0 -0.49057259916425799 -0.43833936654671463 0 -0.5 -0.44176533797549 0 -0.50000000000000022 -0.41433240934457932 0 -0.49057259916425799 -0.43833936654671463 0 -0.50000000000000022 -0.41433240934457932 0 -0.50000000000000022 -0.41433240934457932 0 -0.48251161804909493 -0.4236611728041596 0 -0.47590467334390352 -0.40485073726313892 0 -0.48251161804909493 -0.4236611728041596 0 -0.47590467334390352 -0.40485073726313892 0 -0.46780167560229868 -0.42472239338016499 0 -0.47684523831963571 -0.43396858891284601 0 -0.48251161804909493 -0.4236611728041596 0 -0.46780167560229868 -0.42472239338016499 0 -0.46641851180287469 -0.43948650374523202 0 -0.47684523831963571 -0.43396858891284601 0 -0.46780167560229868 -0.42472239338016499 0 -0.49057259916425799 -0.43833936654671463 0 -0.47684523831963571 -0.43396858891284601 0 -0.48251161804909493 -0.4236611728041596 0 -0.50000000000000011 -0.37554881876466428 0 -0.5 -0.39494061405462177 0 -0.48386056071607231 -0.38524471640964308 0 -0.50000000000000011 -0.37554881876466428 0 -0.48386056071607231 -0.38524471640964308 0 -0.48648544733228999 -0.36594165214355451 0 -0.5 -0.39494061405462177 0 -0.47590467334390352 -0.40485073726313892 0 -0.48386056071607231 -0.38524471640964308 0 -0.50000000000000022 -0.41433240934457932 0 -0.5 -0.39494061405462177 0 -0.47590467334390352 -0.40485073726313892 0 -0.47590467334390352 -0.40485073726313892 0 -0.48386056071607231 -0.38524471640964308 0 -0.46818935695393332 -0.38711367415766551 0 -0.48386056071607231 -0.38524471640964308 0 -0.46818935695393332 -0.38711367415766551 0 -0.47132803578186899 -0.37107715116434858 0 -0.46818935695393332 -0.38711367415766551 0 -0.45664811881057049 -0.37758651015383887 0 -0.45522140894635049 -0.39537139458888509 0 -0.46818935695393332 -0.38711367415766551 0 -0.45664811881057049 -0.37758651015383887 0 -0.47132803578186899 -0.37107715116434858 0 -0.47590467334390352 -0.40485073726313892 0 -0.45522140894635049 -0.39537139458888509 0 -0.45122710705687058 -0.41172543127077571 0 -0.47590467334390352 -0.40485073726313892 0 -0.46818935695393332 -0.38711367415766551 0 -0.45522140894635049 -0.39537139458888509 0 -0.45522140894635049 -0.39537139458888509 0 -0.43833336119685778 -0.40082466232310898 0 -0.44466701861025743 -0.38564726223926549 0 -0.45522140894635049 -0.39537139458888509 0 -0.43833336119685778 -0.40082466232310898 0 -0.45122710705687058 -0.41172543127077571 0 -0.44466701861025743 -0.38564726223926549 0 -0.43002722768137319 -0.37679217182334201 0 -0.44570328837050199 -0.36708158431690108 0 -0.45664811881057049 -0.37758651015383887 0 -0.45522140894635049 -0.39537139458888509 0 -0.44466701861025743 -0.38564726223926549 0 -0.45664811881057049 -0.37758651015383887 0 -0.44466701861025743 -0.38564726223926549 0 -0.44570328837050199 -0.36708158431690108 0 -0.46780167560229868 -0.42472239338016499 0 -0.45122710705687058 -0.41172543127077571 0 -0.44809898974577789 -0.43449369051384862 0 -0.46641851180287469 -0.43948650374523202 0 -0.46780167560229868 -0.42472239338016499 0 -0.44809898974577789 -0.43449369051384862 0 -0.47590467334390352 -0.40485073726313892 0 -0.46780167560229868 -0.42472239338016499 0 -0.45122710705687058 -0.41172543127077571 0 -0.45122710705687058 -0.41172543127077571 0 -0.44809898974577789 -0.43449369051384862 0 -0.42726110625909908 -0.4158409881398068 0 -0.45122710705687058 -0.41172543127077571 0 -0.42726110625909908 -0.4158409881398068 0 -0.43833336119685778 -0.40082466232310898 0 -0.45122710705687058 -0.41172543127077571 0 -0.42726110625909908 -0.4158409881398068 0 -0.44809898974577789 -0.43449369051384862 0 -0.42726110625909908 -0.4158409881398068 0 -0.42802314659332252 -0.44559576224459868 0 -0.42726110625909908 -0.4158409881398068 0 -0.41297322678284942 -0.43414684501444312 0 -0.42802314659332252 -0.44559576224459868 0 -0.42726110625909908 -0.4158409881398068 0 -0.41052093588224842 -0.40333225794007471 0 -0.40329510546132769 -0.41995654500883789 0 -0.42726110625909908 -0.4158409881398068 0 -0.42500930015586202 -0.40088392304800607 0 -0.41052093588224842 -0.40333225794007471 0 -0.42726110625909908 -0.4158409881398068 0 -0.40329510546132769 -0.41995654500883789 0 -0.42726110625909908 -0.4158409881398068 0 -0.41297322678284942 -0.43414684501444312 0 -0.40329510546132769 -0.41995654500883789 0 -0.44466701861025743 -0.38564726223926549 0 -0.43002722768137319 -0.37679217182334201 0 -0.42737866528993668 -0.38851991802351837 0 -0.43002722768137319 -0.37679217182334201 0 -0.42737866528993668 -0.38851991802351837 0 -0.41139876677512383 -0.37874811591356711 0 -0.43002722768137319 -0.37679217182334201 0 -0.42737866528993668 -0.38851991802351837 0 -0.44466701861025743 -0.38564726223926549 0 -0.43002722768137319 -0.37679217182334201 0 -0.43833336119685778 -0.40082466232310898 0 -0.44466701861025743 -0.38564726223926549 0 -0.42737866528993668 -0.38851991802351837 0 -0.42737866528993668 -0.38851991
[...]
<PointData Scalars="" Vectors="displacement," Tensors="">
<DataArray type="Float64" Name="displacement" NumberOfComponents="3" format="ascii">
0.0249983196356523 0.025000102568806203 0 0.02379834967981324 0.024998935131808283 0 0.025030290463654827 0.024279309085577336 0 0.0249983196356523 0.025000102568806203 0 0.025030290463654827 0.024279309085577336 0 0.024999837044287879 0.022653739179296278 0 0.023794894744155557 0.024999392224791285 0 0.024326243121638089 0.02386285568218514 0 0.023464120862677539 0.024998666260198258 0 0.023790420223639176 0.025000896880014889 0 0.023816286881120318 0.024170009936220992 0 0.02379834967981324 0.024998935131808283 0 0.025436375999439327 0.023905077512190284 0 0.025030290463654827 0.024279309085577336 0 0.023316750192427169 0.023967910191829825 0 0.023645340612677937 0.023717699822600333 0 0.023816286881120318 0.024170009936220992 0 0.023790420223639176 0.025000896880014889 0 0.023316750192427169 0.023967910191829825 0 0.023816286881120318 0.024170009936220992 0 0.025436375999439327 0.023905077512190284 0 0.025030290463654827 0.024279309085577336 0 0.024999837044287879 0.022653739179296278 0 0.025436375999439327 0.023905077512190284 0 0.025484078048433945 0.022375588050962396 0 0.024999837044287879 0.022653739179296278 0 0.025484078048433945 0.022375588050962396 0 0.024999837044287879 0.022653739179296278 0 0.024798182802263469 0.021128772342469449 0 0.023316750192427169 0.023967910191829825 0 0.023696210699150972 0.023268633965231968 0 0.023554699100434954 0.022896755194962655 0 0.023316750192427169 0.023967910191829825 0 0.023696210699150972 0.023268633965231968 0 0.023645340612677937 0.023717699822600333 0 0.024326243121638089 0.02386285568218514 0 0.024557423677589306 0.022673116514674307 0 0.023696210699150972 0.023268633965231968 0 0.023554699100434954 0.022896755194962655 0 0.023992744203640989 0.022694532817266116 0 0.023752212033637077 0.023235014718599369 0 0.023501339850167009 0.023655516176945935 0 0.023316938479846366 0.023843937790801184 0 0.023752212033637077 0.023235014718599369 0 0.023316938479846366 0.023843937790801184 0 0.024136480114989839 0.02265532829573895 0 0.023696210699150972 0.023268633965231968 0 0.023992744203640989 0.022694532817266116 0 0.023501339850167009 0.023655516176945935 0 0.023752212033637077 0.023235014718599369 0 0.023992744203640989 0.022694532817266116 0 0.023501339850167009 0.023655516176945935 0 0.023478195972387074 0.023782918133260566 0 0.023364678679910277 0.024436705186844349 0 0.023645340612677937 0.023717699822600333 0 0.023501339850167009 0.023655516176945935 0 0.023816286881120318 0.024170009936220992 0 0.023696210699150972 0.023268633965231968 0 0.023645340612677937 0.023717699822600333 0 0.023501339850167009 0.023655516176945935 0 0.023501339850167009 0.023655516176945935 0 0.022922645815955583 0.024190540689996532 0 0.023078224669252849 0.024272728617226305 0 0.023501339850167009 0.023655516176945935 0 0.022922645815955583 0.024190540689996532 0 0.023316938479846366 0.023843937790801184 0 0.022870585350053079 0.024538759768780342 0 0.022925061792795812 0.024804224475601298 0 0.022490799235120922 0.024133958103977601 0 0.022922645815955583 0.024190540689996532 0 0.023078224669252849 0.024272728617226305 0 0.022809390531490583 0.024378933202381773 0 0.022922645815955583 0.024190540689996532 0 0.022809390531490583 0.024378933202381773 0 0.022421253368788689 0.024393611113064501 0 0.023078224669252849 0.024272728617226305 0 0.022870585350053079 0.024538759768780342 0 0.022809390531490583 0.024378933202381773 0 0.022809390531490583 0.024378933202381773 0 0.022490799235120922 0.024133958103977601 0 0.022421253368788689 0.024393611113064501 0 0.022870585350053079 0.024538759768780342 0 0.022809390531490583 0.024378933202381773 0 0.022490799235120922 0.024133958103977601 0 0.023501339850167009 0.023655516176945935 0 0.023078224669252849 0.024272728617226305 0 0.022849753615364541 0.024761986319770831 0 0.023078224669252849 0.024272728617226305 0 0.022870585350053079 0.024538759768780342 0 0.022849753615364541 0.024761986319770831 0 0.022870585350053079 0.024538759768780342 0 0.022925061792795812 0.024804224475601298 0 0.022849753615364541 0.024761986319770831 0 0.023459863879630928 0.024999727894380958 0 0.023364678679910277 0.024436705186844349 0 0.023458595929261413 0.024999675913659425 0 0.022620656389383837 0.025070795352213956 0 0.02208901656470354 0.024999636450521175 0 0.023458595929261413 0.024999675913659425 0 0.022925061792795812 0.024804224475601298 0 0.022849753615364541 0.024761986319770831 0 0.023458595929261413 0.024999675913659425 0 0.022925061792795812 0.024804224475601298 0 0.022620656389383837 0.025070795352213956 0 0.022925061792795812 0.024804224475601298 0 0.022016818667089467 0.025384568501910176 0 0.022620656389383837 0.025070795352213956 0 0.022794739734977067 0.024781151821342984 0 0.022243117918420149 0.024809196485016911 0 0.022016818667089467 0.025384568501910176 0 0.022620656389383837 0.025070795352213956 0 0.02208901656470354 0.024999636450521175 0 0.022490799235120922 0.024133958103977601 0 0.020718135571033296 0.024997107236318948 0 0.02170917161405388 0.024506344570521494 0 0.022016818667089467 0.025384568501910176 0 0.02208901656470354 0.024999636450521175 0 0.02071636619231737 0.025000154467843105 0 0.022243117918420149 0.024809196485016911 0 0.020717282076612321 0.024999904842746647 0 0.020718135571033296 0.024997107236318948 0 0.02170917161405388 0.024506344570521494 0 0.020942163551597968 0.024579875404958353 0 0.02170917161405388 0.024506344570521494 0 0.020942163551597968 0.024579875404958353 0 0.02221731889190787 0.024343497890782762 0 0.022421253368788689 0.024393611113064501 0 0.02170917161405388 0.024506344570521494 0 0.02221731889190787 0.024343497890782762 0 0.022922645815955583 0.024190540689996532 0 0.022421253368788689 0.024393611113064501 0 0.02221731889190787 0.024343497890782762 0 0.022490799235120922 0.024133958103977601 0 0.022421253368788689 0.024393611113064501 0 0.02170917161405388 0.024506344570521494 0 0.018781128100539852 0.024999012005087404 0 0.019746691951853981 0.025000064917485812 0 0.019826233998435607 0.02476401807460912 0 0.018781128100539852 0.024999012005087404 0 0.019826233998435607 0.02476401807460912 0 0.019455890737690391 0.024659911197661324 0 0.019746691951853981 0.025000064917485812 0 0.020942163551597968 0.024579875404958353 0 0.019826233998435607 0.02476401807460912 0 0.020718135571033296 0.024997107236318948 0 0.019746691951853981 0.025000064917485812 0 0.020942163551597968 0.024579875404958353 0 0.020942163551597968 0.024579875404958353 0 0.019826233998435607 0.02476401807460912 0 0.02031514520181266 0.024669672048627734 0 0.019826233998435607 0.02476401807460912 0 0.02031514520181266 0.024669672048627734 0 0.019839782820167053 0.024661171154600738 0 0.02031514520181266 0.024669672048627734 0 0.020259705671338734 0.024719672647415567 0 0.020863681989659714 0.024636436577520498 0 0.02031514520181266 0.024669672048627734 0 0.020259705671338734 0.024719672647415567 0 0.019839782820167053 0.024661171154600738 0 0.020942163551597968 0.024579875404958353 0 0.020863681989659714 0.024636436577520498 0 0.021931697672982763 0.024408475593545188 0 0.020942163551597968 0.024579875404958353 0 0.02031514520181266 0.024669672048627734 0 0.020863681989659714 0.024636436577520498 0 0.020863681989659714 0.024636436577520498 0 0.020878831145918184 0.024617141036577625 0 0.020777338827006202 0.024819126766290448 0 0.020863681989659714 0.024636436577520498 0 0.020878831145918184 0.024617141036577625 0 0.021931697672982763 0.024408475593545188 0 0.020777338827006202 0.024819126766290448 0 0.020341993730402838 0.02540681973533513 0 0.019996261044869294 0.024940840408422406 0 0.020259705671338734 0.024719672647415567 0 0.020863681989659714 0.024636436577520498 0 0.020777338827006202 0.024819126766290448 0 0.020259705671338734 0.024719672647415567 0 0.020777338827006202 0.024819126766290448 0 0.019996261044869294 0.024940840408422406 0 0.02221731889190787 0.024343497890782762 0 0.021931697672982763 0.024408475593545188 0 0.023316938479846366 0.023843937790801184 0 0.022922645815955583 0.024190540689996532 0 0.02221731889190787 0.024343497890782762 0 0.023316938479846366 0.023843937790801184 0 0.020942163551597968 0.024579875404958353 0 0.02221731889190787 0.024343497890782762 0 0.021931697672982763 0.024408475593545188 0 0.021931697672982763 0.024408475593545188 0 0.023316938479846366 0.023843937790801184 0 0.024249121852502723 0.023148043586990408 0 0.021932694832799894 0.024126869771407787 0 0.022022446291718525 0.023465461472698814 0 0.020878831145918184 0.024617141036577625 0 0.021931697672982763 0.024408475593545188 0 0.019861864522655683 0.024219573673853436 0 0.023316938479846366 0.023843937790801184 0 0.024249121852502723 0.023148043586990408 0 0.024136480114989839 0.02265532829573895 0 0.024249121852502723 0.023148043586990408 0 0.024749986799232692 0.02206576804026774 0 0.024136480114989839 0.02265532829573895 0 0.019861864522655683 0.024219573673853436 0 0.020166889113178481 0.022782797199671277 0 0.018594573813985597 0.021944162931547665 0 0.019861864522655683 0.024219573673853436 0 0.020602212216357597 0.023964823602591181 0 0.020166889113178481 0.022782797199671277 0 0.022022446291718525 0.023465461472698814 0 0.022116385978119414 0.021699684912561277 0 0.024249121852502723 0.023148043586990408 0 0.024749986799232692 0.02206576804026774 0 0.025594954940573886 0.021566667443407201 0 0.020777338827006202 0.024819126766290448 0 0.02140258503156112 0.024262719644541259 0 0.021137176182765942 0.024162726309657896 0 0.02216128110714987 0.024361151349212466 0 0.021137176182765942 0.024162726309657896 0 0.022041477279344728 0.022826236638433851 0 0.019795432064797443 0.02194738889822017 0 0.021827909572564769 0.023815009291962841 0 0.020477797327194198 0.025334540847678416 0 0.019795432064797443 0.02194738889822017 0 0.020878831145918184 0.024617141036577625 0 0.020777338827006202 0.024819126766290448 0 0.021137176182765942 0.024162726309657896 0 0.021137176182765942 0.024162726309657896 0 0.020602212216357597 0.023964823602591181 0 0.021117503600624612 0.023161371710582565 0 0.020878831145918184 0.024617141036577625 0 0.021137176182765942 0.024162726309657896 0 0.020602212216357597 0.023964823602591181 0 0.020878831145918184 0.024617141036577625 0 0.019861864522655683 0.024219573673853436 0 0.020602212216357597 0.023964823602591181 0 0.020166889113178481 0.022782797199671277 0 0.021117503600624612 0.023161371710582565 0 0.021429449914913825 0.021350724052292672 0 0.020602212216357597 0.023964823602591181 0 0.020166889113178481 0.022782797199671277 0 0.021117503600624612 0.023161371710582565 0 0.021117503600624612 0.023161371710582565 0 0.022041477279344728 0.022826236638433851 0 0.021429449914913825 0.021350724052292672 0 0.021137176182765942 0.024162726309657896 0 0.021117503600624612 0.023161371710582565 0 0.022041477279344728 0.022826236638433851 0 0.022041477279344728 0.022826236638433851 0 0.021429449914913825 0.021350724052292672 0 0.023407761690332464 0.02224674930901183 0 0.021429449914913825 0.021350724052292672 0 0.019702372243901152 0.021595504215841835 0 0.018733076511362405 0.020271376572380345 0 0.020166889113178481 0.022782797199671277 0 0.021429449914913825 0.021350724052292672 0 0.019702372243901152 0.021595504215841835 0 0.016186086486500231 0.018969743861842303 0 0.017417914511526179 0.020618403255875252 0 0.018733076511362405 0.020271376572380345 0 0.019322067489443762 0.020311965275613096 0 0.018509284969219716 0.020172229280528749 0 0.016186086486500231 0.018969743861842303 0 0.017417914511526179 0.020618403255875252 0 0.015956577675904058 0.020375701353667432 0 0.016186086486500231 0.018969743861842303 0 0.015956577675904058 0.020375701353667432 0 0.014895392544016861 0.019467826425476686 0 0.022116385978119414 0.021699684912561277 0 0.022464811753977718 0.02016778580033695 0 0.025594954940573886 0.021566667443407201 0 0.026352752548983664 0.020105293729237809 0 0.025284470918346551 0.02097717478040664 0 0.024749986799232692 0.02206576804026774 0 0.025594954940573886 0.021566667443407201 0 0.025284470918346551 0.02097717478040664 0 0.020166889113178481 0.022782797199671277 0 0.019702372243901152 0.021595504215841835 0 0.018594573813985597 0.021944162931547665 0 0.019702372243901152 0.021595504215841835 0 0.018594573813985597 0.021944162931547665 0 0.018733076511362405 0.020271376572380345 0 0.018594573813985597 0.021944162931547665 0 0.018733076511362405 0.020271376572380345 0 0.018624626585260699 0.020269861950536077 0 0.017417914511526179 0.020618403255875252 0 0.018733076511362405 0.020271376572380345 0 0.018390650165372481 0.020761937630390068 0 0.018733076511362405 0.020271376572380345 0 0.018624626585260699 0.020269861950536077 0 0.018390650165372481 0.020761937630390068 0 0.026352752548983664 0.020105293729237809 0 0.025607422729603972 0.020223028432338554 0 0.025284470918346551 0.02097717478040664 0 0.026352752548983664 0.020105293729237809 0 0.025607422729603972 0.020223028432338554 0 0.026082262005086111 0.019443806215518871 0 0.024999837044287879 0.022653739179296278 0 0.024996031124829489 0.019503634681434942 0 0.024798182802263469 0.021128772342469449 0 0.025607422729603972 0.020223028432338554 0 0.025284470918346551 0.02097717478040664 0 0.024865416295207804 0.020763482199411213 0 0.025607422729603972 0.020223028432338554 0 0.024865416295207804 0.020763482199411213 0 0.025449111806395006 0.019731736837030618 0 0.025284470918346551 0.02097717478040664 0 0.024865416295207804 0.020763482199411213 0 0.024603710471956534 0.021680108734725922 0 0.024749986799232692 0.02206576804026774 0 0.025284470918346551 0.02097717478040664 0 0.024603710471956534 0.021680108734725922 0 0.024865416295207804 0.020763482199411213 0 0.024770415794143522 0.02055173969437513 0 0.024450456290939244 0.021664032533822923 0 0.024865416295207804 0.020763482199411213 0 0.024805817778615322 0.02004516093688222 0 0.024770415794143522 0.02055173969437513 0 0.024865416295207804 0.020763482199411213 0 0.024805817778615322 0.02004516093688222 0 0.025449111806395006 0.019731736837030618 0 0.024805817778615322 0.02004516093688222 0 0.024996031124829489 0.019503634681434942 0 0.02454038486626978 0.019572988616925201 0 0.024805817778615322 0.02004516093688222 0 0.024996031124829489 0.019503634681434942 0 0.024770415794143522 0.02055173969437513 0 0.024999939175254345 0.019499220789159517 0 0.025099647603427623 0.018858244257753391 0 0.024996031124829489 0.019503634681434942 0 0.024770415794143522 0.02055173969437513 0 0.024798182802263469 0.021128772342469449 0 0.024770415794143522 0.02055173969437513 0 0.024798182802263469 0.021128772342469449 0 0.024450456290939244 0.021664032533822923 0 0.024557423677589306 0.022673116514674307 0 0.024733467406886589 0.021323404937469082 0 0.023992744203640989 0.022694532817266116 0 0.024798182802263469 0.021128772342469449 0 0.024450456290939244 0.021664032533822923 0 0.023554699100434954 0.022896755194962655 0 0.023992744203640989 0.022694532817266116 0 0.024798182802263469 0.021128772342469449 0 0.023752212033637077 0.023235014718599369 0 0.023992744203640989 0.022694532817266116 0 0.024136480114989839 0.02265532829573895 0 0.023992744203640989 0.022694532817266116 0 0.024136480114989839 0.02265532829573895 0 0.024450456290939244 0.021664032533822923 0 0.024749986799232692 0.02206576804026774 0 0.024136480114989839 0.02265532829573895 0 0.024603710471956534 0.021680108734725922 0 0.024865416295207804 0.020763482199411213 0 0.024603710471956534 0.021680108734725922 0 0.024450456290939244 0.021664032533822923 0 0.024136480114989839 0.02265532829573895 0 0.024603710471956534 0.021680108734725922 0 0.024450456290939244 0.021664032533822923 0 0.0091443203764624073 0.016632221754085144 0 0.0090413006400143388 0.016717631498473821 0 0.0088812699292454902 0.016729074597534834 0 0.00900767635281958 0.016805445730001686 0 0.0090413006400143388 0.016717631498473821 0 0.0088812699292454902 0.016729074597534834 0 0.0075741917678103223 0.021976156680429012 0 0.0085010542938083987 0.023193511778276527 0 0.0088780334678804345 0.021905653490181202 0 0.0081780332392019997 0.018044516113044272 0 0.010256580456355031 0.022299040120378616 0 0.0088870243319454246 0.016899592145842243 0 0.0091056347198572238 0.016812957266854629 0 0.0090413006400143388 0.016717631498473821 0 0.0088870243319454246 0.016899592145842243 0 0.0091056347198572238 0.016812957266854629 0 0.009170409069086052 0.01702835515780347 0 0.0093104449226358386 0.016851603724731469 0 0.009452458141466856 0.016989237212460716 0 0.009170409069086052 0.01702835515780347 0 0.0091056347198572238 0.016812957266854629 0 0.0093104449226358386 0.016851603724731469 0 0.009170409069086052 0.01702835515780347 0 0.0091056347198572238 0.016812957266854629 0 0.0093104449226358386 0.016851603724731469 0 0.0091443203764624073 0.016632221754085144 0 0.0081780332392019997 0.018044516113044272 0 0.0089110466224378293 0.016676226587507427 0 0.0091056347198572238 0.016812957266854629 0 0.0091443203764624073 0.016632221754085144 0 0.0090413006400143388 0.016717631498473821 0 0.013825958625242064 0.02698330503138107 0 0.013707254271686583 0.026302483515759329 0 0.01446628314037721 0.026663734148045144 0 0.013825958625242064 0.02698330503138107 0 0.013707254271686583 0.026302483515759329 0 0.012823195514367551 0.026771402030051943 0 0.013707254271686583 0.026302483515759329 0 0.012823195514367551 0.026771402030051943 0 0.013028046636738634 0.026206950943408545 0 0.011587083457107386 0.021753799595180926 0 0.010256580456355031 0.022299040120378616 0 0.012823195514367551 0.026771402030051943 0 0.013028046636738634 0.026206950943408545 0 0.012379608568298211 0.026197044314171004 0 0.013248932082370247 0.025658989689539263 0 0.011410123390966051 0.02590001132014436 0 0.013028046636738634 0.026206950943408545 0 0.013217292732469878 0.025594547470220868 0 0.012379608568298211 0.026197044314171004 0 0.013707254271686583 0.026302483515759329 0 0.013028046636738634 0.026206950943408545 0 0.013217292732469878 0.025594547470220868 0 0.012656162767112846 0.024999983505140173 0 0.013046317590491614 0.02570976973182568 0 0.012036971196722588 0.025965677233675571 0 0.012656162767112846 0.024999983505140173 0 0.013046317590491614 0.02570976973182568 0 0.014010576887860761 0.024999997488710537 0 0.013248932082370247 0.025658989689539263 0 0.014010317942302142 0.025000181789266763 0 0.013217292732469878 0.025594547470220868 0 0.014010881443520548 0.024999904916373179 0 0.014049833146003566 0.02573833440107684 0 0.013707254271686583 0.026302483515759329 0 0.013217292732469878 0.025594547470220868 0 0.014049833146003566 0.02573833440107684 0 0.013707254271686583 0.026302483515759329 0 0.014049833146003566 0.02573833440107684 0 0.014527765032491907 0.026124378097574251 0 0.014527765032491907 0.026124378097574251 0 0.01473256384144009 0.025536586394599166 0 0.015171690184507328 0.02593867060486317 0 0.014049833146003566 0.02573833440107684 0 0.014527765032491907 0.026124378097574251 0 0.01473256384144009 0.025536586394599166 0 0.014010881443520548 0.024999904916373179 0 0.01473256384144009 0.025536586394599166 0 0.015363006848651535 0.024999931158061445 0 0.014010881443520548 0.024999904916373179 0 0.014049833146003566 0.02573833440107684 0 0.01473256384144009 0.025536586394599166 0 0.01473256384144009 0.025536586394599166 0 0.015363006848651535 0.024999931158061445 0 0.015371617256293282 0.025376826282251831 0 0.01473256384144009 0.025536586394599166 0 0.015371617256293282 0.025376826282251831 0 0.015171690184507328 0.02593867060486317 0 0.015371617256293282 0.025376826282251831 0 0.015171690184507328 0.02593867060486317 0 0.015647653714347322 0.025695088280374739 0 0.015171690184507328 0.02593867060486317 0 0.015715610780781 0.02623238644364146 0 0.015647653714347322 0.025695088280374739 0 0.014527765032491907 0.026124378097574251