<?xml version="1.0"?>
<VTKFile type="UnstructuredGrid" version="0.1" byte_order="LittleEndian">
<UnstructuredGrid>
<Piece NumberOfPoints="31855" NumberOfCells="11197">
<Points>
<DataArray type="Float64" NumberOfComponents="3" format="ascii">
-0.5 -0.5 0 -0.47544589962004319 -0.46906165701027358 0 -0.5 -0.43825971655384077 0 -0.5 -0.5 0 -0.47544589962004319 -0.46906165701027358 0 -0.45557245099849908 -0.5 0 -0.45557245099849908 -0.5 0 -0.45027845627324509 -0.47425029269528007 0 -0.41173285960140382 -0.4920568552127873 0 -0.47544589962004319 -0.46906165701027358 0 -0.45557245099849908 -0.5 0 -0.45027845627324509 -0.47425029269528007 0 -0.44270073342592381 -0.44907784897443809 0 -0.4473403140130966 -0.43208919884800923 0 -0.42845713400988 -0.44376566272795692 0 -0.44270073342592381 -0.44907784897443809 0 -0.46740701255847411 -0.44403074993066027 0 -0.4473403140130966 -0.43208919884800923 0 -0.45027845627324509 -0.47425029269528007 0 -0.44270073342592381 -0.44907784897443809 0 -0.42465530609303809 -0.46837424119173199 0 -0.47544589962004319 -0.46906165701027358 0 -0.45027845627324509 -0.47425029269528007 0 -0.46740701255847411 -0.44403074993066027 0 -0.45027845627324509 -0.47425029269528007 0 -0.44270073342592381 -0.44907784897443809 0 -0.46740701255847411 -0.44403074993066027 0 -0.47544589962004319 -0.46906165701027358 0 -0.46740701255847411 -0.44403074993066027 0 -0.5 -0.43825971655384077 0 -0.46740701255847411 -0.44403074993066027 0 -0.5 -0.43825971655384077 0 -0.47945668856220608 -0.41862217385024558 0 -0.5 -0.43825971655384077 0 -0.47945668856220608 -0.41862217385024558 0 -0.49999999999999789 -0.38341502480055339 0 -0.47945668856220608 -0.41862217385024558 0 -0.49999999999999789 -0.38341502480055339 0 -0.48238377651037512 -0.39240587809295618 0 -0.49999999999999789 -0.38341502480055339 0 -0.48238377651037512 -0.39240587809295618 0 -0.48599255454601709 -0.37424344971113283 0 -0.49999999999999789 -0.38341502480055339 0 -0.48599255454601709 -0.37424344971113283 0 -0.47945668856220608 -0.41862217385024558 0 -0.48238377651037512 -0.39240587809295618 0 -0.46647141912868378 -0.39334286400989321 0 -0.48238377651037512 -0.39240587809295618 0 -0.46647141912868378 -0.39334286400989321 0 -0.48599255454601709 -0.37424344971113283 0 -0.46647141912868378 -0.39334286400989321 0 -0.48599255454601709 -0.37424344971113283 0 -0.47189087427263132 -0.37663550417099928 0 -0.46647141912868378 -0.39334286400989321 0 -0.48599255454601709 -0.37424344971113283 0 -0.46347773589691338 -0.37605314335579332 0 -0.45197703600827788 -0.38936486827753131 0 -0.44464059646223691 -0.37415060920408721 0 -0.47189087427263132 -0.37663550417099928 0 -0.46347773589691338 -0.37605314335579332 0 -0.46647141912868378 -0.39334286400989321 0 -0.46347773589691338 -0.37605314335579332 0 -0.46647141912868378 -0.39334286400989321 0 -0.45197703600827788 -0.38936486827753131 0 -0.46647141912868378 -0.39334286400989321 0 -0.45197703600827788 -0.38936486827753131 0 -0.44695028371134998 -0.41244227830865299 0 -0.46647141912868378 -0.39334286400989321 0 -0.44695028371134998 -0.41244227830865299 0 -0.43834514484220538 -0.39083544650922919 0 -0.45197703600827788 -0.38936486827753131 0 -0.44695028371134998 -0.41244227830865299 0 -0.43834514484220538 -0.39083544650922919 0 -0.44695028371134998 -0.41244227830865299 0 -0.43025890904714692 -0.40875899809489441 0 -0.43834514484220538 -0.39083544650922919 0 -0.45197703600827788 -0.38936486827753131 0 -0.44464059646223691 -0.37415060920408721 0 -0.47945668856220608 -0.41862217385024558 0 -0.46647141912868378 -0.39334286400989321 0 -0.44695028371134998 -0.41244227830865299 0 -0.46740701255847411 -0.44403074993066027 0 -0.47945668856220608 -0.41862217385024558 0 -0.4473403140130966 -0.43208919884800923 0 -0.47945668856220608 -0.41862217385024558 0 -0.44695028371134998 -0.41244227830865299 0 -0.4473403140130966 -0.43208919884800923 0 -0.44695028371134998 -0.41244227830865299 0 -0.4473403140130966 -0.43208919884800923 0 -0.42742914829401629 -0.43154169260741299 0 -0.44695028371134998 -0.41244227830865299 0 -0.42742914829401629 -0.43154169260741299 0 -0.4473403140130966 -0.43208919884800923 0 -0.42742914829401629 -0.43154169260741299 0 -0.42845713400988 -0.44376566272795692 0 -0.42742914829401629 -0.43154169260741299 0 -0.43025890904714692 -0.40875899809489441 0 -0.41666672290202877 -0.41912340917851831 0 -0.43025890904714692 -0.40875899809489441 0 -0.41666672290202877 -0.41912340917851831 0 -0.42149602710815359 -0.39408315258476662 0 -0.44695028371134998 -0.41244227830865299 0 -0.42742914829401629 -0.43154169260741299 0 -0.43025890904714692 -0.40875899809489441 0 -0.41666672290202877 -0.41912340917851831 0 -0.42149602710815359 -0.39408315258476662 0 -0.41666672290202877 -0.41912340917851831 0 -0.41011272358218998 -0.40594236012380169 0 -0.401768557813307 -0.42281830855747388 0 -0.41666672290202877 -0.41912340917851831 0 -0.41011272358218998 -0.40594236012380169 0 -0.42149602710815359 -0.39408315258476662 0 -0.41666672290202877 -0.41912340917851831 0 -0.41188069054236642 -0.43517571126800708 0 -0.401768557813307 -0.42281830855747388 0 -0.42742914829401629 -0.43154169260741299 0 -0.41666672290202877 -0.41912340917851831 0 -0.41188069054236642 -0.43517571126800708 0 -0.43834514484220538 -0.39083544650922919 0 -0.44464059646223691 -0.37415060920408721 0 -0.42632533131427852 -0.36904289599101497 0 -0.43834514484220538 -0.39083544650922919 0 -0.42149602710815359 -0.39408315258476662 0 -0.42632533131427852 -0.36904289599101497 0 -0.42149602710815359 -0.39408315258476662 0 -0.42632533131427852 -0.36904289599101497 0 -0.43834514484220538 -0.39083544650922919 0 -0.43025890904714692 -0.40875899809489441 0 -0.42149602710815359 -0.39408315258476662 0 -0.41011272358218998 -0.40594236012380169 0 -0.42149602710815359 -0.39408315258476662 0 -0.3985976555374387 -0.39482976714360368 0 -0.42149602710815359 -0.39408315258476662 0 -0.41009533864766162 -0.3788985754615451 0 -0.3985976555374387 -0.39482976714360368 0 -0.42149602710815359 -0.39408315258476662 0 -0.41009533864766162 -0.3788985754615451 0 -0.42632533131427852 -0.36904289599101497 0 -0.3985976555374387 -0.39482976714360368 0 -0.39542675326157051 -0.36684122572973349 0 -0.3985976555374387 -0.39482976714360368 0 -0.37920478159876991 -0.38285295053158652 0 -0.39542675326157051 -0.36684122572973349 0 -0.41009533864766162 -0.3788985754615451 0 -0.3985976555374387 -0.39482976714360368 0 -0.39542675326157051 -0.36684122572973349 0 -0.3985976555374387 -0.39482976714360368 0 -0.37746814703235582 -0.40557984640721639 0 -0.37920478159876991 -0.38285295053158652 0 -0.3985976555374387 -0.39482976714360368 0 -0.37746814703235582 -0.40557984640721639 0 -0.3894517632753518 -0.41249970266339581 0 -0.41188069054236642 -0.43517571126800708 0 -0.401768557813307 -0.42281830855747388 0 -0.40493946008917531 -0.45080684997134429 0 -0.401768557813307 -0.42281830855747388 0 -0.39518337331984388 -0.43773825405166528 0 -0.40493946008917531 -0.45080684997134429 0 -0.401768557813307 -0.42281830855747388 0 -0.3799726927183058 -0.42677088854528877 0 -0.39518337331984388 -0.43773825405166528 0 -0.401768557813307 -0.42281830855747388 0 -0.40493946008917531 -0.45080684997134429 0 -0.41011272358218998 -0.40594236012380169 0 -0.3985976555374387 -0.39482976714360368 0 -0.401768557813307 -0.42281830855747388 0 -0.3985976555374387 -0.39482976714360368 0 -0.401768557813307 -0.42281830855747388 0 -0.3894517632753518 -0.41249970266339581 0 -0.3985976555374387 -0.39482976714360368 0 -0.401768557813307 -0.42281830855747388 0 -0.401768557813307 -0.42281830855747388 0 -0.3894517632753518 -0.41249970266339581 0 -0.3799726927183058 -0.42677088854528877 0 -0.37746814703235582 -0.40557984640721639 0 -0.3799726927183058 -0.42677088854528877 0 -0.37746814703235582 -0.40557984640721639 0 -0.3894517632753518 -0.41249970266339581 0 -0.3799726927183058 -0.42677088854528877 0 -0.3799726927183058 -0.42677088854528877 0 -0.38247723840425579 -0.44796193068336132 0 -0.3799726927183058 -0.42677088854528877 0 -0.38247723840425579 -0.44796193068336132 0 -0.36431448118181409 -0.43507547628127141 0 -0.3799726927183058 -0.42677088854528877 0 -0.38247723840425579 -0.44796193068336132 0 -0.39518337331984388 -0.43773825405166528 0 -0.38247723840425579 -0.44796193068336132 0 -0.39518337331984388 -0.43773825405166528 0 -0.39613610401984001 -0.44742404961220228 0 -0.38247723840425579 -0.44796193068336132 0 -0.39613610401984001 -0.44742404961220228 0 -0.39356687682544539 -0.45404139263999471 0 -0.3981769259451351 -0.4528792749724122 0 -0.39613610401984001 -0.44742404961220228 0 -0.39356687682544539 -0.45404139263999471 0 -0.3981769259451351 -0.4528792749724122 0 -0.39613610401984001 -0.44742404961220228 0 -0.40493946008917531 -0.45080684997134429 0 -0.39518337331984388 -0.43773825405166528 0 -0.39613610401984001 -0.44742404961220228 0 -0.40493946008917531 -0.45080684997134429 0 -0.40493946008917531 -0.45080684997134429 0 -0.40006526346073201 -0.46553295273414891 0 -0.40811036236504361 -0.4787953913852146 0 -0.40493946008917531 -0.45080684997134429 0 -0.40006526346073201 -0.46553295273414891 0 -0.39780101910600901 -0.45758414185046647 0 -0.3981769259451351 -0.4528792749724122 0 -0.40493946008917531 -0.45080684997134429 0 -0.39780101910600901 -0.45758414185046647 0 -0.3981769259451351 -0.4528792749724122 0 -0.39780101910600901 -0.45758414185046647 0 -0.39356687682544539 -0.45404139263999471 0 -0.39780101910600901 -0.45758414185046647 0 -0.39356687682544539 -0.45404139263999471 0 -0.39172808172941531 -0.46133890730315019 0 -0.40006526346073201 -0.46553295273414891 0 -0.39172808172941531 -0.46133890730315019 0 -0.38498178409020672 -0.46915297282143359 0 -0.40006526346073201 -0.46553295273414891 0 -0.39780101910600901 -0.45758414185046647 0 -0.39172808172941531 -0.46133890730315019 0 -0.38498178409020672 -0.46915297282143359 0 -0.36580793536190481 -0.45273660197014259 0 -0.38247723840425579 -0.44796193068336132 0 -0.39172808172941531 -0.46133890730315019 0 -0.384981784
[...]
<PointData Scalars="" Vectors="displacement," Tensors="">
<DataArray type="Float64" Name="displacement" NumberOfComponents="3" format="ascii">
-0.03499895033504586 -0.034997460554500863 0 -0.033480811923918226 -0.034133030993824941 0 -0.03068038979623389 -0.034997313639306325 0 -0.03499895033504586 -0.034997460554500863 0 -0.033480811923918226 -0.034133030993824941 0 -0.034996998981699022 -0.031894179487443067 0 -0.034996998981699022 -0.031894179487443067 0 -0.034186045364014962 -0.032903247923200658 0 -0.035118989529179516 -0.029334412896428009 0 -0.033480811923918226 -0.034133030993824941 0 -0.034996998981699022 -0.031894179487443067 0 -0.034186045364014962 -0.032903247923200658 0 -0.032420245645555866 -0.034169344587891629 0 -0.031432931632976856 -0.034792052945658243 0 -0.031807812585784634 -0.034398644546033745 0 -0.032420245645555866 -0.034169344587891629 0 -0.031882919056472364 -0.034512138006242206 0 -0.031432931632976856 -0.034792052945658243 0 -0.034186045364014962 -0.032903247923200658 0 -0.032420245645555866 -0.034169344587891629 0 -0.034578875041122947 -0.031682786850834366 0 -0.033480811923918226 -0.034133030993824941 0 -0.034186045364014962 -0.032903247923200658 0 -0.031882919056472364 -0.034512138006242206 0 -0.034186045364014962 -0.032903247923200658 0 -0.032420245645555866 -0.034169344587891629 0 -0.031882919056472364 -0.034512138006242206 0 -0.033480811923918226 -0.034133030993824941 0 -0.031882919056472364 -0.034512138006242206 0 -0.03068038979623389 -0.034997313639306325 0 -0.031882919056472364 -0.034512138006242206 0 -0.03068038979623389 -0.034997313639306325 0 -0.029982196893584119 -0.03506404905612738 0 -0.03068038979623389 -0.034997313639306325 0 -0.029982196893584119 -0.03506404905612738 0 -0.026842436162400875 -0.034999039368901926 0 -0.029982196893584119 -0.03506404905612738 0 -0.026842436162400875 -0.034999039368901926 0 -0.028080149478957487 -0.035244528613625252 0 -0.026842436162400875 -0.034999039368901926 0 -0.028080149478957487 -0.035244528613625252 0 -0.027100404986259558 -0.03525172225877473 0 -0.025020780681272659 -0.034066611379337058 0 -0.024775020863941347 -0.033997075186594047 0 -0.029982196893584119 -0.03506404905612738 0 -0.028080149478957487 -0.035244528613625252 0 -0.028607001798604925 -0.035584505638818119 0 -0.028080149478957487 -0.035244528613625252 0 -0.028607001798604925 -0.035584505638818119 0 -0.027100404986259558 -0.03525172225877473 0 -0.02596579426984745 -0.032566016283544351 0 -0.024775020863941347 -0.033997075186594047 0 -0.022955305450845103 -0.027504274999462036 0 -0.024544904498840427 -0.027999585784963914 0 -0.022730012462948694 -0.026198934844787063 0 -0.022892635614553909 -0.028280802716684813 0 -0.024179949135526742 -0.029361130510719272 0 -0.022674336941432345 -0.030157425850015091 0 -0.022955305450845103 -0.027504274999462036 0 -0.022892635614553909 -0.028280802716684813 0 -0.024544904498840427 -0.027999585784963914 0 -0.022892635614553909 -0.028280802716684813 0 -0.024544904498840427 -0.027999585784963914 0 -0.024179949135526742 -0.029361130510719272 0 -0.024544904498840427 -0.027999585784963914 0 -0.024179949135526742 -0.029361130510719272 0 -0.026394541494590442 -0.029723823504284246 0 -0.02596579426984745 -0.032566016283544351 0 -0.027766511811994493 -0.032741694137182108 0 -0.024326102780680838 -0.03065105273809773 0 -0.024179949135526742 -0.029361130510719272 0 -0.026394541494590442 -0.029723823504284246 0 -0.024326102780680838 -0.03065105273809773 0 -0.026394541494590442 -0.029723823504284246 0 -0.02604488113015696 -0.031273052012242057 0 -0.024326102780680838 -0.03065105273809773 0 -0.024179949135526742 -0.029361130510719272 0 -0.022674336941432345 -0.030157425850015091 0 -0.029982196893584119 -0.03506404905612738 0 -0.028607001798604925 -0.035584505638818119 0 -0.030419135771283679 -0.035303774618094419 0 -0.031882919056472364 -0.034512138006242206 0 -0.029982196893584119 -0.03506404905612738 0 -0.031432931632976856 -0.034792052945658243 0 -0.029982196893584119 -0.03506404905612738 0 -0.030419135771283679 -0.035303774618094419 0 -0.031432931632976856 -0.034792052945658243 0 -0.030419135771283679 -0.035303774618094419 0 -0.031432931632976856 -0.034792052945658243 0 -0.031748595123463917 -0.034641782224244209 0 -0.027766511811994493 -0.032741694137182108 0 -0.029353337442974897 -0.03330158561558131 0 -0.031432931632976856 -0.034792052945658243 0 -0.031748595123463917 -0.034641782224244209 0 -0.031807812585784634 -0.034398644546033745 0 -0.028505390469274118 -0.031273502729764001 0 -0.02604488113015696 -0.031273052012242057 0 -0.027030223085764055 -0.032468182177082291 0 -0.02604488113015696 -0.031273052012242057 0 -0.027030223085764055 -0.032468182177082291 0 -0.024639248042421208 -0.032219092835995292 0 -0.026394541494590442 -0.029723823504284246 0 -0.028505390469274118 -0.031273502729764001 0 -0.02604488113015696 -0.031273052012242057 0 -0.02518406859388872 -0.032293876202810608 0 -0.023934005330362922 -0.032096869046406226 0 -0.027030223085764055 -0.032468182177082291 0 -0.02516982363748568 -0.033181174125155949 0 -0.027473928789456564 -0.034483025223491476 0 -0.027030223085764055 -0.032468182177082291 0 -0.02516982363748568 -0.033181174125155949 0 -0.023565825026484358 -0.031749885388803391 0 -0.027030223085764055 -0.032468182177082291 0 -0.02921199546536421 -0.033152971151571772 0 -0.027473928789456564 -0.034483025223491476 0 -0.028505390469274118 -0.031273502729764001 0 -0.027030223085764055 -0.032468182177082291 0 -0.02921199546536421 -0.033152971151571772 0 -0.024326102780680838 -0.03065105273809773 0 -0.022674336941432345 -0.030157425850015091 0 -0.022162847758022915 -0.032005791502802819 0 -0.024326102780680838 -0.03065105273809773 0 -0.024639248042421208 -0.032219092835995292 0 -0.022162847758022915 -0.032005791502802819 0 -0.023934005330362922 -0.032096869046406226 0 -0.022012167604076996 -0.031830836999504737 0 -0.024326102780680838 -0.03065105273809773 0 -0.02604488113015696 -0.031273052012242057 0 -0.024639248042421208 -0.032219092835995292 0 -0.02516982363748568 -0.033181174125155949 0 -0.023565825026484358 -0.031749885388803391 0 -0.023660296499222428 -0.034358171108224769 0 -0.023565825026484358 -0.031749885388803391 0 -0.021976835951666388 -0.032893217375997243 0 -0.023660296499222428 -0.034358171108224769 0 -0.023565825026484358 -0.031749885388803391 0 -0.021976835951666388 -0.032893217375997243 0 -0.021123843140423277 -0.031639947464214516 0 -0.023507221890021808 -0.033774248761727417 0 -0.022327332170299741 -0.03384571834494806 0 -0.0218962074246653 -0.033398271983644257 0 -0.021493073271826989 -0.034260339014637861 0 -0.020891880549185244 -0.033703652278414736 0 -0.021976835951666388 -0.032893217375997243 0 -0.023660296499222428 -0.034358171108224769 0 -0.020891880549185244 -0.033703652278414736 0 -0.0218962074246653 -0.033398271983644257 0 -0.022390030071448696 -0.034567624940544259 0 -0.021493073271826989 -0.034260339014637861 0 -0.0218962074246653 -0.033398271983644257 0 -0.022390030071448696 -0.034567624940544259 0 -0.02314573513641275 -0.033894008927128842 0 -0.02921199546536421 -0.033152971151571772 0 -0.027473928789456564 -0.034483025223491476 0 -0.031513080791429691 -0.033901588336271042 0 -0.024164279415893396 -0.032754267804281395 0 -0.02607903883072302 -0.033602031049533805 0 -0.027808265386442821 -0.032609678993809593 0 -0.024164279415893396 -0.032754267804281395 0 -0.024660738824028045 -0.035112090999367476 0 -0.02607903883072302 -0.033602031049533805 0 -0.02602242232195567 -0.033572205341579765 0 -0.028587846902099555 -0.033349362425778621 0 -0.02516982363748568 -0.033181174125155949 0 -0.023660296499222428 -0.034358171108224769 0 -0.027473928789456564 -0.034483025223491476 0 -0.0218962074246653 -0.033398271983644257 0 -0.024164279415893396 -0.032754267804281395 0 -0.02314573513641275 -0.033894008927128842 0 -0.023507221890021808 -0.033774248761727417 0 -0.02602242232195567 -0.033572205341579765 0 -0.024164279415893396 -0.032754267804281395 0 -0.02314573513641275 -0.033894008927128842 0 -0.024660738824028045 -0.035112090999367476 0 -0.023668057993049642 -0.033565883772257291 0 -0.024352693851091914 -0.033296131399938367 0 -0.022390030071448696 -0.034567624940544259 0 -0.02314573513641275 -0.033894008927128842 0 -0.024660738824028045 -0.035112090999367476 0 -0.024352693851091914 -0.033296131399938367 0 -0.026279429414890962 -0.032347293387209874 0 -0.022525316059834963 -0.034477780511245337 0 -0.022847915972779301 -0.03438494921006998 0 -0.022634366269710524 -0.034668111467594423 0 -0.024660738824028045 -0.035112090999367476 0 -0.027399303068916279 -0.035144266767603974 0 -0.02607903883072302 -0.033602031049533805 0 -0.027399303068916279 -0.035144266767603974 0 -0.02607903883072302 -0.033602031049533805 0 -0.027332940465202734 -0.033588110320659406 0 -0.027399303068916279 -0.035144266767603974 0 -0.027332940465202734 -0.033588110320659406 0 -0.02813386292243086 -0.033928438659780159 0 -0.02800993087985074 -0.03342377334205314 0 -0.027332940465202734 -0.033588110320659406 0 -0.02813386292243086 -0.033928438659780159 0 -0.02800993087985074 -0.03342377334205314 0 -0.027332940465202734 -0.033588110320659406 0 -0.027808265386442821 -0.032609678993809593 0 -0.02607903883072302 -0.033602031049533805 0 -0.027332940465202734 -0.033588110320659406 0 -0.027808265386442821 -0.032609678993809593 0 -0.027808265386442821 -0.032609678993809593 0 -0.029374760636427421 -0.033544954466200344 0 -0.03068482145078202 -0.033307952724104958 0 -0.027808265386442821 -0.032609678993809593 0 -0.029374760636427421 -0.033544954466200344 0 -0.028544450700633009 -0.033550499279874579 0 -0.02800993087985074 -0.03342377334205314 0 -0.027808265386442821 -0.032609678993809593 0 -0.028544450700633009 -0.033550499279874579 0 -0.02800993087985074 -0.03342377334205314 0 -0.028544450700633009 -0.033550499279874579 0 -0.02813386292243086 -0.033928438659780159 0 -0.028544450700633009 -0.033550499279874579 0 -0.02813386292243086 -0.033928438659780159 0 -0.02895741306290868 -0.034137269224268858 0 -0.029374760636427421 -0.033544954466200344 0 -0.02895741306290868 -0.034137269224268858 0 -0.029779948599562751 -0.034692759648103311 0 -0.029374760636427421 -0.033544954466200344 0 -0.028544450700633009 -0.033550499279874579 0 -0.02895741306290868 -0.034137269224268858 0 -0.030807681404685153 -0.030222172772455421 0 -0.028307283637722145 -0.031006805952988811 0 -0.027399303068916279 -0.035144266767603974 0 -0.02895741306290868 -0.034137269224268858 0 -0.029779948599562751 -0.034692759648103311 0 -0.026279429414890962 -0.032347293387209874 0 -0.030807681404685153 -0.030222172772455421 0 -0.022847915972779301 -0.03438494921006998 0 -0.023237688882234937 -0.034325239569275294 0 -0.022923014631307272 -0.034649801455821604 0 -0.027399303068916279 -0.035144266767603974 0 -0.02813386292243086 -0.033928438659780159 0 -0.02895741306290868 -0.034137269224268858 0 -0.036833930524250352 -0.027042370287092707 0 -0.03592969679444509 -0.027146204559116295 0 -0.035642666497501176 -0.027709605758804413 0 -0.034692427767638749 -0.025635001725683379 0 -0.034249200252189485 -0.025128278576070775 0 -0.034126934441361848 -0.025874954946460707 0 -0.034692427767638749 -0.025635001725683379 0 -0.035115073343701751 -0.025917126011211149 0 -0.035091075447122574 -0.025790281864976283 0 -0.034692427767638749 -0.025635001725683379 0 -0.034249200252189485 -0.025128278576070775 0 -0.035115073343701751 -0.025917126011211149 0 -0.030807681404685153 -0.030222172772455421 0 -0.033592746403960719 -0.028465947627941499 0 -0.035115073343701751 -0.025917126011211149 0 -0.035247986220501307 -0.026087782604229681 0 -0.035091075447122574 -0.025790281864976283 0 -0.03592969679444509 -0.027146204559116295 0 -0.035000028918474618 -0.027204173206735072 0 -0.035642666497501176 -0.027709605758804413 0 -0.033592746403960719 -0.028465947627941499 0 -0.034998036219602478 -0.027207500349896233 0 -0.035115073343701751 -0.025917126011211149 0 -0.034999518675508878 -0.027200644956182012 0 -0.035247986220501307 -0.026087782604229681 0 -0.034999416499339867 -0.027658217075244899 0 -0.035118989529179516 -0.029334412896428009 0 -0.035571772790975786 -0.028861526343374886 0 -0.035000028918474618 -0.027204173206735072 0 -0.034999945019082983 -0.027655353721734159 0 -0.035642666497501176 -0.027709605758804413 0 -0.034996740070255279 -0.027660444103831051 0 -0.034090370806126771 -0.029575420016732395 0 -0.034999945019082983 -0.027655353721734159 0 -0.035642666497501176 -0.027709605758804413 0 -0.035750770143176548 -0.028332756068250149 0 -0.029779948599562751 -0.034692759648103311 0 -0.03068482145078202 -0.033307952724104958 0 -0.030755905961917795 -0.033212705926336288 0 -0.036833930524250352 -0.027042370287092707 0 -0.035642666497501176 -0.027709605758804413 0 -0.035750770143176548 -0.028332756068250149 0 -0.030807681404685153 -0.030222172772455421 0 -0.034090370806126771 -0.029575420016732395 0 -0.029374760636427421 -0.033544954466200344 0 -0.029779948599562751 -0.034692759648103311 0 -0.03068482145078202 -0.033307952724104958 0 -0.034090370806126771 -0.029575420016732395 0 -0.03333259866819465 -0.031076675367366403 0 -0.034996998981699022 -0.031894179487443067 0 -0.034999416499339867 -0.027658217075244899 0 -0.035118989529179516 -0.029334412896428009 0 -0.034186045364014962 -0.032903247923200658 0 -0.035118989529179516 -0.029334412896428009 0 -0.034578875041122947 -0.031682786850834366 0 -0.03068482145078202 -0.033307952724104958 0 -0.030755905961917795 -0.033212705926336288 0 -0.031011911464749149 -0.034091807520554955 0 -0.03068482145078202 -0.033307952724104958 0 -0.031011911464749149 -0.034091807520554955 0 -0.031159677101034892 -0.033708073127373478 0 -0.035118989529179516 -0.029334412896428009 0 -0.035166468821764135 -0.029316503590849325 0 -0.034578875041122947 -0.031682786850834366 0 -0.034143253440310335 -0.029531198242247172 0 -0.034090370806126771 -0.029575420016732395 0 -0.032420245645555866 -0.034169344587891629 0 -0.031011911464749149 -0.034091807520554955 0 -0.031512914655728849 -0.034075335411981038 0 -0.033051388417827461 -0.031614371830703057 0 -0.03333259866819465 -0.031076675367366403 0 -0.032420245645555866 -0.034169344587891629 0 -0.031807812585784634 -0.034398644546033745 0 -0.031512914655728849 -0.034075335411981038 0 -0.031748595123463917 -0.034641782224244209 0 -0.031807812585784634 -0.034398644546033745 0 -0.031612046378082355 -0.034113205969727424 0 -0.031807812585784634 -0.034398644546033745 0 -0.031612046378082355 -0.034113205969727424 0 -0.031512914655728849 -0.034075335411981038 0 -0.029353337442974897 -0.03330158561558131 0 -0.030134102677804538 -0.033713407000750109 0 -0.02921199546536421 -0.033152971151571772 0 -0.031513080791429691 -0.033901588336271042 0 -0.031465558777617725 -0.033699973935010737 0 -0.028505390469274118 -0.031273502729764001 0 -0.02921199546536421 -0.033152971151571772 0 -0.031465558777617725 -0.033699973935010737 0 -0.031748595123463917 -0.034641782224244209 0 -0.031612046378082355 -0.034113205969727424 0 -0.031465558777617725 -0.033699973935010737 0 -0.031612046378082355 -0.034113205969727424 0 -0.031465558777617725 -0.033699973935010737 0 -0.03137177895195941 -0.03380240681692917 0 -0.031513080791429691 -0.033901588336271042 0 -0.031465558777617725 -0.033699973935010737 0 -0.03137177895195941 -0.03380240681692917 0 -0.031513080791429691 -0.033901588336271042 0 -0.03068482145078202 -0.033307952724104958 0 -0.031159677101034892 -0.033708073127373478 0 -0.028587846902099555 -0.033349362425778621 0 -0.029530445908623689 -0.033279257049122574 0 -0.031513080791429691 -0.033901588336271042 0 -0.03137177895195941 -0.03380240681692917 0 -0.031159677101034892 -0.033708073127373478 0 -0.031011911464749149 -0.034091807520554955 0 -0.031159677101034892 -0.033708073127373478 0 -0.031269727008167679 -0.033911596601725789 0 -0.031011911464749149 -0.034091807520554955 0 -0.031269727008167679 -0.033911596601725789 0 -0.031512914655728849 -0.034075335411981038 0 -0.03137177895195941 -0.03380240681692917 0 -0.031269727008167679 -0.033911596601725789 0 -0.031512914655728849 -0.034075335411981038 0 -0.031612046378082355 -0.034113205969727424 0 -0.03137177895195941 -0.03380240681692917 0 -0.031512914655728849 -0.034075335411981038 0 -0.03137177895195941 -0.03380240681692917 0 -0.031159677101034892 -0.033708073127373478 0 -0.031269727008167679 -0.033911596601725789 0 -0.01677229313287526 -0.03837368891244141 0 -0.018479448624085081 -0.037313947312282846 0 -0.016680349222679851 -0.036997121523338547 0 -0.018479448624085081 -0.037313947312282846 0 -0.019483140100623433 -0.038641173815074807 0 -0.019799254740929511 -0.037742624209691454 0 -0.016324741046299229 -0.03620480540638308 0 -0.017932498389023954 -0.035534133341594262 0 -0.01677229313287526 -0.03837368891244141 0 -0.018479448624085081 -0.037313947312282846 0 -0.019483140100623433 -0.038641173815074807 0 -0.018479448624085081 -0.037313947312282846 0 -0.019753659302040254 -0.036922093987671281 0 -0.019799254740929511 -0.037742624209691454 0 -0.018479448624085081 -0.037313947312282846 0 -0.018925149291521396 -0.0363243681317615 0 -0.019753659302040254 -0.036922093987671281 0 -0.018479448624085081 -0.037313947312282846 0 -0.017814680276132769 -0.036270536566462515 0 -0.018925149291521396 -0.0363243681317615 0 -0.018479448624085081 -0.037313947312282846 0 -0.016680349222679851 -0.036997121523338547 0 -0.017814680276132769 -0.036270536566462515 0 -0.016680349222679851 -0.036997121523338547 0 -0.017814680276132769 -0.036270536566462515 0 -0.016455194565848614 -0.036080474479784921 0 -0.017814680276132769 -0.036270536566462515 0 -0.016777868365181206 -0.034930475731732955 0 -0.019033274555696988 -0.035606272099724008 0 -0.017814680276132769 -0.036270536566462515 0 -0.016777868365181206 -0.034930475731732955 0 -0.016455194565848614 -0.036080474479784921 0 -0.017610761492403048 -0.035990294715930925 0 -0.018951032031607785 -0.034999593471631264 0 -0.016855890651195374 -0.035000013881605771 0 -0.016783607414681836 -0.035532110760728729 0 -0.017522488612745177 -0.035524864094892972 0 -0.017610761492403048 -0.035990294715930925 0 -0.018951032031607785 -0.034999593471631264 0 -0.019033274555696988 -0.035606272099724008 0 -0.019033274555696988 -0.035606272099724008 0 -0.018925149291521396 -0.0363243681317615 0 -0.020420868369470057 -0.035917756011249996 0 -0.017814680276132769 -0.036270536566462515 0 -0.019033274555696988 -0.035606272099724008 0 -0.018925149291521396 -0.0363243681317615 0 -0.018925149291521396 -0.0363243681317615 0 -0.020420868369470057 -0.035917756011249996 0 -0.019753659302040254 -0.036922093987671281 0 -0.020420868369470057 -0.035917756011249996 0 -0.020696659381984242 -0.036735169375002381 0 -0.019753659302040254 -0.036922093987671281 0 -0.018951032031607785 -0.034999593471631264 0 -0.019033274555696988 -0.035606272099724008 0 -0.021046402753762777 -0.034999707856589728 0 -0.019033274555696988 -0.035606272099724008 0 -0.020420868369470057 -0.035917756011249996 0 -0.021046402753762777 -0.034999707856589728 0 -0.020420868369470057 -0.035917756011249996 0 -0.021046402753762777 -0.034999707856589728 0 -0.021785527266701864 -0.036125407339620628 0 -0.020420868369470057 -0.035917756011249996 0 -0.021785527266701864 -0.036125407339620628 0 -0.020696659381984242 -0.036735169375002381 0 -0.021785527266701864 -0.036125407339620628 0 -0.020696659381984242 -0.036735169375002381 0 -0.021480428648178215 -0.037291694058337037 0 -0.021480428648178215 -0.037291694058337037 0 -0.020456551851072285 -0.037419100733576877 0 -0.020690763166855627 -0.038416309623762579 0 -0.020696659381984242 -0.036735169375002381 0 -0.021480428648178215 -0.037291694058337037 0 -0.020456551851072285 -0.037419100733576877 0 -0.020696659381984242 -0.036735169375002381 0 -0.019753659302040254 -0.036922093987671281 0 -0.020456551851072285 -0.037419100733576877 0 -0.019753659302040254 -0.036922093987671281 0 -0.020456551851072285 -0.037419100733576877 0 -0.0197992