<?xml version="1.0"?>
<VTKFile type="UnstructuredGrid" version="0.1" byte_order="LittleEndian">
<UnstructuredGrid>
<Piece NumberOfPoints="31855" NumberOfCells="11197">
<Points>
<DataArray type="Float64" NumberOfComponents="3" format="ascii">
-0.5 -0.5 0 -0.47544589962004319 -0.46906165701027358 0 -0.5 -0.43825971655384077 0 -0.5 -0.5 0 -0.47544589962004319 -0.46906165701027358 0 -0.45557245099849908 -0.5 0 -0.45557245099849908 -0.5 0 -0.45027845627324509 -0.47425029269528007 0 -0.41173285960140382 -0.4920568552127873 0 -0.47544589962004319 -0.46906165701027358 0 -0.45557245099849908 -0.5 0 -0.45027845627324509 -0.47425029269528007 0 -0.44270073342592381 -0.44907784897443809 0 -0.4473403140130966 -0.43208919884800923 0 -0.42845713400988 -0.44376566272795692 0 -0.44270073342592381 -0.44907784897443809 0 -0.46740701255847411 -0.44403074993066027 0 -0.4473403140130966 -0.43208919884800923 0 -0.45027845627324509 -0.47425029269528007 0 -0.44270073342592381 -0.44907784897443809 0 -0.42465530609303809 -0.46837424119173199 0 -0.47544589962004319 -0.46906165701027358 0 -0.45027845627324509 -0.47425029269528007 0 -0.46740701255847411 -0.44403074993066027 0 -0.45027845627324509 -0.47425029269528007 0 -0.44270073342592381 -0.44907784897443809 0 -0.46740701255847411 -0.44403074993066027 0 -0.47544589962004319 -0.46906165701027358 0 -0.46740701255847411 -0.44403074993066027 0 -0.5 -0.43825971655384077 0 -0.46740701255847411 -0.44403074993066027 0 -0.5 -0.43825971655384077 0 -0.47945668856220608 -0.41862217385024558 0 -0.5 -0.43825971655384077 0 -0.47945668856220608 -0.41862217385024558 0 -0.49999999999999789 -0.38341502480055339 0 -0.47945668856220608 -0.41862217385024558 0 -0.49999999999999789 -0.38341502480055339 0 -0.48238377651037512 -0.39240587809295618 0 -0.49999999999999789 -0.38341502480055339 0 -0.48238377651037512 -0.39240587809295618 0 -0.48599255454601709 -0.37424344971113283 0 -0.49999999999999789 -0.38341502480055339 0 -0.48599255454601709 -0.37424344971113283 0 -0.47945668856220608 -0.41862217385024558 0 -0.48238377651037512 -0.39240587809295618 0 -0.46647141912868378 -0.39334286400989321 0 -0.48238377651037512 -0.39240587809295618 0 -0.46647141912868378 -0.39334286400989321 0 -0.48599255454601709 -0.37424344971113283 0 -0.46647141912868378 -0.39334286400989321 0 -0.48599255454601709 -0.37424344971113283 0 -0.47189087427263132 -0.37663550417099928 0 -0.46647141912868378 -0.39334286400989321 0 -0.48599255454601709 -0.37424344971113283 0 -0.46347773589691338 -0.37605314335579332 0 -0.45197703600827788 -0.38936486827753131 0 -0.44464059646223691 -0.37415060920408721 0 -0.47189087427263132 -0.37663550417099928 0 -0.46347773589691338 -0.37605314335579332 0 -0.46647141912868378 -0.39334286400989321 0 -0.46347773589691338 -0.37605314335579332 0 -0.46647141912868378 -0.39334286400989321 0 -0.45197703600827788 -0.38936486827753131 0 -0.46647141912868378 -0.39334286400989321 0 -0.45197703600827788 -0.38936486827753131 0 -0.44695028371134998 -0.41244227830865299 0 -0.46647141912868378 -0.39334286400989321 0 -0.44695028371134998 -0.41244227830865299 0 -0.43834514484220538 -0.39083544650922919 0 -0.45197703600827788 -0.38936486827753131 0 -0.44695028371134998 -0.41244227830865299 0 -0.43834514484220538 -0.39083544650922919 0 -0.44695028371134998 -0.41244227830865299 0 -0.43025890904714692 -0.40875899809489441 0 -0.43834514484220538 -0.39083544650922919 0 -0.45197703600827788 -0.38936486827753131 0 -0.44464059646223691 -0.37415060920408721 0 -0.47945668856220608 -0.41862217385024558 0 -0.46647141912868378 -0.39334286400989321 0 -0.44695028371134998 -0.41244227830865299 0 -0.46740701255847411 -0.44403074993066027 0 -0.47945668856220608 -0.41862217385024558 0 -0.4473403140130966 -0.43208919884800923 0 -0.47945668856220608 -0.41862217385024558 0 -0.44695028371134998 -0.41244227830865299 0 -0.4473403140130966 -0.43208919884800923 0 -0.44695028371134998 -0.41244227830865299 0 -0.4473403140130966 -0.43208919884800923 0 -0.42742914829401629 -0.43154169260741299 0 -0.44695028371134998 -0.41244227830865299 0 -0.42742914829401629 -0.43154169260741299 0 -0.4473403140130966 -0.43208919884800923 0 -0.42742914829401629 -0.43154169260741299 0 -0.42845713400988 -0.44376566272795692 0 -0.42742914829401629 -0.43154169260741299 0 -0.43025890904714692 -0.40875899809489441 0 -0.41666672290202877 -0.41912340917851831 0 -0.43025890904714692 -0.40875899809489441 0 -0.41666672290202877 -0.41912340917851831 0 -0.42149602710815359 -0.39408315258476662 0 -0.44695028371134998 -0.41244227830865299 0 -0.42742914829401629 -0.43154169260741299 0 -0.43025890904714692 -0.40875899809489441 0 -0.41666672290202877 -0.41912340917851831 0 -0.42149602710815359 -0.39408315258476662 0 -0.41666672290202877 -0.41912340917851831 0 -0.41011272358218998 -0.40594236012380169 0 -0.401768557813307 -0.42281830855747388 0 -0.41666672290202877 -0.41912340917851831 0 -0.41011272358218998 -0.40594236012380169 0 -0.42149602710815359 -0.39408315258476662 0 -0.41666672290202877 -0.41912340917851831 0 -0.41188069054236642 -0.43517571126800708 0 -0.401768557813307 -0.42281830855747388 0 -0.42742914829401629 -0.43154169260741299 0 -0.41666672290202877 -0.41912340917851831 0 -0.41188069054236642 -0.43517571126800708 0 -0.43834514484220538 -0.39083544650922919 0 -0.44464059646223691 -0.37415060920408721 0 -0.42632533131427852 -0.36904289599101497 0 -0.43834514484220538 -0.39083544650922919 0 -0.42149602710815359 -0.39408315258476662 0 -0.42632533131427852 -0.36904289599101497 0 -0.42149602710815359 -0.39408315258476662 0 -0.42632533131427852 -0.36904289599101497 0 -0.43834514484220538 -0.39083544650922919 0 -0.43025890904714692 -0.40875899809489441 0 -0.42149602710815359 -0.39408315258476662 0 -0.41011272358218998 -0.40594236012380169 0 -0.42149602710815359 -0.39408315258476662 0 -0.3985976555374387 -0.39482976714360368 0 -0.42149602710815359 -0.39408315258476662 0 -0.41009533864766162 -0.3788985754615451 0 -0.3985976555374387 -0.39482976714360368 0 -0.42149602710815359 -0.39408315258476662 0 -0.41009533864766162 -0.3788985754615451 0 -0.42632533131427852 -0.36904289599101497 0 -0.3985976555374387 -0.39482976714360368 0 -0.39542675326157051 -0.36684122572973349 0 -0.3985976555374387 -0.39482976714360368 0 -0.37920478159876991 -0.38285295053158652 0 -0.39542675326157051 -0.36684122572973349 0 -0.41009533864766162 -0.3788985754615451 0 -0.3985976555374387 -0.39482976714360368 0 -0.39542675326157051 -0.36684122572973349 0 -0.3985976555374387 -0.39482976714360368 0 -0.37746814703235582 -0.40557984640721639 0 -0.37920478159876991 -0.38285295053158652 0 -0.3985976555374387 -0.39482976714360368 0 -0.37746814703235582 -0.40557984640721639 0 -0.3894517632753518 -0.41249970266339581 0 -0.41188069054236642 -0.43517571126800708 0 -0.401768557813307 -0.42281830855747388 0 -0.40493946008917531 -0.45080684997134429 0 -0.401768557813307 -0.42281830855747388 0 -0.39518337331984388 -0.43773825405166528 0 -0.40493946008917531 -0.45080684997134429 0 -0.401768557813307 -0.42281830855747388 0 -0.3799726927183058 -0.42677088854528877 0 -0.39518337331984388 -0.43773825405166528 0 -0.401768557813307 -0.42281830855747388 0 -0.40493946008917531 -0.45080684997134429 0 -0.41011272358218998 -0.40594236012380169 0 -0.3985976555374387 -0.39482976714360368 0 -0.401768557813307 -0.42281830855747388 0 -0.3985976555374387 -0.39482976714360368 0 -0.401768557813307 -0.42281830855747388 0 -0.3894517632753518 -0.41249970266339581 0 -0.3985976555374387 -0.39482976714360368 0 -0.401768557813307 -0.42281830855747388 0 -0.401768557813307 -0.42281830855747388 0 -0.3894517632753518 -0.41249970266339581 0 -0.3799726927183058 -0.42677088854528877 0 -0.37746814703235582 -0.40557984640721639 0 -0.3799726927183058 -0.42677088854528877 0 -0.37746814703235582 -0.40557984640721639 0 -0.3894517632753518 -0.41249970266339581 0 -0.3799726927183058 -0.42677088854528877 0 -0.3799726927183058 -0.42677088854528877 0 -0.38247723840425579 -0.44796193068336132 0 -0.3799726927183058 -0.42677088854528877 0 -0.38247723840425579 -0.44796193068336132 0 -0.36431448118181409 -0.43507547628127141 0 -0.3799726927183058 -0.42677088854528877 0 -0.38247723840425579 -0.44796193068336132 0 -0.39518337331984388 -0.43773825405166528 0 -0.38247723840425579 -0.44796193068336132 0 -0.39518337331984388 -0.43773825405166528 0 -0.39613610401984001 -0.44742404961220228 0 -0.38247723840425579 -0.44796193068336132 0 -0.39613610401984001 -0.44742404961220228 0 -0.39356687682544539 -0.45404139263999471 0 -0.3981769259451351 -0.4528792749724122 0 -0.39613610401984001 -0.44742404961220228 0 -0.39356687682544539 -0.45404139263999471 0 -0.3981769259451351 -0.4528792749724122 0 -0.39613610401984001 -0.44742404961220228 0 -0.40493946008917531 -0.45080684997134429 0 -0.39518337331984388 -0.43773825405166528 0 -0.39613610401984001 -0.44742404961220228 0 -0.40493946008917531 -0.45080684997134429 0 -0.40493946008917531 -0.45080684997134429 0 -0.40006526346073201 -0.46553295273414891 0 -0.40811036236504361 -0.4787953913852146 0 -0.40493946008917531 -0.45080684997134429 0 -0.40006526346073201 -0.46553295273414891 0 -0.39780101910600901 -0.45758414185046647 0 -0.3981769259451351 -0.4528792749724122 0 -0.40493946008917531 -0.45080684997134429 0 -0.39780101910600901 -0.45758414185046647 0 -0.3981769259451351 -0.4528792749724122 0 -0.39780101910600901 -0.45758414185046647 0 -0.39356687682544539 -0.45404139263999471 0 -0.39780101910600901 -0.45758414185046647 0 -0.39356687682544539 -0.45404139263999471 0 -0.39172808172941531 -0.46133890730315019 0 -0.40006526346073201 -0.46553295273414891 0 -0.39172808172941531 -0.46133890730315019 0 -0.38498178409020672 -0.46915297282143359 0 -0.40006526346073201 -0.46553295273414891 0 -0.39780101910600901 -0.45758414185046647 0 -0.39172808172941531 -0.46133890730315019 0 -0.38498178409020672 -0.46915297282143359 0 -0.36580793536190481 -0.45273660197014259 0 -0.38247723840425579 -0.44796193068336132 0 -0.39172808172941531 -0.46133890730315019 0 -0.384981784
[...]
<PointData Scalars="" Vectors="displacement," Tensors="">
<DataArray type="Float64" Name="displacement" NumberOfComponents="3" format="ascii">
-0.034997639310003791 -9.8175045748185852e-08 0 -0.033973713173338117 -0.00020172448943436545 0 -0.034998528368601088 -5.1292923295812179e-07 0 -0.034997639310003791 -9.8175045748185852e-08 0 -0.033973713173338117 -0.00020172448943436545 0 -0.031891612627775331 -9.0212370514653027e-07 0 -0.031891612627775331 -9.0212370514653027e-07 0 -0.032740002717606777 4.8130197499407621e-06 0 -0.029508377509852302 0.0001785782310578561 0 -0.033973713173338117 -0.00020172448943436545 0 -0.031891612627775331 -9.0212370514653027e-07 0 -0.032740002717606777 4.8130197499407621e-06 0 -0.033632664842166017 0.00033542319919150699 0 -0.034320203511612683 0.00026536478239280032 0 -0.033737375770561552 0.00083021479495656229 0 -0.033632664842166017 0.00033542319919150699 0 -0.034284299117012126 -8.2560707604135912e-05 0 -0.034320203511612683 0.00026536478239280032 0 -0.032740002717606777 4.8130197499407621e-06 0 -0.033632664842166017 0.00033542319919150699 0 -0.032189646792450725 0.00047375863661546034 0 -0.033973713173338117 -0.00020172448943436545 0 -0.032740002717606777 4.8130197499407621e-06 0 -0.034284299117012126 -8.2560707604135912e-05 0 -0.032740002717606777 4.8130197499407621e-06 0 -0.033632664842166017 0.00033542319919150699 0 -0.034284299117012126 -8.2560707604135912e-05 0 -0.033973713173338117 -0.00020172448943436545 0 -0.034284299117012126 -8.2560707604135912e-05 0 -0.034998528368601088 -5.1292923295812179e-07 0 -0.034284299117012126 -8.2560707604135912e-05 0 -0.034998528368601088 -5.1292923295812179e-07 0 -0.034830809325131197 -7.1488676945681182e-05 0 -0.034998528368601088 -5.1292923295812179e-07 0 -0.034830809325131197 -7.1488676945681182e-05 0 -0.035000433492870651 1.1349889784442487e-07 0 -0.034830809325131197 -7.1488676945681182e-05 0 -0.035000433492870651 1.1349889784442487e-07 0 -0.034960622381482391 -1.4971729234443835e-06 0 -0.035000433492870651 1.1349889784442487e-07 0 -0.034960622381482391 -1.4971729234443835e-06 0 -0.0350043100690565 -2.8231350870305728e-06 0 -0.034020963132831351 0.00043818394072825536 0 -0.033867918319943312 0.00042981197810494263 0 -0.034830809325131197 -7.1488676945681182e-05 0 -0.034960622381482391 -1.4971729234443835e-06 0 -0.03497182488170985 6.7463380191155306e-05 0 -0.034960622381482391 -1.4971729234443835e-06 0 -0.03497182488170985 6.7463380191155306e-05 0 -0.0350043100690565 -2.8231350870305728e-06 0 -0.033517736239155001 0.00086025886591344677 0 -0.033867918319943312 0.00042981197810494263 0 -0.031771664158980022 0.0018276680991026219 0 -0.031947510080890043 0.0017741328860604348 0 -0.031749561041008137 0.0019630215095492241 0 -0.031759692889811009 0.0017515174592141673 0 -0.031912065906613718 0.0016274952960927762 0 -0.03171643933475693 0.0014855028054904728 0 -0.031771664158980022 0.0018276680991026219 0 -0.031759692889811009 0.0017515174592141673 0 -0.031947510080890043 0.0017741328860604348 0 -0.031759692889811009 0.0017515174592141673 0 -0.031947510080890043 0.0017741328860604348 0 -0.031912065906613718 0.0016274952960927762 0 -0.031947510080890043 0.0017741328860604348 0 -0.031912065906613718 0.0016274952960927762 0 -0.032135729442033509 0.0016358574848597427 0 -0.033517736239155001 0.00086025886591344677 0 -0.033457468044438311 0.00099231211777986634 0 -0.031930780026025188 0.0014909384160815924 0 -0.031912065906613718 0.0016274952960927762 0 -0.032135729442033509 0.0016358574848597427 0 -0.031930780026025188 0.0014909384160815924 0 -0.032135729442033509 0.0016358574848597427 0 -0.032097391341076101 0.0015149221039715065 0 -0.031930780026025188 0.0014909384160815924 0 -0.031912065906613718 0.0016274952960927762 0 -0.03171643933475693 0.0014855028054904728 0 -0.034830809325131197 -7.1488676945681182e-05 0 -0.03497182488170985 6.7463380191155306e-05 0 -0.034776629278773862 0.00028676536804654454 0 -0.034284299117012126 -8.2560707604135912e-05 0 -0.034830809325131197 -7.1488676945681182e-05 0 -0.034320203511612683 0.00026536478239280032 0 -0.034830809325131197 -7.1488676945681182e-05 0 -0.034776629278773862 0.00028676536804654454 0 -0.034320203511612683 0.00026536478239280032 0 -0.034776629278773862 0.00028676536804654454 0 -0.034320203511612683 0.00026536478239280032 0 -0.034241838086739723 0.00088009790665985737 0 -0.033457468044438311 0.00099231211777986634 0 -0.033396861211591355 0.0011295492396454681 0 -0.034320203511612683 0.00026536478239280032 0 -0.034241838086739723 0.00088009790665985737 0 -0.033737375770561552 0.00083021479495656229 0 -0.032432063519866286 0.0016603412063840946 0 -0.032097391341076101 0.0015149221039715065 0 -0.032173925490077242 0.0014807128045306172 0 -0.032097391341076101 0.0015149221039715065 0 -0.032173925490077242 0.0014807128045306172 0 -0.031965206975612503 0.0013554798819712648 0 -0.032135729442033509 0.0016358574848597427 0 -0.032432063519866286 0.0016603412063840946 0 -0.032097391341076101 0.0015149221039715065 0 -0.03181240723039002 0.0013549810249371039 0 -0.031607906828440786 0.0013518798239933385 0 -0.032173925490077242 0.0014807128045306172 0 -0.031643649266920648 0.0012702686064970142 0 -0.032255186722921526 0.00099711726445328658 0 -0.032173925490077242 0.0014807128045306172 0 -0.031643649266920648 0.0012702686064970142 0 -0.031197670295364365 0.0015578883146475111 0 -0.032173925490077242 0.0014807128045306172 0 -0.032670443784844148 0.0014132591254429378 0 -0.032255186722921526 0.00099711726445328658 0 -0.032432063519866286 0.0016603412063840946 0 -0.032173925490077242 0.0014807128045306172 0 -0.032670443784844148 0.0014132591254429378 0 -0.031930780026025188 0.0014909384160815924 0 -0.03171643933475693 0.0014855028054904728 0 -0.031650875102437442 0.0012105108382414241 0 -0.031930780026025188 0.0014909384160815924 0 -0.031965206975612503 0.0013554798819712648 0 -0.031650875102437442 0.0012105108382414241 0 -0.031607906828440786 0.0013518798239933385 0 -0.031358172973273764 0.001312755043330277 0 -0.031930780026025188 0.0014909384160815924 0 -0.032097391341076101 0.0015149221039715065 0 -0.031965206975612503 0.0013554798819712648 0 -0.031643649266920648 0.0012702686064970142 0 -0.031197670295364365 0.0015578883146475111 0 -0.031239040481442978 0.00099779197804247669 0 -0.031197670295364365 0.0015578883146475111 0 -0.030900033562138992 0.0013134962558839455 0 -0.031239040481442978 0.00099779197804247669 0 -0.031197670295364365 0.0015578883146475111 0 -0.030900033562138992 0.0013134962558839455 0 -0.030867039719870388 0.001296860087429644 0 -0.030992203363254093 0.0013557608843692175 0 -0.030885912377766347 0.0013434385654792684 0 -0.030151167519992604 0.0015083814135238159 0 -0.030302690713112455 0.00169593354993124 0 -0.030700692993466186 0.0013556371524182139 0 -0.030900033562138992 0.0013134962558839455 0 -0.031239040481442978 0.00099779197804247669 0 -0.030700692993466186 0.0013556371524182139 0 -0.030151167519992604 0.0015083814135238159 0 -0.030127540907142064 0.0015856628962178593 0 -0.030302690713112455 0.00169593354993124 0 -0.030151167519992604 0.0015083814135238159 0 -0.030127540907142064 0.0015856628962178593 0 -0.030271758186373489 0.0015643418307161887 0 -0.032670443784844148 0.0014132591254429378 0 -0.032255186722921526 0.00099711726445328658 0 -0.033251641875208592 0.001432306454312149 0 -0.030469578175390696 0.0018002359862411017 0 -0.030999520076697817 0.0015946761990149629 0 -0.031500994969313113 0.0018793728029789436 0 -0.030469578175390696 0.0018002359862411017 0 -0.030598330934208478 0.0012483021926913017 0 -0.030999520076697817 0.0015946761990149629 0 -0.031444492464038742 0.0014359331246624372 0 -0.032004875620025297 0.001539640752605606 0 -0.031643649266920648 0.0012702686064970142 0 -0.031239040481442978 0.00099779197804247669 0 -0.032255186722921526 0.00099711726445328658 0 -0.030151167519992604 0.0015083814135238159 0 -0.030469578175390696 0.0018002359862411017 0 -0.030271758186373489 0.0015643418307161887 0 -0.030992203363254093 0.0013557608843692175 0 -0.031444492464038742 0.0014359331246624372 0 -0.030469578175390696 0.0018002359862411017 0 -0.030271758186373489 0.0015643418307161887 0 -0.030598330934208478 0.0012483021926913017 0 -0.030274288384565678 0.0012775997154735178 0 -0.030247996897177252 0.0012233842693211666 0 -0.030127540907142064 0.0015856628962178593 0 -0.030271758186373489 0.0015643418307161887 0 -0.030598330934208478 0.0012483021926913017 0 -0.030247996897177252 0.0012233842693211666 0 -0.030022891659525222 0.0010654012610709152 0 -0.029834735555825973 0.0015730502692933698 0 -0.029581502006874979 0.0015457680606342599 0 -0.029739232295318125 0.0017724894514871432 0 -0.030598330934208478 0.0012483021926913017 0 -0.03137641371324295 0.0011582671354553407 0 -0.030999520076697817 0.0015946761990149629 0 -0.03137641371324295 0.0011582671354553407 0 -0.030999520076697817 0.0015946761990149629 0 -0.031363447702900719 0.0015961259143721809 0 -0.03137641371324295 0.0011582671354553407 0 -0.031363447702900719 0.0015961259143721809 0 -0.031599831358759579 0.001496571030813275 0 -0.031563218619154849 0.0016394387919891405 0 -0.031363447702900719 0.0015961259143721809 0 -0.031599831358759579 0.001496571030813275 0 -0.031563218619154849 0.0016394387919891405 0 -0.031363447702900719 0.0015961259143721809 0 -0.031500994969313113 0.0018793728029789436 0 -0.030999520076697817 0.0015946761990149629 0 -0.031363447702900719 0.0015961259143721809 0 -0.031500994969313113 0.0018793728029789436 0 -0.031500994969313113 0.0018793728029789436 0 -0.031969496502648645 0.0015807480352246636 0 -0.032356733556278328 0.0016025148765294477 0 -0.031500994969313113 0.0018793728029789436 0 -0.031969496502648645 0.0015807480352246636 0 -0.0317229116274267 0.0015968289375864974 0 -0.031563218619154849 0.0016394387919891405 0 -0.031500994969313113 0.0018793728029789436 0 -0.0317229116274267 0.0015968289375864974 0 -0.031563218619154849 0.0016394387919891405 0 -0.0317229116274267 0.0015968289375864974 0 -0.031599831358759579 0.001496571030813275 0 -0.0317229116274267 0.0015968289375864974 0 -0.031599831358759579 0.001496571030813275 0 -0.03184552425824784 0.001434641843727475 0 -0.031969496502648645 0.0015807480352246636 0 -0.03184552425824784 0.001434641843727475 0 -0.032088167346653408 0.0012859882640599673 0 -0.031969496502648645 0.0015807480352246636 0 -0.0317229116274267 0.0015968289375864974 0 -0.03184552425824784 0.001434641843727475 0 -0.028849102309839197 0.0006978829633387081 0 -0.0285285554360909 0.00077853484215195483 0 -0.03137641371324295 0.0011582671354553407 0 -0.03184552425824784 0.001434641843727475 0 -0.032088167346653408 0.0012859882640599673 0 -0.030022891659525222 0.0010654012610709152 0 -0.028849102309839197 0.0006978829633387081 0 -0.029581502006874979 0.0015457680606342599 0 -0.02931485794915744 0.0015129251822548805 0 -0.029524502034174459 0.0017525704049167659 0 -0.03137641371324295 0.0011582671354553407 0 -0.031599831358759579 0.001496571030813275 0 -0.03184552425824784 0.001434641843727475 0 -0.027868668352990775 9.4406267980401233e-05 0 -0.027662873142352617 8.9170796903265262e-05 0 -0.027593947622517798 -6.133631479327433e-05 0 -0.026043921669725564 -0.00016566124492170564 0 -0.026124353872900387 -0.00026417231664789228 0 -0.026156964260349889 -9.5393856547905303e-05 0 -0.026043921669725564 -0.00016566124492170564 0 -0.026082595586347668 -3.6167274061438258e-05 0 -0.025900166811797437 -0.00016106644873670379 0 -0.026043921669725564 -0.00016566124492170564 0 -0.026124353872900387 -0.00026417231664789228 0 -0.026082595586347668 -3.6167274061438258e-05 0 -0.028849102309839197 0.0006978829633387081 0 -0.027699655938224505 0.00029087952420513906 0 -0.026082595586347668 -3.6167274061438258e-05 0 -0.026107049370479512 -0.0001266973398265029 0 -0.025900166811797437 -0.00016106644873670379 0 -0.027662873142352617 8.9170796903265262e-05 0 -0.027206489752918287 5.179390130111722e-08 0 -0.027593947622517798 -6.133631479327433e-05 0 -0.027699655938224505 0.00029087952420513906 0 -0.027204493994379141 7.9486625932185897e-07 0 -0.026082595586347668 -3.6167274061438258e-05 0 -0.027201473427526796 2.326548192322542e-07 0 -0.026107049370479512 -0.0001266973398265029 0 -0.027659267358951658 2.8023943156778681e-06 0 -0.029508377509852302 0.0001785782310578561 0 -0.029425779988352795 0.00024388451477631027 0 -0.027206489752918287 5.179390130111722e-08 0 -0.027653034631869935 -4.9880953847811698e-08 0 -0.027593947622517798 -6.133631479327433e-05 0 -0.027658957254460367 1.4023526105869908e-06 0 -0.029013215935023848 0.00030015367998128888 0 -0.027653034631869935 -4.9880953847811698e-08 0 -0.027593947622517798 -6.133631479327433e-05 0 -0.027597251638117805 -0.00014952213361063316 0 -0.032088167346653408 0.0012859882640599673 0 -0.032356733556278328 0.0016025148765294477 0 -0.032255975724007423 0.0016678982864173496 0 -0.027868668352990775 9.4406267980401233e-05 0 -0.027593947622517798 -6.133631479327433e-05 0 -0.027597251638117805 -0.00014952213361063316 0 -0.028849102309839197 0.0006978829633387081 0 -0.029013215935023848 0.00030015367998128888 0 -0.031969496502648645 0.0015807480352246636 0 -0.032088167346653408 0.0012859882640599673 0 -0.032356733556278328 0.0016025148765294477 0 -0.029013215935023848 0.00030015367998128888 0 -0.031380185884851919 -0.00019127046779860154 0 -0.031891612627775331 -9.0212370514653027e-07 0 -0.027659267358951658 2.8023943156778681e-06 0 -0.029508377509852302 0.0001785782310578561 0 -0.032740002717606777 4.8130197499407621e-06 0 -0.029508377509852302 0.0001785782310578561 0 -0.032189646792450725 0.00047375863661546034 0 -0.032356733556278328 0.0016025148765294477 0 -0.032255975724007423 0.0016678982864173496 0 -0.032659592291976111 0.00098631494918803358 0 -0.032356733556278328 0.0016025148765294477 0 -0.032659592291976111 0.00098631494918803358 0 -0.032845183726913113 0.0013864233802233646 0 -0.029508377509852302 0.0001785782310578561 0 -0.029905248312837612 0.00066765627908564325 0 -0.032189646792450725 0.00047375863661546034 0 -0.029030521940692576 0.00030834655140797931 0 -0.029013215935023848 0.00030015367998128888 0 -0.033632664842166017 0.00033542319919150699 0 -0.032659592291976111 0.00098631494918803358 0 -0.033202391331294358 0.0011060088733574722 0 -0.032159027703389596 -0.00035749988736967524 0 -0.031380185884851919 -0.00019127046779860154 0 -0.033632664842166017 0.00033542319919150699 0 -0.033737375770561552 0.00083021479495656229 0 -0.033202391331294358 0.0011060088733574722 0 -0.034241838086739723 0.00088009790665985737 0 -0.033737375770561552 0.00083021479495656229 0 -0.033483237927607684 0.0011342305798542176 0 -0.033737375770561552 0.00083021479495656229 0 -0.033483237927607684 0.0011342305798542176 0 -0.033202391331294358 0.0011060088733574722 0 -0.033396861211591355 0.0011295492396454681 0 -0.033364229491890593 0.0011968057687531224 0 -0.032670443784844148 0.0014132591254429378 0 -0.033251641875208592 0.001432306454312149 0 -0.033237520384323191 0.0014570559875164801 0 -0.032432063519866286 0.0016603412063840946 0 -0.032670443784844148 0.0014132591254429378 0 -0.033237520384323191 0.0014570559875164801 0 -0.034241838086739723 0.00088009790665985737 0 -0.033483237927607684 0.0011342305798542176 0 -0.033237520384323191 0.0014570559875164801 0 -0.033483237927607684 0.0011342305798542176 0 -0.033237520384323191 0.0014570559875164801 0 -0.033083990979125941 0.0013466160855570087 0 -0.033251641875208592 0.001432306454312149 0 -0.033237520384323191 0.0014570559875164801 0 -0.033083990979125941 0.0013466160855570087 0 -0.033251641875208592 0.001432306454312149 0 -0.032356733556278328 0.0016025148765294477 0 -0.032845183726913113 0.0013864233802233646 0 -0.032004875620025297 0.001539640752605606 0 -0.032155981021611393 0.0015672498397456462 0 -0.033251641875208592 0.001432306454312149 0 -0.033083990979125941 0.0013466160855570087 0 -0.032845183726913113 0.0013864233802233646 0 -0.032659592291976111 0.00098631494918803358 0 -0.032845183726913113 0.0013864233802233646 0 -0.032953423298658698 0.0012136019951149257 0 -0.032659592291976111 0.00098631494918803358 0 -0.032953423298658698 0.0012136019951149257 0 -0.033202391331294358 0.0011060088733574722 0 -0.033083990979125941 0.0013466160855570087 0 -0.032953423298658698 0.0012136019951149257 0 -0.033202391331294358 0.0011060088733574722 0 -0.033483237927607684 0.0011342305798542176 0 -0.033083990979125941 0.0013466160855570087 0 -0.033202391331294358 0.0011060088733574722 0 -0.033083990979125941 0.0013466160855570087 0 -0.032845183726913113 0.0013864233802233646 0 -0.032953423298658698 0.0012136019951149257 0 -0.03444351798850559 -8.2563009073724196e-05 0 -0.034726110268159326 6.7384946499007877e-05 0 -0.034418280027027015 0.00013297961615426382 0 -0.034726110268159326 6.7384946499007877e-05 0 -0.034853120947446692 -7.3225791322498702e-05 0 -0.034871285642774856 1.2050335972085647e-05 0 -0.033785735134622755 0.00025581235678435679 0 -0.033556001052421472 0.0003539727918133204 0 -0.03444351798850559 -8.2563009073724196e-05 0 -0.034726110268159326 6.7384946499007877e-05 0 -0.034853120947446692 -7.3225791322498702e-05 0 -0.034726110268159326 6.7384946499007877e-05 0 -0.03487615856167358 7.862125627378494e-05 0 -0.034871285642774856 1.2050335972085647e-05 0 -0.034726110268159326 6.7384946499007877e-05 0 -0.034823242186919873 0.00013816232680821978 0 -0.03487615856167358 7.862125627378494e-05 0 -0.034726110268159326 6.7384946499007877e-05 0 -0.034640688411216911 0.00018544151797599142 0 -0.034823242186919873 0.00013816232680821978 0 -0.034726110268159326 6.7384946499007877e-05 0 -0.034418280027027015 0.00013297961615426382 0 -0.034640688411216911 0.00018544151797599142 0 -0.034418280027027015 0.00013297961615426382 0 -0.034640688411216911 0.00018544151797599142 0 -0.034369171337074338 0.00025912503032769307 0 -0.034640688411216911 0.00018544151797599142 0 -0.034436702308867889 0.00043911334570593977 0 -0.034906240380770448 0.00014944127492108261 0 -0.034640688411216911 0.00018544151797599142 0 -0.034436702308867889 0.00043911334570593977 0 -0.034369171337074338 0.00025912503032769307 0 -0.03501332843574391 3.5933216789405427e-05 0 -0.03499984584812825 1.255509285763976e-07 0 -0.03500006882244288 -8.1627749397347583e-09 0 -0.034649684136086691 0.00018551453930406461 0 -0.034695511023657366 0.00018448763571281447 0 -0.03501332843574391 3.5933216789405427e-05 0 -0.03499984584812825 1.255509285763976e-07 0 -0.034906240380770448 0.00014944127492108261 0 -0.034906240380770448 0.00014944127492108261 0 -0.034823242186919873 0.00013816232680821978 0 -0.034947361805168414 8.3003866104107885e-05 0 -0.034640688411216911 0.00018544151797599142 0 -0.034906240380770448 0.00014944127492108261 0 -0.034823242186919873 0.00013816232680821978 0 -0.034823242186919873 0.00013816232680821978 0 -0.034947361805168414 8.3003866104107885e-05 0 -0.03487615856167358 7.862125627378494e-05 0 -0.034947361805168414 8.3003866104107885e-05 0 -0.034935340221858728 6.1457706627547889e-05 0 -0.03487615856167358 7.862125627378494e-05 0 -0.03499984584812825 1.255509285763976e-07 0 -0.034906240380770448 0.00014944127492108261 0 -0.034999897531912204 8.3129828112742681e-08 0 -0.034906240380770448 0.00014944127492108261 0 -0.034947361805168414 8.3003866104107885e-05 0 -0.034999897531912204 8.3129828112742681e-08 0 -0.034947361805168414 8.3003866104107885e-05 0 -0.034999897531912204 8.3129828112742681e-08 0 -0.034975994933356312 4.5976168958145714e-05 0 -0.034947361805168414 8.3003866104107885e-05 0 -0.034975994933356312 4.5976168958145714e-05 0 -0.034935340221858728 6.1457706627547889e-05 0 -0.034975994933356312 4.5976168958145714e-05 0 -0.034935340221858728 6.1457706627547889e-05 0 -0.034956661210922065 3.4184978652175375e-05 0 -0.034956661210922065 3.4184978652175375e-05 0 -0.034911987957279289 3.2211326996735022e-05 0 -0.034909494217736793 -2.8741645760447907e-05 0 -0.034935340221858728 6.1457706627547889e-05 0 -0.034956661210922065 3.4