<?xml version="1.0"?>
<VTKFile type="UnstructuredGrid" version="0.1" byte_order="LittleEndian">
<UnstructuredGrid>
<Piece NumberOfPoints="31855" NumberOfCells="11197">
<Points>
<DataArray type="Float64" NumberOfComponents="3" format="ascii">
-0.5 -0.5 0 -0.47544589962004319 -0.46906165701027358 0 -0.5 -0.43825971655384077 0 -0.5 -0.5 0 -0.47544589962004319 -0.46906165701027358 0 -0.45557245099849908 -0.5 0 -0.45557245099849908 -0.5 0 -0.45027845627324509 -0.47425029269528007 0 -0.41173285960140382 -0.4920568552127873 0 -0.47544589962004319 -0.46906165701027358 0 -0.45557245099849908 -0.5 0 -0.45027845627324509 -0.47425029269528007 0 -0.44270073342592381 -0.44907784897443809 0 -0.4473403140130966 -0.43208919884800923 0 -0.42845713400988 -0.44376566272795692 0 -0.44270073342592381 -0.44907784897443809 0 -0.46740701255847411 -0.44403074993066027 0 -0.4473403140130966 -0.43208919884800923 0 -0.45027845627324509 -0.47425029269528007 0 -0.44270073342592381 -0.44907784897443809 0 -0.42465530609303809 -0.46837424119173199 0 -0.47544589962004319 -0.46906165701027358 0 -0.45027845627324509 -0.47425029269528007 0 -0.46740701255847411 -0.44403074993066027 0 -0.45027845627324509 -0.47425029269528007 0 -0.44270073342592381 -0.44907784897443809 0 -0.46740701255847411 -0.44403074993066027 0 -0.47544589962004319 -0.46906165701027358 0 -0.46740701255847411 -0.44403074993066027 0 -0.5 -0.43825971655384077 0 -0.46740701255847411 -0.44403074993066027 0 -0.5 -0.43825971655384077 0 -0.47945668856220608 -0.41862217385024558 0 -0.5 -0.43825971655384077 0 -0.47945668856220608 -0.41862217385024558 0 -0.49999999999999789 -0.38341502480055339 0 -0.47945668856220608 -0.41862217385024558 0 -0.49999999999999789 -0.38341502480055339 0 -0.48238377651037512 -0.39240587809295618 0 -0.49999999999999789 -0.38341502480055339 0 -0.48238377651037512 -0.39240587809295618 0 -0.48599255454601709 -0.37424344971113283 0 -0.49999999999999789 -0.38341502480055339 0 -0.48599255454601709 -0.37424344971113283 0 -0.47945668856220608 -0.41862217385024558 0 -0.48238377651037512 -0.39240587809295618 0 -0.46647141912868378 -0.39334286400989321 0 -0.48238377651037512 -0.39240587809295618 0 -0.46647141912868378 -0.39334286400989321 0 -0.48599255454601709 -0.37424344971113283 0 -0.46647141912868378 -0.39334286400989321 0 -0.48599255454601709 -0.37424344971113283 0 -0.47189087427263132 -0.37663550417099928 0 -0.46647141912868378 -0.39334286400989321 0 -0.48599255454601709 -0.37424344971113283 0 -0.46347773589691338 -0.37605314335579332 0 -0.45197703600827788 -0.38936486827753131 0 -0.44464059646223691 -0.37415060920408721 0 -0.47189087427263132 -0.37663550417099928 0 -0.46347773589691338 -0.37605314335579332 0 -0.46647141912868378 -0.39334286400989321 0 -0.46347773589691338 -0.37605314335579332 0 -0.46647141912868378 -0.39334286400989321 0 -0.45197703600827788 -0.38936486827753131 0 -0.46647141912868378 -0.39334286400989321 0 -0.45197703600827788 -0.38936486827753131 0 -0.44695028371134998 -0.41244227830865299 0 -0.46647141912868378 -0.39334286400989321 0 -0.44695028371134998 -0.41244227830865299 0 -0.43834514484220538 -0.39083544650922919 0 -0.45197703600827788 -0.38936486827753131 0 -0.44695028371134998 -0.41244227830865299 0 -0.43834514484220538 -0.39083544650922919 0 -0.44695028371134998 -0.41244227830865299 0 -0.43025890904714692 -0.40875899809489441 0 -0.43834514484220538 -0.39083544650922919 0 -0.45197703600827788 -0.38936486827753131 0 -0.44464059646223691 -0.37415060920408721 0 -0.47945668856220608 -0.41862217385024558 0 -0.46647141912868378 -0.39334286400989321 0 -0.44695028371134998 -0.41244227830865299 0 -0.46740701255847411 -0.44403074993066027 0 -0.47945668856220608 -0.41862217385024558 0 -0.4473403140130966 -0.43208919884800923 0 -0.47945668856220608 -0.41862217385024558 0 -0.44695028371134998 -0.41244227830865299 0 -0.4473403140130966 -0.43208919884800923 0 -0.44695028371134998 -0.41244227830865299 0 -0.4473403140130966 -0.43208919884800923 0 -0.42742914829401629 -0.43154169260741299 0 -0.44695028371134998 -0.41244227830865299 0 -0.42742914829401629 -0.43154169260741299 0 -0.4473403140130966 -0.43208919884800923 0 -0.42742914829401629 -0.43154169260741299 0 -0.42845713400988 -0.44376566272795692 0 -0.42742914829401629 -0.43154169260741299 0 -0.43025890904714692 -0.40875899809489441 0 -0.41666672290202877 -0.41912340917851831 0 -0.43025890904714692 -0.40875899809489441 0 -0.41666672290202877 -0.41912340917851831 0 -0.42149602710815359 -0.39408315258476662 0 -0.44695028371134998 -0.41244227830865299 0 -0.42742914829401629 -0.43154169260741299 0 -0.43025890904714692 -0.40875899809489441 0 -0.41666672290202877 -0.41912340917851831 0 -0.42149602710815359 -0.39408315258476662 0 -0.41666672290202877 -0.41912340917851831 0 -0.41011272358218998 -0.40594236012380169 0 -0.401768557813307 -0.42281830855747388 0 -0.41666672290202877 -0.41912340917851831 0 -0.41011272358218998 -0.40594236012380169 0 -0.42149602710815359 -0.39408315258476662 0 -0.41666672290202877 -0.41912340917851831 0 -0.41188069054236642 -0.43517571126800708 0 -0.401768557813307 -0.42281830855747388 0 -0.42742914829401629 -0.43154169260741299 0 -0.41666672290202877 -0.41912340917851831 0 -0.41188069054236642 -0.43517571126800708 0 -0.43834514484220538 -0.39083544650922919 0 -0.44464059646223691 -0.37415060920408721 0 -0.42632533131427852 -0.36904289599101497 0 -0.43834514484220538 -0.39083544650922919 0 -0.42149602710815359 -0.39408315258476662 0 -0.42632533131427852 -0.36904289599101497 0 -0.42149602710815359 -0.39408315258476662 0 -0.42632533131427852 -0.36904289599101497 0 -0.43834514484220538 -0.39083544650922919 0 -0.43025890904714692 -0.40875899809489441 0 -0.42149602710815359 -0.39408315258476662 0 -0.41011272358218998 -0.40594236012380169 0 -0.42149602710815359 -0.39408315258476662 0 -0.3985976555374387 -0.39482976714360368 0 -0.42149602710815359 -0.39408315258476662 0 -0.41009533864766162 -0.3788985754615451 0 -0.3985976555374387 -0.39482976714360368 0 -0.42149602710815359 -0.39408315258476662 0 -0.41009533864766162 -0.3788985754615451 0 -0.42632533131427852 -0.36904289599101497 0 -0.3985976555374387 -0.39482976714360368 0 -0.39542675326157051 -0.36684122572973349 0 -0.3985976555374387 -0.39482976714360368 0 -0.37920478159876991 -0.38285295053158652 0 -0.39542675326157051 -0.36684122572973349 0 -0.41009533864766162 -0.3788985754615451 0 -0.3985976555374387 -0.39482976714360368 0 -0.39542675326157051 -0.36684122572973349 0 -0.3985976555374387 -0.39482976714360368 0 -0.37746814703235582 -0.40557984640721639 0 -0.37920478159876991 -0.38285295053158652 0 -0.3985976555374387 -0.39482976714360368 0 -0.37746814703235582 -0.40557984640721639 0 -0.3894517632753518 -0.41249970266339581 0 -0.41188069054236642 -0.43517571126800708 0 -0.401768557813307 -0.42281830855747388 0 -0.40493946008917531 -0.45080684997134429 0 -0.401768557813307 -0.42281830855747388 0 -0.39518337331984388 -0.43773825405166528 0 -0.40493946008917531 -0.45080684997134429 0 -0.401768557813307 -0.42281830855747388 0 -0.3799726927183058 -0.42677088854528877 0 -0.39518337331984388 -0.43773825405166528 0 -0.401768557813307 -0.42281830855747388 0 -0.40493946008917531 -0.45080684997134429 0 -0.41011272358218998 -0.40594236012380169 0 -0.3985976555374387 -0.39482976714360368 0 -0.401768557813307 -0.42281830855747388 0 -0.3985976555374387 -0.39482976714360368 0 -0.401768557813307 -0.42281830855747388 0 -0.3894517632753518 -0.41249970266339581 0 -0.3985976555374387 -0.39482976714360368 0 -0.401768557813307 -0.42281830855747388 0 -0.401768557813307 -0.42281830855747388 0 -0.3894517632753518 -0.41249970266339581 0 -0.3799726927183058 -0.42677088854528877 0 -0.37746814703235582 -0.40557984640721639 0 -0.3799726927183058 -0.42677088854528877 0 -0.37746814703235582 -0.40557984640721639 0 -0.3894517632753518 -0.41249970266339581 0 -0.3799726927183058 -0.42677088854528877 0 -0.3799726927183058 -0.42677088854528877 0 -0.38247723840425579 -0.44796193068336132 0 -0.3799726927183058 -0.42677088854528877 0 -0.38247723840425579 -0.44796193068336132 0 -0.36431448118181409 -0.43507547628127141 0 -0.3799726927183058 -0.42677088854528877 0 -0.38247723840425579 -0.44796193068336132 0 -0.39518337331984388 -0.43773825405166528 0 -0.38247723840425579 -0.44796193068336132 0 -0.39518337331984388 -0.43773825405166528 0 -0.39613610401984001 -0.44742404961220228 0 -0.38247723840425579 -0.44796193068336132 0 -0.39613610401984001 -0.44742404961220228 0 -0.39356687682544539 -0.45404139263999471 0 -0.3981769259451351 -0.4528792749724122 0 -0.39613610401984001 -0.44742404961220228 0 -0.39356687682544539 -0.45404139263999471 0 -0.3981769259451351 -0.4528792749724122 0 -0.39613610401984001 -0.44742404961220228 0 -0.40493946008917531 -0.45080684997134429 0 -0.39518337331984388 -0.43773825405166528 0 -0.39613610401984001 -0.44742404961220228 0 -0.40493946008917531 -0.45080684997134429 0 -0.40493946008917531 -0.45080684997134429 0 -0.40006526346073201 -0.46553295273414891 0 -0.40811036236504361 -0.4787953913852146 0 -0.40493946008917531 -0.45080684997134429 0 -0.40006526346073201 -0.46553295273414891 0 -0.39780101910600901 -0.45758414185046647 0 -0.3981769259451351 -0.4528792749724122 0 -0.40493946008917531 -0.45080684997134429 0 -0.39780101910600901 -0.45758414185046647 0 -0.3981769259451351 -0.4528792749724122 0 -0.39780101910600901 -0.45758414185046647 0 -0.39356687682544539 -0.45404139263999471 0 -0.39780101910600901 -0.45758414185046647 0 -0.39356687682544539 -0.45404139263999471 0 -0.39172808172941531 -0.46133890730315019 0 -0.40006526346073201 -0.46553295273414891 0 -0.39172808172941531 -0.46133890730315019 0 -0.38498178409020672 -0.46915297282143359 0 -0.40006526346073201 -0.46553295273414891 0 -0.39780101910600901 -0.45758414185046647 0 -0.39172808172941531 -0.46133890730315019 0 -0.38498178409020672 -0.46915297282143359 0 -0.36580793536190481 -0.45273660197014259 0 -0.38247723840425579 -0.44796193068336132 0 -0.39172808172941531 -0.46133890730315019 0 -0.384981784
[...]
<PointData Scalars="" Vectors="displacement," Tensors="">
<DataArray type="Float64" Name="displacement" NumberOfComponents="3" format="ascii">
2.8724322094042215e-07 -0.034998695850356615 0 -2.9078438807303673e-05 -0.033191709180047012 0 -1.7073463346566567e-06 -0.030679144267770027 0 2.8724322094042215e-07 -0.034998695850356615 0 -2.9078438807303673e-05 -0.033191709180047012 0 -1.1324350355873689e-07 -0.034996334716966386 0 -1.1324350355873689e-07 -0.034996334716966386 0 0.00016034200407162892 -0.033672427335440541 0 -2.015258508699152e-05 -0.034890593300308588 0 -2.9078438807303673e-05 -0.033191709180047012 0 -1.1324350355873689e-07 -0.034996334716966386 0 0.00016034200407162892 -0.033672427335440541 0 0.00082151294636818124 -0.032165469448094279 0 -0.00061339281920063196 -0.031625218819775154 0 0.00032507677875108157 -0.028847736162508086 0 0.00082151294636818124 -0.032165469448094279 0 3.2637916008500699e-05 -0.03202774002485638 0 -0.00061339281920063196 -0.031625218819775154 0 0.00016034200407162892 -0.033672427335440541 0 0.00082151294636818124 -0.032165469448094279 0 0.00036707932043607977 -0.034188049195447164 0 -2.9078438807303673e-05 -0.033191709180047012 0 0.00016034200407162892 -0.033672427335440541 0 3.2637916008500699e-05 -0.03202774002485638 0 0.00016034200407162892 -0.033672427335440541 0 0.00082151294636818124 -0.032165469448094279 0 3.2637916008500699e-05 -0.03202774002485638 0 -2.9078438807303673e-05 -0.033191709180047012 0 3.2637916008500699e-05 -0.03202774002485638 0 -1.7073463346566567e-06 -0.030679144267770027 0 3.2637916008500699e-05 -0.03202774002485638 0 -1.7073463346566567e-06 -0.030679144267770027 0 -0.00031812895991875564 -0.030527310866616291 0 -1.7073463346566567e-06 -0.030679144267770027 0 -0.00031812895991875564 -0.030527310866616291 0 2.9789095863140432e-06 -0.026843906345830115 0 -0.00031812895991875564 -0.030527310866616291 0 2.9789095863140432e-06 -0.026843906345830115 0 0.00012495140750516041 -0.029175371948416275 0 2.9789095863140432e-06 -0.026843906345830115 0 0.00012495140750516041 -0.029175371948416275 0 0.0014658636734832056 -0.028669230990314151 0 0.0016121890620317699 -0.024867655987818937 0 0.0015456786931664667 -0.024270247690412226 0 -0.00031812895991875564 -0.030527310866616291 0 0.00012495140750516041 -0.029175371948416275 0 0.00010600571879870537 -0.030421836354667043 0 0.00012495140750516041 -0.029175371948416275 0 0.00010600571879870537 -0.030421836354667043 0 0.0014658636734832056 -0.028669230990314151 0 0.0016416751975638255 -0.02417235125290939 0 0.0015456786931664667 -0.024270247690412226 0 0.0039528163967873786 -0.018133207690577507 0 0.0037027678981790767 -0.018180580383003762 0 0.0039865887501931759 -0.017957171734697214 0 0.0039682450274690232 -0.018249996011678656 0 0.0037758496905485094 -0.018422912746938528 0 0.004014183356699519 -0.018496435955443716 0 0.0039528163967873786 -0.018133207690577507 0 0.0039682450274690232 -0.018249996011678656 0 0.0037027678981790767 -0.018180580383003762 0 0.0039682450274690232 -0.018249996011678656 0 0.0037027678981790767 -0.018180580383003762 0 0.0037758496905485094 -0.018422912746938528 0 0.0037027678981790767 -0.018180580383003762 0 0.0037758496905485094 -0.018422912746938528 0 0.0032378864659089548 -0.018510563441998043 0 0.0016416751975638255 -0.02417235125290939 0 0.0013442422898228938 -0.024232971492415836 0 0.0037698024319732732 -0.01870355651747831 0 0.0037758496905485094 -0.018422912746938528 0 0.0032378864659089548 -0.018510563441998043 0 0.0037698024319732732 -0.01870355651747831 0 0.0032378864659089548 -0.018510563441998043 0 0.0033418616326371222 -0.019041215501714018 0 0.0037698024319732732 -0.01870355651747831 0 0.0037758496905485094 -0.018422912746938528 0 0.004014183356699519 -0.018496435955443716 0 -0.00031812895991875564 -0.030527310866616291 0 0.00010600571879870537 -0.030421836354667043 0 -0.00075477170438419886 -0.031386214874071713 0 3.2637916008500699e-05 -0.03202774002485638 0 -0.00031812895991875564 -0.030527310866616291 0 -0.00061339281920063196 -0.031625218819775154 0 -0.00031812895991875564 -0.030527310866616291 0 -0.00075477170438419886 -0.031386214874071713 0 -0.00061339281920063196 -0.031625218819775154 0 -0.00075477170438419886 -0.031386214874071713 0 -0.00061339281920063196 -0.031625218819775154 0 -0.0015342413873803257 -0.029159627976350997 0 0.0013442422898228938 -0.024232971492415836 0 0.0015168254926254216 -0.023575178913111967 0 -0.00061339281920063196 -0.031625218819775154 0 -0.0015342413873803257 -0.029159627976350997 0 0.00032507677875108157 -0.028847736162508086 0 0.0024544596621778898 -0.019259145400622135 0 0.0033418616326371222 -0.019041215501714018 0 0.003038377545196732 -0.01967834518156085 0 0.0033418616326371222 -0.019041215501714018 0 0.003038377545196732 -0.01967834518156085 0 0.0037191482138106634 -0.019131304283281757 0 0.0032378864659089548 -0.018510563441998043 0 0.0024544596621778898 -0.019259145400622135 0 0.0033418616326371222 -0.019041215501714018 0 0.0034479393821943254 -0.019018265957293917 0 0.0036843941621083538 -0.018866175649466001 0 0.003038377545196732 -0.01967834518156085 0 0.0034040003455080969 -0.019363393700331851 0 0.0028702351845005265 -0.020340488620112517 0 0.003038377545196732 -0.01967834518156085 0 0.0034040003455080969 -0.019363393700331851 0 0.0036829888486268887 -0.018726379709054882 0 0.003038377545196732 -0.01967834518156085 0 0.0023251894742054111 -0.020660582530021957 0 0.0028702351845005265 -0.020340488620112517 0 0.0024544596621778898 -0.019259145400622135 0 0.003038377545196732 -0.01967834518156085 0 0.0023251894742054111 -0.020660582530021957 0 0.0037698024319732732 -0.01870355651747831 0 0.004014183356699519 -0.018496435955443716 0 0.0041182281700614248 -0.018696471762847909 0 0.0037698024319732732 -0.01870355651747831 0 0.0037191482138106634 -0.019131304283281757 0 0.0041182281700614248 -0.018696471762847909 0 0.0036843941621083538 -0.018866175649466001 0 0.0039046514810507299 -0.018659260980324825 0 0.0037698024319732732 -0.01870355651747831 0 0.0033418616326371222 -0.019041215501714018 0 0.0037191482138106634 -0.019131304283281757 0 0.0034040003455080969 -0.019363393700331851 0 0.0036829888486268887 -0.018726379709054882 0 0.0037154467485737176 -0.019116983922995098 0 0.0036829888486268887 -0.018726379709054882 0 0.0038305916844707955 -0.018504813439747258 0 0.0037154467485737176 -0.019116983922995098 0 0.0036829888486268887 -0.018726379709054882 0 0.0038305916844707955 -0.018504813439747258 0 0.0039342995851713658 -0.018222477634857067 0 0.0023893008003084124 -0.019071641719562164 0 0.0027646133053441302 -0.018824431499329379 0 0.00099262385536908674 -0.017624762621317312 0 0.0022185691086464353 -0.018629724428802705 0 0.0037295907480981187 -0.017912756566348435 0 0.0038305916844707955 -0.018504813439747258 0 0.0037154467485737176 -0.019116983922995098 0 0.0037295907480981187 -0.017912756566348435 0 0.00099262385536908674 -0.017624762621317312 0 0.0001426127887225288 -0.01852652068395275 0 0.0022185691086464353 -0.018629724428802705 0 0.00099262385536908674 -0.017624762621317312 0 0.0001426127887225288 -0.01852652068395275 0 0.00040838928167233123 -0.018368220723904871 0 0.0023251894742054111 -0.020660582530021957 0 0.0028702351845005265 -0.020340488620112517 0 0.0016842477414905268 -0.021677829719462447 0 0.00055176523646699991 -0.019056285961085551 0 0.0020524953629535761 -0.018973934494594086 0 0.0036135321983450665 -0.020781549177444698 0 0.00055176523646699991 -0.019056285961085551 0 0.00093986248104757023 -0.01775966555406849 0 0.0020524953629535761 -0.018973934494594086 0 0.0023579482210584015 -0.019759369707967808 0 0.0039743567923424348 -0.020622118037376288 0 0.0034040003455080969 -0.019363393700331851 0 0.0037154467485737176 -0.019116983922995098 0 0.0028702351845005265 -0.020340488620112517 0 0.00099262385536908674 -0.017624762621317312 0 0.00055176523646699991 -0.019056285961085551 0 0.00040838928167233123 -0.018368220723904871 0 0.0023893008003084124 -0.019071641719562164 0 0.0023579482210584015 -0.019759369707967808 0 0.00055176523646699991 -0.019056285961085551 0 0.00040838928167233123 -0.018368220723904871 0 0.00093986248104757023 -0.01775966555406849 0 -0.00047942784554626066 -0.021366273513434605 0 -0.00072623880936406441 -0.021928806859058632 0 0.0001426127887225288 -0.01852652068395275 0 0.00040838928167233123 -0.018368220723904871 0 0.00093986248104757023 -0.01775966555406849 0 -0.00072623880936406441 -0.021928806859058632 0 -0.00075037698135251485 -0.024029009006145342 0 -0.0026910834951640521 -0.018223277054987989 0 -0.0051035147583919239 -0.018025368129332437 0 -0.0036856626945187829 -0.020031196801204777 0 0.00093986248104757023 -0.01775966555406849 0 0.0032540934819077021 -0.017387105754072416 0 0.0020524953629535761 -0.018973934494594086 0 0.0032540934819077021 -0.017387105754072416 0 0.0020524953629535761 -0.018973934494594086 0 0.0032851554971109771 -0.019294861375190174 0 0.0032540934819077021 -0.017387105754072416 0 0.0032851554971109771 -0.019294861375190174 0 0.0043348380388301792 -0.018961589095013841 0 0.0041113859450534595 -0.019697756052957163 0 0.0032851554971109771 -0.019294861375190174 0 0.0043348380388301792 -0.018961589095013841 0 0.0041113859450534595 -0.019697756052957163 0 0.0032851554971109771 -0.019294861375190174 0 0.0036135321983450665 -0.020781549177444698 0 0.0020524953629535761 -0.018973934494594086 0 0.0032851554971109771 -0.019294861375190174 0 0.0036135321983450665 -0.020781549177444698 0 0.0036135321983450665 -0.020781549177444698 0 0.006593201979657768 -0.020337311236542071 0 0.009444457913488153 -0.022381461249832202 0 0.0036135321983450665 -0.020781549177444698 0 0.006593201979657768 -0.020337311236542071 0 0.0049789928639090821 -0.019713221757154384 0 0.0041113859450534595 -0.019697756052957163 0 0.0036135321983450665 -0.020781549177444698 0 0.0049789928639090821 -0.019713221757154384 0 0.0041113859450534595 -0.019697756052957163 0 0.0049789928639090821 -0.019713221757154384 0 0.0043348380388301792 -0.018961589095013841 0 0.0049789928639090821 -0.019713221757154384 0 0.0043348380388301792 -0.018961589095013841 0 0.0056780936940938297 -0.018601724955174204 0 0.006593201979657768 -0.020337311236542071 0 0.0056780936940938297 -0.018601724955174204 0 0.0071923935510778267 -0.017177097207211073 0 0.006593201979657768 -0.020337311236542071 0 0.0049789928639090821 -0.019713221757154384 0 0.0056780936940938297 -0.018601724955174204 0 7.0935180187337362e-06 -0.02866824988792115 0 -0.0020154164975561151 -0.027324243150626468 0 0.0032540934819077021 -0.017387105754072416 0 0.0056780936940938297 -0.018601724955174204 0 0.0071923935510778267 -0.017177097207211073 0 -0.00075037698135251485 -0.024029009006145342 0 7.0935180187337362e-06 -0.02866824988792115 0 -0.0051035147583919239 -0.018025368129332437 0 -0.0073794342940507211 -0.017792153343681349 0 -0.0056339685100870382 -0.019864838033823315 0 0.0032540934819077021 -0.017387105754072416 0 0.0043348380388301792 -0.018961589095013841 0 0.0056780936940938297 -0.018601724955174204 0 1.4072888760237418e-05 -0.034977224253974079 0 9.1006948160507938e-06 -0.034986261543698112 0 7.2422295580815766e-06 -0.034987547633659154 0 -7.3195176026018285e-05 -0.034850348768118294 0 -0.00024566589502198881 -0.035032854243303234 0 -0.00020022182878137368 -0.034580923476070183 0 -7.3195176026018285e-05 -0.034850348768118294 0 2.7425044269623458e-05 -0.03499180219693545 0 5.5662387838443378e-05 -0.034791812193970831 0 -7.3195176026018285e-05 -0.034850348768118294 0 -0.00024566589502198881 -0.035032854243303234 0 2.7425044269623458e-05 -0.03499180219693545 0 7.0935180187337362e-06 -0.02866824988792115 0 7.5058612214648496e-05 -0.032125026897934693 0 2.7425044269623458e-05 -0.03499180219693545 0 6.6507352618000532e-05 -0.034927775179316403 0 5.5662387838443378e-05 -0.034791812193970831 0 9.1006948160507938e-06 -0.034986261543698112 0 -3.4795398106739954e-09 -0.035000015623300122 0 7.2422295580815766e-06 -0.034987547633659154 0 7.5058612214648496e-05 -0.032125026897934693 0 6.8108743579419162e-07 -0.034991124197312463 0 2.7425044269623458e-05 -0.03499180219693545 0 -7.0092348831468467e-10 -0.035000152032646427 0 6.6507352618000532e-05 -0.034927775179316403 0 -6.0570353954528458e-08 -0.035000890148672033 0 -2.015258508699152e-05 -0.034890593300308588 0 8.8492569483832784e-06 -0.034916916683413415 0 -3.4795398106739954e-09 -0.035000015623300122 0 1.0986632781518748e-08 -0.034999957939794754 0 7.2422295580815766e-06 -0.034987547633659154 0 -5.4963815450591946e-07 -0.03499216550915956 0 0.0014198493783603846 -0.03073465021821729 0 1.0986632781518748e-08 -0.034999957939794754 0 7.2422295580815766e-06 -0.034987547633659154 0 1.0356419170742335e-05 -0.034979165926374733 0 0.0071923935510778267 -0.017177097207211073 0 0.009444457913488153 -0.022381461249832202 0 0.011699486680428299 -0.021937123891558472 0 1.4072888760237418e-05 -0.034977224253974079 0 7.2422295580815766e-06 -0.034987547633659154 0 1.0356419170742335e-05 -0.034979165926374733 0 7.0935180187337362e-06 -0.02866824988792115 0 0.0014198493783603846 -0.03073465021821729 0 0.006593201979657768 -0.020337311236542071 0 0.0071923935510778267 -0.017177097207211073 0 0.009444457913488153 -0.022381461249832202 0 0.0014198493783603846 -0.03073465021821729 0 0.0024486993221522206 -0.03051243853412974 0 -1.1324350355873689e-07 -0.034996334716966386 0 -6.0570353954528458e-08 -0.035000890148672033 0 -2.015258508699152e-05 -0.034890593300308588 0 0.00016034200407162892 -0.033672427335440541 0 -2.015258508699152e-05 -0.034890593300308588 0 0.00036707932043607977 -0.034188049195447164 0 0.009444457913488153 -0.022381461249832202 0 0.011699486680428299 -0.021937123891558472 0 0.006707904339327702 -0.027195968045764664 0 0.009444457913488153 -0.022381461249832202 0 0.006707904339327702 -0.027195968045764664 0 0.0054278806107596871 -0.023645236354596613 0 -2.015258508699152e-05 -0.034890593300308588 0 7.9365031940252645e-05 -0.034995831371256253 0 0.00036707932043607977 -0.034188049195447164 0 0.0014695496872550004 -0.030897581132146208 0 0.0014198493783603846 -0.03073465021821729 0 0.00082151294636818124 -0.032165469448094279 0 0.006707904339327702 -0.027195968045764664 0 0.0031324638874550433 -0.026246122680212976 0 0.0018024596887851894 -0.031231371187019318 0 0.0024486993221522206 -0.03051243853412974 0 0.00082151294636818124 -0.032165469448094279 0 0.00032507677875108157 -0.028847736162508086 0 0.0031324638874550433 -0.026246122680212976 0 -0.0015342413873803257 -0.029159627976350997 0 0.00032507677875108157 -0.028847736162508086 0 0.00129750893177269 -0.025887090821164239 0 0.00032507677875108157 -0.028847736162508086 0 0.00129750893177269 -0.025887090821164239 0 0.0031324638874550433 -0.026246122680212976 0 0.0015168254926254216 -0.023575178913111967 0 0.0020216268693779862 -0.022801281432181554 0 0.0023251894742054111 -0.020660582530021957 0 0.0016842477414905268 -0.021677829719462447 0 0.0017205247260371685 -0.02203504812153876 0 0.0024544596621778898 -0.019259145400622135 0 0.0023251894742054111 -0.020660582530021957 0 0.0017205247260371685 -0.02203504812153876 0 -0.0015342413873803257 -0.029159627976350997 0 0.00129750893177269 -0.025887090821164239 0 0.0017205247260371685 -0.02203504812153876 0 0.00129750893177269 -0.025887090821164239 0 0.0017205247260371685 -0.02203504812153876 0 0.0035047490402393177 -0.023743588091618483 0 0.0016842477414905268 -0.021677829719462447 0 0.0017205247260371685 -0.02203504812153876 0 0.0035047490402393177 -0.023743588091618483 0 0.0016842477414905268 -0.021677829719462447 0 0.009444457913488153 -0.022381461249832202 0 0.0054278806107596871 -0.023645236354596613 0 0.0039743567923424348 -0.020622118037376288 0 0.0063940746935695581 -0.021161427409456451 0 0.0016842477414905268 -0.021677829719462447 0 0.0035047490402393177 -0.023743588091618483 0 0.0054278806107596871 -0.023645236354596613 0 0.006707904339327702 -0.027195968045764664 0 0.0054278806107596871 -0.023645236354596613 0 0.004711558125713008 -0.025220972050636309 0 0.006707904339327702 -0.027195968045764664 0 0.004711558125713008 -0.025220972050636309 0 0.0031324638874550433 -0.026246122680212976 0 0.0035047490402393177 -0.023743588091618483 0 0.004711558125713008 -0.025220972050636309 0 0.0031324638874550433 -0.026246122680212976 0 0.00129750893177269 -0.025887090821164239 0 0.0035047490402393177 -0.023743588091618483 0 0.0031324638874550433 -0.026246122680212976 0 0.0035047490402393177 -0.023743588091618483 0 0.0054278806107596871 -0.023645236354596613 0 0.004711558125713008 -0.025220972050636309 0 -0.00095173070017253206 -0.017640961274038025 0 -0.00068551978708310615 -0.018456268884904498 0 -0.000899053963300699 -0.017693336378585764 0 -0.00068551978708310615 -0.018456268884904498 0 -0.00058386581599525773 -0.01865677022484518 0 -0.00051081822444513773 -0.018985988116715372 0 -0.00020350223942826217 -0.017956172054977286 0 0.00060267594830661032 -0.018329706886644231 0 -0.00095173070017253206 -0.017640961274038025 0 -0.00068551978708310615 -0.018456268884904498 0 -0.00058386581599525773 -0.01865677022484518 0 -0.00068551978708310615 -0.018456268884904498 0 -0.00046245322777466836 -0.019227184670305729 0 -0.00051081822444513773 -0.018985988116715372 0 -0.00068551978708310615 -0.018456268884904498 0 -0.00049141887281236164 -0.018886478454222127 0 -0.00046245322777466836 -0.019227184670305729 0 -0.00068551978708310615 -0.018456268884904498 0 -0.0007168234204572852 -0.018250400572273933 0 -0.00049141887281236164 -0.018886478454222127 0 -0.00068551978708310615 -0.018456268884904498 0 -0.000899053963300699 -0.017693336378585764 0 -0.0007168234204572852 -0.018250400572273933 0 -0.000899053963300699 -0.017693336378585764 0 -0.0007168234204572852 -0.018250400572273933 0 -0.00088764430717192162 -0.017589010271953719 0 -0.0007168234204572852 -0.018250400572273933 0 -0.0008750366645222489 -0.01789222892587445 0 -0.00029081883104583375 -0.019080405200665854 0 -0.0007168234204572852 -0.018250400572273933 0 -0.0008750366645222489 -0.01789222892587445 0 -0.00088764430717192162 -0.017589010271953719 0 -2.2222159999753577e-05 -0.017506536320736728 0 -6.8185370625959292e-07 -0.018951131920633545 0 1.6823920064377822e-07 -0.016855643393373917 0 -0.00047336315285023488 -0.016919307514001451 0 -0.00044515905350571319 -0.017241526661390817 0 -2.2222159999753577e-05 -0.017506536320736728 0 -6.8185370625959292e-07 -0.018951131920633545 0 -0.00029081883104583375 -0.019080405200665854 0 -0.00029081883104583375 -0.019080405200665854 0 -0.00049141887281236164 -0.018886478454222127 0 -0.0002452274631148654 -0.02006278830340829 0 -0.0007168234204572852 -0.018250400572273933 0 -0.00029081883104583375 -0.019080405200665854 0 -0.00049141887281236164 -0.018886478454222127 0 -0.00049141887281236164 -0.018886478454222127 0 -0.0002452274631148654 -0.02006278830340829 0 -0.00046245322777466836 -0.019227184670305729 0 -0.0002452274631148654 -0.02006278830340829 0 -0.00032206322429454825 -0.019896437602396684 0 -0.00046245322777466836 -0.019227184670305729 0 -6.8185370625959292e-07 -0.018951131920633545 0 -0.00029081883104583375 -0.019080405200665854 0 -2.6420028819988732e-07 -0.021046073461149534 0 -0.00029081883104583375 -0.019080405200665854 0 -0.0002452274631148654 -0.02006278830340829 0 -2.6420028819988732e-07 -0.021046073461149534 0 -0.0002452274631148654 -0.02006278830340829 0 -2.6420028819988732e-07 -0.021046073461149534 0 -0.00019929520765990896 -0.020976557779204826 0 -0.0002452274631148654 -0.02006278830340829 0 -0.00019929520765990896 -0.020976557779204826 0 -0.00032206322429454825 -0.019896437602396684 0 -0.00019929520765990896 -0.020976557779204826 0 -0.00032206322429454825 -0.019896437602396684 0 -0.00023864248069680924 -0.020054437566804851 0 -0.00023864248069680924 -0.020054437566804851 0 -0.00038113288091184066 -0.019444485137645774 0 -0.0003105662058892197 -0.019089233613104956 0 -0.00032206322429454825 -0.019896437602396684 0 -0