<?xml version="1.0"?>
<VTKFile type="UnstructuredGrid" version="0.1" byte_order="LittleEndian">
<UnstructuredGrid>
<Piece NumberOfPoints="30618" NumberOfCells="10744">
<Points>
<DataArray type="Float64" NumberOfComponents="3" format="ascii">
-0.49427958746526202 -0.49999999999999512 0 -0.4943900888896422 -0.47349089190363358 0 -0.49427958746526202 -0.49999999999999512 0 -0.5 -0.5 0 -0.4943900888896422 -0.47349089190363358 0 -0.5 -0.5 0 -0.4943900888896422 -0.47349089190363358 0 -0.5 -0.44150235328842258 0 -0.49427958746526202 -0.49999999999999512 0 -0.4943900888896422 -0.47349089190363358 0 -0.48436842240857858 -0.48714093788813112 0 -0.49427958746526202 -0.49999999999999512 0 -0.47650045540741742 -0.5 0 -0.48436842240857858 -0.48714093788813112 0 -0.4943900888896422 -0.47349089190363358 0 -0.47066899942757451 -0.47576530412887819 0 -0.48436842240857858 -0.48714093788813112 0 -0.47066899942757451 -0.47576530412887819 0 -0.47650045540741742 -0.5 0 -0.48436842240857858 -0.48714093788813112 0 -0.47066899942757451 -0.47576530412887819 0 -0.45872132334957288 -0.49999999999999928 0 -0.45242967983978871 -0.4846708604340636 0 -0.47066899942757451 -0.47576530412887819 0 -0.47650045540741742 -0.5 0 -0.45872132334957288 -0.49999999999999928 0 -0.47066899942757451 -0.47576530412887819 0 -0.45872132334957288 -0.49999999999999928 0 -0.47066899942757451 -0.47576530412887819 0 -0.45242967983978871 -0.4846708604340636 0 -0.45249717469141032 -0.46588444847215849 0 -0.43763952177061649 -0.47770500498713542 0 -0.45242967983978871 -0.4846708604340636 0 -0.45249717469141032 -0.46588444847215849 0 -0.43763952177061649 -0.47770500498713542 0 -0.44291044788006362 -0.49999999999999939 0 -0.45242967983978871 -0.4846708604340636 0 -0.43763952177061649 -0.47770500498713542 0 -0.44291044788006362 -0.49999999999999939 0 -0.45872132334957288 -0.49999999999999928 0 -0.44291044788006362 -0.49999999999999939 0 -0.45242967983978871 -0.4846708604340636 0 -0.44838221886832419 -0.4464230337388379 0 -0.4323685956611692 -0.45541000997427139 0 -0.435988539966085 -0.44148905847597392 0 -0.44838221886832419 -0.4464230337388379 0 -0.44213238819953832 -0.43491600865963681 0 -0.435988539966085 -0.44148905847597392 0 -0.44838221886832419 -0.4464230337388379 0 -0.45249717469141032 -0.46588444847215849 0 -0.45755175660874181 -0.45423607616472811 0 -0.44838221886832419 -0.4464230337388379 0 -0.45249717469141032 -0.46588444847215849 0 -0.4323685956611692 -0.45541000997427139 0 -0.43763952177061649 -0.47770500498713542 0 -0.45249717469141032 -0.46588444847215849 0 -0.4323685956611692 -0.45541000997427139 0 -0.47066899942757451 -0.47576530412887819 0 -0.45249717469141032 -0.46588444847215849 0 -0.4675747862741928 -0.45726336772241771 0 -0.45249717469141032 -0.46588444847215849 0 -0.45755175660874181 -0.45423607616472811 0 -0.4675747862741928 -0.45726336772241771 0 -0.44838221886832419 -0.4464230337388379 0 -0.46897642374787268 -0.44262015471777721 0 -0.45660235518767722 -0.42786105997071933 0 -0.44838221886832419 -0.4464230337388379 0 -0.45755175660874181 -0.45423607616472811 0 -0.46897642374787268 -0.44262015471777721 0 -0.45755175660874181 -0.45423607616472811 0 -0.4675747862741928 -0.45726336772241771 0 -0.46897642374787268 -0.44262015471777721 0 -0.4943900888896422 -0.47349089190363358 0 -0.5 -0.44150235328842258 0 -0.49450059031402238 -0.44698178380727199 0 -0.46897642374787268 -0.44262015471777721 0 -0.48473746643246862 -0.43972512984246093 0 -0.48043585850414389 -0.43127077967876992 0 -0.46897642374787268 -0.44262015471777721 0 -0.4826166755055763 -0.45153060825775743 0 -0.48473746643246862 -0.43972512984246093 0 -0.4675747862741928 -0.45726336772241771 0 -0.46897642374787268 -0.44262015471777721 0 -0.4826166755055763 -0.45153060825775743 0 -0.47066899942757451 -0.47576530412887819 0 -0.4826166755055763 -0.45153060825775743 0 -0.4943900888896422 -0.47349089190363358 0 -0.47066899942757451 -0.47576530412887819 0 -0.4826166755055763 -0.45153060825775743 0 -0.47066899942757451 -0.47576530412887819 0 -0.4675747862741928 -0.45726336772241771 0 -0.4826166755055763 -0.45153060825775743 0 -0.4943900888896422 -0.47349089190363358 0 -0.49450059031402238 -0.44698178380727199 0 -0.4943900888896422 -0.47349089190363358 0 -0.4826166755055763 -0.45153060825775743 0 -0.49450059031402238 -0.44698178380727199 0 -0.4826166755055763 -0.45153060825775743 0 -0.48473746643246862 -0.43972512984246093 0 -0.49450059031402238 -0.44698178380727199 0 -0.5 -0.44150235328842258 0 -0.49461109173840262 -0.42047267571091063 0 -0.5 -0.39656953661894012 0 -0.49450059031402238 -0.44698178380727199 0 -0.49461109173840262 -0.42047267571091063 0 -0.48473746643246862 -0.43972512984246093 0 -0.49461109173840262 -0.42047267571091063 0 -0.48043585850414389 -0.43127077967876992 0 -0.5 -0.44150235328842258 0 -0.49450059031402238 -0.44698178380727199 0 -0.49461109173840262 -0.42047267571091063 0 -0.48473746643246862 -0.43972512984246093 0 -0.49450059031402238 -0.44698178380727199 0 -0.49461109173840262 -0.42047267571091063 0 -0.49461109173840262 -0.42047267571091063 0 -0.4947215931627828 -0.39396356761454909 0 -0.49461109173840262 -0.42047267571091063 0 -0.48393842445605872 -0.40713040098299402 0 -0.4947215931627828 -0.39396356761454909 0 -0.49461109173840262 -0.42047267571091063 0 -0.48393842445605872 -0.40713040098299402 0 -0.47214510592166908 -0.41939033492402211 0 -0.48393842445605872 -0.40713040098299402 0 -0.47214510592166908 -0.41939033492402211 0 -0.47427590700138023 -0.39469502568249409 0 -0.46897642374787268 -0.44262015471777721 0 -0.47214510592166908 -0.41939033492402211 0 -0.48043585850414389 -0.43127077967876992 0 -0.49461109173840262 -0.42047267571091063 0 -0.47214510592166908 -0.41939033492402211 0 -0.48043585850414389 -0.43127077967876992 0 -0.5 -0.39656953661894012 0 -0.4947215931627828 -0.39396356761454909 0 -0.48030453056746109 -0.36861144308094029 0 -0.49461109173840262 -0.42047267571091063 0 -0.5 -0.39656953661894012 0 -0.4947215931627828 -0.39396356761454909 0 -0.48393842445605872 -0.40713040098299402 0 -0.4947215931627828 -0.39396356761454909 0 -0.47427590700138023 -0.39469502568249409 0 -0.47427590700138023 -0.39469502568249409 0 -0.48030453056746109 -0.36861144308094029 0 -0.4947215931627828 -0.39396356761454909 0 -0.47427590700138023 -0.39469502568249409 0 -0.48030453056746109 -0.36861144308094029 0 -0.47427590700138023 -0.39469502568249409 0 -0.46334377193483078 -0.37842983215876019 0 -0.48030453056746109 -0.36861144308094029 0 -0.46334377193483078 -0.37842983215876019 0 -0.45726543839001688 -0.40541672899881109 0 -0.44416021803808919 -0.38243724496113263 0 -0.47427590700138023 -0.39469502568249409 0 -0.46334377193483078 -0.37842983215876019 0 -0.45726543839001688 -0.40541672899881109 0 -0.45726543839001688 -0.40541672899881109 0 -0.43814282409564848 -0.40387353522152758 0 -0.44416021803808919 -0.38243724496113263 0 -0.43814282409564848 -0.40387353522152758 0 -0.44416021803808919 -0.38243724496113263 0 -0.4329908326547659 -0.40007252460533121 0 -0.43814282409564848 -0.40387353522152758 0 -0.44416021803808919 -0.38243724496113263 0 -0.46897642374787268 -0.44262015471777721 0 -0.47214510592166908 -0.41939033492402211 0 -0.45660235518767722 -0.42786105997071933 0 -0.47214510592166908 -0.41939033492402211 0 -0.47427590700138023 -0.39469502568249409 0 -0.45726543839001688 -0.40541672899881109 0 -0.47214510592166908 -0.41939033492402211 0 -0.45726543839001688 -0.40541672899881109 0 -0.45660235518767722 -0.42786105997071933 0 -0.45726543839001688 -0.40541672899881109 0 -0.45660235518767722 -0.42786105997071933 0 -0.44309263043645408 -0.41812298423377797 0 -0.45726543839001688 -0.40541672899881109 0 -0.43814282409564848 -0.40387353522152758 0 -0.44309263043645408 -0.41812298423377797 0 -0.43814282409564848 -0.40387353522152758 0 -0.44309263043645408 -0.41812298423377797 0 -0.43209373842114163 -0.42530092927673752 0 -0.44838221886832419 -0.4464230337388379 0 -0.45660235518767722 -0.42786105997071933 0 -0.44213238819953832 -0.43491600865963681 0 -0.45660235518767722 -0.42786105997071933 0 -0.44213238819953832 -0.43491600865963681 0 -0.43132710435572019 -0.42815377149591122 0 -0.45660235518767722 -0.42786105997071933 0 -0.44309263043645408 -0.41812298423377797 0 -0.43132710435572019 -0.42815377149591122 0 -0.45660235518767722 -0.42786105997071933 0 -0.43132710435572019 -0.42815377149591122 0 -0.44213238819953832 -0.43491600865963681 0 -0.42986244815509678 -0.43337144475258638 0 -0.435988539966085 -0.44148905847597392 0 -0.44213238819953832 -0.43491600865963681 0 -0.42986244815509678 -0.43337144475258638 0 -0.43132710435572019 -0.42815377149591122 0 -0.42986244815509678 -0.43337144475258638 0 -0.43132710435572019 -0.42815377149591122 0 -0.42986244815509678 -0.43337144475258638 0 -0.42494843276815808 -0.42822764260015772 0 -0.42026026496879931 -0.43681168621285732 0 -0.42986244815509678 -0.43337144475258638 0 -0.42494843276815808 -0.42822764260015772 0 -0.43132710435572019 -0.42815377149591122 0 -0.42494843276815808 -0.42822764260015772 0 -0.43209373842114163 -0.42530092927673752 0 -0.42214799869492048 -0.41876725226122891 0 -0.42494843276815808 -0.42822764260015772 0 -0.43209373842114163 -0.42530092927673752 0 -0.42494843276815808 -0.42822764260015772 0 -0.43209373842114163 -0.42530092927673752 0 -0.43132710435572019 -0.42815377149591122 0 -0.42494843276815808 -0.42822764260015772 0 -0.43132710435572019 -0.42815377149591122 0 -0.44309263043645408 -0.41812298423377797 0 -0.43209373842114163 -0.42530092927673752 0 -0.43132710435572019 -0.42815377149591122 0 -0.43209373842114163 -0.42530092927673752 0 -0.43132710435572019 -0.42815377149591122 0 -0.43814282409564848 -0.40387353522152758 0 -0.43209373842114163 -0.42530092927673752 0 -0.43814282409564848 -0.40387353522152758 0 -0.43209373842114163 -0.42530092927673752 0 -0.42736227186559528 -0.41250939947999687 0 -0.43814282409564848 -0.40387353522152758 0 -0.42736227186559528 -0.41250939947999687 0 -0.42798743510346321 -0.40461924019690898 0
[...]
<PointData Scalars="" Vectors="displacement," Tensors="">
<DataArray type="Float64" Name="displacement" NumberOfComponents="3" format="ascii">
-0.03499963053296045 -0.034599544148281598 0 -0.034456447130916952 -0.034470564977323995 0 -0.034999174278481503 -0.034603989412845863 0 -0.035000529509660025 -0.034997086603077536 0 -0.033184640953791131 -0.035360116305953981 0 -0.035000529509660025 -0.034997086603077536 0 -0.033184640953791131 -0.035360116305953981 0 -0.030904472585340036 -0.035001519693564728 0 -0.035000107174175517 -0.034598517678841617 0 -0.035921313892846016 -0.03362560298793215 0 -0.035558908252658707 -0.033721564508521082 0 -0.035000107174175517 -0.034598517678841617 0 -0.034999829238930816 -0.03335506869915586 0 -0.035558908252658707 -0.033721564508521082 0 -0.035921313892846016 -0.03362560298793215 0 -0.035948950793329833 -0.033356144821345565 0 -0.035558908252658707 -0.033721564508521082 0 -0.035948950793329833 -0.033356144821345565 0 -0.034999829238930816 -0.03335506869915586 0 -0.035558908252658707 -0.033721564508521082 0 -0.035317397711376722 -0.033112480487363989 0 -0.03499935771196535 -0.032109315408448372 0 -0.035215230361898317 -0.032188192804441393 0 -0.035948950793329833 -0.033356144821345565 0 -0.034999829238930816 -0.03335506869915586 0 -0.034999947964254048 -0.03211118223371049 0 -0.035619978616404445 -0.033195815231004476 0 -0.035000104099680678 -0.032110860508015003 0 -0.035317397711376722 -0.033112480487363989 0 -0.035215230361898317 -0.032188192804441393 0 -0.035377498409453909 -0.032813652738546036 0 -0.035162374903739926 -0.031959975150839308 0 -0.035215230361898317 -0.032188192804441393 0 -0.035377498409453909 -0.032813652738546036 0 -0.035162374903739926 -0.031959975150839308 0 -0.034999799448565787 -0.031006597486848104 0 -0.035215230361898317 -0.032188192804441393 0 -0.035440501939677682 -0.031325803935127607 0 -0.034999870693668639 -0.031003957784095232 0 -0.03499935771196535 -0.032109315408448372 0 -0.034999799448565787 -0.031006597486848104 0 -0.035215230361898317 -0.032188192804441393 0 -0.035730500893250312 -0.033298925084576263 0 -0.03589553017312104 -0.031515809993865239 0 -0.036251097199258134 -0.032284726779910823 0 -0.035730500893250312 -0.033298925084576263 0 -0.036046632766479028 -0.033153026214180335 0 -0.036251097199258134 -0.032284726779910823 0 -0.035730500893250312 -0.033298925084576263 0 -0.035377498409453909 -0.032813652738546036 0 -0.035504149249686714 -0.033346988158006782 0 -0.035730500893250312 -0.033298925084576263 0 -0.035377498409453909 -0.032813652738546036 0 -0.03589553017312104 -0.031515809993865239 0 -0.035162374903739926 -0.031959975150839308 0 -0.035377498409453909 -0.032813652738546036 0 -0.03589553017312104 -0.031515809993865239 0 -0.035317397711376722 -0.033112480487363989 0 -0.035377498409453909 -0.032813652738546036 0 -0.035454708320175395 -0.033467189226435386 0 -0.035377498409453909 -0.032813652738546036 0 -0.035504149249686714 -0.033346988158006782 0 -0.035454708320175395 -0.033467189226435386 0 -0.035730500893250312 -0.033298925084576263 0 -0.03524095096571931 -0.03405206273112614 0 -0.034711853726467221 -0.035126873684399415 0 -0.035730500893250312 -0.033298925084576263 0 -0.035504149249686714 -0.033346988158006782 0 -0.03524095096571931 -0.03405206273112614 0 -0.035504149249686714 -0.033346988158006782 0 -0.035454708320175395 -0.033467189226435386 0 -0.03524095096571931 -0.03405206273112614 0 -0.033184640953791131 -0.035360116305953981 0 -0.030904472585340036 -0.035001519693564728 0 -0.031298229837690643 -0.035384641901621855 0 -0.03524095096571931 -0.03405206273112614 0 -0.034686270066450343 -0.033465579659168396 0 -0.033928255914421952 -0.0337710307272171 0 -0.03524095096571931 -0.03405206273112614 0 -0.035465477561253039 -0.033511750372393477 0 -0.034686270066450343 -0.033465579659168396 0 -0.035454708320175395 -0.033467189226435386 0 -0.03524095096571931 -0.03405206273112614 0 -0.035465477561253039 -0.033511750372393477 0 -0.035619978616404445 -0.033195815231004476 0 -0.035495386257614517 -0.033472934155200702 0 -0.035921313892846016 -0.03362560298793215 0 -0.035948950793329833 -0.033356144821345565 0 -0.035465477561253039 -0.033511750372393477 0 -0.035317397711376722 -0.033112480487363989 0 -0.035454708320175395 -0.033467189226435386 0 -0.035465477561253039 -0.033511750372393477 0 -0.034456447130916952 -0.034470564977323995 0 -0.033248127374373729 -0.034151079732690486 0 -0.035921313892846016 -0.03362560298793215 0 -0.035465477561253039 -0.033511750372393477 0 -0.035273437309363574 -0.032899560759987206 0 -0.035465477561253039 -0.033511750372393477 0 -0.034686270066450343 -0.033465579659168396 0 -0.035273437309363574 -0.032899560759987206 0 -0.030904472585340036 -0.035001519693564728 0 -0.02940717071488843 -0.035372843855216593 0 -0.027762461911125517 -0.034996502119894447 0 -0.033248127374373729 -0.034151079732690486 0 -0.03098055066383032 -0.034128816736423095 0 -0.034686270066450343 -0.033465579659168396 0 -0.032564365047776773 -0.032656596483755081 0 -0.033928255914421952 -0.0337710307272171 0 -0.030904472585340036 -0.035001519693564728 0 -0.031298229837690643 -0.035384641901621855 0 -0.02940717071488843 -0.035372843855216593 0 -0.034686270066450343 -0.033465579659168396 0 -0.035273437309363574 -0.032899560759987206 0 -0.032564365047776773 -0.032656596483755081 0 -0.03098055066383032 -0.034128816736423095 0 -0.028122569790765301 -0.034746376828170646 0 -0.032564365047776773 -0.032656596483755081 0 -0.030370142772491622 -0.034460213676390149 0 -0.027773985970580398 -0.034936343204207902 0 -0.032564365047776773 -0.032656596483755081 0 -0.030370142772491622 -0.034460213676390149 0 -0.032712518108996932 -0.034697172197615957 0 -0.030370142772491622 -0.034460213676390149 0 -0.032712518108996932 -0.034697172197615957 0 -0.028841084791495705 -0.035387574774652313 0 -0.03524095096571931 -0.03405206273112614 0 -0.032712518108996932 -0.034697172197615957 0 -0.033928255914421952 -0.0337710307272171 0 -0.032564365047776773 -0.032656596483755081 0 -0.032712518108996932 -0.034697172197615957 0 -0.033928255914421952 -0.0337710307272171 0 -0.027762461911125517 -0.034996502119894447 0 -0.027773985970580398 -0.034936343204207902 0 -0.026150069692391784 -0.035847264282890506 0 -0.02940717071488843 -0.035372843855216593 0 -0.027762461911125517 -0.034996502119894447 0 -0.027773985970580398 -0.034936343204207902 0 -0.030370142772491622 -0.034460213676390149 0 -0.027773985970580398 -0.034936343204207902 0 -0.028841084791495705 -0.035387574774652313 0 -0.028607669803569734 -0.035433797546478414 0 -0.026496854831612848 -0.035236168609267801 0 -0.027773985970580398 -0.034936343204207902 0 -0.028841084791495705 -0.035387574774652313 0 -0.026150069692391784 -0.035847264282890506 0 -0.028841084791495705 -0.035387574774652313 0 -0.02755576812138847 -0.036144025030628954 0 -0.026717469159864875 -0.034753617476804659 0 -0.02755576812138847 -0.036144025030628954 0 -0.030595235134285102 -0.036374040310108255 0 -0.027974106804329157 -0.037993005549591348 0 -0.028841084791495705 -0.035387574774652313 0 -0.02755576812138847 -0.036144025030628954 0 -0.030595235134285102 -0.036374040310108255 0 -0.030595235134285102 -0.036374040310108255 0 -0.030481223888601292 -0.038750247078761964 0 -0.027974106804329157 -0.037993005549591348 0 -0.029412759822712038 -0.031175590342578951 0 -0.029285078402429814 -0.031060075063730729 0 -0.029474743589828215 -0.031072686920337725 0 -0.029630053327578749 -0.035108418063811875 0 -0.029094557069797959 -0.034500845830797273 0 -0.03524095096571931 -0.03405206273112614 0 -0.032712518108996932 -0.034697172197615957 0 -0.034711853726467221 -0.035126873684399415 0 -0.032712518108996932 -0.034697172197615957 0 -0.028841084791495705 -0.035387574774652313 0 -0.030595235134285102 -0.036374040310108255 0 -0.032712518108996932 -0.034697172197615957 0 -0.030595235134285102 -0.036374040310108255 0 -0.034711853726467221 -0.035126873684399415 0 -0.030595235134285102 -0.036374040310108255 0 -0.034711853726467221 -0.035126873684399415 0 -0.032774746287551698 -0.037986332373489085 0 -0.030595235134285102 -0.036374040310108255 0 -0.030481223888601292 -0.038750247078761964 0 -0.032774746287551698 -0.037986332373489085 0 -0.030481223888601292 -0.038750247078761964 0 -0.032774746287551698 -0.037986332373489085 0 -0.034077519015789995 -0.039998053924570121 0 -0.035730500893250312 -0.033298925084576263 0 -0.034711853726467221 -0.035126873684399415 0 -0.036046632766479028 -0.033153026214180335 0 -0.034711853726467221 -0.035126873684399415 0 -0.036046632766479028 -0.033153026214180335 0 -0.037581016723560748 -0.03185716923283357 0 -0.034711853726467221 -0.035126873684399415 0 -0.032774746287551698 -0.037986332373489085 0 -0.034617361230146755 -0.040158520768928133 0 -0.035257843702091375 -0.035904518485116534 0 -0.034792074448776696 -0.033747241780247586 0 -0.036046632766479028 -0.033153026214180335 0 -0.037119436389470614 -0.03163764288227313 0 -0.036251097199258134 -0.032284726779910823 0 -0.036046632766479028 -0.033153026214180335 0 -0.037119436389470614 -0.03163764288227313 0 -0.037581016723560748 -0.03185716923283357 0 -0.036144400542247372 -0.033452615706109912 0 -0.034792074448776696 -0.033747241780247586 0 -0.037119436389470614 -0.03163764288227313 0 -0.03781696442302443 -0.031051219038946427 0 -0.037266981417172794 -0.030578605411845011 0 -0.037119436389470614 -0.03163764288227313 0 -0.03781696442302443 -0.031051219038946427 0 -0.037792512525839136 -0.031842823011131907 0 -0.028046793093623543 -0.03056214847739749 0 -0.028235360844340137 -0.030968517667654807 0 -0.028565980472594319 -0.030397451414321357 0 -0.034793960081006853 -0.030582460060413329 0 -0.032746533836689962 -0.033180977065140831 0 -0.03396661992080157 -0.031418317528419885 0 -0.034824722173219615 -0.03354306032274048 0 -0.033982275534043149 -0.033314927580073546 0 -0.034793960081006853 -0.030582460060413329 0 -0.034792074448776696 -0.033747241780247586 0 -0.032774746287551698 -0.037986332373489085 0 -0.034077519015789995 -0.039998053924570121 0 -0.034617361230146755 -0.040158520768928133 0 -0.032746533836689962 -0.033180977065140831 0 -0.034792074448776696 -0.033747241780247586 0 -0.029630053327578749 -0.035108418063811875 0 -0.032746533836689962 -0.033180977065140831 0 -0.029412759822712038 -0.031175590342578951 0 -0.028235360844340137 -0.030968517667654807 0 -0.028916255909106108 -0.030696311534190203 0 -0.029412759822712038 -0.031175590342578951 0 -0.028916255909106108 -0.030696311534190203 0 -0.029297452400032516 -0.03076251438398428 0 -0.028916255909106108 -0.030696311534190203 0 -0.028565980472594319 -0.030397451414321357 0 -0.029030741864073284 -0.030073496548367794 0 -0.028916255909106108 -0.030696311534190203 0 -0.029030741864073284 -0.030073496548367794 0 -0.029297452400032516 -0.03076251438398428 0 -0.028235360844340137 -0.030968517667654807 0 -0.028916255909106108 -0.030696311534190203 0 -0.028565980472594319 -0.030397451414321357 0 -0.029030741864073284 -0.030073496548367794 0 -0.028497846723197762 -0.029870269577759078 0 -0.028882653364247491 -0.029114441147737501 0 -0.029030741864073284 -0.030073496548367794 0 -0.029486887060427413 -0.029346125642901105 0 -0.028882653364247491 -0.029114441147737501 0 -0.028565980472594319 -0.030397451414321357 0 -0.029030741864073284 -0.030073496548367794 0 -0.028497846723197762 -0.029870269577759078 0 -0.03781696442302443 -0.031051219038946427 0 -0.037266981417172794 -0.030578605411845011 0 -0.037729667946415274 -0.029045247607177291 0 -0.034793960081006853 -0.030582460060413329 0 -0.038207900225237852 -0.028355373893899492 0 -0.038479415704427623 -0.028897404901558999 0 -0.038079314350380769 -0.02765375206676764 0 -0.038541130733637866 -0.027542252610097927 0 -0.034793960081006853 -0.030582460060413329 0 -0.033109180157379507 -0.028119384522485257 0 -0.028046793093623543 -0.03056214847739749 0 -0.028497846723197762 -0.029870269577759078 0 -0.027965755531193293 -0.029174444552463253 0 -0.028046793093623543 -0.03056214847739749 0 -0.028565980472594319 -0.030397451414321357 0 -0.028497846723197762 -0.029870269577759078 0 -0.031055515073184676 -0.03023177268192204 0 -0.026292245305108167 -0.032632296542245837 0 -0.029474743589828215 -0.031072686920337725 0 -0.030043159292469621 -0.030166250560059223 0 -0.030855787224205958 -0.030234520989772501 0 -0.029261409139256643 -0.031168995849773166 0 -0.029474743589828215 -0.031072686920337725 0 -0.029182532977502479 -0.031370002085567054 0 -0.029285078402429814 -0.031060075063730729 0 -0.029261409139256643 -0.031168995849773166 0 -0.029474743589828215 -0.031072686920337725 0 -0.029261409139256643 -0.031168995849773166 0 -0.029182532977502479 -0.031370002085567054 0 -0.029077104095957387 -0.031180954821534081 0 -0.029285078402429814 -0.031060075063730729 0 -0.029261409139256643 -0.031168995849773166 0 -0.029077104095957387 -0.031180954821534081 0 -0.029474743589828215 -0.031072686920337725 0 -0.029481330166554905 -0.030392915922354307 0 -0.030043159292469621 -0.030166250560059223 0 -0.029412759822712038 -0.031175590342578951 0 -0.029474743589828215 -0.031072686920337725 0 -0.029297452400032516 -0.03076251438398428 0 -0.029474743589828215 -0.031072686920337725 0 -0.029297452400032516 -0.03076251438398428 0 -0.029481330166554905 -0.030392915922354307 0 -0.029030741864073284 -0.030073496548367794 0 -0.029297452400032516 -0.03076251438398428 0 -0.029481330166554905 -0.030392915922354307 0 -0.029861754306299636 -0.02946451225338859 0 -0.030043159292469621 -0.030166250560059223 0 -0.03041767141422963 -0.029155106381620256 0 -0.029030741864073284 -0.030073496548367794 0 -0.029481330166554905 -0.030392915922354307 0 -0.029578947043821632 -0.029889970117178751 0 -0.029030741864073284 -0.030073496548367794 0 -0.029578947043821632 -0.029889970117178751 0 -0.029486887060427413 -0.029346125642901105 0 -0.029578947043821632 -0.029889970117178751 0 -0.029861754306299636 -0.02946451225338859 0 -0.029486887060427413 -0.029346125642901105 0 -0.029578947043821632 -0.029889970117178751 0 -0.029861754306299636 -0.02946451225338859 0 -0.030043159292469621 -0.030166250560059223 0 -0.029481330166554905 -0.030392915922354307 0 -0.029578947043821632 -0.029889970117178751 0 -0.030043159292469621 -0.030166250560059223 0 -0.030066230042484415 -0.030108488401653172 0 -0.028336309491633193 -0.028345758761449513 0 -0.030043159292469621 -0.030166250560059223 0 -0.03058120091813904 -0.029714197763264304 0 -0.030314236985299312 -0.029206528585052842 0 -0.030043159292469621 -0.030166250560059223 0 -0.030589058004513964 -0.030054834434719714 0 -0.030855787224205958 -0.030234520989772501 0 -0.030043159292469621 -0.030166250560059223 0 -0.030585044415773095 -0.02986042557582522 0 -0.030589058004513964 -0.030054834434719714 0 -0.030043159292469621 -0.030166250560059223 0 -0.030585044415773095 -0.02986042557582522 0 -0.03058120091813904 -0.029714197763264304 0 -0.026433887977829407 -0.030059049698143384 0 -0.027012483203044953 -0.029188923736264218 0 -0.030585044415773095 -0.02986042557582522 0 -0.030698621379160539 -0.029942520914973462 0 -0.03057850923386126 -0.029714356244908716 0 -0.024150311002777501 -0.028168174707574732 0 -0.024030594970433614 -0.027933761777968996 0 -0.02490132851618795 -0.027430690842210489 0 -0.027229623586906178 -0.029326875086448771 0 -0.027012483203044953 -0.029188923736264218 0 -0.026433887977829407 -0.030059049698143384 0 -0.026292245305108167 -0.032632296542245837 0 -0.030699441051406245 -0.029946895689433751 0 -0.030589058004513964 -0.030054834434719714 0 -0.030855787224205958 -0.030234520989772501 0 -0.030585044415773095 -0.02986042557582522 0 -0.030698621379160539 -0.029942520914973462 0 -0.030589058004513964 -0.030054834434719714 0 -0.026433887977829407 -0.030059049698143384 0 -0.02715215240709069 -0.029669190198550296 0 -0.026391969982601383 -0.029174542625991985 0 -0.026355346334870692 -0.025672352817266979 0 -0.025555492032434554 -0.027542584781448259 0 -0.027347084813824328 -0.026242897436003967 0 -0.027227795649842446 -0.026533007560542415 0 -0.026948675407798415 -0.025957942868241317 0 -0.024030594970433614 -0.027933761777968996 0 -0.024015482309035659 -0.026807048359672549 0 -0.02490132851618795 -0.027430690842210489 0 -0.027012483203044953 -0.029188923736264218 0 -0.024350934585936377 -0.024849480353282445 0 -0.027012483203044953 -0.029188923736264218 0 -0.028336309491633193 -0.028345758761449513 0 -0.024350934585936377 -0.024849480353282445 0 -0.028336309491633193 -0.028345758761449513 0 -0.03041767141422963 -0.029155106381620256 0 -0.029807536527054663 -0.028771351176192048 0 -0.029829259721999755 -0.027968608689854329 0 -0.028336309491633193 -0.028345758761449513 0 -0.02793345711991764 -0.025761573751612938 0 -0.029861754306299636 -0.02946451225338859 0 -0.029807536527054663 -0.028771351176192048 0 -0.029486887060427413 -0.029346125642901105 0 -0.029861754306299636 -0.02946451225338859 0 -0.03041767141422963 -0.029155106381620256 0 -0.029807536527054663 -0.028771351176192048 0 -0.029807536527054663 -0.028771351176192048 0 -0.029486887060427413 -0.029346125642901105 0 -0.029418803149653568 -0.028860701963865872 0 -0.029486887060427413 -0.029346125642901105 0 -0.029418803149653568 -0.028860701963865872 0 -0.028882653364247491 -0.029114441147737501 0 -0.029418803149653568 -0.028860701963865872 0 -0.029580996200170944 -0.028313536796523875 0 -0.02920479153138604 -0.028450731347732874 0 -0.029807536527054663 -0.028771351176192048 0 -0.029418803149653568 -0.028860701963865872 0 -0.029580996200170944 -0.028313536796523875 0 -0.029358819216707435 -0.027837997150003083 0 -0.029589867101125187 -0.027845237261590518 0 -0.02920479153138604 -0.028450731347732874 0 -0.029589867101125187 -0.027845237261590518 0 -0.02997988885673817 -0.027716511425172671 0 -0.02920479153138604 -0.028450731347732874 0 -0.029580996200170944 -0.028313536796523875 0 -0.029715495353297844 -0.027895520335697067 0 -0.02920479153138604 -0.028450731347732874 0 -0.028190139996436461 -0.02538628956822939 0 -0.028868341843315676 -0.028093118651414829 0 -0.028190139996436461 -0.02538628956822939 0 -0.028172054189792226 -0.022394598041568962 0 -0.029716732265403823 -0.027405294525058695 0 -0.029975524067351111 -0.027710253793544817 0 -0.0297707088172856 -0.027063362289017512 0 -0.029358819216707435 -0.027837997150003083 0 -0.029589867101125187 -0.027845237261590518 0 -0.029574408913773772 -0.027591421562836331 0 -0.029358819216707435 -0.027837997150003083 0 -0.029388285132420231 -0.027390912375245331 0 -0.029574408913773772 -0.027591421562836331 0 -0.029388285132420231 -0.027390912375245331 0 -0.029574408913773772 -0.027591421562836331 0 -0.029716732265403823 -0.027405294525058695 0 -0.029574408913773772 -0.027591421562836331 0 -0.029716732265403823 -0.027405294525058695 0 -0.029829787669868001 -0.027607291190203279 0 -0.029716732265403823 -0.027405294525058695 0 -0.029829787669868001 -0.027607291190203279 0 -0.029975524067351111 -0.027710253793544817 0 -0.028575082884391957 -0.025706169424824163 0 -0.028190139996436461 -0.02538628956822939 0 -0.029589867101125187 -0.027845237261590518 0 -0.029829787669868001 -0.027607291190203279 0 -0.02997988885673817 -0.027716511425172671 0 -0.029589867101125187 -0.027845237261590518 0 -0.029574408913773772 -0.027591421562836331 0 -0.029829787669868001 -0.027607291190203279 0 -0.028032099182823355 -0.022845079579705468 0 -0.028141890743385682 -0.022727480524440447 0 -0.027954973383720716 -0.022613374062907574 0 -0.026434747844112767 -0.023256734042039363 0 -0.026095065786942484 -0.024170533698292834 0 -0.02393135303790286 -0.022897370401428672 0 -0.026434747844112767 -0.023256734042039363 0 -0.026773087623824358 -0.023487231503001905 0 -0.026095065786942484 -0.024170533698292834 0 -0.02793345711991764 -0.025761573751612938 0 -0.028190139996436461 -0.02538628956822939 0 -0.028190139996436461 -0.02538628956822939 0 -0.026957304068900227 -0.021534768083217165 0 -0.029807536527054663 -0.028771351176192