<?xml version="1.0"?>
<VTKFile type="UnstructuredGrid" version="0.1" byte_order="LittleEndian">
<UnstructuredGrid>
<Piece NumberOfPoints="30618" NumberOfCells="10744">
<Points>
<DataArray type="Float64" NumberOfComponents="3" format="ascii">
-0.49427958746526202 -0.49999999999999512 0 -0.4943900888896422 -0.47349089190363358 0 -0.49427958746526202 -0.49999999999999512 0 -0.5 -0.5 0 -0.4943900888896422 -0.47349089190363358 0 -0.5 -0.5 0 -0.4943900888896422 -0.47349089190363358 0 -0.5 -0.44150235328842258 0 -0.49427958746526202 -0.49999999999999512 0 -0.4943900888896422 -0.47349089190363358 0 -0.48436842240857858 -0.48714093788813112 0 -0.49427958746526202 -0.49999999999999512 0 -0.47650045540741742 -0.5 0 -0.48436842240857858 -0.48714093788813112 0 -0.4943900888896422 -0.47349089190363358 0 -0.47066899942757451 -0.47576530412887819 0 -0.48436842240857858 -0.48714093788813112 0 -0.47066899942757451 -0.47576530412887819 0 -0.47650045540741742 -0.5 0 -0.48436842240857858 -0.48714093788813112 0 -0.47066899942757451 -0.47576530412887819 0 -0.45872132334957288 -0.49999999999999928 0 -0.45242967983978871 -0.4846708604340636 0 -0.47066899942757451 -0.47576530412887819 0 -0.47650045540741742 -0.5 0 -0.45872132334957288 -0.49999999999999928 0 -0.47066899942757451 -0.47576530412887819 0 -0.45872132334957288 -0.49999999999999928 0 -0.47066899942757451 -0.47576530412887819 0 -0.45242967983978871 -0.4846708604340636 0 -0.45249717469141032 -0.46588444847215849 0 -0.43763952177061649 -0.47770500498713542 0 -0.45242967983978871 -0.4846708604340636 0 -0.45249717469141032 -0.46588444847215849 0 -0.43763952177061649 -0.47770500498713542 0 -0.44291044788006362 -0.49999999999999939 0 -0.45242967983978871 -0.4846708604340636 0 -0.43763952177061649 -0.47770500498713542 0 -0.44291044788006362 -0.49999999999999939 0 -0.45872132334957288 -0.49999999999999928 0 -0.44291044788006362 -0.49999999999999939 0 -0.45242967983978871 -0.4846708604340636 0 -0.44838221886832419 -0.4464230337388379 0 -0.4323685956611692 -0.45541000997427139 0 -0.435988539966085 -0.44148905847597392 0 -0.44838221886832419 -0.4464230337388379 0 -0.44213238819953832 -0.43491600865963681 0 -0.435988539966085 -0.44148905847597392 0 -0.44838221886832419 -0.4464230337388379 0 -0.45249717469141032 -0.46588444847215849 0 -0.45755175660874181 -0.45423607616472811 0 -0.44838221886832419 -0.4464230337388379 0 -0.45249717469141032 -0.46588444847215849 0 -0.4323685956611692 -0.45541000997427139 0 -0.43763952177061649 -0.47770500498713542 0 -0.45249717469141032 -0.46588444847215849 0 -0.4323685956611692 -0.45541000997427139 0 -0.47066899942757451 -0.47576530412887819 0 -0.45249717469141032 -0.46588444847215849 0 -0.4675747862741928 -0.45726336772241771 0 -0.45249717469141032 -0.46588444847215849 0 -0.45755175660874181 -0.45423607616472811 0 -0.4675747862741928 -0.45726336772241771 0 -0.44838221886832419 -0.4464230337388379 0 -0.46897642374787268 -0.44262015471777721 0 -0.45660235518767722 -0.42786105997071933 0 -0.44838221886832419 -0.4464230337388379 0 -0.45755175660874181 -0.45423607616472811 0 -0.46897642374787268 -0.44262015471777721 0 -0.45755175660874181 -0.45423607616472811 0 -0.4675747862741928 -0.45726336772241771 0 -0.46897642374787268 -0.44262015471777721 0 -0.4943900888896422 -0.47349089190363358 0 -0.5 -0.44150235328842258 0 -0.49450059031402238 -0.44698178380727199 0 -0.46897642374787268 -0.44262015471777721 0 -0.48473746643246862 -0.43972512984246093 0 -0.48043585850414389 -0.43127077967876992 0 -0.46897642374787268 -0.44262015471777721 0 -0.4826166755055763 -0.45153060825775743 0 -0.48473746643246862 -0.43972512984246093 0 -0.4675747862741928 -0.45726336772241771 0 -0.46897642374787268 -0.44262015471777721 0 -0.4826166755055763 -0.45153060825775743 0 -0.47066899942757451 -0.47576530412887819 0 -0.4826166755055763 -0.45153060825775743 0 -0.4943900888896422 -0.47349089190363358 0 -0.47066899942757451 -0.47576530412887819 0 -0.4826166755055763 -0.45153060825775743 0 -0.47066899942757451 -0.47576530412887819 0 -0.4675747862741928 -0.45726336772241771 0 -0.4826166755055763 -0.45153060825775743 0 -0.4943900888896422 -0.47349089190363358 0 -0.49450059031402238 -0.44698178380727199 0 -0.4943900888896422 -0.47349089190363358 0 -0.4826166755055763 -0.45153060825775743 0 -0.49450059031402238 -0.44698178380727199 0 -0.4826166755055763 -0.45153060825775743 0 -0.48473746643246862 -0.43972512984246093 0 -0.49450059031402238 -0.44698178380727199 0 -0.5 -0.44150235328842258 0 -0.49461109173840262 -0.42047267571091063 0 -0.5 -0.39656953661894012 0 -0.49450059031402238 -0.44698178380727199 0 -0.49461109173840262 -0.42047267571091063 0 -0.48473746643246862 -0.43972512984246093 0 -0.49461109173840262 -0.42047267571091063 0 -0.48043585850414389 -0.43127077967876992 0 -0.5 -0.44150235328842258 0 -0.49450059031402238 -0.44698178380727199 0 -0.49461109173840262 -0.42047267571091063 0 -0.48473746643246862 -0.43972512984246093 0 -0.49450059031402238 -0.44698178380727199 0 -0.49461109173840262 -0.42047267571091063 0 -0.49461109173840262 -0.42047267571091063 0 -0.4947215931627828 -0.39396356761454909 0 -0.49461109173840262 -0.42047267571091063 0 -0.48393842445605872 -0.40713040098299402 0 -0.4947215931627828 -0.39396356761454909 0 -0.49461109173840262 -0.42047267571091063 0 -0.48393842445605872 -0.40713040098299402 0 -0.47214510592166908 -0.41939033492402211 0 -0.48393842445605872 -0.40713040098299402 0 -0.47214510592166908 -0.41939033492402211 0 -0.47427590700138023 -0.39469502568249409 0 -0.46897642374787268 -0.44262015471777721 0 -0.47214510592166908 -0.41939033492402211 0 -0.48043585850414389 -0.43127077967876992 0 -0.49461109173840262 -0.42047267571091063 0 -0.47214510592166908 -0.41939033492402211 0 -0.48043585850414389 -0.43127077967876992 0 -0.5 -0.39656953661894012 0 -0.4947215931627828 -0.39396356761454909 0 -0.48030453056746109 -0.36861144308094029 0 -0.49461109173840262 -0.42047267571091063 0 -0.5 -0.39656953661894012 0 -0.4947215931627828 -0.39396356761454909 0 -0.48393842445605872 -0.40713040098299402 0 -0.4947215931627828 -0.39396356761454909 0 -0.47427590700138023 -0.39469502568249409 0 -0.47427590700138023 -0.39469502568249409 0 -0.48030453056746109 -0.36861144308094029 0 -0.4947215931627828 -0.39396356761454909 0 -0.47427590700138023 -0.39469502568249409 0 -0.48030453056746109 -0.36861144308094029 0 -0.47427590700138023 -0.39469502568249409 0 -0.46334377193483078 -0.37842983215876019 0 -0.48030453056746109 -0.36861144308094029 0 -0.46334377193483078 -0.37842983215876019 0 -0.45726543839001688 -0.40541672899881109 0 -0.44416021803808919 -0.38243724496113263 0 -0.47427590700138023 -0.39469502568249409 0 -0.46334377193483078 -0.37842983215876019 0 -0.45726543839001688 -0.40541672899881109 0 -0.45726543839001688 -0.40541672899881109 0 -0.43814282409564848 -0.40387353522152758 0 -0.44416021803808919 -0.38243724496113263 0 -0.43814282409564848 -0.40387353522152758 0 -0.44416021803808919 -0.38243724496113263 0 -0.4329908326547659 -0.40007252460533121 0 -0.43814282409564848 -0.40387353522152758 0 -0.44416021803808919 -0.38243724496113263 0 -0.46897642374787268 -0.44262015471777721 0 -0.47214510592166908 -0.41939033492402211 0 -0.45660235518767722 -0.42786105997071933 0 -0.47214510592166908 -0.41939033492402211 0 -0.47427590700138023 -0.39469502568249409 0 -0.45726543839001688 -0.40541672899881109 0 -0.47214510592166908 -0.41939033492402211 0 -0.45726543839001688 -0.40541672899881109 0 -0.45660235518767722 -0.42786105997071933 0 -0.45726543839001688 -0.40541672899881109 0 -0.45660235518767722 -0.42786105997071933 0 -0.44309263043645408 -0.41812298423377797 0 -0.45726543839001688 -0.40541672899881109 0 -0.43814282409564848 -0.40387353522152758 0 -0.44309263043645408 -0.41812298423377797 0 -0.43814282409564848 -0.40387353522152758 0 -0.44309263043645408 -0.41812298423377797 0 -0.43209373842114163 -0.42530092927673752 0 -0.44838221886832419 -0.4464230337388379 0 -0.45660235518767722 -0.42786105997071933 0 -0.44213238819953832 -0.43491600865963681 0 -0.45660235518767722 -0.42786105997071933 0 -0.44213238819953832 -0.43491600865963681 0 -0.43132710435572019 -0.42815377149591122 0 -0.45660235518767722 -0.42786105997071933 0 -0.44309263043645408 -0.41812298423377797 0 -0.43132710435572019 -0.42815377149591122 0 -0.45660235518767722 -0.42786105997071933 0 -0.43132710435572019 -0.42815377149591122 0 -0.44213238819953832 -0.43491600865963681 0 -0.42986244815509678 -0.43337144475258638 0 -0.435988539966085 -0.44148905847597392 0 -0.44213238819953832 -0.43491600865963681 0 -0.42986244815509678 -0.43337144475258638 0 -0.43132710435572019 -0.42815377149591122 0 -0.42986244815509678 -0.43337144475258638 0 -0.43132710435572019 -0.42815377149591122 0 -0.42986244815509678 -0.43337144475258638 0 -0.42494843276815808 -0.42822764260015772 0 -0.42026026496879931 -0.43681168621285732 0 -0.42986244815509678 -0.43337144475258638 0 -0.42494843276815808 -0.42822764260015772 0 -0.43132710435572019 -0.42815377149591122 0 -0.42494843276815808 -0.42822764260015772 0 -0.43209373842114163 -0.42530092927673752 0 -0.42214799869492048 -0.41876725226122891 0 -0.42494843276815808 -0.42822764260015772 0 -0.43209373842114163 -0.42530092927673752 0 -0.42494843276815808 -0.42822764260015772 0 -0.43209373842114163 -0.42530092927673752 0 -0.43132710435572019 -0.42815377149591122 0 -0.42494843276815808 -0.42822764260015772 0 -0.43132710435572019 -0.42815377149591122 0 -0.44309263043645408 -0.41812298423377797 0 -0.43209373842114163 -0.42530092927673752 0 -0.43132710435572019 -0.42815377149591122 0 -0.43209373842114163 -0.42530092927673752 0 -0.43132710435572019 -0.42815377149591122 0 -0.43814282409564848 -0.40387353522152758 0 -0.43209373842114163 -0.42530092927673752 0 -0.43814282409564848 -0.40387353522152758 0 -0.43209373842114163 -0.42530092927673752 0 -0.42736227186559528 -0.41250939947999687 0 -0.43814282409564848 -0.40387353522152758 0 -0.42736227186559528 -0.41250939947999687 0 -0.42798743510346321 -0.40461924019690898 0
[...]
<PointData Scalars="" Vectors="displacement," Tensors="">
<DataArray type="Float64" Name="displacement" NumberOfComponents="3" format="ascii">
-1.3813330315075087e-07 -0.034999450381984341 0 -9.8175313164313018e-05 -0.033514383181071736 0 2.2786888019457003e-10 -0.034999458126132539 0 -9.2340942556040136e-10 -0.034999913311887496 0 -2.2908591870134139e-07 -0.033147932280488214 0 -9.2340942556040136e-10 -0.034999913311887496 0 -2.2908591870134139e-07 -0.033147932280488214 0 -5.9895220407428878e-09 -0.030904881286370995 0 -9.4717023807335548e-08 -0.034999511231909475 0 -0.00011690935944413043 -0.033903373640864001 0 -7.3305057050327275e-05 -0.034533821408459134 0 -9.4717023807335548e-08 -0.034999511231909475 0 -1.1132754474677719e-07 -0.034999213858490336 0 -7.3305057050327275e-05 -0.034533821408459134 0 -0.00011690935944413043 -0.033903373640864001 0 -9.0815454710030808e-05 -0.034307001698664116 0 -7.3305057050327275e-05 -0.034533821408459134 0 -9.0815454710030808e-05 -0.034307001698664116 0 -1.1132754474677719e-07 -0.034999213858490336 0 -7.3305057050327275e-05 -0.034533821408459134 0 -0.00046384873195206498 -0.03360575455059301 0 -6.4965294670609544e-07 -0.034999139986352998 0 -0.00030928298939458348 -0.034350487386031858 0 -9.0815454710030808e-05 -0.034307001698664116 0 -1.1132754474677719e-07 -0.034999213858490336 0 3.8171348344660634e-08 -0.035000072795404985 0 -0.000266060638094351 -0.033920141722405386 0 7.8882181892061228e-09 -0.034999575475730037 0 -0.00046384873195206498 -0.03360575455059301 0 -0.00030928298939458348 -0.034350487386031858 0 -0.00045225804444786746 -0.033687609541344067 0 -0.00045631220401203421 -0.034089901994282815 0 -0.00030928298939458348 -0.034350487386031858 0 -0.00045225804444786746 -0.033687609541344067 0 -0.00045631220401203421 -0.034089901994282815 0 -1.2700913293177644e-08 -0.034998771389776695 0 -0.00030928298939458348 -0.034350487386031858 0 -0.00030822227181573206 -0.034445353680185239 0 -1.8735929793746091e-07 -0.034999730465598858 0 -6.4965294670609544e-07 -0.034999139986352998 0 -1.2700913293177644e-08 -0.034998771389776695 0 -0.00030928298939458348 -0.034350487386031858 0 -0.00026315795512705099 -0.033282968368096091 0 -0.00030299189833035543 -0.034142889146464621 0 -7.9374777433148771e-05 -0.03377427258716497 0 -0.00026315795512705099 -0.033282968368096091 0 2.005304230106704e-05 -0.033322456531221553 0 -7.9374777433148771e-05 -0.03377427258716497 0 -0.00026315795512705099 -0.033282968368096091 0 -0.00045225804444786746 -0.033687609541344067 0 -0.00036346278078079326 -0.033204015522635945 0 -0.00026315795512705099 -0.033282968368096091 0 -0.00045225804444786746 -0.033687609541344067 0 -0.00030299189833035543 -0.034142889146464621 0 -0.00045631220401203421 -0.034089901994282815 0 -0.00045225804444786746 -0.033687609541344067 0 -0.00030299189833035543 -0.034142889146464621 0 -0.00046384873195206498 -0.03360575455059301 0 -0.00045225804444786746 -0.033687609541344067 0 -0.00036528321548712792 -0.033061416633778158 0 -0.00045225804444786746 -0.033687609541344067 0 -0.00036346278078079326 -0.033204015522635945 0 -0.00036528321548712792 -0.033061416633778158 0 -0.00026315795512705099 -0.033282968368096091 0 -0.00032597566589405051 -0.032408537613333323 0 -9.593893986934365e-05 -0.032151954355344091 0 -0.00026315795512705099 -0.033282968368096091 0 -0.00036346278078079326 -0.033204015522635945 0 -0.00032597566589405051 -0.032408537613333323 0 -0.00036346278078079326 -0.033204015522635945 0 -0.00036528321548712792 -0.033061416633778158 0 -0.00032597566589405051 -0.032408537613333323 0 -2.2908591870134139e-07 -0.033147932280488214 0 -5.9895220407428878e-09 -0.030904881286370995 0 9.507771102496863e-07 -0.031291422218397161 0 -0.00032597566589405051 -0.032408537613333323 0 -0.00038115485536741967 -0.032089112732290148 0 -0.00038266737230798869 -0.031659337164675339 0 -0.00032597566589405051 -0.032408537613333323 0 -0.00030466179581084183 -0.032741182192673288 0 -0.00038115485536741967 -0.032089112732290148 0 -0.00036528321548712792 -0.033061416633778158 0 -0.00032597566589405051 -0.032408537613333323 0 -0.00030466179581084183 -0.032741182192673288 0 -0.000266060638094351 -0.033920141722405386 0 -0.00029810693082865279 -0.032954863075112285 0 -0.00011690935944413043 -0.033903373640864001 0 -9.0815454710030808e-05 -0.034307001698664116 0 -0.00030466179581084183 -0.032741182192673288 0 -0.00046384873195206498 -0.03360575455059301 0 -0.00036528321548712792 -0.033061416633778158 0 -0.00030466179581084183 -0.032741182192673288 0 -9.8175313164313018e-05 -0.033514383181071736 0 -0.00018936987808244993 -0.03189606307184345 0 -0.00011690935944413043 -0.033903373640864001 0 -0.00030466179581084183 -0.032741182192673288 0 -0.0003498866448728212 -0.032522777617388629 0 -0.00030466179581084183 -0.032741182192673288 0 -0.00038115485536741967 -0.032089112732290148 0 -0.0003498866448728212 -0.032522777617388629 0 -5.9895220407428878e-09 -0.030904881286370995 0 -2.0071027465724324e-05 -0.029436276695852991 0 -2.7422420393161779e-07 -0.027761206030126228 0 -0.00018936987808244993 -0.03189606307184345 0 -0.00018525260021184532 -0.029989903144334765 0 -0.00038115485536741967 -0.032089112732290148 0 -0.00043131703271683496 -0.030677622195093894 0 -0.00038266737230798869 -0.031659337164675339 0 -5.9895220407428878e-09 -0.030904881286370995 0 9.507771102496863e-07 -0.031291422218397161 0 -2.0071027465724324e-05 -0.029436276695852991 0 -0.00038115485536741967 -0.032089112732290148 0 -0.0003498866448728212 -0.032522777617388629 0 -0.00043131703271683496 -0.030677622195093894 0 -0.00018525260021184532 -0.029989903144334765 0 7.4289303613101111e-05 -0.028335186756325889 0 -0.00043131703271683496 -0.030677622195093894 0 -0.00022867809242128564 -0.029910676259863891 0 1.9578933371189455e-05 -0.027949009842609944 0 -0.00043131703271683496 -0.030677622195093894 0 -0.00022867809242128564 -0.029910676259863891 0 -0.00031223123148640567 -0.031213474918944977 0 -0.00022867809242128564 -0.029910676259863891 0 -0.00031223123148640567 -0.031213474918944977 0 0.00019606850660423367 -0.029773818293955132 0 -0.00032597566589405051 -0.032408537613333323 0 -0.00031223123148640567 -0.031213474918944977 0 -0.00038266737230798869 -0.031659337164675339 0 -0.00043131703271683496 -0.030677622195093894 0 -0.00031223123148640567 -0.031213474918944977 0 -0.00038266737230798869 -0.031659337164675339 0 -2.7422420393161779e-07 -0.027761206030126228 0 1.9578933371189455e-05 -0.027949009842609944 0 0.00022739537621398805 -0.026940419089045285 0 -2.0071027465724324e-05 -0.029436276695852991 0 -2.7422420393161779e-07 -0.027761206030126228 0 1.9578933371189455e-05 -0.027949009842609944 0 -0.00022867809242128564 -0.029910676259863891 0 1.9578933371189455e-05 -0.027949009842609944 0 0.00019606850660423367 -0.029773818293955132 0 8.2458296689793314e-05 -0.029467658735644671 0 0.00099650730581238929 -0.028545964950863201 0 1.9578933371189455e-05 -0.027949009842609944 0 0.00019606850660423367 -0.029773818293955132 0 0.00022739537621398805 -0.026940419089045285 0 0.00019606850660423367 -0.029773818293955132 0 0.001319336649202306 -0.030582548263738275 0 0.0019708203351542857 -0.029369166272026376 0 0.001319336649202306 -0.030582548263738275 0 -8.6210547268183166e-05 -0.031331336682745139 0 0.0010578105263015485 -0.031763603634333948 0 0.00019606850660423367 -0.029773818293955132 0 0.001319336649202306 -0.030582548263738275 0 -8.6210547268183166e-05 -0.031331336682745139 0 -8.6210547268183166e-05 -0.031331336682745139 0 3.8581641489525821e-05 -0.032009391659699016 0 0.0010578105263015485 -0.031763603634333948 0 -0.00083552765480010419 -0.027764991560240711 0 -0.0001113146919276161 -0.02751997416672413 0 -0.00069760636924884399 -0.027945326698016661 0 -0.00047655587855375685 -0.029746397135413084 0 0.00053480587286149235 -0.030023234078221221 0 -0.00032597566589405051 -0.032408537613333323 0 -0.00031223123148640567 -0.031213474918944977 0 -9.593893986934365e-05 -0.032151954355344091 0 -0.00031223123148640567 -0.031213474918944977 0 0.00019606850660423367 -0.029773818293955132 0 -8.6210547268183166e-05 -0.031331336682745139 0 -0.00031223123148640567 -0.031213474918944977 0 -8.6210547268183166e-05 -0.031331336682745139 0 -9.593893986934365e-05 -0.032151954355344091 0 -8.6210547268183166e-05 -0.031331336682745139 0 -9.593893986934365e-05 -0.032151954355344091 0 -0.00017175680543635863 -0.031906061729046781 0 -8.6210547268183166e-05 -0.031331336682745139 0 3.8581641489525821e-05 -0.032009391659699016 0 -0.00017175680543635863 -0.031906061729046781 0 3.8581641489525821e-05 -0.032009391659699016 0 -0.00017175680543635863 -0.031906061729046781 0 -0.00017135236003293461 -0.031877771974684652 0 -0.00026315795512705099 -0.033282968368096091 0 -9.593893986934365e-05 -0.032151954355344091 0 2.005304230106704e-05 -0.033322456531221553 0 -9.593893986934365e-05 -0.032151954355344091 0 2.005304230106704e-05 -0.033322456531221553 0 0.00060757231732176621 -0.034031665628612831 0 -9.593893986934365e-05 -0.032151954355344091 0 -0.00017175680543635863 -0.031906061729046781 0 -0.00015579406926509402 -0.031863236266037862 0 2.5373636155445693e-05 -0.032472588720078986 0 -5.6989308834813632e-05 -0.032416182802733798 0 2.005304230106704e-05 -0.033322456531221553 0 0.00025584517366769832 -0.034094928892898176 0 -7.9374777433148771e-05 -0.03377427258716497 0 2.005304230106704e-05 -0.033322456531221553 0 0.00025584517366769832 -0.034094928892898176 0 0.00060757231732176621 -0.034031665628612831 0 1.8412628424218451e-05 -0.032830266439728688 0 -5.6989308834813632e-05 -0.032416182802733798 0 0.00025584517366769832 -0.034094928892898176 0 0.00038950735200700973 -0.034248490738977823 0 0.00015980262058014639 -0.034377577899569252 0 0.00025584517366769832 -0.034094928892898176 0 0.00038950735200700973 -0.034248490738977823 0 0.00040116226178175333 -0.034052216929041458 0 -0.0017956606354751499 -0.028305545151111881 0 -0.0016791141466202188 -0.02802408966841393 0 -0.0014285189742263202 -0.028403207642729016 0 -0.00021230438619245548 -0.031892473549107403 0 -0.00015644350675403661 -0.031365633760607275 0 -0.00036547494144622541 -0.031909650903029038 0 -0.00031982256915265127 -0.031800841397854565 0 -0.0003634375107925493 -0.031812930214018285 0 -0.00021230438619245548 -0.031892473549107403 0 -5.6989308834813632e-05 -0.032416182802733798 0 -0.00017175680543635863 -0.031906061729046781 0 -0.00017135236003293461 -0.031877771974684652 0 -0.00015579406926509402 -0.031863236266037862 0 -0.00015644350675403661 -0.031365633760607275 0 -5.6989308834813632e-05 -0.032416182802733798 0 -0.00047655587855375685 -0.029746397135413084 0 -0.00015644350675403661 -0.031365633760607275 0 -0.00083552765480010419 -0.027764991560240711 0 -0.0016791141466202188 -0.02802408966841393 0 -0.0011806767194956903 -0.028189710423192554 0 -0.00083552765480010419 -0.027764991560240711 0 -0.0011806767194956903 -0.028189710423192554 0 -0.00087468185159596213 -0.028150588324733456 0 -0.0011806767194956903 -0.028189710423192554 0 -0.0014285189742263202 -0.028403207642729016 0 -0.0010881189203435135 -0.02861532002288647 0 -0.0011806767194956903 -0.028189710423192554 0 -0.0010881189203435135 -0.02861532002288647 0 -0.00087468185159596213 -0.028150588324733456 0 -0.0016791141466202188 -0.02802408966841393 0 -0.0011806767194956903 -0.028189710423192554 0 -0.0014285189742263202 -0.028403207642729016 0 -0.0010881189203435135 -0.02861532002288647 0 -0.0014687019033420923 -0.028756725448363985 0 -0.0012006830411746944 -0.029251826049524286 0 -0.0010881189203435135 -0.02861532002288647 0 -0.00077336821872789319 -0.029090725262295867 0 -0.0012006830411746944 -0.029251826049524286 0 -0.0014285189742263202 -0.028403207642729016 0 -0.0010881189203435135 -0.02861532002288647 0 -0.0014687019033420923 -0.028756725448363985 0 0.00038950735200700973 -0.034248490738977823 0 0.00015980262058014639 -0.034377577899569252 0 0.00012153598707757742 -0.034746026602216241 0 -0.00021230438619245548 -0.031892473549107403 0 9.5663514586046431e-05 -0.034546402616332315 0 0.00038453952779920396 -0.03295697860892851 0 8.0008391605133599e-05 -0.033775452425866097 0 0.00037148439526770729 -0.033840912383765236 0 -0.00021230438619245548 -0.031892473549107403 0 -0.00077229954340915377 -0.031244840006919392 0 -0.0017956606354751499 -0.028305545151111881 0 -0.0014687019033420923 -0.028756725448363985 0 -0.0018233270442541811 -0.02921807721421809 0 -0.0017956606354751499 -0.028305545151111881 0 -0.0014285189742263202 -0.028403207642729016 0 -0.0014687019033420923 -0.028756725448363985 0 -2.2571475100723013e-05 -0.02893070804752872 0 -0.00094173158750472359 -0.025371224081395534 0 -0.00069760636924884399 -0.027945326698016661 0 -0.00036172683419939753 -0.028520423981105159 0 0.00014309166115223331 -0.028464380452972563 0 -0.00010217368667909404 -0.027902618053810113 0 -0.00069760636924884399 -0.027945326698016661 0 6.4318662297230719e-05 -0.028319294294549869 0 -0.0001113146919276161 -0.02751997416672413 0 -0.00010217368667909404 -0.027902618053810113 0 -0.00069760636924884399 -0.027945326698016661 0 -0.00010217368667909404 -0.027902618053810113 0 6.4318662297230719e-05 -0.028319294294549869 0 0.00033485785807359756 -0.0278190932196208 0 -0.0001113146919276161 -0.02751997416672413 0 -0.00010217368667909404 -0.027902618053810113 0 0.00033485785807359756 -0.0278190932196208 0 -0.00069760636924884399 -0.027945326698016661 0 -0.00074637085430264013 -0.028392370929797642 0 -0.00036172683419939753 -0.028520423981105159 0 -0.00083552765480010419 -0.027764991560240711 0 -0.00069760636924884399 -0.027945326698016661 0 -0.00087468185159596213 -0.028150588324733456 0 -0.00069760636924884399 -0.027945326698016661 0 -0.00087468185159596213 -0.028150588324733456 0 -0.00074637085430264013 -0.028392370929797642 0 -0.0010881189203435135 -0.02861532002288647 0 -0.00087468185159596213 -0.028150588324733456 0 -0.00074637085430264013 -0.028392370929797642 0 -0.00050867007640609946 -0.029006624030178767 0 -0.00036172683419939753 -0.028520423981105159 0 -0.0001319159034196466 -0.029210693114424612 0 -0.0010881189203435135 -0.02861532002288647 0 -0.00074637085430264013 -0.028392370929797642 0 -0.00069585739879060582 -0.028724105717174625 0 -0.0010881189203435135 -0.02861532002288647 0 -0.00069585739879060582 -0.028724105717174625 0 -0.00077336821872789319 -0.029090725262295867 0 -0.00069585739879060582 -0.028724105717174625 0 -0.00050867007640609946 -0.029006624030178767 0 -0.00077336821872789319 -0.029090725262295867 0 -0.00069585739879060582 -0.028724105717174625 0 -0.00050867007640609946 -0.029006624030178767 0 -0.00036172683419939753 -0.028520423981105159 0 -0.00074637085430264013 -0.028392370929797642 0 -0.00069585739879060582 -0.028724105717174625 0 -0.00036172683419939753 -0.028520423981105159 0 -0.00024495987253123129 -0.028874125929422349 0 -0.00081796901850106113 -0.028388363265557142 0 -0.00036172683419939753 -0.028520423981105159 0 -3.2301089435564329e-05 -0.028763775047693594 0 -0.00018009491501019451 -0.029044370017706673 0 -0.00036172683419939753 -0.028520423981105159 0 -2.4679993663169581e-05 -0.028573113924762025 0 0.00014309166115223331 -0.028464380452972563 0 -0.00036172683419939753 -0.028520423981105159 0 -2.8900256192456566e-05 -0.028680760691460607 0 -2.4679993663169581e-05 -0.028573113924762025 0 -0.00036172683419939753 -0.028520423981105159 0 -2.8900256192456566e-05 -0.028680760691460607 0 -3.2301089435564329e-05 -0.028763775047693594 0 -0.001073741715456584 -0.026570834855703447 0 -0.0011103999424348717 -0.027413866779708987 0 -2.8900256192456566e-05 -0.028680760691460607 0 3.3782921318432294e-05 -0.028635154200115691 0 -3.2838915944829755e-05 -0.028755383447924839 0 -0.0019203497233900159 -0.026362888972044786 0 -0.001848481868820111 -0.026220568680271349 0 -0.0023988162360462908 -0.025907653403187555 0 -0.0010461773311837824 -0.027692556820456841 0 -0.0011103999424348717 -0.027413866779708987 0 -0.001073741715456584 -0.026570834855703447 0 -0.00094173158750472359 -0.025371224081395534 0 4.5447304995749224e-05 -0.028636868159723321 0 -2.4679993663169581e-05 -0.028573113924762025 0 0.00014309166115223331 -0.028464380452972563 0 -2.8900256192456566e-05 -0.028680760691460607 0 3.3782921318432294e-05 -0.028635154200115691 0 -2.4679993663169581e-05 -0.028573113924762025 0 -0.001073741715456584 -0.026570834855703447 0 -0.00070660887485955628 -0.026992503176843409 0 -0.0015458394558540767 -0.027788798839964698 0 -0.0015517969477016646 -0.026752919781743958 0 -0.0013050808177701811 -0.027307069297221799 0 -0.0012449233465803779 -0.027790796771875029 0 -0.0013286524513887999 -0.02759444132867777 0 -0.001535857550959707 -0.027993028515390289 0 -0.001848481868820111 -0.026220568680271349 0 -0.0018498801197392809 -0.025540928545759661 0 -0.0023988162360462908 -0.025907653403187555 0 -0.0011103999424348717 -0.027413866779708987 0 -0.0021875749113168001 -0.026244289685509407 0 -0.0011103999424348717 -0.027413866779708987 0 -0.00081796901850106113 -0.028388363265557142 0 -0.0021875749113168001 -0.026244289685509407 0 -0.00081796901850106113 -0.028388363265557142 0 -0.0001319159034196466 -0.029210693114424612 0 -0.0005560766723894156 -0.029470497368930284 0 -0.00054549095080073386 -0.030004189000451369 0 -0.00081796901850106113 -0.028388363265557142 0 -0.0014792193925959232 -0.028507859647033687 0 -0.00050867007640609946 -0.029006624030178767 0 -0.0005560766723894156 -0.029470497368930284 0 -0.00077336821872789319 -0.029090725262295867 0 -0.00050867007640609946 -0.029006624030178767 0 -0.0001319159034196466 -0.029210693114424612 0 -0.0005560766723894156 -0.029470497368930284 0 -0.0005560766723894156 -0.029470497368930284 0 -0.00077336821872789319 -0.029090725262295867 0 -0.00082850670071341807 -0.029414367312532688 0 -0.00077336821872789319 -0.029090725262295867 0 -0.00082850670071341807 -0.029414367312532688 0 -0.0012006830411746944 -0.029251826049524286 0 -0.00082850670071341807 -0.029414367312532688 0 -0.00071817434465846455 -0.029777316716469177 0 -0.00098823141669217773 -0.029690205474018395 0 -0.0005560766723894156 -0.029470497368930284 0 -0.00082850670071341807 -0.029414367312532688 0 -0.00071817434465846455 -0.029777316716469177 0 -0.00093785120080572054 -0.030011025708752311 0 -0.00083058136962235784 -0.029998698390765664 0 -0.00098823141669217773 -0.029690205474018395 0 -0.00083058136962235784 -0.029998698390765664 0 -0.00065716786728384799 -0.030060486716379543 0 -0.00098823141669217773 -0.029690205474018395 0 -0.00071817434465846455 -0.029777316716469177 0 -0.00062130772529310225 -0.030053463127852051 0 -0.00098823141669217773 -0.029690205474018395 0 -0.0013491440949819002 -0.028762102785664365 0 -0.00063853651513757082 -0.029954077407271743 0 -0.0013491440949819002 -0.028762102785664365 0 -0.0019893708318316837 -0.028670014050265379 0 -0.00078290241224332577 -0.030188523090433576 0 -0.0006618566363971309 -0.030057963933664077 0 -0.00076715211954023405 -0.030329413192454663 0 -0.00093785120080572054 -0.030011025708752311 0 -0.00083058136962235784 -0.029998698390765664 0 -0.00084301739191036424 -0.030112253938508252 0 -0.00093785120080572054 -0.030011025708752311 0 -0.00092841590606236926 -0.030200048056437043 0 -0.00084301739191036424 -0.030112253938508252 0 -0.00092841590606236926 -0.030200048056437043 0 -0.00084301739191036424 -0.030112253938508252 0 -0.00078290241224332577 -0.030188523090433576 0 -0.00084301739191036424 -0.030112253938508252 0 -0.00078290241224332577 -0.030188523090433576 0 -0.00072769794276466269 -0.0301031781581018 0 -0.00078290241224332577 -0.030188523090433576 0 -0.00072769794276466269 -0.0301031781581018 0 -0.0006618566363971309 -0.030057963933664077 0 -0.0013397500580226336 -0.028846741466388978 0 -0.0013491440949819002 -0.028762102785664365 0 -0.00083058136962235784 -0.029998698390765664 0 -0.00072769794276466269 -0.0301031781581018 0 -0.00065716786728384799 -0.030060486716379543 0 -0.00083058136962235784 -0.029998698390765664 0 -0.00