<?xml version="1.0"?>
<VTKFile type="UnstructuredGrid" version="0.1" byte_order="LittleEndian">
<UnstructuredGrid>
<Piece NumberOfPoints="30618" NumberOfCells="10744">
<Points>
<DataArray type="Float64" NumberOfComponents="3" format="ascii">
-0.49427958746526202 -0.49999999999999512 0 -0.4943900888896422 -0.47349089190363358 0 -0.49427958746526202 -0.49999999999999512 0 -0.5 -0.5 0 -0.4943900888896422 -0.47349089190363358 0 -0.5 -0.5 0 -0.4943900888896422 -0.47349089190363358 0 -0.5 -0.44150235328842258 0 -0.49427958746526202 -0.49999999999999512 0 -0.4943900888896422 -0.47349089190363358 0 -0.48436842240857858 -0.48714093788813112 0 -0.49427958746526202 -0.49999999999999512 0 -0.47650045540741742 -0.5 0 -0.48436842240857858 -0.48714093788813112 0 -0.4943900888896422 -0.47349089190363358 0 -0.47066899942757451 -0.47576530412887819 0 -0.48436842240857858 -0.48714093788813112 0 -0.47066899942757451 -0.47576530412887819 0 -0.47650045540741742 -0.5 0 -0.48436842240857858 -0.48714093788813112 0 -0.47066899942757451 -0.47576530412887819 0 -0.45872132334957288 -0.49999999999999928 0 -0.45242967983978871 -0.4846708604340636 0 -0.47066899942757451 -0.47576530412887819 0 -0.47650045540741742 -0.5 0 -0.45872132334957288 -0.49999999999999928 0 -0.47066899942757451 -0.47576530412887819 0 -0.45872132334957288 -0.49999999999999928 0 -0.47066899942757451 -0.47576530412887819 0 -0.45242967983978871 -0.4846708604340636 0 -0.45249717469141032 -0.46588444847215849 0 -0.43763952177061649 -0.47770500498713542 0 -0.45242967983978871 -0.4846708604340636 0 -0.45249717469141032 -0.46588444847215849 0 -0.43763952177061649 -0.47770500498713542 0 -0.44291044788006362 -0.49999999999999939 0 -0.45242967983978871 -0.4846708604340636 0 -0.43763952177061649 -0.47770500498713542 0 -0.44291044788006362 -0.49999999999999939 0 -0.45872132334957288 -0.49999999999999928 0 -0.44291044788006362 -0.49999999999999939 0 -0.45242967983978871 -0.4846708604340636 0 -0.44838221886832419 -0.4464230337388379 0 -0.4323685956611692 -0.45541000997427139 0 -0.435988539966085 -0.44148905847597392 0 -0.44838221886832419 -0.4464230337388379 0 -0.44213238819953832 -0.43491600865963681 0 -0.435988539966085 -0.44148905847597392 0 -0.44838221886832419 -0.4464230337388379 0 -0.45249717469141032 -0.46588444847215849 0 -0.45755175660874181 -0.45423607616472811 0 -0.44838221886832419 -0.4464230337388379 0 -0.45249717469141032 -0.46588444847215849 0 -0.4323685956611692 -0.45541000997427139 0 -0.43763952177061649 -0.47770500498713542 0 -0.45249717469141032 -0.46588444847215849 0 -0.4323685956611692 -0.45541000997427139 0 -0.47066899942757451 -0.47576530412887819 0 -0.45249717469141032 -0.46588444847215849 0 -0.4675747862741928 -0.45726336772241771 0 -0.45249717469141032 -0.46588444847215849 0 -0.45755175660874181 -0.45423607616472811 0 -0.4675747862741928 -0.45726336772241771 0 -0.44838221886832419 -0.4464230337388379 0 -0.46897642374787268 -0.44262015471777721 0 -0.45660235518767722 -0.42786105997071933 0 -0.44838221886832419 -0.4464230337388379 0 -0.45755175660874181 -0.45423607616472811 0 -0.46897642374787268 -0.44262015471777721 0 -0.45755175660874181 -0.45423607616472811 0 -0.4675747862741928 -0.45726336772241771 0 -0.46897642374787268 -0.44262015471777721 0 -0.4943900888896422 -0.47349089190363358 0 -0.5 -0.44150235328842258 0 -0.49450059031402238 -0.44698178380727199 0 -0.46897642374787268 -0.44262015471777721 0 -0.48473746643246862 -0.43972512984246093 0 -0.48043585850414389 -0.43127077967876992 0 -0.46897642374787268 -0.44262015471777721 0 -0.4826166755055763 -0.45153060825775743 0 -0.48473746643246862 -0.43972512984246093 0 -0.4675747862741928 -0.45726336772241771 0 -0.46897642374787268 -0.44262015471777721 0 -0.4826166755055763 -0.45153060825775743 0 -0.47066899942757451 -0.47576530412887819 0 -0.4826166755055763 -0.45153060825775743 0 -0.4943900888896422 -0.47349089190363358 0 -0.47066899942757451 -0.47576530412887819 0 -0.4826166755055763 -0.45153060825775743 0 -0.47066899942757451 -0.47576530412887819 0 -0.4675747862741928 -0.45726336772241771 0 -0.4826166755055763 -0.45153060825775743 0 -0.4943900888896422 -0.47349089190363358 0 -0.49450059031402238 -0.44698178380727199 0 -0.4943900888896422 -0.47349089190363358 0 -0.4826166755055763 -0.45153060825775743 0 -0.49450059031402238 -0.44698178380727199 0 -0.4826166755055763 -0.45153060825775743 0 -0.48473746643246862 -0.43972512984246093 0 -0.49450059031402238 -0.44698178380727199 0 -0.5 -0.44150235328842258 0 -0.49461109173840262 -0.42047267571091063 0 -0.5 -0.39656953661894012 0 -0.49450059031402238 -0.44698178380727199 0 -0.49461109173840262 -0.42047267571091063 0 -0.48473746643246862 -0.43972512984246093 0 -0.49461109173840262 -0.42047267571091063 0 -0.48043585850414389 -0.43127077967876992 0 -0.5 -0.44150235328842258 0 -0.49450059031402238 -0.44698178380727199 0 -0.49461109173840262 -0.42047267571091063 0 -0.48473746643246862 -0.43972512984246093 0 -0.49450059031402238 -0.44698178380727199 0 -0.49461109173840262 -0.42047267571091063 0 -0.49461109173840262 -0.42047267571091063 0 -0.4947215931627828 -0.39396356761454909 0 -0.49461109173840262 -0.42047267571091063 0 -0.48393842445605872 -0.40713040098299402 0 -0.4947215931627828 -0.39396356761454909 0 -0.49461109173840262 -0.42047267571091063 0 -0.48393842445605872 -0.40713040098299402 0 -0.47214510592166908 -0.41939033492402211 0 -0.48393842445605872 -0.40713040098299402 0 -0.47214510592166908 -0.41939033492402211 0 -0.47427590700138023 -0.39469502568249409 0 -0.46897642374787268 -0.44262015471777721 0 -0.47214510592166908 -0.41939033492402211 0 -0.48043585850414389 -0.43127077967876992 0 -0.49461109173840262 -0.42047267571091063 0 -0.47214510592166908 -0.41939033492402211 0 -0.48043585850414389 -0.43127077967876992 0 -0.5 -0.39656953661894012 0 -0.4947215931627828 -0.39396356761454909 0 -0.48030453056746109 -0.36861144308094029 0 -0.49461109173840262 -0.42047267571091063 0 -0.5 -0.39656953661894012 0 -0.4947215931627828 -0.39396356761454909 0 -0.48393842445605872 -0.40713040098299402 0 -0.4947215931627828 -0.39396356761454909 0 -0.47427590700138023 -0.39469502568249409 0 -0.47427590700138023 -0.39469502568249409 0 -0.48030453056746109 -0.36861144308094029 0 -0.4947215931627828 -0.39396356761454909 0 -0.47427590700138023 -0.39469502568249409 0 -0.48030453056746109 -0.36861144308094029 0 -0.47427590700138023 -0.39469502568249409 0 -0.46334377193483078 -0.37842983215876019 0 -0.48030453056746109 -0.36861144308094029 0 -0.46334377193483078 -0.37842983215876019 0 -0.45726543839001688 -0.40541672899881109 0 -0.44416021803808919 -0.38243724496113263 0 -0.47427590700138023 -0.39469502568249409 0 -0.46334377193483078 -0.37842983215876019 0 -0.45726543839001688 -0.40541672899881109 0 -0.45726543839001688 -0.40541672899881109 0 -0.43814282409564848 -0.40387353522152758 0 -0.44416021803808919 -0.38243724496113263 0 -0.43814282409564848 -0.40387353522152758 0 -0.44416021803808919 -0.38243724496113263 0 -0.4329908326547659 -0.40007252460533121 0 -0.43814282409564848 -0.40387353522152758 0 -0.44416021803808919 -0.38243724496113263 0 -0.46897642374787268 -0.44262015471777721 0 -0.47214510592166908 -0.41939033492402211 0 -0.45660235518767722 -0.42786105997071933 0 -0.47214510592166908 -0.41939033492402211 0 -0.47427590700138023 -0.39469502568249409 0 -0.45726543839001688 -0.40541672899881109 0 -0.47214510592166908 -0.41939033492402211 0 -0.45726543839001688 -0.40541672899881109 0 -0.45660235518767722 -0.42786105997071933 0 -0.45726543839001688 -0.40541672899881109 0 -0.45660235518767722 -0.42786105997071933 0 -0.44309263043645408 -0.41812298423377797 0 -0.45726543839001688 -0.40541672899881109 0 -0.43814282409564848 -0.40387353522152758 0 -0.44309263043645408 -0.41812298423377797 0 -0.43814282409564848 -0.40387353522152758 0 -0.44309263043645408 -0.41812298423377797 0 -0.43209373842114163 -0.42530092927673752 0 -0.44838221886832419 -0.4464230337388379 0 -0.45660235518767722 -0.42786105997071933 0 -0.44213238819953832 -0.43491600865963681 0 -0.45660235518767722 -0.42786105997071933 0 -0.44213238819953832 -0.43491600865963681 0 -0.43132710435572019 -0.42815377149591122 0 -0.45660235518767722 -0.42786105997071933 0 -0.44309263043645408 -0.41812298423377797 0 -0.43132710435572019 -0.42815377149591122 0 -0.45660235518767722 -0.42786105997071933 0 -0.43132710435572019 -0.42815377149591122 0 -0.44213238819953832 -0.43491600865963681 0 -0.42986244815509678 -0.43337144475258638 0 -0.435988539966085 -0.44148905847597392 0 -0.44213238819953832 -0.43491600865963681 0 -0.42986244815509678 -0.43337144475258638 0 -0.43132710435572019 -0.42815377149591122 0 -0.42986244815509678 -0.43337144475258638 0 -0.43132710435572019 -0.42815377149591122 0 -0.42986244815509678 -0.43337144475258638 0 -0.42494843276815808 -0.42822764260015772 0 -0.42026026496879931 -0.43681168621285732 0 -0.42986244815509678 -0.43337144475258638 0 -0.42494843276815808 -0.42822764260015772 0 -0.43132710435572019 -0.42815377149591122 0 -0.42494843276815808 -0.42822764260015772 0 -0.43209373842114163 -0.42530092927673752 0 -0.42214799869492048 -0.41876725226122891 0 -0.42494843276815808 -0.42822764260015772 0 -0.43209373842114163 -0.42530092927673752 0 -0.42494843276815808 -0.42822764260015772 0 -0.43209373842114163 -0.42530092927673752 0 -0.43132710435572019 -0.42815377149591122 0 -0.42494843276815808 -0.42822764260015772 0 -0.43132710435572019 -0.42815377149591122 0 -0.44309263043645408 -0.41812298423377797 0 -0.43209373842114163 -0.42530092927673752 0 -0.43132710435572019 -0.42815377149591122 0 -0.43209373842114163 -0.42530092927673752 0 -0.43132710435572019 -0.42815377149591122 0 -0.43814282409564848 -0.40387353522152758 0 -0.43209373842114163 -0.42530092927673752 0 -0.43814282409564848 -0.40387353522152758 0 -0.43209373842114163 -0.42530092927673752 0 -0.42736227186559528 -0.41250939947999687 0 -0.43814282409564848 -0.40387353522152758 0 -0.42736227186559528 -0.41250939947999687 0 -0.42798743510346321 -0.40461924019690898 0
[...]
<PointData Scalars="" Vectors="displacement," Tensors="">
<DataArray type="Float64" Name="displacement" NumberOfComponents="3" format="ascii">
-0.034599263945538007 1.5448718265322212e-07 0 -0.033666001003479974 0.00028580378587777659 0 -0.034603720384579852 4.4899676191117162e-07 0 -0.034997278475555386 -3.2730457673686149e-07 0 -0.03499219255520164 1.1293358830121288e-06 0 -0.034997278475555386 -3.2730457673686149e-07 0 -0.03499219255520164 1.1293358830121288e-06 0 -0.035001149590434058 3.0134962842094373e-07 0 -0.03459767881754084 1.695930632267974e-06 0 -0.032372909648393018 0.00067284099818813584 0 -0.033347536062083682 -6.1057751019029459e-05 0 -0.03459767881754084 1.695930632267974e-06 0 -0.033354243428527747 -9.9842184684671223e-07 0 -0.033347536062083682 -6.1057751019029459e-05 0 -0.032372909648393018 0.00067284099818813584 0 -0.032762609541547888 -0.00052457502913893963 0 -0.033347536062083682 -6.1057751019029459e-05 0 -0.032762609541547888 -0.00052457502913893963 0 -0.033354243428527747 -9.9842184684671223e-07 0 -0.033347536062083682 -6.1057751019029459e-05 0 -0.030604745028755126 0.00062872574659382356 0 -0.032106186013015951 1.6804833158074341e-06 0 -0.031094819461280315 1.8080382411636892e-05 0 -0.032762609541547888 -0.00052457502913893963 0 -0.033354243428527747 -9.9842184684671223e-07 0 -0.032113384621701532 1.739936261761471e-07 0 -0.031655805033281047 3.7356670359069334e-05 0 -0.032110414548166946 -3.8729557172799826e-09 0 -0.030604745028755126 0.00062872574659382356 0 -0.031094819461280315 1.8080382411636892e-05 0 -0.030441261396756885 0.00036180088829121067 0 -0.030868905488564607 -0.00012799247299317241 0 -0.031094819461280315 1.8080382411636892e-05 0 -0.030441261396756885 0.00036180088829121067 0 -0.030868905488564607 -0.00012799247299317241 0 -0.031007505029638647 -1.3132450112910207e-06 0 -0.031094819461280315 1.8080382411636892e-05 0 -0.030020132689040108 -5.397541828600464e-05 0 -0.031003369704201048 -9.4334889601324533e-09 0 -0.032106186013015951 1.6804833158074341e-06 0 -0.031007505029638647 -1.3132450112910207e-06 0 -0.031094819461280315 1.8080382411636892e-05 0 -0.030168204795559744 0.00050104656302279408 0 -0.029589126399263598 1.1673921483775638e-05 0 -0.029827942691423665 0.00029772397662388312 0 -0.030168204795559744 0.00050104656302279408 0 -0.030156991047772745 0.00052899547172089681 0 -0.029827942691423665 0.00029772397662388312 0 -0.030168204795559744 0.00050104656302279408 0 -0.030441261396756885 0.00036180088829121067 0 -0.0304155801395763 0.00046683790932857967 0 -0.030168204795559744 0.00050104656302279408 0 -0.030441261396756885 0.00036180088829121067 0 -0.029589126399263598 1.1673921483775638e-05 0 -0.030868905488564607 -0.00012799247299317241 0 -0.030441261396756885 0.00036180088829121067 0 -0.029589126399263598 1.1673921483775638e-05 0 -0.030604745028755126 0.00062872574659382356 0 -0.030441261396756885 0.00036180088829121067 0 -0.030588940589667855 0.00046274464527971075 0 -0.030441261396756885 0.00036180088829121067 0 -0.0304155801395763 0.00046683790932857967 0 -0.030588940589667855 0.00046274464527971075 0 -0.030168204795559744 0.00050104656302279408 0 -0.030727595322479147 0.00048218571517235796 0 -0.031021216319444576 0.0010209756916549106 0 -0.030168204795559744 0.00050104656302279408 0 -0.0304155801395763 0.00046683790932857967 0 -0.030727595322479147 0.00048218571517235796 0 -0.0304155801395763 0.00046683790932857967 0 -0.030588940589667855 0.00046274464527971075 0 -0.030727595322479147 0.00048218571517235796 0 -0.03499219255520164 1.1293358830121288e-06 0 -0.035001149590434058 3.0134962842094373e-07 0 -0.034996027101725148 1.7594177003613058e-06 0 -0.030727595322479147 0.00048218571517235796 0 -0.031044861543581836 8.2092145841286204e-05 0 -0.031408733718861936 0.0001443284982466396 0 -0.030727595322479147 0.00048218571517235796 0 -0.030878443267389987 6.0256364866624626e-05 0 -0.031044861543581836 8.2092145841286204e-05 0 -0.030588940589667855 0.00046274464527971075 0 -0.030727595322479147 0.00048218571517235796 0 -0.030878443267389987 6.0256364866624626e-05 0 -0.031655805033281047 3.7356670359069334e-05 0 -0.030951117951615599 9.7648981978180272e-05 0 -0.032372909648393018 0.00067284099818813584 0 -0.032762609541547888 -0.00052457502913893963 0 -0.030878443267389987 6.0256364866624626e-05 0 -0.030604745028755126 0.00062872574659382356 0 -0.030588940589667855 0.00046274464527971075 0 -0.030878443267389987 6.0256364866624626e-05 0 -0.033666001003479974 0.00028580378587777659 0 -0.032983967899290714 5.7065961089079798e-05 0 -0.032372909648393018 0.00067284099818813584 0 -0.030878443267389987 6.0256364866624626e-05 0 -0.030818063940487157 0.00013944981519315751 0 -0.030878443267389987 6.0256364866624626e-05 0 -0.031044861543581836 8.2092145841286204e-05 0 -0.030818063940487157 0.00013944981519315751 0 -0.035001149590434058 3.0134962842094373e-07 0 -0.035005944513867709 -2.3772380765637143e-06 0 -0.034998005921121969 -8.8917165355945539e-07 0 -0.032983967899290714 5.7065961089079798e-05 0 -0.033569975156176719 -0.00026406560076042157 0 -0.031044861543581836 8.2092145841286204e-05 0 -0.032069575662384782 -0.00065935785723441579 0 -0.031408733718861936 0.0001443284982466396 0 -0.035001149590434058 3.0134962842094373e-07 0 -0.034996027101725148 1.7594177003613058e-06 0 -0.035005944513867709 -2.3772380765637143e-06 0 -0.031044861543581836 8.2092145841286204e-05 0 -0.030818063940487157 0.00013944981519315751 0 -0.032069575662384782 -0.00065935785723441579 0 -0.033569975156176719 -0.00026406560076042157 0 -0.034739208667796485 -0.00013618096707689853 0 -0.032069575662384782 -0.00065935785723441579 0 -0.033331555048084875 0.00011408168004786994 0 -0.034865130646659338 -7.4900619690384081e-05 0 -0.032069575662384782 -0.00065935785723441579 0 -0.033331555048084875 0.00011408168004786994 0 -0.032047519181809418 0.00053620404743758075 0 -0.033331555048084875 0.00011408168004786994 0 -0.032047519181809418 0.00053620404743758075 0 -0.034193472642724869 0.00050391114716921584 0 -0.030727595322479147 0.00048218571517235796 0 -0.032047519181809418 0.00053620404743758075 0 -0.031408733718861936 0.0001443284982466396 0 -0.032069575662384782 -0.00065935785723441579 0 -0.032047519181809418 0.00053620404743758075 0 -0.031408733718861936 0.0001443284982466396 0 -0.034998005921121969 -8.8917165355945539e-07 0 -0.034865130646659338 -7.4900619690384081e-05 0 -0.034956846670411629 4.4138608328379257e-05 0 -0.035005944513867709 -2.3772380765637143e-06 0 -0.034998005921121969 -8.8917165355945539e-07 0 -0.034865130646659338 -7.4900619690384081e-05 0 -0.033331555048084875 0.00011408168004786994 0 -0.034865130646659338 -7.4900619690384081e-05 0 -0.034193472642724869 0.00050391114716921584 0 -0.034179748677216779 0.00048180943441251511 0 -0.035365944609017867 0.00012291284781564834 0 -0.034865130646659338 -7.4900619690384081e-05 0 -0.034193472642724869 0.00050391114716921584 0 -0.034956846670411629 4.4138608328379257e-05 0 -0.034193472642724869 0.00050391114716921584 0 -0.035040671517045166 0.0011201203736391034 0 -0.035567728114664084 0.00021944577635954411 0 -0.035040671517045166 0.0011201203736391034 0 -0.033180679902463525 0.0014335850139606892 0 -0.034752227204501093 0.0023401627466162339 0 -0.034193472642724869 0.00050391114716921584 0 -0.035040671517045166 0.0011201203736391034 0 -0.033180679902463525 0.0014335850139606892 0 -0.033180679902463525 0.0014335850139606892 0 -0.033234224455181496 0.0028413635842681377 0 -0.034752227204501093 0.0023401627466162339 0 -0.026920799715186926 0.00085277615634513863 0 -0.028365522809569617 0.00031590957683425843 0 -0.027099080017819705 0.0010915808608127871 0 -0.030086248545203326 0.0018857940827924011 0 -0.031621290672389106 0.0013429977869127902 0 -0.030727595322479147 0.00048218571517235796 0 -0.032047519181809418 0.00053620404743758075 0 -0.031021216319444576 0.0010209756916549106 0 -0.032047519181809418 0.00053620404743758075 0 -0.034193472642724869 0.00050391114716921584 0 -0.033180679902463525 0.0014335850139606892 0 -0.032047519181809418 0.00053620404743758075 0 -0.033180679902463525 0.0014335850139606892 0 -0.031021216319444576 0.0010209756916549106 0 -0.033180679902463525 0.0014335850139606892 0 -0.031021216319444576 0.0010209756916549106 0 -0.03199548890673462 0.0024381927976167644 0 -0.033180679902463525 0.0014335850139606892 0 -0.033234224455181496 0.0028413635842681377 0 -0.03199548890673462 0.0024381927976167644 0 -0.033234224455181496 0.0028413635842681377 0 -0.03199548890673462 0.0024381927976167644 0 -0.03130156236715418 0.0034913389312913844 0 -0.030168204795559744 0.00050104656302279408 0 -0.031021216319444576 0.0010209756916549106 0 -0.030156991047772745 0.00052899547172089681 0 -0.031021216319444576 0.0010209756916549106 0 -0.030156991047772745 0.00052899547172089681 0 -0.029579804726924265 0.0002424104835483562 0 -0.031021216319444576 0.0010209756916549106 0 -0.03199548890673462 0.0024381927976167644 0 -0.0310213844933491 0.0035713698570222835 0 -0.031044303211893266 0.0011488857381514231 0 -0.029562587408048083 0.001462271751577973 0 -0.030156991047772745 0.00052899547172089681 0 -0.029602954337974333 0.00018737926239864453 0 -0.029827942691423665 0.00029772397662388312 0 -0.030156991047772745 0.00052899547172089681 0 -0.029602954337974333 0.00018737926239864453 0 -0.029579804726924265 0.0002424104835483562 0 -0.029710887743239503 0.0011127799208150485 0 -0.029562587408048083 0.001462271751577973 0 -0.029602954337974333 0.00018737926239864453 0 -0.029445640820874402 9.4646906834869405e-05 0 -0.029287440493001325 5.7165470132351254e-05 0 -0.029602954337974333 0.00018737926239864453 0 -0.029445640820874402 9.4646906834869405e-05 0 -0.0294601362313732 0.00023938798755642946 0 -0.026570667981192276 0.001174542814044436 0 -0.026602594320926091 0.0010698870511421184 0 -0.026704521567559557 0.0012138701472487713 0 -0.028001867550238372 0.00077010669086377082 0 -0.02883990691417921 0.001766546981534133 0 -0.028634521221422175 0.0011652176005958344 0 -0.028642850672443185 0.0011519086357427606 0 -0.028636721603751109 0.0011531044446286311 0 -0.028001867550238372 0.00077010669086377082 0 -0.029562587408048083 0.001462271751577973 0 -0.03199548890673462 0.0024381927976167644 0 -0.03130156236715418 0.0034913389312913844 0 -0.0310213844933491 0.0035713698570222835 0 -0.02883990691417921 0.001766546981534133 0 -0.029562587408048083 0.001462271751577973 0 -0.030086248545203326 0.0018857940827924011 0 -0.02883990691417921 0.001766546981534133 0 -0.026920799715186926 0.00085277615634513863 0 -0.026602594320926091 0.0010698870511421184 0 -0.026797800173800682 0.0011347461609215843 0 -0.026920799715186926 0.00085277615634513863 0 -0.026797800173800682 0.0011347461609215843 0 -0.026957916739606378 0.0011490257305727179 0 -0.026797800173800682 0.0011347461609215843 0 -0.026704521567559557 0.0012138701472487713 0 -0.026837762562944758 0.0013012355341530967 0 -0.026797800173800682 0.0011347461609215843 0 -0.026837762562944758 0.0013012355341530967 0 -0.026957916739606378 0.0011490257305727179 0 -0.026602594320926091 0.0010698870511421184 0 -0.026797800173800682 0.0011347461609215843 0 -0.026704521567559557 0.0012138701472487713 0 -0.026837762562944758 0.0013012355341530967 0 -0.026693071349013706 0.0013403853286948161 0 -0.026765759969875656 0.0015009994126575581 0 -0.026837762562944758 0.0013012355341530967 0 -0.026924634291334858 0.0014515930587159368 0 -0.026765759969875656 0.0015009994126575581 0 -0.026704521567559557 0.0012138701472487713 0 -0.026837762562944758 0.0013012355341530967 0 -0.026693071349013706 0.0013403853286948161 0 -0.029445640820874402 9.4646906834869405e-05 0 -0.029287440493001325 5.7165470132351254e-05 0 -0.028846648401767087 2.0710210003875597e-05 0 -0.028001867550238372 0.00077010669086377082 0 -0.027593072689386731 5.4915810499882309e-05 0 -0.026287796434634959 0.00052608540607973714 0 -0.026329520231875243 0.0003411610088929758 0 -0.026255309946456737 0.00032652424402962254 0 -0.028001867550238372 0.00077010669086377082 0 -0.026273592760697666 0.00092988381424097862 0 -0.026570667981192276 0.001174542814044436 0 -0.026693071349013706 0.0013403853286948161 0 -0.026583514717794868 0.0014883897889609401 0 -0.026570667981192276 0.001174542814044436 0 -0.026704521567559557 0.0012138701472487713 0 -0.026693071349013706 0.0013403853286948161 0 -0.027158834450818785 0.0010277484020971999 0 -0.027842624537915299 0.0020949327793490162 0 -0.027099080017819705 0.0010915808608127871 0 -0.027104972668522274 0.0012752824720006389 0 -0.027206702705522199 0.0012841088541643492 0 -0.028397597094847567 0.0011423594566205525 0 -0.027099080017819705 0.0010915808608127871 0 -0.028772140952547241 0.0021455473555107717 0 -0.028365522809569617 0.00031590957683425843 0 -0.028397597094847567 0.0011423594566205525 0 -0.027099080017819705 0.0010915808608127871 0 -0.028397597094847567 0.0011423594566205525 0 -0.028772140952547241 0.0021455473555107717 0 -0.029376040538658145 0.001014950213698683 0 -0.028365522809569617 0.00031590957683425843 0 -0.028397597094847567 0.0011423594566205525 0 -0.029376040538658145 0.001014950213698683 0 -0.027099080017819705 0.0010915808608127871 0 -0.026995208234023502 0.0012343098505842819 0 -0.027104972668522274 0.0012752824720006389 0 -0.026920799715186926 0.00085277615634513863 0 -0.027099080017819705 0.0010915808608127871 0 -0.026957916739606378 0.0011490257305727179 0 -0.027099080017819705 0.0010915808608127871 0 -0.026957916739606378 0.0011490257305727179 0 -0.026995208234023502 0.0012343098505842819 0 -0.026837762562944758 0.0013012355341530967 0 -0.026957916739606378 0.0011490257305727179 0 -0.026995208234023502 0.0012343098505842819 0 -0.02702343027155911 0.0014250766582351586 0 -0.027104972668522274 0.0012752824720006389 0 -0.027133377758653647 0.0014878284991623456 0 -0.026837762562944758 0.0013012355341530967 0 -0.026995208234023502 0.0012343098505842819 0 -0.026980505979167662 0.0013367032343432207 0 -0.026837762562944758 0.0013012355341530967 0 -0.026980505979167662 0.0013367032343432207 0 -0.026924634291334858 0.0014515930587159368 0 -0.026980505979167662 0.0013367032343432207 0 -0.02702343027155911 0.0014250766582351586 0 -0.026924634291334858 0.0014515930587159368 0 -0.026980505979167662 0.0013367032343432207 0 -0.02702343027155911 0.0014250766582351586 0 -0.027104972668522274 0.0012752824720006389 0 -0.026995208234023502 0.0012343098505842819 0 -0.026980505979167662 0.0013367032343432207 0 -0.027104972668522274 0.0012752824720006389 0 -0.027131059743953228 0.0013877006135010509 0 -0.025952893223562434 0.0015223790578349843 0 -0.027104972668522274 0.0012752824720006389 0 -0.027171018599369028 0.0013459410638854046 0 -0.027128290894326713 0.0014193798143954603 0 -0.027104972668522274 0.0012752824720006389 0 -0.027173047516148591 0.0013007922115893542 0 -0.027206702705522199 0.0012841088541643492 0 -0.027104972668522274 0.0012752824720006389 0 -0.027171907716204251 0.0013261538150270275 0 -0.027173047516148591 0.0013007922115893542 0 -0.027104972668522274 0.0012752824720006389 0 -0.027171907716204251 0.0013261538150270275 0 -0.027171018599369028 0.0013459410638854046 0 -0.02632199874810498 0.0021083634696294662 0 -0.02586423647343802 0.0017706579976187048 0 -0.027171907716204251 0.0013261538150270275 0 -0.027187092087235243 0.0013157179912372827 0 -0.027170263762474115 0.0013467330075286835 0 -0.024607851618267982 0.0020945047555121507 0 -0.024639243246262522 0.002028623371962311 0 -0.024381898675785964 0.0018899200675509887 0 -0.025943937704665767 0.0016747567956000042 0 -0.02586423647343802 0.0017706579976187048 0 -0.02632199874810498 0.0021083634696294662 0 -0.027842624537915299 0.0020949327793490162 0 -0.027186165032337877 0.0013152750545106819 0 -0.027173047516148591 0.0013007922115893542 0 -0.027206702705522199 0.0012841088541643492 0 -0.027171907716204251 0.0013261538150270275 0 -0.027187092087235243 0.0013157179912372827 0 -0.027173047516148591 0.0013007922115893542 0 -0.02632199874810498 0.0021083634696294662 0 -0.026394473668811452 0.0020580478932011163 0 -0.024802008723091191 0.0016829766841308655 0 -0.024785956300108401 0.0013943110759655757 0 -0.024863215875491475 0.0015483127023398378 0 -0.024735862453814272 0.0015005727413816934 0 -0.024743687289448375 0.001507935602692067 0 -0.02474627354925997 0.001493139310761287 0 -0.024639243246262522 0.002028623371962311 0 -0.024629750673932322 0.0017151257168255306 0 -0.024381898675785964 0.0018899200675509887 0 -0.02586423647343802 0.0017706579976187048 0 -0.023220197994545798 0.0014481871867220812 0 -0.02586423647343802 0.0017706579976187048 0 -0.025952893223562434 0.0015223790578349843 0 -0.023220197994545798 0.0014481871867220812 0 -0.025952893223562434 0.0015223790578349843 0 -0.027133377758653647 0.0014878284991623456 0 -0.026980092679284116 0.0015728409278155775 0 -0.02697111260693251 0.0017634255052621361 0 -0.025952893223562434 0.0015223790578349843 0 -0.024605899370900679 0.0013566608756696524 0 -0.02702343027155911 0.0014250766582351586 0 -0.026980092679284116 0.0015728409278155775 0 -0.026924634291334858 0.0014515930587159368 0 -0.02702343027155911 0.0014250766582351586 0 -0.027133377758653647 0.0014878284991623456 0 -0.026980092679284116 0.0015728409278155775 0 -0.026980092679284116 0.0015728409278155775 0 -0.026924634291334858 0.0014515930587159368 0 -0.026881916614846103 0.0015504895400530432 0 -0.026924634291334858 0.0014515930587159368 0 -0.026881916614846103 0.0015504895400530432 0 -0.026765759969875656 0.0015009994126575581 0 -0.026881916614846103 0.0015504895400530432 0 -0.02690841034789216 0.0016763741523924238 0 -0.026796938677202779 0.0016344055626972896 0 -0.026980092679284116 0.0015728409278155775 0 -0.026881916614846103 0.0015504895400530432 0 -0.02690841034789216 0.0016763741523924238 0 -0.026756076883887828 0.0016691704995287653 0 -0.026757247175012284 0.0016677996130182438 0 -0.026796938677202779 0.0016344055626972896 0 -0.026757247175012284 0.0016677996130182438 0 -0.026741106783262497 0.0016782938685613649 0 -0.026796938677202779 0.0016344055626972896 0 -0.02690841034789216 0.0016763741523924238 0 -0.026941673248938341 0.001785649395512094 0 -0.026796938677202779 0.0016344055626972896 0 -0.024506048621340197 0.0014511312429243059 0 -0.026928113478030494 0.0021532433261766144 0 -0.024506048621340197 0.0014511312429243059 0 -0.022046259438736098 0.00066832940736252745 0 -0.026744128003805979 0.0016761610156176435 0 -0.026744591909612467 0.0016719068026558824 0 -0.026739953306287565 0.0016810080374568418 0 -0.026756076883887828 0.0016691704995287653 0 -0.026757247175012284 0.0016677996130182438 0 -0.026748797630535753 0.0016731980962943402 0 -0.026756076883887828 0.0016691704995287653 0 -0.026741800822381395 0.0016775952901970427 0 -0.026748797630535753 0.0016731980962943402 0 -0.026741800822381395 0.0016775952901970427 0 -0.026748797630535753 0.0016731980962943402 0 -0.026744128003805979 0.0016761610156176435 0 -0.026748797630535753 0.0016731980962943402 0 -0.026744128003805979 0.0016761610156176435 0 -0.026745145159589291 0.0016736030213185434 0 -0.026744128003805979 0.0016761610156176435 0 -0.026745145159589291 0.0016736030213185434 0 -0.026744591909612467 0.0016719068026558824 0 -0.024814160884626162 0.0013309019317420394 0 -0.024506048621340197 0.0014511312429243059 0 -0.026757247175012284 0.0016677996130182438 0 -0.026745145159589291 0.0016736030213185434 0 -0.026741106783262497 0.0016782938685613649 0 -0.026757247175012284 0.0016677996130182438 0 -0.026748797630535753 0.0016731980962943402 0 -0.026745145159589291 0.0016736030213185434 0 -0.022783259054295242 0.00042683937687876012 0 -0.022999820390934057 0.00065077208158745314 0 -0.022620183762973332 0.00087736215332486942 0 -0.02235138821316509 0.0010259193279279746 0 -0.022302390301178129 0.00090400945213738721 0 -0.022018423655712022 0.0010703231054134544 0 -0.02235138821316509 0.0010259193279279746 0 -0.022396263311845254 0.00099649635976916209 0 -0.022302390