<?xml version="1.0"?>
<VTKFile type="UnstructuredGrid" version="0.1" byte_order="LittleEndian">
<UnstructuredGrid>
<Piece NumberOfPoints="31344" NumberOfCells="10965">
<Points>
<DataArray type="Float64" NumberOfComponents="3" format="ascii">
-0.5 -0.5 0 -0.48688419296792901 -0.47571949389293638 0 -0.4741777626132318 -0.49999999999999989 0 -0.5 -0.5 0 -0.48688419296792901 -0.47571949389293638 0 -0.5 -0.4514389877858731 0 -0.48688419296792901 -0.47571949389293638 0 -0.4741777626132318 -0.49999999999999989 0 -0.4658685091641917 -0.47139354606788259 0 -0.48688419296792901 -0.47571949389293638 0 -0.4741777626132318 -0.49999999999999989 0 -0.4741777626132318 -0.49999999999999989 0 -0.4658685091641917 -0.47139354606788259 0 -0.44818111661754628 -0.5 0 -0.4658685091641917 -0.47139354606788259 0 -0.44446177588704461 -0.46993595877209798 0 -0.44818111661754628 -0.5 0 -0.44446177588704461 -0.46993595877209798 0 -0.44818111661754628 -0.5 0 -0.43333186174723909 -0.48578260218183761 0 -0.44955274873398782 -0.45275627857676359 0 -0.43029306238260318 -0.45715144342928771 0 -0.43622019783270038 -0.44078537624624231 0 -0.44955274873398782 -0.45275627857676359 0 -0.45796129597687479 -0.432289038222399 0 -0.43622019783270038 -0.44078537624624231 0 -0.44446177588704461 -0.46993595877209798 0 -0.44955274873398782 -0.45275627857676359 0 -0.43029306238260318 -0.45715144342928771 0 -0.4658685091641917 -0.47139354606788259 0 -0.44446177588704461 -0.46993595877209798 0 -0.44955274873398782 -0.45275627857676359 0 -0.4658685091641917 -0.47139354606788259 0 -0.44955274873398782 -0.45275627857676359 0 -0.4672903457171379 -0.45104919414956712 0 -0.4672903457171379 -0.45104919414956712 0 -0.48049953312669968 -0.44079253367357518 0 -0.45796129597687479 -0.432289038222399 0 -0.44955274873398782 -0.45275627857676359 0 -0.4672903457171379 -0.45104919414956712 0 -0.45796129597687479 -0.432289038222399 0 -0.4672903457171379 -0.45104919414956712 0 -0.48049953312669968 -0.44079253367357518 0 -0.48040693148534358 -0.45798088886365651 0 -0.4658685091641917 -0.47139354606788259 0 -0.4672903457171379 -0.45104919414956712 0 -0.48040693148534358 -0.45798088886365651 0 -0.48688419296792901 -0.47571949389293638 0 -0.4658685091641917 -0.47139354606788259 0 -0.48040693148534358 -0.45798088886365651 0 -0.48688419296792901 -0.47571949389293638 0 -0.48040693148534358 -0.45798088886365651 0 -0.5 -0.4514389877858731 0 -0.48688419296792901 -0.47571949389293638 0 -0.5 -0.4514389877858731 0 -0.48049953312669968 -0.44079253367357518 0 -0.5 -0.4514389877858731 0 -0.5 -0.43664789664639703 0 -0.48049953312669968 -0.44079253367357518 0 -0.48040693148534358 -0.45798088886365651 0 -0.5 -0.4514389877858731 0 -0.48049953312669968 -0.44079253367357518 0 -0.5 -0.43664789664639703 0 -0.47774800225821651 -0.41534919637355888 0 -0.5 -0.43664789664639703 0 -0.47774800225821651 -0.41534919637355888 0 -0.5 -0.38851993436381149 0 -0.48049953312669968 -0.44079253367357518 0 -0.47774800225821651 -0.41534919637355888 0 -0.45796129597687479 -0.432289038222399 0 -0.47774800225821651 -0.41534919637355888 0 -0.5 -0.38851993436381149 0 -0.4684882626455445 -0.3890652094605781 0 -0.5 -0.38851993436381149 0 -0.4684882626455445 -0.3890652094605781 0 -0.47699608999532539 -0.35979817425092198 0 -0.4684882626455445 -0.3890652094605781 0 -0.44656461479083492 -0.39319922157509463 0 -0.45173682326990211 -0.36940614423952062 0 -0.4684882626455445 -0.3890652094605781 0 -0.44656461479083492 -0.39319922157509463 0 -0.45808334251148769 -0.40857791793865839 0 -0.47774800225821651 -0.41534919637355888 0 -0.4684882626455445 -0.3890652094605781 0 -0.45808334251148769 -0.40857791793865839 0 -0.44656461479083492 -0.39319922157509463 0 -0.44139240631176763 -0.41699229891066841 0 -0.44656461479083492 -0.39319922157509463 0 -0.44139240631176763 -0.41699229891066841 0 -0.43237479213090962 -0.40049551809254252 0 -0.44656461479083492 -0.39319922157509463 0 -0.45173682326990211 -0.36940614423952062 0 -0.44656461479083492 -0.39319922157509463 0 -0.42971851657775212 -0.38424309814665458 0 -0.45173682326990211 -0.36940614423952062 0 -0.47774800225821651 -0.41534919637355888 0 -0.45796129597687479 -0.432289038222399 0 -0.45808334251148769 -0.40857791793865839 0 -0.45796129597687479 -0.432289038222399 0 -0.45808334251148769 -0.40857791793865839 0 -0.44139240631176763 -0.41699229891066841 0 -0.44656461479083492 -0.39319922157509463 0 -0.45808334251148769 -0.40857791793865839 0 -0.44139240631176763 -0.41699229891066841 0 -0.44139240631176763 -0.41699229891066841 0 -0.43622019783270038 -0.44078537624624231 0 -0.45796129597687479 -0.432289038222399 0 -0.44139240631176763 -0.41699229891066841 0 -0.43622019783270038 -0.44078537624624231 0 -0.44139240631176763 -0.41699229891066841 0 -0.42381241854158008 -0.42137687841261762 0 -0.43622019783270038 -0.44078537624624231 0 -0.42381241854158008 -0.42137687841261762 0 -0.43622019783270038 -0.44078537624624231 0 -0.41328520704643068 -0.44614503061695221 0 -0.42381241854158008 -0.42137687841261762 0 -0.43237479213090962 -0.40049551809254252 0 -0.41807322010583259 -0.40419135809102258 0 -0.44139240631176763 -0.41699229891066841 0 -0.42381241854158008 -0.42137687841261762 0 -0.43237479213090962 -0.40049551809254252 0 -0.41807322010583259 -0.40419135809102258 0 -0.40295740806698138 -0.4043270310936371 0 -0.40519189979673109 -0.42288710554775871 0 -0.42381241854158008 -0.42137687841261762 0 -0.41807322010583259 -0.40419135809102258 0 -0.40519189979673109 -0.42288710554775871 0 -0.42381241854158008 -0.42137687841261762 0 -0.40519189979673109 -0.42288710554775871 0 -0.41328520704643068 -0.44614503061695221 0 -0.44656461479083492 -0.39319922157509463 0 -0.42971851657775212 -0.38424309814665458 0 -0.43237479213090962 -0.40049551809254252 0 -0.42971851657775212 -0.38424309814665458 0 -0.43237479213090962 -0.40049551809254252 0 -0.41807322010583259 -0.40419135809102258 0 -0.42971851657775212 -0.38424309814665458 0 -0.41807322010583259 -0.40419135809102258 0 -0.41276035601858713 -0.39555222310926358 0 -0.41807322010583259 -0.40419135809102258 0 -0.41276035601858713 -0.39555222310926358 0 -0.40295740806698138 -0.4043270310936371 0 -0.42971851657775212 -0.38424309814665458 0 -0.40215010430089171 -0.38131932627237219 0 -0.40029227932378231 -0.38944740510574011 0 -0.42971851657775212 -0.38424309814665458 0 -0.41276035601858713 -0.39555222310926358 0 -0.40029227932378231 -0.38944740510574011 0 -0.42971851657775212 -0.38424309814665458 0 -0.40215010430089171 -0.38131932627237219 0 -0.418221727774575 -0.36945213776531349 0 -0.42971851657775212 -0.38424309814665458 0 -0.40029227932378231 -0.38944740510574011 0 -0.40215010430089171 -0.38131932627237219 0 -0.38905109648381142 -0.38293612577500602 0 -0.39210888806352417 -0.37085032147219388 0 -0.40215010430089171 -0.38131932627237219 0 -0.40029227932378231 -0.38944740510574011 0 -0.38905109648381142 -0.38293612577500602 0 -0.40029227932378231 -0.38944740510574011 0 -0.40295740806698138 -0.4043270310936371 0 -0.38857171782147748 -0.4089701008667414 0 -0.41276035601858713 -0.39555222310926358 0 -0.40029227932378231 -0.38944740510574011 0 -0.40295740806698138 -0.4043270310936371 0 -0.40029227932378231 -0.38944740510574011 0 -0.38857171782147748 -0.4089701008667414 0 -0.37086604206981227 -0.39465171206482558 0 -0.38857171782147748 -0.4089701008667414 0 -0.3736076487831192 -0.41403429292464861 0 -0.37086604206981227 -0.39465171206482558 0 -0.40029227932378231 -0.38944740510574011 0 -0.37086604206981227 -0.39465171206482558 0 -0.38905109648381142 -0.38293612577500602 0 -0.37983816866104619 -0.37841186395989812 0 -0.37086604206981227 -0.39465171206482558 0 -0.40029227932378231 -0.38944740510574011 0 -0.38905109648381142 -0.38293612577500602 0 -0.37086604206981227 -0.39465171206482558 0 -0.38905109648381142 -0.38293612577500602 0 -0.37983816866104619 -0.37841186395989812 0 -0.39210888806352417 -0.37085032147219388 0 -0.40519189979673109 -0.42288710554775871 0 -0.38925863360994528 -0.42403147679031222 0 -0.391143174238758 -0.43978758075558289 0 -0.40519189979673109 -0.42288710554775871 0 -0.391143174238758 -0.43978758075558289 0 -0.41328520704643068 -0.44614503061695221 0 -0.40295740806698138 -0.4043270310936371 0 -0.40519189979673109 -0.42288710554775871 0 -0.38857171782147748 -0.4089701008667414 0 -0.40519189979673109 -0.42288710554775871 0 -0.38857171782147748 -0.4089701008667414 0 -0.38925863360994528 -0.42403147679031222 0 -0.38857171782147748 -0.4089701008667414 0 -0.38925863360994528 -0.42403147679031222 0 -0.3736076487831192 -0.41403429292464861 0 -0.38925863360994528 -0.42403147679031222 0 -0.37165182833615512 -0.43017869423626398 0 -0.3736076487831192 -0.41403429292464861 0 -0.38925863360994528 -0.42403147679031222 0 -0.391143174238758 -0.43978758075558289 0 -0.37165182833615512 -0.43017869423626398 0 -0.37569954516590282 -0.44589569233336712 0 -0.391143174238758 -0.43978758075558289 0 -0.37165182833615512 -0.43017869423626398 0 -0.37569954516590282 -0.44589569233336712 0 -0.391143174238758 -0.43978758075558289 0 -0.39214939938061982 -0.46005410572250449 0 -0.391143174238758 -0.43978758075558289 0 -0.39214939938061982 -0.46005410572250449 0 -0.41328520704643068 -0.44614503061695221 0 -0.39214939938061982 -0.46005410572250449 0 -0.38003836276132341 -0.48052034468410648 0 -0.36671375067195577 -0.46125268182926987 0 -0.37569954516590282 -0.44589569233336712 0 -0.39214939938061982 -0.46005410572250449 0 -0.36671375067195577 -0.46125268182926987 0 -0.39214939938061982 -0.46005410572250449 0 -0.38003836276132341 -0.48052034468410648 0 -0.39962143308624642 -0.48046706443336362 0 -0.38003836276132341 -0.48052034468410648 0 -0.3961878246261753 -0.5 0 -0.37019117863048978 -0.5 0 -0.3961878246261753 -0.5 0 -0.39962143308624642 -0.48046706443336362 0 -0.42218447062186082 -0.5 0 -0.38003836276132341 -0.48052034468410648 0 -0.3961878246261753 -0.5 0 -0.39962143308624642 -0.48046706443336362 0 -0.39214939938061982 -0.46005410572250449 0 -0.39962143308624642 -0.48046706443336
[...]
<PointData Scalars="" Vectors="displacement," Tensors="">
<DataArray type="Float64" Name="displacement" NumberOfComponents="3" format="ascii">
-4.6177945717287433e-07 -0.034998638696243388 0 1.67423328842568e-07 -0.033918895216175228 0 2.293287595062137e-07 -0.034999801795865558 0 -4.6177945717287433e-07 -0.034998638696243388 0 1.67423328842568e-07 -0.033918895216175228 0 6.9322079301730046e-07 -0.03160364140830426 0 -0.00021753694635562022 -0.032769679617452134 0 -8.2366125078581299e-07 -0.034996544878347004 0 -0.00019982492008152779 -0.033321028718004339 0 -9.3831098328458917e-05 -0.033302433268494976 0 6.0436797812529145e-08 -0.034999359846381348 0 -8.2366125078581299e-07 -0.034996544878347004 0 -0.00019982492008152779 -0.033321028718004339 0 -9.3620452185986782e-08 -0.034999356770290396 0 -0.00019982492008152779 -0.033321028718004339 0 -0.00017393123303107431 -0.033697638772315026 0 -9.3620452185986782e-08 -0.034999356770290396 0 -0.00017393123303107431 -0.033697638772315026 0 -9.3620452185986782e-08 -0.034999356770290396 0 -0.00011370299807625048 -0.034487551505075015 0 -9.2136300835265621e-05 -0.03280548839018247 0 -6.5211219215399085e-05 -0.033629160677762955 0 0.00015132233920983349 -0.03292821882962025 0 -9.2136300835265621e-05 -0.03280548839018247 0 6.6435103170810528e-05 -0.031411151028676039 0 0.00015132233920983349 -0.03292821882962025 0 -0.00017393123303107431 -0.033697638772315026 0 -9.2136300835265621e-05 -0.03280548839018247 0 -6.5211219215399085e-05 -0.033629160677762955 0 -0.00019982492008152779 -0.033321028718004339 0 -0.00017393123303107431 -0.033697638772315026 0 -9.2136300835265621e-05 -0.03280548839018247 0 -0.00019982492008152779 -0.033321028718004339 0 -9.2136300835265621e-05 -0.03280548839018247 0 -5.9283030970494427e-05 -0.032159469702445244 0 -5.9283030970494427e-05 -0.032159469702445244 0 -2.7925048537130039e-05 -0.031222539284754269 0 6.6435103170810528e-05 -0.031411151028676039 0 -9.2136300835265621e-05 -0.03280548839018247 0 -5.9283030970494427e-05 -0.032159469702445244 0 6.6435103170810528e-05 -0.031411151028676039 0 -5.9283030970494427e-05 -0.032159469702445244 0 -2.7925048537130039e-05 -0.031222539284754269 0 -6.2374061750314751e-05 -0.032153307867424943 0 -0.00019982492008152779 -0.033321028718004339 0 -5.9283030970494427e-05 -0.032159469702445244 0 -6.2374061750314751e-05 -0.032153307867424943 0 -0.00021753694635562022 -0.032769679617452134 0 -0.00019982492008152779 -0.033321028718004339 0 -6.2374061750314751e-05 -0.032153307867424943 0 -0.00021753694635562022 -0.032769679617452134 0 -6.2374061750314751e-05 -0.032153307867424943 0 -4.6598268135280847e-07 -0.031598849399536583 0 -9.3831098328458917e-05 -0.033302433268494976 0 5.1972489517870768e-06 -0.031884214095885093 0 -2.7925048537130039e-05 -0.031222539284754269 0 -4.6598268135280847e-07 -0.031598849399536583 0 2.8279942929398927e-07 -0.030566293691481786 0 -2.7925048537130039e-05 -0.031222539284754269 0 -6.2374061750314751e-05 -0.032153307867424943 0 -4.6598268135280847e-07 -0.031598849399536583 0 -2.7925048537130039e-05 -0.031222539284754269 0 2.8279942929398927e-07 -0.030566293691481786 0 -1.985164530114552e-05 -0.029806052709060921 0 2.8279942929398927e-07 -0.030566293691481786 0 -1.985164530114552e-05 -0.029806052709060921 0 -1.3466576386535031e-06 -0.027196819624094211 0 -2.7925048537130039e-05 -0.031222539284754269 0 -1.985164530114552e-05 -0.029806052709060921 0 6.6435103170810528e-05 -0.031411151028676039 0 -1.985164530114552e-05 -0.029806052709060921 0 -1.3466576386535031e-06 -0.027196819624094211 0 3.6130208733130201e-05 -0.028652440815786422 0 -1.3466576386535031e-06 -0.027196819624094211 0 3.6130208733130201e-05 -0.028652440815786422 0 1.9111864131794468e-05 -0.026760528892902233 0 3.6130208733130201e-05 -0.028652440815786422 0 0.00011298629863853189 -0.029558988328167574 0 7.5532115119126208e-05 -0.028266048179712528 0 3.6130208733130201e-05 -0.028652440815786422 0 0.00011298629863853189 -0.029558988328167574 0 8.4818615993339412e-05 -0.030076273200146011 0 -1.985164530114552e-05 -0.029806052709060921 0 3.6130208733130201e-05 -0.028652440815786422 0 8.4818615993339412e-05 -0.030076273200146011 0 0.00056572613820240634 -0.031239600145968577 0 0.00038427830517308114 -0.032047051541921556 0 0.0011822140239910919 -0.032862853362975633 0 0.00077261314479170902 -0.032901419704947983 0 0.0010668125796797698 -0.033054137921144498 0 0.00056572613820240634 -0.031239600145968577 0 0.00055291081529959226 -0.030539854611530616 0 0.0011822140239910919 -0.032862853362975633 0 0.0012676035057079273 -0.03291278338019292 0 0.0010837706005863978 -0.032877303499082029 0 -1.985164530114552e-05 -0.029806052709060921 0 6.6435103170810528e-05 -0.031411151028676039 0 8.4818615993339412e-05 -0.030076273200146011 0 6.6435103170810528e-05 -0.031411151028676039 0 8.4818615993339412e-05 -0.030076273200146011 0 0.00017878891743701696 -0.031098453195921489 0 0.00011298629863853189 -0.029558988328167574 0 8.4818615993339412e-05 -0.030076273200146011 0 0.00017878891743701696 -0.031098453195921489 0 0.00038427830517308114 -0.032047051541921556 0 5.0406022220832526e-05 -0.03277158460866661 0 6.6435103170810528e-05 -0.031411151028676039 0 0.00017878891743701696 -0.031098453195921489 0 0.00015132233920983349 -0.03292821882962025 0 0.00077261314479170902 -0.032901419704947983 0 0.00067313228130131634 -0.03338402603463464 0 0.00015132233920983349 -0.03292821882962025 0 0.00067313228130131634 -0.03338402603463464 0 0.00015132233920983349 -0.03292821882962025 0 0.00013869053039315365 -0.033962516234550481 0 0.00067313228130131634 -0.03338402603463464 0 0.0010668125796797698 -0.033054137921144498 0 0.00098917172862192197 -0.033434296573979679 0 0.00077261314479170902 -0.032901419704947983 0 0.00067313228130131634 -0.03338402603463464 0 0.0010668125796797698 -0.033054137921144498 0 0.00098917172862192197 -0.033434296573979679 0 0.00097361907948915062 -0.033865118583817799 0 0.00060090170101209065 -0.03392117154566178 0 0.00067313228130131634 -0.03338402603463464 0 0.00098917172862192197 -0.033434296573979679 0 0.00060090170101209065 -0.03392117154566178 0 0.00067313228130131634 -0.03338402603463464 0 0.00060090170101209065 -0.03392117154566178 0 0.00013869053039315365 -0.033962516234550481 0 0.0011822140239910919 -0.032862853362975633 0 0.0012676035057079273 -0.03291278338019292 0 0.0010668125796797698 -0.033054137921144498 0 0.0012676035057079273 -0.03291278338019292 0 0.0010668125796797698 -0.033054137921144498 0 0.00098917172862192197 -0.033434296573979679 0 0.0012676035057079273 -0.03291278338019292 0 0.00098917172862192197 -0.033434296573979679 0 0.0011467445415412503 -0.033532712774877814 0 0.00098917172862192197 -0.033434296573979679 0 0.0011467445415412503 -0.033532712774877814 0 0.00097361907948915062 -0.033865118583817799 0 0.0012676035057079273 -0.03291278338019292 0 0.001110113624507696 -0.032350823230374352 0 0.0012399472507118843 -0.032307804675207448 0 0.0012676035057079273 -0.03291278338019292 0 0.0011467445415412503 -0.033532712774877814 0 0.0013491554326387034 -0.033925285909797799 0 0.0012676035057079273 -0.03291278338019292 0 0.001110113624507696 -0.032350823230374352 0 0.0010278829519142008 -0.032614608084165261 0 0.0012795759144677251 -0.032942126147510652 0 0.0012651162691414833 -0.033121796613537917 0 0.001110113624507696 -0.032350823230374352 0 0.0010732660942713752 -0.032110473792495473 0 0.00089062062867526805 -0.032132617268935536 0 0.001110113624507696 -0.032350823230374352 0 0.0012399472507118843 -0.032307804675207448 0 0.0010732660942713752 -0.032110473792495473 0 0.0013491554326387034 -0.033925285909797799 0 0.00097361907948915062 -0.033865118583817799 0 0.00086542255841095856 -0.034229133371100513 0 0.0011467445415412503 -0.033532712774877814 0 0.0013491554326387034 -0.033925285909797799 0 0.00097361907948915062 -0.033865118583817799 0 0.0013491554326387034 -0.033925285909797799 0 0.00086542255841095856 -0.034229133371100513 0 0.0011609507920673228 -0.034594736571692625 0 0.00086542255841095856 -0.034229133371100513 0 0.00075252699295881944 -0.0345373064782383 0 0.0011609507920673228 -0.034594736571692625 0 0.0012651162691414833 -0.033121796613537917 0 0.001221906290459016 -0.033224816646919147 0 0.0010732660942713752 -0.032110473792495473 0 0.00096705957584239854 -0.031960745740349766 0 0.001119552361114955 -0.031843637132911884 0 0.0012399472507118843 -0.032307804675207448 0 0.0010732660942713752 -0.032110473792495473 0 0.001119552361114955 -0.031843637132911884 0 0.0010732660942713752 -0.032110473792495473 0 0.00096705957584239854 -0.031960745740349766 0 0.00089062062867526805 -0.032132617268935536 0 0.00060090170101209065 -0.03392117154566178 0 0.00056012356355202432 -0.034272545661744071 0 0.0003025934482901173 -0.034342699898938588 0 0.00060090170101209065 -0.03392117154566178 0 0.0003025934482901173 -0.034342699898938588 0 0.00013869053039315365 -0.033962516234550481 0 0.00097361907948915062 -0.033865118583817799 0 0.00060090170101209065 -0.03392117154566178 0 0.00086542255841095856 -0.034229133371100513 0 0.00060090170101209065 -0.03392117154566178 0 0.00086542255841095856 -0.034229133371100513 0 0.00056012356355202432 -0.034272545661744071 0 0.00086542255841095856 -0.034229133371100513 0 0.00056012356355202432 -0.034272545661744071 0 0.00075252699295881944 -0.0345373064782383 0 0.00056012356355202432 -0.034272545661744071 0 0.0004025729739759591 -0.034574698940521294 0 0.00075252699295881944 -0.0345373064782383 0 0.00056012356355202432 -0.034272545661744071 0 0.0003025934482901173 -0.034342699898938588 0 0.0004025729739759591 -0.034574698940521294 0 0.00027129906140446286 -0.034556783272136182 0 0.0003025934482901173 -0.034342699898938588 0 0.0004025729739759591 -0.034574698940521294 0 0.00027129906140446286 -0.034556783272136182 0 0.0003025934482901173 -0.034342699898938588 0 7.7480149214925298e-05 -0.034496478395871541 0 0.0003025934482901173 -0.034342699898938588 0 7.7480149214925298e-05 -0.034496478395871541 0 0.00013869053039315365 -0.033962516234550481 0 7.7480149214925298e-05 -0.034496478395871541 0 1.3778335884531276e-05 -0.034769405440228447 0 0.00017968309713950302 -0.034662918966836279 0 0.00027129906140446286 -0.034556783272136182 0 7.7480149214925298e-05 -0.034496478395871541 0 0.00017968309713950302 -0.034662918966836279 0 7.7480149214925298e-05 -0.034496478395871541 0 1.3778335884531276e-05 -0.034769405440228447 0 -5.5542027523107455e-05 -0.034665652947888821 0 1.3778335884531276e-05 -0.034769405440228447 0 -2.3441235058940278e-08 -0.034999671275379361 0 1.6183456642821946e-08 -0.034999687019330726 0 -2.3441235058940278e-08 -0.034999671275379361 0 -5.5542027523107455e-05 -0.034665652947888821 0 -2.2830528914790738e-07 -0.034999067097629642 0 1.3778335884531276e-05 -0.034769405440228447 0 -2.3441235058940278e-08 -0.034999671275379361 0 -5.5542027523107455e-05 -0.034665652947888821 0 7.7480149214925298e-05 -0.034496478395871541 0 -5.5542027523107455e-05 -0.034665652947888821 0 -0.0001188926360749583 -0.034331390634768644 0 -5.5542027523107455e-05 -0.034665652947888821 0 -0.0001188926360749583 -0.034331390634768644 0 -2.2830528914790738e-07 -0.034999067097629642 0 -9.3620452185986782e-08 -0.034999356770290396 0 -2.2830528914790738e-07 -0.034999067097629642 0 -0.00011370299807625048 -0.034487551505075015 0 -0.0001188926360749583 -0.034331390634768644 0 -2.2830528914790738e-07 -0.034999067097629642 0 -0.00011370299807625048 -0.034487551505075015 0 -0.00017393123303107431 -0.033697638772315026 0 -0.0001188926360749583 -0.034331390634768644 0 -0.00011370299807625048 -0.034487551505075015 0 -0.00017393123303107431 -0.033697638772315026 0 -0.0001188926360749583 -0.034331390634768644 0 -6.5211219215399085e-05 -0.033629160677762955 0 -6.5211219215399085e-05 -0.033629160677762955 0 0.00015132233920983349 -0.03292821882962025 0 0.00013869053039315365 -0.033962516234550481 0 -0.0001188926360749583 -0.034331390634768644 0 -6.5211219215399085e-05 -0.033629160677762955 0 0.00013869053039315365 -0.033962516234550481 0 7.7480149214925298e-05 -0.034496478395871541 0 -0.0001188926360749583 -0.034331390634768644 0 0.00013869053039315365 -0.033962516234550481 0 0.0035930595579041782 -0.021356536120797479 0 0.0032546400461838732 -0.020613891244131342 0 0.0041269780810890078 -0.020717742930336389 0 0.0035930595579041782 -0.021356536120797479 0 0.0029939145957897551 -0.021425214889176009 0 0.0032546400461838732 -0.020613891244131342 0 0.0035930595579041782 -0.021356536120797479 0 0.0029939145957897551 -0.021425214889176009 0 0.0036590845515681808 -0.021899178722260292 0 0.0029939145957897551 -0.021425214889176009 0 0.0025269735262082381 -0.021189811170352037 0 0.002887550126758487 -0.021741878104202805 0 0.0025269735262082381 -0.021189811170352037 0 0.0020959433866878448 -0.021594449297654666 0 0.002887550126758487 -0.021741878104202805 0 0.0021854325484381878 -0.021626175283247784 0 0.0028618967114447582 -0.021809323416413288 0 0.0025269735262082381 -0.021189811170352037 0 0.0023574524502365259 -0.02053489883090083 0 0.0016776222018640293 -0.020965150139527797 0 0.0029939145957897551 -0.021425214889176009 0 0.0025269735262082381 -0.021189811170352037 0 0.0032546400461838732 -0.020613891244131342 0 0.0023574524502365259 -0.02053489883090083 0 0.002864418522010065 -0.01969362081282636 0 0.001367386290886567 -0.020014924518953071 0 0.0025269735262082381 -0.021189811170352037 0 0.0023574524502365259 -0.02053489883090083 0 0.0032546400461838732 -0.020613891244131342 0 0.0023574524502365259 -0.02053489883090083 0 0.0032546400461838732 -0.020613891244131342 0 0.002864418522010065 -0.01969362081282636 0 0.0032546400461838732 -0.020613891244131342 0 0.002864418522010065 -0.01969362081282636 0 0.0042722544668708255 -0.019355857056584339 0 -4.5326795100549961e-05 -0.018194015160214464 0 -0.00018724129806694826 -0.019229501921566722 0 0.00030807541043393027 -0.018079628562694242 0 0.0012458362058777555 -0.019800594269022941 0 0.0023509504272977689 -0.016778134365561741 0 -4.5326795100549961e-05 -0.018194015160214464 0 -3.0222747626385826e-07 -0.018693330679645709 0 6.7026236899341351e-07 -0.016693882720260556 0 -4.5326795100549961e-05 -0.018194015160214464 0 -3.0222747626385826e-07 -0.018693330679645709 0 -0.0001610134215722245 -0.01963629915915558 0 -3.0222747626385826e-07 -0.018693330679645709 0 -0.0001610134215722245 -0.01963629915915558 0 -1.2666185099256842e-06 -0.020693565517187724 0 -4.5326795100549961e-05 -0.018194015160214464 0 -0.0001610134215722245 -0.01963629915915558 0 -0.00018724129806694826 -0.019229501921566722 0 -0.0001610134215722245 -0.01963629915915558 0 -0.00018724129806694826 -0.019229501921566722 0 -0.00012416582556142372 -0.020067727853012512 0 0.0012458362058777555 -0.019800594269022941 0 0.0005248101857346873 -0.019408509404685814 0 -0.0001610134215722245 -0.01963629915915558 0 -1.2666185099256842e-06 -0.020693565517187724 0 -0.00012416582556142372 -0.020067727853012512 0 -1.2666185099256842e-06 -0.020693565517187724 0 -0.00012416582556142372 -0.020067727853012512 0 0.00020750864058661651 -0.021060899289361421 0 0.0005248101857346873 -0.019408509404685814 0 0.0007969691773227007 -0.024974980491908022 0 0.001367386290886567 -0.020014924518953071 0 0.00073383181718024708 -0.020940574000835727 0 -0.00024603691662504641 -0.020399320423023767 0 0.0023574524502365259 -0.02053489883090083 0 0.001367386290886567 -0.020014924518953071 0 0.0016776222018640293 -0.020965150139527797 0 0.001367386290886567 -0.020014924518953071 0 0.0016776222018640293 -0.020965150139527797 0 0.00073383181718024708 -0.020940574000835727 0 0.0016776222018640293 -0.020965150139527797 0 0.0020959433866878448 -0.021594449297654666 0 0.0010486436836913196 -0.021705790182691656 0 0.0025269735262082381 -0.021189811170352037 0 0.0016776222018640293 -0.020965150139527797 0 0.0020959433866878448 -0.021594449297654666 0 0.0016776222018640293 -0.020965150139527797 0 0.00073383181718024708 -0.020940574000835727 0 0.0010486436836913196 -0.021705790182691656 0 0.00073383181718024708 -0.020940574000835727 0 0.0010486436836913196 -0.021705790182691656 0 -0.00019290467347962266 -0.021637957982611051 0 -1.3466576386535031e-06 -0.027196819624094211 0 4.0971962444469546e-06 -0.022698603341118954 0 1.9111864131794468e-05 -0.026760528892902233 0 0.00066908945295012011 -0.032661372005383001 0 0.00077891159552888767 -0.032698319996735191 0 0.00068852826056930809 -0.032762348755486094 0 0.00073383181718024708 -0.020940574000835727 0 -0.00019290467347962266 -0.021637957982611051 0 -0.00024603691662504641 -0.020399320423023767 0 0.00021526027449923218 -0.027459632825408111 0 0.0007969691773227007 -0.024974980491908022 0 0.00077891159552888767 -0.032698319996735191 0 0.00068852826056930809 -0.032762348755486094 0 0.0008555427983362125 -0.032824750031282886 0 0.0007969691773227007 -0.024974980491908022 0 0.00053077960156032509 -0.030586559742581256 0 0.0014317613699849571 -0.026791695544129329 0 0.00055826987159677882 -0.025959810222688263 0 0.00033518690789088683 -0.027287591230007579 0 -0.00012416582556142372 -0.020067727853012512 0 0.00026946227852423345 -0.02046183337164504 0 0.00020750864058661651 -0.021060899289361421 0 0.0014317613699849571 -0.026791695544129329 0 0.0013026124659309068 -0.025261444822005708 0 0.00055826987159677882 -0.025959810222688263 0 0.0007969691773227007 -0.024974980491908022 0 0.00065029876412563744 -0.022958819217255778 0 4.0971962444469546e-06 -0.022698603341118954 0 0.00055826987159677882 -0.025959810222688263 0 1.9111864131794468e-05 -0.026760528892902233 0 -1.2666185099256842e-06 -0.020693565517187724 0 0.00020750864058661651 -0.021060899289361421 0 2.2371796721485085e-06 -0.022688677431384086 0 0.0013026124659309068 -0.025261444822005708 0 4.0971962444469546e-06 -0.022698603341118954 0 0.00055826987159677882 -0.025959810222688263 0 0.00065029876412563744 -0.022958819217255778 0 4.2811067261483172e-07 -0.022693164885796698 0 0.00055826987159677882 -0.025959810222688263 0 1.9111864131794468e-05 -0.026760528892902233 0 0.00033518690789088683 -0.027287591230007579 0 3.6130208733130201e-05 -0.028652440815786422 0 1.9111864131794468e-05 -0.026760528892902233 0 7.5532115119126208e-05 -0.028266048179712528 0 0.00053077960156032509 -0.030586559742581256 0 0.00055291081529959226 -0.030539854611530616 0 1.9111864131794468e-05 -0.026760528892902233 0 0.00033518690789088683 -0.027287591230007579 0 7.5532115119126208e-05 -0.028266048179712528 0 0.00077891159552888767 -0.032698319996735191 0 0.0008555427983362125 -0.032824750031282886 0 0.00088392625819178777 -0.032657366486414312 0 0.0008555427983362125 -0.032824750031282886 0 0.0010452036441962844 -0.032790744321773042 0 0.00088392625819178777 -0.032657366486414312 0 0.0012676035057079273 -0.03291278338019292 0 0.0010837706005863978 -0.032877303499082029 0 0.0010452036441962844 -0.032790744321773042 0 0.0008555427983362125 -0.032824750031282886 0 0.0010837706005863978 -0.032877303499082029 0 0.0010452036441962844 -0.032790744321773042 0 0.0010452036441962844 -0.032790744321773042 0 0.00088392625819178777 -0.032657366486414312 0 0.0010278829519142008 -0.032614608084165261 0 0.0012676035057079273 -0.03291278338019292 0 0.0010452036441962844 -0.032790744321773042 0 0.0010278829519142008 -0.032614608084165261 0 0.00088392625819178777 -0.032657366486414312 0 0.00093832176954250393 -0.032412868814605852 0 0.00075835946471993398 -0.032519928171671576 0 0.001110113624507696 -0.032350823230374352 0 0.0010278829519142008 -0.032614608084165261 0 0.00093832176954250393 -0.032412868814605852 0 0.00088392625819178777 -0.032657366486414312 0 0.0010278829519142008 -0.032614608084165261 0 0.00093832176954250393 -0.032412868814605852 0 0.001110113624507696 -0.032350823230374352 0 0.00072965980721745793 -0.032250031368716223 0 0.00089062062867526805 -0.032132617268935536 0 0.00072965980721745793 -0.032250031368716223 0 0.00089062062867526805 -0.032132617268935536 0 0.00061135452164791989 -0.032014510109217416 0