<?xml version="1.0"?>
<VTKFile type="UnstructuredGrid" version="0.1" byte_order="LittleEndian">
<UnstructuredGrid>
<Piece NumberOfPoints="31344" NumberOfCells="10965">
<Points>
<DataArray type="Float64" NumberOfComponents="3" format="ascii">
-0.5 -0.5 0 -0.48688419296792901 -0.47571949389293638 0 -0.4741777626132318 -0.49999999999999989 0 -0.5 -0.5 0 -0.48688419296792901 -0.47571949389293638 0 -0.5 -0.4514389877858731 0 -0.48688419296792901 -0.47571949389293638 0 -0.4741777626132318 -0.49999999999999989 0 -0.4658685091641917 -0.47139354606788259 0 -0.48688419296792901 -0.47571949389293638 0 -0.4741777626132318 -0.49999999999999989 0 -0.4741777626132318 -0.49999999999999989 0 -0.4658685091641917 -0.47139354606788259 0 -0.44818111661754628 -0.5 0 -0.4658685091641917 -0.47139354606788259 0 -0.44446177588704461 -0.46993595877209798 0 -0.44818111661754628 -0.5 0 -0.44446177588704461 -0.46993595877209798 0 -0.44818111661754628 -0.5 0 -0.43333186174723909 -0.48578260218183761 0 -0.44955274873398782 -0.45275627857676359 0 -0.43029306238260318 -0.45715144342928771 0 -0.43622019783270038 -0.44078537624624231 0 -0.44955274873398782 -0.45275627857676359 0 -0.45796129597687479 -0.432289038222399 0 -0.43622019783270038 -0.44078537624624231 0 -0.44446177588704461 -0.46993595877209798 0 -0.44955274873398782 -0.45275627857676359 0 -0.43029306238260318 -0.45715144342928771 0 -0.4658685091641917 -0.47139354606788259 0 -0.44446177588704461 -0.46993595877209798 0 -0.44955274873398782 -0.45275627857676359 0 -0.4658685091641917 -0.47139354606788259 0 -0.44955274873398782 -0.45275627857676359 0 -0.4672903457171379 -0.45104919414956712 0 -0.4672903457171379 -0.45104919414956712 0 -0.48049953312669968 -0.44079253367357518 0 -0.45796129597687479 -0.432289038222399 0 -0.44955274873398782 -0.45275627857676359 0 -0.4672903457171379 -0.45104919414956712 0 -0.45796129597687479 -0.432289038222399 0 -0.4672903457171379 -0.45104919414956712 0 -0.48049953312669968 -0.44079253367357518 0 -0.48040693148534358 -0.45798088886365651 0 -0.4658685091641917 -0.47139354606788259 0 -0.4672903457171379 -0.45104919414956712 0 -0.48040693148534358 -0.45798088886365651 0 -0.48688419296792901 -0.47571949389293638 0 -0.4658685091641917 -0.47139354606788259 0 -0.48040693148534358 -0.45798088886365651 0 -0.48688419296792901 -0.47571949389293638 0 -0.48040693148534358 -0.45798088886365651 0 -0.5 -0.4514389877858731 0 -0.48688419296792901 -0.47571949389293638 0 -0.5 -0.4514389877858731 0 -0.48049953312669968 -0.44079253367357518 0 -0.5 -0.4514389877858731 0 -0.5 -0.43664789664639703 0 -0.48049953312669968 -0.44079253367357518 0 -0.48040693148534358 -0.45798088886365651 0 -0.5 -0.4514389877858731 0 -0.48049953312669968 -0.44079253367357518 0 -0.5 -0.43664789664639703 0 -0.47774800225821651 -0.41534919637355888 0 -0.5 -0.43664789664639703 0 -0.47774800225821651 -0.41534919637355888 0 -0.5 -0.38851993436381149 0 -0.48049953312669968 -0.44079253367357518 0 -0.47774800225821651 -0.41534919637355888 0 -0.45796129597687479 -0.432289038222399 0 -0.47774800225821651 -0.41534919637355888 0 -0.5 -0.38851993436381149 0 -0.4684882626455445 -0.3890652094605781 0 -0.5 -0.38851993436381149 0 -0.4684882626455445 -0.3890652094605781 0 -0.47699608999532539 -0.35979817425092198 0 -0.4684882626455445 -0.3890652094605781 0 -0.44656461479083492 -0.39319922157509463 0 -0.45173682326990211 -0.36940614423952062 0 -0.4684882626455445 -0.3890652094605781 0 -0.44656461479083492 -0.39319922157509463 0 -0.45808334251148769 -0.40857791793865839 0 -0.47774800225821651 -0.41534919637355888 0 -0.4684882626455445 -0.3890652094605781 0 -0.45808334251148769 -0.40857791793865839 0 -0.44656461479083492 -0.39319922157509463 0 -0.44139240631176763 -0.41699229891066841 0 -0.44656461479083492 -0.39319922157509463 0 -0.44139240631176763 -0.41699229891066841 0 -0.43237479213090962 -0.40049551809254252 0 -0.44656461479083492 -0.39319922157509463 0 -0.45173682326990211 -0.36940614423952062 0 -0.44656461479083492 -0.39319922157509463 0 -0.42971851657775212 -0.38424309814665458 0 -0.45173682326990211 -0.36940614423952062 0 -0.47774800225821651 -0.41534919637355888 0 -0.45796129597687479 -0.432289038222399 0 -0.45808334251148769 -0.40857791793865839 0 -0.45796129597687479 -0.432289038222399 0 -0.45808334251148769 -0.40857791793865839 0 -0.44139240631176763 -0.41699229891066841 0 -0.44656461479083492 -0.39319922157509463 0 -0.45808334251148769 -0.40857791793865839 0 -0.44139240631176763 -0.41699229891066841 0 -0.44139240631176763 -0.41699229891066841 0 -0.43622019783270038 -0.44078537624624231 0 -0.45796129597687479 -0.432289038222399 0 -0.44139240631176763 -0.41699229891066841 0 -0.43622019783270038 -0.44078537624624231 0 -0.44139240631176763 -0.41699229891066841 0 -0.42381241854158008 -0.42137687841261762 0 -0.43622019783270038 -0.44078537624624231 0 -0.42381241854158008 -0.42137687841261762 0 -0.43622019783270038 -0.44078537624624231 0 -0.41328520704643068 -0.44614503061695221 0 -0.42381241854158008 -0.42137687841261762 0 -0.43237479213090962 -0.40049551809254252 0 -0.41807322010583259 -0.40419135809102258 0 -0.44139240631176763 -0.41699229891066841 0 -0.42381241854158008 -0.42137687841261762 0 -0.43237479213090962 -0.40049551809254252 0 -0.41807322010583259 -0.40419135809102258 0 -0.40295740806698138 -0.4043270310936371 0 -0.40519189979673109 -0.42288710554775871 0 -0.42381241854158008 -0.42137687841261762 0 -0.41807322010583259 -0.40419135809102258 0 -0.40519189979673109 -0.42288710554775871 0 -0.42381241854158008 -0.42137687841261762 0 -0.40519189979673109 -0.42288710554775871 0 -0.41328520704643068 -0.44614503061695221 0 -0.44656461479083492 -0.39319922157509463 0 -0.42971851657775212 -0.38424309814665458 0 -0.43237479213090962 -0.40049551809254252 0 -0.42971851657775212 -0.38424309814665458 0 -0.43237479213090962 -0.40049551809254252 0 -0.41807322010583259 -0.40419135809102258 0 -0.42971851657775212 -0.38424309814665458 0 -0.41807322010583259 -0.40419135809102258 0 -0.41276035601858713 -0.39555222310926358 0 -0.41807322010583259 -0.40419135809102258 0 -0.41276035601858713 -0.39555222310926358 0 -0.40295740806698138 -0.4043270310936371 0 -0.42971851657775212 -0.38424309814665458 0 -0.40215010430089171 -0.38131932627237219 0 -0.40029227932378231 -0.38944740510574011 0 -0.42971851657775212 -0.38424309814665458 0 -0.41276035601858713 -0.39555222310926358 0 -0.40029227932378231 -0.38944740510574011 0 -0.42971851657775212 -0.38424309814665458 0 -0.40215010430089171 -0.38131932627237219 0 -0.418221727774575 -0.36945213776531349 0 -0.42971851657775212 -0.38424309814665458 0 -0.40029227932378231 -0.38944740510574011 0 -0.40215010430089171 -0.38131932627237219 0 -0.38905109648381142 -0.38293612577500602 0 -0.39210888806352417 -0.37085032147219388 0 -0.40215010430089171 -0.38131932627237219 0 -0.40029227932378231 -0.38944740510574011 0 -0.38905109648381142 -0.38293612577500602 0 -0.40029227932378231 -0.38944740510574011 0 -0.40295740806698138 -0.4043270310936371 0 -0.38857171782147748 -0.4089701008667414 0 -0.41276035601858713 -0.39555222310926358 0 -0.40029227932378231 -0.38944740510574011 0 -0.40295740806698138 -0.4043270310936371 0 -0.40029227932378231 -0.38944740510574011 0 -0.38857171782147748 -0.4089701008667414 0 -0.37086604206981227 -0.39465171206482558 0 -0.38857171782147748 -0.4089701008667414 0 -0.3736076487831192 -0.41403429292464861 0 -0.37086604206981227 -0.39465171206482558 0 -0.40029227932378231 -0.38944740510574011 0 -0.37086604206981227 -0.39465171206482558 0 -0.38905109648381142 -0.38293612577500602 0 -0.37983816866104619 -0.37841186395989812 0 -0.37086604206981227 -0.39465171206482558 0 -0.40029227932378231 -0.38944740510574011 0 -0.38905109648381142 -0.38293612577500602 0 -0.37086604206981227 -0.39465171206482558 0 -0.38905109648381142 -0.38293612577500602 0 -0.37983816866104619 -0.37841186395989812 0 -0.39210888806352417 -0.37085032147219388 0 -0.40519189979673109 -0.42288710554775871 0 -0.38925863360994528 -0.42403147679031222 0 -0.391143174238758 -0.43978758075558289 0 -0.40519189979673109 -0.42288710554775871 0 -0.391143174238758 -0.43978758075558289 0 -0.41328520704643068 -0.44614503061695221 0 -0.40295740806698138 -0.4043270310936371 0 -0.40519189979673109 -0.42288710554775871 0 -0.38857171782147748 -0.4089701008667414 0 -0.40519189979673109 -0.42288710554775871 0 -0.38857171782147748 -0.4089701008667414 0 -0.38925863360994528 -0.42403147679031222 0 -0.38857171782147748 -0.4089701008667414 0 -0.38925863360994528 -0.42403147679031222 0 -0.3736076487831192 -0.41403429292464861 0 -0.38925863360994528 -0.42403147679031222 0 -0.37165182833615512 -0.43017869423626398 0 -0.3736076487831192 -0.41403429292464861 0 -0.38925863360994528 -0.42403147679031222 0 -0.391143174238758 -0.43978758075558289 0 -0.37165182833615512 -0.43017869423626398 0 -0.37569954516590282 -0.44589569233336712 0 -0.391143174238758 -0.43978758075558289 0 -0.37165182833615512 -0.43017869423626398 0 -0.37569954516590282 -0.44589569233336712 0 -0.391143174238758 -0.43978758075558289 0 -0.39214939938061982 -0.46005410572250449 0 -0.391143174238758 -0.43978758075558289 0 -0.39214939938061982 -0.46005410572250449 0 -0.41328520704643068 -0.44614503061695221 0 -0.39214939938061982 -0.46005410572250449 0 -0.38003836276132341 -0.48052034468410648 0 -0.36671375067195577 -0.46125268182926987 0 -0.37569954516590282 -0.44589569233336712 0 -0.39214939938061982 -0.46005410572250449 0 -0.36671375067195577 -0.46125268182926987 0 -0.39214939938061982 -0.46005410572250449 0 -0.38003836276132341 -0.48052034468410648 0 -0.39962143308624642 -0.48046706443336362 0 -0.38003836276132341 -0.48052034468410648 0 -0.3961878246261753 -0.5 0 -0.37019117863048978 -0.5 0 -0.3961878246261753 -0.5 0 -0.39962143308624642 -0.48046706443336362 0 -0.42218447062186082 -0.5 0 -0.38003836276132341 -0.48052034468410648 0 -0.3961878246261753 -0.5 0 -0.39962143308624642 -0.48046706443336362 0 -0.39214939938061982 -0.46005410572250449 0 -0.39962143308624642 -0.48046706443336
[...]
<PointData Scalars="" Vectors="displacement," Tensors="">
<DataArray type="Float64" Name="displacement" NumberOfComponents="3" format="ascii">
-0.034997454982710015 -5.9657637266764321e-07 0 -0.034880377286677595 1.5366836133967968e-06 0 -0.033196572452761745 8.974820308914123e-07 0 -0.034997454982710015 -5.9657637266764321e-07 0 -0.034880377286677595 1.5366836133967968e-06 0 -0.03500093494731419 2.9942595165732711e-07 0 -0.032441602808796301 9.6614829672057246e-05 0 -0.033188090985003707 7.2094820764046672e-07 0 -0.032033265525936418 0.00016967738373754431 0 -0.033725387138156496 5.9390593984873425e-05 0 -0.033192695676755209 -4.7606069766448789e-08 0 -0.033188090985003707 7.2094820764046672e-07 0 -0.032033265525936418 0.00016967738373754431 0 -0.031373788121579822 -1.9600037438107821e-07 0 -0.032033265525936418 0.00016967738373754431 0 -0.031047726653872953 0.00026099587734371621 0 -0.031373788121579822 -1.9600037438107821e-07 0 -0.031047726653872953 0.00026099587734371621 0 -0.031373788121579822 -1.9600037438107821e-07 0 -0.03043152974388277 4.8944674048735533e-05 0 -0.031579136959720776 0.00047187492588019212 0 -0.03049974750261291 0.00042363342886629353 0 -0.030954659745786588 0.00095012696343767516 0 -0.031579136959720776 0.00047187492588019212 0 -0.032986889735894427 0.00022918597576806926 0 -0.030954659745786588 0.00095012696343767516 0 -0.031047726653872953 0.00026099587734371621 0 -0.031579136959720776 0.00047187492588019212 0 -0.03049974750261291 0.00042363342886629353 0 -0.032033265525936418 0.00016967738373754431 0 -0.031047726653872953 0.00026099587734371621 0 -0.031579136959720776 0.00047187492588019212 0 -0.032033265525936418 0.00016967738373754431 0 -0.031579136959720776 0.00047187492588019212 0 -0.032729331763989573 0.00018728576558498693 0 -0.032729331763989573 0.00018728576558498693 0 -0.033875649815520457 2.1141349240800534e-05 0 -0.032986889735894427 0.00022918597576806926 0 -0.031579136959720776 0.00047187492588019212 0 -0.032729331763989573 0.00018728576558498693 0 -0.032986889735894427 0.00022918597576806926 0 -0.032729331763989573 0.00018728576558498693 0 -0.033875649815520457 2.1141349240800534e-05 0 -0.033266851305103047 0.0001650429515260275 0 -0.032033265525936418 0.00016967738373754431 0 -0.032729331763989573 0.00018728576558498693 0 -0.033266851305103047 0.0001650429515260275 0 -0.032441602808796301 9.6614829672057246e-05 0 -0.032033265525936418 0.00016967738373754431 0 -0.033266851305103047 0.0001650429515260275 0 -0.032441602808796301 9.6614829672057246e-05 0 -0.033266851305103047 0.0001650429515260275 0 -0.034996051171070006 -1.2505526408781083e-06 0 -0.033725387138156496 5.9390593984873425e-05 0 -0.034816806983233375 -2.4484211726452822e-05 0 -0.033875649815520457 2.1141349240800534e-05 0 -0.034996051171070006 -1.2505526408781083e-06 0 -0.034999175694531856 1.0510813568443107e-07 0 -0.033875649815520457 2.1141349240800534e-05 0 -0.033266851305103047 0.0001650429515260275 0 -0.034996051171070006 -1.2505526408781083e-06 0 -0.033875649815520457 2.1141349240800534e-05 0 -0.034999175694531856 1.0510813568443107e-07 0 -0.034398542341054876 -5.3050519686088998e-05 0 -0.034999175694531856 1.0510813568443107e-07 0 -0.034398542341054876 -5.3050519686088998e-05 0 -0.034999260870099545 -2.1504454831567113e-07 0 -0.033875649815520457 2.1141349240800534e-05 0 -0.034398542341054876 -5.3050519686088998e-05 0 -0.032986889735894427 0.00022918597576806926 0 -0.034398542341054876 -5.3050519686088998e-05 0 -0.034999260870099545 -2.1504454831567113e-07 0 -0.034783967983660742 0.00016509777453450051 0 -0.034999260870099545 -2.1504454831567113e-07 0 -0.034783967983660742 0.00016509777453450051 0 -0.034977233388814637 9.5689902747093616e-05 0 -0.034783967983660742 0.00016509777453450051 0 -0.034678321179733677 0.00061717691347920221 0 -0.03492671462472817 0.00033283528173485113 0 -0.034783967983660742 0.00016509777453450051 0 -0.034678321179733677 0.00061717691347920221 0 -0.03427047013744821 0.00035295145984339199 0 -0.034398542341054876 -5.3050519686088998e-05 0 -0.034783967983660742 0.00016509777453450051 0 -0.03427047013744821 0.00035295145984339199 0 -0.03117708634971041 0.0010208317389916695 0 -0.031242143147184029 0.0012158143612802264 0 -0.027643058559009077 0.0014167188276274505 0 -0.028778815124381182 0.0015328589192694403 0 -0.027975871404753491 0.0010514554527822375 0 -0.03117708634971041 0.0010208317389916695 0 -0.031229832452666497 0.00072823169504908987 0 -0.027643058559009077 0.0014167188276274505 0 -0.027342860543839359 0.0011343063887699935 0 -0.027546862708530948 0.0010889422560176486 0 -0.034398542341054876 -5.3050519686088998e-05 0 -0.032986889735894427 0.00022918597576806926 0 -0.03427047013744821 0.00035295145984339199 0 -0.032986889735894427 0.00022918597576806926 0 -0.03427047013744821 0.00035295145984339199 0 -0.033731580055096799 0.0010572172039053527 0 -0.034678321179733677 0.00061717691347920221 0 -0.03427047013744821 0.00035295145984339199 0 -0.033731580055096799 0.0010572172039053527 0 -0.031242143147184029 0.0012158143612802264 0 -0.031027954213760207 0.001033206691685835 0 -0.032986889735894427 0.00022918597576806926 0 -0.033731580055096799 0.0010572172039053527 0 -0.030954659745786588 0.00095012696343767516 0 -0.028778815124381182 0.0015328589192694403 0 -0.029006176584729312 0.0004608650854250354 0 -0.030954659745786588 0.00095012696343767516 0 -0.029006176584729312 0.0004608650854250354 0 -0.030954659745786588 0.00095012696343767516 0 -0.029614692947574975 7.3876432589674052e-05 0 -0.029006176584729312 0.0004608650854250354 0 -0.027975871404753491 0.0010514554527822375 0 -0.028207190149809377 0.00041187457564675802 0 -0.028778815124381182 0.0015328589192694403 0 -0.029006176584729312 0.0004608650854250354 0 -0.027975871404753491 0.0010514554527822375 0 -0.028207190149809377 0.00041187457564675802 0 -0.028163720255995124 -3.2857217332487321e-05 0 -0.028675446083463303 -6.9499861634269013e-05 0 -0.029006176584729312 0.0004608650854250354 0 -0.028207190149809377 0.00041187457564675802 0 -0.028675446083463303 -6.9499861634269013e-05 0 -0.029006176584729312 0.0004608650854250354 0 -0.028675446083463303 -6.9499861634269013e-05 0 -0.029614692947574975 7.3876432589674052e-05 0 -0.027643058559009077 0.0014167188276274505 0 -0.027342860543839359 0.0011343063887699935 0 -0.027975871404753491 0.0010514554527822375 0 -0.027342860543839359 0.0011343063887699935 0 -0.027975871404753491 0.0010514554527822375 0 -0.028207190149809377 0.00041187457564675802 0 -0.027342860543839359 0.0011343063887699935 0 -0.028207190149809377 0.00041187457564675802 0 -0.027917605850993274 0.00030733841415431007 0 -0.028207190149809377 0.00041187457564675802 0 -0.027917605850993274 0.00030733841415431007 0 -0.028163720255995124 -3.2857217332487321e-05 0 -0.027342860543839359 0.0011343063887699935 0 -0.026922765943733367 0.0021303573734986849 0 -0.026736095276957146 0.0021705624063744359 0 -0.027342860543839359 0.0011343063887699935 0 -0.027917605850993274 0.00030733841415431007 0 -0.027811205639463803 -0.00014603635961982954 0 -0.027342860543839359 0.0011343063887699935 0 -0.026922765943733367 0.0021303573734986849 0 -0.027493893063108697 0.0015445470515343649 0 -0.027320110180826328 0.001158405995838661 0 -0.027289239568403862 0.0010321269971991344 0 -0.026922765943733367 0.0021303573734986849 0 -0.026700853749763564 0.0020787440650729284 0 -0.026504559892205307 0.0021164288379571816 0 -0.026922765943733367 0.0021303573734986849 0 -0.026736095276957146 0.0021705624063744359 0 -0.026700853749763564 0.0020787440650729284 0 -0.027811205639463803 -0.00014603635961982954 0 -0.028163720255995124 -3.2857217332487321e-05 0 -0.028198459757922397 -0.00027454362763937323 0 -0.027917605850993274 0.00030733841415431007 0 -0.027811205639463803 -0.00014603635961982954 0 -0.028163720255995124 -3.2857217332487321e-05 0 -0.027811205639463803 -0.00014603635961982954 0 -0.028198459757922397 -0.00027454362763937323 0 -0.028103609051423516 -0.00034380385732313919 0 -0.028198459757922397 -0.00027454362763937323 0 -0.028153563486466644 -0.00031417944917957601 0 -0.028103609051423516 -0.00034380385732313919 0 -0.027289239568403862 0.0010321269971991344 0 -0.027473978419506221 0.00075086622997660979 0 -0.026700853749763564 0.0020787440650729284 0 -0.026571015962308878 0.0019600965963473319 0 -0.026833372271501649 0.0018476041726462227 0 -0.026736095276957146 0.0021705624063744359 0 -0.026700853749763564 0.0020787440650729284 0 -0.026833372271501649 0.0018476041726462227 0 -0.026700853749763564 0.0020787440650729284 0 -0.026571015962308878 0.0019600965963473319 0 -0.026504559892205307 0.0021164288379571816 0 -0.028675446083463303 -6.9499861634269013e-05 0 -0.028366785466228318 -0.00027029258491997904 0 -0.028529303539992269 -0.00026611385895542936 0 -0.028675446083463303 -6.9499861634269013e-05 0 -0.028529303539992269 -0.00026611385895542936 0 -0.029614692947574975 7.3876432589674052e-05 0 -0.028163720255995124 -3.2857217332487321e-05 0 -0.028675446083463303 -6.9499861634269013e-05 0 -0.028198459757922397 -0.00027454362763937323 0 -0.028675446083463303 -6.9499861634269013e-05 0 -0.028198459757922397 -0.00027454362763937323 0 -0.028366785466228318 -0.00027029258491997904 0 -0.028198459757922397 -0.00027454362763937323 0 -0.028366785466228318 -0.00027029258491997904 0 -0.028153563486466644 -0.00031417944917957601 0 -0.028366785466228318 -0.00027029258491997904 0 -0.027936898221989893 -0.00026618513034735487 0 -0.028153563486466644 -0.00031417944917957601 0 -0.028366785466228318 -0.00027029258491997904 0 -0.028529303539992269 -0.00026611385895542936 0 -0.027936898221989893 -0.00026618513034735487 0 -0.027910398352807841 -0.00028097901521147389 0 -0.028529303539992269 -0.00026611385895542936 0 -0.027936898221989893 -0.00026618513034735487 0 -0.027910398352807841 -0.00028097901521147389 0 -0.028529303539992269 -0.00026611385895542936 0 -0.028435035453432258 -0.00020138644212216834 0 -0.028529303539992269 -0.00026611385895542936 0 -0.028435035453432258 -0.00020138644212216834 0 -0.029614692947574975 7.3876432589674052e-05 0 -0.028435035453432258 -0.00020138644212216834 0 -0.027280968326487812 -0.00016582690298644557 0 -0.02721324795200801 -0.00024839971732539879 0 -0.027910398352807841 -0.00028097901521147389 0 -0.028435035453432258 -0.00020138644212216834 0 -0.02721324795200801 -0.00024839971732539879 0 -0.028435035453432258 -0.00020138644212216834 0 -0.027280968326487812 -0.00016582690298644557 0 -0.02845592268797701 -8.1980486423089576e-05 0 -0.027280968326487812 -0.00016582690298644557 0 -0.027733626117482358 -2.2318234240391985e-07 0 -0.025913852453602861 -3.1449598562412295e-07 0 -0.027733626117482358 -2.2318234240391985e-07 0 -0.02845592268797701 -8.1980486423089576e-05 0 -0.029552782204789973 8.6560088736621346e-08 0 -0.027280968326487812 -0.00016582690298644557 0 -0.027733626117482358 -2.2318234240391985e-07 0 -0.02845592268797701 -8.1980486423089576e-05 0 -0.028435035453432258 -0.00020138644212216834 0 -0.02845592268797701 -8.1980486423089576e-05 0 -0.029697652607560819 7.6393587302147478e-05 0 -0.02845592268797701 -8.1980486423089576e-05 0 -0.029697652607560819 7.6393587302147478e-05 0 -0.029552782204789973 8.6560088736621346e-08 0 -0.031373788121579822 -1.9600037438107821e-07 0 -0.029552782204789973 8.6560088736621346e-08 0 -0.03043152974388277 4.8944674048735533e-05 0 -0.029697652607560819 7.6393587302147478e-05 0 -0.029552782204789973 8.6560088736621346e-08 0 -0.03043152974388277 4.8944674048735533e-05 0 -0.031047726653872953 0.00026099587734371621 0 -0.029697652607560819 7.6393587302147478e-05 0 -0.03043152974388277 4.8944674048735533e-05 0 -0.031047726653872953 0.00026099587734371621 0 -0.029697652607560819 7.6393587302147478e-05 0 -0.03049974750261291 0.00042363342886629353 0 -0.03049974750261291 0.00042363342886629353 0 -0.030954659745786588 0.00095012696343767516 0 -0.029614692947574975 7.3876432589674052e-05 0 -0.029697652607560819 7.6393587302147478e-05 0 -0.03049974750261291 0.00042363342886629353 0 -0.029614692947574975 7.3876432589674052e-05 0 -0.028435035453432258 -0.00020138644212216834 0 -0.029697652607560819 7.6393587302147478e-05 0 -0.029614692947574975 7.3876432589674052e-05 0 -0.028749280751515938 0.001167386478147212 0 -0.028575918962995207 0.00076502675552191719 0 -0.029047537372267358 0.00083233775528437286 0 -0.028749280751515938 0.001167386478147212 0 -0.028419419531216201 0.0011808173989654642 0 -0.028575918962995207 0.00076502675552191719 0 -0.028749280751515938 0.001167386478147212 0 -0.028419419531216201 0.0011808173989654642 0 -0.028780672487954139 0.0014744536870278551 0 -0.028419419531216201 0.0011808173989654642 0 -0.028158277710618903 0.0010227837087764149 0 -0.028360556171360626 0.0013474675947864527 0 -0.028158277710618903 0.0010227837087764149 0 -0.02788976339809255 0.0011868202616234238 0 -0.028360556171360626 0.0013474675947864527 0 -0.02790606580166953 0.0012158199299211641 0 -0.028141733246329934 0.001323003594068951 0 -0.028158277710618903 0.0010227837087764149 0 -0.02811401590278071 0.00071962959247253593 0 -0.027786571783216703 0.00090943093313214894 0 -0.028419419531216201 0.0011808173989654642 0 -0.028158277710618903 0.0010227837087764149 0 -0.028575918962995207 0.00076502675552191719 0 -0.02811401590278071 0.00071962959247253593 0 -0.028393526758977345 0.00029876407336027941 0 -0.027698596746307421 0.00052140584417158698 0 -0.028158277710618903 0.0010227837087764149 0 -0.02811401590278071 0.00071962959247253593 0 -0.028575918962995207 0.00076502675552191719 0 -0.02811401590278071 0.00071962959247253593 0 -0.028575918962995207 0.00076502675552191719 0 -0.028393526758977345 0.00029876407336027941 0 -0.028575918962995207 0.00076502675552191719 0 -0.028393526758977345 0.00029876407336027941 0 -0.029160556045888072 0.00012383612594422122 0 -0.034985107964901757 5.2494294181568492e-06 0 -0.034966777756338566 1.150343441212961e-05 0 -0.034970617978940056 8.0003996517774917e-06 0 -0.031782229934591004 0.00011987422265332764 0 -0.031702639279650106 0.000292676130238684 0 -0.034985107964901757 5.2494294181568492e-06 0 -0.034999965378976858 8.4436258442316941e-09 0 -0.034999946553309326 6.3982976590433847e-09 0 -0.034985107964901757 5.2494294181568492e-06 0 -0.034999965378976858 8.4436258442316941e-09 0 -0.034982854441331514 6.2625846953497654e-06 0 -0.034999965378976858 8.4436258442316941e-09 0 -0.034982854441331514 6.2625846953497654e-06 0 -0.034999963901813431 1.3103317462827087e-09 0 -0.034985107964901757 5.2494294181568492e-06 0 -0.034982854441331514 6.2625846953497654e-06 0 -0.034966777756338566 1.150343441212961e-05 0 -0.034982854441331514 6.2625846953497654e-06 0 -0.034966777756338566 1.150343441212961e-05 0 -0.034953607191313275 1.9123834440239202e-05 0 -0.031782229934591004 0.00011987422265332764 0 -0.031240387981602662 0.00026489275574030792 0 -0.034982854441331514 6.2625846953497654e-06 0 -0.034999963901813431 1.3103317462827087e-09 0 -0.034953607191313275 1.9123834440239202e-05 0 -0.034999963901813431 1.3103317462827087e-09 0 -0.034953607191313275 1.9123834440239202e-05 0 -0.034962615591554051 1.0121955119377025e-05 0 -0.031240387981602662 0.00026489275574030792 0 -0.03138754214585264 0.00047977864819418169 0 -0.027698596746307421 0.00052140584417158698 0 -0.027474678668924522 0.00088081763352975729 0 -0.027173143552735639 0.00068716887468590882 0 -0.02811401590278071 0.00071962959247253593 0 -0.027698596746307421 0.00052140584417158698 0 -0.027786571783216703 0.00090943093313214894 0 -0.027698596746307421 0.00052140584417158698 0 -0.027786571783216703 0.00090943093313214894 0 -0.027474678668924522 0.00088081763352975729 0 -0.027786571783216703 0.00090943093313214894 0 -0.02788976339809255 0.0011868202616234238 0 -0.027560547873707153 0.0011566178835345597 0 -0.028158277710618903 0.0010227837087764149 0 -0.027786571783216703 0.00090943093313214894 0 -0.02788976339809255 0.0011868202616234238 0 -0.027786571783216703 0.00090943093313214894 0 -0.027474678668924522 0.00088081763352975729 0 -0.027560547873707153 0.0011566178835345597 0 -0.027474678668924522 0.00088081763352975729 0 -0.027560547873707153 0.0011566178835345597 0 -0.027184960140366737 0.0011066647482034398 0 -0.034999260870099545 -2.1504454831567113e-07 0 -0.035000451554129723 2.6944002200921644e-07 0 -0.034977233388814637 9.5689902747093616e-05 0 -0.028490372583927667 0.0011612430249175608 0 -0.028174340405746342 0.0011754473154390655 0 -0.0284838914964008 0.00076056993064289727 0 -0.027474678668924522 0.00088081763352975729 0 -0.027184960140366737 0.0011066647482034398 0 -0.027173143552735639 0.00068716887468590882 0 -0.027630818810117849 0.0011455086254793312 0 -0.03138754214585264 0.00047977864819418169 0 -0.028174340405746342 0.0011754473154390655 0 -0.0284838914964008 0.00076056993064289727 0 -0.027996633783512758 0.00088514263955262722 0 -0.03138754214585264 0.00047977864819418169 0 -0.031568124466892632 0.00053774295976697034 0 -0.035022078021373332 0.00015027265348826409 0 -0.035006803648685539 0.00010456020373796021 0 -0.034988190655763932 0.00019864206114028477 0 -0.034953607191313275 1.9123834440239202e-05 0 -0.034929051763431682 2.8416336718425353e-05 0 -0.034962615591554051 1.0121955119377025e-05 0 -0.035022078021373332 0.00015027265348826409 0 -0.03503250318229003 8.2699414733528419e-05 0 -0.035006803648685539 0.00010456020373796021 0 -0.03138754214585264 0.00047977864819418169 0 -0.035100285677080255 1.3644269452297155e-05 0 -0.035000451554129723 2.6944002200921644e-07 0 -0.035006803648685539 0.00010456020373796021 0 -0.034977233388814637 9.5689902747093616e-05 0 -0.034999963901813431 1.3103317462827087e-09 0 -0.034962615591554051 1.0121955119377025e-05 0 -0.034999929921328776 1.0294615595745106e-08 0 -0.03503250318229003 8.2699414733528419e-05 0 -0.035000451554129723 2.6944002200921644e-07 0 -0.035006803648685539 0.00010456020373796021 0 -0.035100285677080255 1.3644269452297155e-05 0 -0.034999989746822675 5.5968212545139986e-08 0 -0.035006803648685539 0.00010456020373796021 0 -0.034977233388814637 9.5689902747093616e-05 0 -0.034988190655763932 0.00019864206114028477 0 -0.034783967983660742 0.00016509777453450051 0 -0.034977233388814637 9.5689902747093616e-05 0 -0.03492671462472817 0.00033283528173485113 0 -0.031568124466892632 0.00053774295976697034 0 -0.031229832452666497 0.00072823169504908987 0 -0.034977233388814637 9.5689902747093616e-05 0 -0.034988190655763932 0.00019864206114028477 0 -0.03492671462472817 0.00033283528173485113 0 -0.028174340405746342 0.0011754473154390655 0 -0.027996633783512758 0.00088514263955262722 0 -0.027892249096438566 0.0013867002765435646 0 -0.027996633783512758 0.00088514263955262722 0 -0.027571684369011831 0.0012283120666716041 0 -0.027892249096438566 0.0013867002765435646 0 -0.027342860543839359 0.0011343063887699935 0 -0.027546862708530948 0.0010889422560176486 0 -0.027571684369011831 0.0012283120666716041 0 -0.027996633783512758 0.00088514263955262722 0 -0.027546862708530948 0.0010889422560176486 0 -0.027571684369011831 0.0012283120666716041 0 -0.027571684369011831 0.0012283120666716041 0 -0.027892249096438566 0.0013867002765435646 0 -0.027493893063108697 0.0015445470515343649 0 -0.027342860543839359 0.0011343063887699935 0 -0.027571684369011831 0.0012283120666716041 0 -0.027493893063108697 0.0015445470515343649 0 -0.027892249096438566 0.0013867002765435646 0 -0.027709563717366693 0.002015345968591997 0 -0.028194440348266427 0.0016381523253284906 0 -0.026922765943733367 0.0021303573734986849 0 -0.027493893063108697 0.0015445470515343649 0 -0.027709563717366693 0.002015345968591997 0 -0.027892249096438566 0.0013867002765435646 0 -0.027493893063108697 0.0015445470515343649 0 -0.027709563717366693 0.002015345968591997 0 -0.026922765943733367 0.0021303573734986849 0 -0.026207623732689731 0.0023834724861772389 0 -0.026504559892205307 0.0021164288379571816 0 -0.026207623732689731 0.0023834724861772389 0 -0.026504559892205307 0.0021164288379571816 0 -0.025946212352601045 