<?xml version="1.0"?>
<VTKFile type="UnstructuredGrid" version="0.1" byte_order="LittleEndian">
<UnstructuredGrid>
<Piece NumberOfPoints="31344" NumberOfCells="10965">
<Points>
<DataArray type="Float64" NumberOfComponents="3" format="ascii">
-0.5 -0.5 0 -0.48688419296792901 -0.47571949389293638 0 -0.4741777626132318 -0.49999999999999989 0 -0.5 -0.5 0 -0.48688419296792901 -0.47571949389293638 0 -0.5 -0.4514389877858731 0 -0.48688419296792901 -0.47571949389293638 0 -0.4741777626132318 -0.49999999999999989 0 -0.4658685091641917 -0.47139354606788259 0 -0.48688419296792901 -0.47571949389293638 0 -0.4741777626132318 -0.49999999999999989 0 -0.4741777626132318 -0.49999999999999989 0 -0.4658685091641917 -0.47139354606788259 0 -0.44818111661754628 -0.5 0 -0.4658685091641917 -0.47139354606788259 0 -0.44446177588704461 -0.46993595877209798 0 -0.44818111661754628 -0.5 0 -0.44446177588704461 -0.46993595877209798 0 -0.44818111661754628 -0.5 0 -0.43333186174723909 -0.48578260218183761 0 -0.44955274873398782 -0.45275627857676359 0 -0.43029306238260318 -0.45715144342928771 0 -0.43622019783270038 -0.44078537624624231 0 -0.44955274873398782 -0.45275627857676359 0 -0.45796129597687479 -0.432289038222399 0 -0.43622019783270038 -0.44078537624624231 0 -0.44446177588704461 -0.46993595877209798 0 -0.44955274873398782 -0.45275627857676359 0 -0.43029306238260318 -0.45715144342928771 0 -0.4658685091641917 -0.47139354606788259 0 -0.44446177588704461 -0.46993595877209798 0 -0.44955274873398782 -0.45275627857676359 0 -0.4658685091641917 -0.47139354606788259 0 -0.44955274873398782 -0.45275627857676359 0 -0.4672903457171379 -0.45104919414956712 0 -0.4672903457171379 -0.45104919414956712 0 -0.48049953312669968 -0.44079253367357518 0 -0.45796129597687479 -0.432289038222399 0 -0.44955274873398782 -0.45275627857676359 0 -0.4672903457171379 -0.45104919414956712 0 -0.45796129597687479 -0.432289038222399 0 -0.4672903457171379 -0.45104919414956712 0 -0.48049953312669968 -0.44079253367357518 0 -0.48040693148534358 -0.45798088886365651 0 -0.4658685091641917 -0.47139354606788259 0 -0.4672903457171379 -0.45104919414956712 0 -0.48040693148534358 -0.45798088886365651 0 -0.48688419296792901 -0.47571949389293638 0 -0.4658685091641917 -0.47139354606788259 0 -0.48040693148534358 -0.45798088886365651 0 -0.48688419296792901 -0.47571949389293638 0 -0.48040693148534358 -0.45798088886365651 0 -0.5 -0.4514389877858731 0 -0.48688419296792901 -0.47571949389293638 0 -0.5 -0.4514389877858731 0 -0.48049953312669968 -0.44079253367357518 0 -0.5 -0.4514389877858731 0 -0.5 -0.43664789664639703 0 -0.48049953312669968 -0.44079253367357518 0 -0.48040693148534358 -0.45798088886365651 0 -0.5 -0.4514389877858731 0 -0.48049953312669968 -0.44079253367357518 0 -0.5 -0.43664789664639703 0 -0.47774800225821651 -0.41534919637355888 0 -0.5 -0.43664789664639703 0 -0.47774800225821651 -0.41534919637355888 0 -0.5 -0.38851993436381149 0 -0.48049953312669968 -0.44079253367357518 0 -0.47774800225821651 -0.41534919637355888 0 -0.45796129597687479 -0.432289038222399 0 -0.47774800225821651 -0.41534919637355888 0 -0.5 -0.38851993436381149 0 -0.4684882626455445 -0.3890652094605781 0 -0.5 -0.38851993436381149 0 -0.4684882626455445 -0.3890652094605781 0 -0.47699608999532539 -0.35979817425092198 0 -0.4684882626455445 -0.3890652094605781 0 -0.44656461479083492 -0.39319922157509463 0 -0.45173682326990211 -0.36940614423952062 0 -0.4684882626455445 -0.3890652094605781 0 -0.44656461479083492 -0.39319922157509463 0 -0.45808334251148769 -0.40857791793865839 0 -0.47774800225821651 -0.41534919637355888 0 -0.4684882626455445 -0.3890652094605781 0 -0.45808334251148769 -0.40857791793865839 0 -0.44656461479083492 -0.39319922157509463 0 -0.44139240631176763 -0.41699229891066841 0 -0.44656461479083492 -0.39319922157509463 0 -0.44139240631176763 -0.41699229891066841 0 -0.43237479213090962 -0.40049551809254252 0 -0.44656461479083492 -0.39319922157509463 0 -0.45173682326990211 -0.36940614423952062 0 -0.44656461479083492 -0.39319922157509463 0 -0.42971851657775212 -0.38424309814665458 0 -0.45173682326990211 -0.36940614423952062 0 -0.47774800225821651 -0.41534919637355888 0 -0.45796129597687479 -0.432289038222399 0 -0.45808334251148769 -0.40857791793865839 0 -0.45796129597687479 -0.432289038222399 0 -0.45808334251148769 -0.40857791793865839 0 -0.44139240631176763 -0.41699229891066841 0 -0.44656461479083492 -0.39319922157509463 0 -0.45808334251148769 -0.40857791793865839 0 -0.44139240631176763 -0.41699229891066841 0 -0.44139240631176763 -0.41699229891066841 0 -0.43622019783270038 -0.44078537624624231 0 -0.45796129597687479 -0.432289038222399 0 -0.44139240631176763 -0.41699229891066841 0 -0.43622019783270038 -0.44078537624624231 0 -0.44139240631176763 -0.41699229891066841 0 -0.42381241854158008 -0.42137687841261762 0 -0.43622019783270038 -0.44078537624624231 0 -0.42381241854158008 -0.42137687841261762 0 -0.43622019783270038 -0.44078537624624231 0 -0.41328520704643068 -0.44614503061695221 0 -0.42381241854158008 -0.42137687841261762 0 -0.43237479213090962 -0.40049551809254252 0 -0.41807322010583259 -0.40419135809102258 0 -0.44139240631176763 -0.41699229891066841 0 -0.42381241854158008 -0.42137687841261762 0 -0.43237479213090962 -0.40049551809254252 0 -0.41807322010583259 -0.40419135809102258 0 -0.40295740806698138 -0.4043270310936371 0 -0.40519189979673109 -0.42288710554775871 0 -0.42381241854158008 -0.42137687841261762 0 -0.41807322010583259 -0.40419135809102258 0 -0.40519189979673109 -0.42288710554775871 0 -0.42381241854158008 -0.42137687841261762 0 -0.40519189979673109 -0.42288710554775871 0 -0.41328520704643068 -0.44614503061695221 0 -0.44656461479083492 -0.39319922157509463 0 -0.42971851657775212 -0.38424309814665458 0 -0.43237479213090962 -0.40049551809254252 0 -0.42971851657775212 -0.38424309814665458 0 -0.43237479213090962 -0.40049551809254252 0 -0.41807322010583259 -0.40419135809102258 0 -0.42971851657775212 -0.38424309814665458 0 -0.41807322010583259 -0.40419135809102258 0 -0.41276035601858713 -0.39555222310926358 0 -0.41807322010583259 -0.40419135809102258 0 -0.41276035601858713 -0.39555222310926358 0 -0.40295740806698138 -0.4043270310936371 0 -0.42971851657775212 -0.38424309814665458 0 -0.40215010430089171 -0.38131932627237219 0 -0.40029227932378231 -0.38944740510574011 0 -0.42971851657775212 -0.38424309814665458 0 -0.41276035601858713 -0.39555222310926358 0 -0.40029227932378231 -0.38944740510574011 0 -0.42971851657775212 -0.38424309814665458 0 -0.40215010430089171 -0.38131932627237219 0 -0.418221727774575 -0.36945213776531349 0 -0.42971851657775212 -0.38424309814665458 0 -0.40029227932378231 -0.38944740510574011 0 -0.40215010430089171 -0.38131932627237219 0 -0.38905109648381142 -0.38293612577500602 0 -0.39210888806352417 -0.37085032147219388 0 -0.40215010430089171 -0.38131932627237219 0 -0.40029227932378231 -0.38944740510574011 0 -0.38905109648381142 -0.38293612577500602 0 -0.40029227932378231 -0.38944740510574011 0 -0.40295740806698138 -0.4043270310936371 0 -0.38857171782147748 -0.4089701008667414 0 -0.41276035601858713 -0.39555222310926358 0 -0.40029227932378231 -0.38944740510574011 0 -0.40295740806698138 -0.4043270310936371 0 -0.40029227932378231 -0.38944740510574011 0 -0.38857171782147748 -0.4089701008667414 0 -0.37086604206981227 -0.39465171206482558 0 -0.38857171782147748 -0.4089701008667414 0 -0.3736076487831192 -0.41403429292464861 0 -0.37086604206981227 -0.39465171206482558 0 -0.40029227932378231 -0.38944740510574011 0 -0.37086604206981227 -0.39465171206482558 0 -0.38905109648381142 -0.38293612577500602 0 -0.37983816866104619 -0.37841186395989812 0 -0.37086604206981227 -0.39465171206482558 0 -0.40029227932378231 -0.38944740510574011 0 -0.38905109648381142 -0.38293612577500602 0 -0.37086604206981227 -0.39465171206482558 0 -0.38905109648381142 -0.38293612577500602 0 -0.37983816866104619 -0.37841186395989812 0 -0.39210888806352417 -0.37085032147219388 0 -0.40519189979673109 -0.42288710554775871 0 -0.38925863360994528 -0.42403147679031222 0 -0.391143174238758 -0.43978758075558289 0 -0.40519189979673109 -0.42288710554775871 0 -0.391143174238758 -0.43978758075558289 0 -0.41328520704643068 -0.44614503061695221 0 -0.40295740806698138 -0.4043270310936371 0 -0.40519189979673109 -0.42288710554775871 0 -0.38857171782147748 -0.4089701008667414 0 -0.40519189979673109 -0.42288710554775871 0 -0.38857171782147748 -0.4089701008667414 0 -0.38925863360994528 -0.42403147679031222 0 -0.38857171782147748 -0.4089701008667414 0 -0.38925863360994528 -0.42403147679031222 0 -0.3736076487831192 -0.41403429292464861 0 -0.38925863360994528 -0.42403147679031222 0 -0.37165182833615512 -0.43017869423626398 0 -0.3736076487831192 -0.41403429292464861 0 -0.38925863360994528 -0.42403147679031222 0 -0.391143174238758 -0.43978758075558289 0 -0.37165182833615512 -0.43017869423626398 0 -0.37569954516590282 -0.44589569233336712 0 -0.391143174238758 -0.43978758075558289 0 -0.37165182833615512 -0.43017869423626398 0 -0.37569954516590282 -0.44589569233336712 0 -0.391143174238758 -0.43978758075558289 0 -0.39214939938061982 -0.46005410572250449 0 -0.391143174238758 -0.43978758075558289 0 -0.39214939938061982 -0.46005410572250449 0 -0.41328520704643068 -0.44614503061695221 0 -0.39214939938061982 -0.46005410572250449 0 -0.38003836276132341 -0.48052034468410648 0 -0.36671375067195577 -0.46125268182926987 0 -0.37569954516590282 -0.44589569233336712 0 -0.39214939938061982 -0.46005410572250449 0 -0.36671375067195577 -0.46125268182926987 0 -0.39214939938061982 -0.46005410572250449 0 -0.38003836276132341 -0.48052034468410648 0 -0.39962143308624642 -0.48046706443336362 0 -0.38003836276132341 -0.48052034468410648 0 -0.3961878246261753 -0.5 0 -0.37019117863048978 -0.5 0 -0.3961878246261753 -0.5 0 -0.39962143308624642 -0.48046706443336362 0 -0.42218447062186082 -0.5 0 -0.38003836276132341 -0.48052034468410648 0 -0.3961878246261753 -0.5 0 -0.39962143308624642 -0.48046706443336362 0 -0.39214939938061982 -0.46005410572250449 0 -0.39962143308624642 -0.48046706443336
[...]
<PointData Scalars="" Vectors="displacement," Tensors="">
<DataArray type="Float64" Name="displacement" NumberOfComponents="3" format="ascii">
-0.034999512702227863 -0.03499776198176404 0 -0.033726345949851924 -0.035243759199041901 0 -0.034999041278184762 -0.033196723436185141 0 -0.034999512702227863 -0.03499776198176404 0 -0.033726345949851924 -0.035243759199041901 0 -0.03160265992094969 -0.035000178824116532 0 -0.033592936468617961 -0.033341498757661896 0 -0.034998073131571696 -0.033190116730211952 0 -0.033891192567649435 -0.033272565596025441 0 -0.033589558936271045 -0.034291258816502072 0 -0.034999357005506347 -0.033192746708221463 0 -0.034998073131571696 -0.033190116730211952 0 -0.033891192567649435 -0.033272565596025441 0 -0.034999107191977748 -0.031374490896264574 0 -0.033891192567649435 -0.033272565596025441 0 -0.0342852491454416 -0.032126797269716172 0 -0.034999107191977748 -0.031374490896264574 0 -0.0342852491454416 -0.032126797269716172 0 -0.034999107191977748 -0.031374490896264574 0 -0.03475856633488409 -0.030811155827339141 0 -0.033828673585907194 -0.033109203991738889 0 -0.034570683361183852 -0.031445813254256931 0 -0.034528235195703701 -0.032614149384164383 0 -0.033828673585907194 -0.033109203991738889 0 -0.032469105130885932 -0.034298818507069742 0 -0.034528235195703701 -0.032614149384164383 0 -0.0342852491454416 -0.032126797269716172 0 -0.033828673585907194 -0.033109203991738889 0 -0.034570683361183852 -0.031445813254256931 0 -0.033891192567649435 -0.033272565596025441 0 -0.0342852491454416 -0.032126797269716172 0 -0.033828673585907194 -0.033109203991738889 0 -0.033891192567649435 -0.033272565596025441 0 -0.033828673585907194 -0.033109203991738889 0 -0.032961124476003606 -0.033862601372084279 0 -0.032961124476003606 -0.033862601372084279 0 -0.031811312157070185 -0.034457124825815498 0 -0.032469105130885932 -0.034298818507069742 0 -0.033828673585907194 -0.033109203991738889 0 -0.032961124476003606 -0.033862601372084279 0 -0.032469105130885932 -0.034298818507069742 0 -0.032961124476003606 -0.033862601372084279 0 -0.031811312157070185 -0.034457124825815498 0 -0.032724771025831746 -0.033967836102620531 0 -0.033891192567649435 -0.033272565596025441 0 -0.032961124476003606 -0.033862601372084279 0 -0.032724771025831746 -0.033967836102620531 0 -0.033592936468617961 -0.033341498757661896 0 -0.033891192567649435 -0.033272565596025441 0 -0.032724771025831746 -0.033967836102620531 0 -0.033592936468617961 -0.033341498757661896 0 -0.032724771025831746 -0.033967836102620531 0 -0.03160113421102282 -0.034997118036436708 0 -0.033589558936271045 -0.034291258816502072 0 -0.031907135325756938 -0.034855210051279437 0 -0.031811312157070185 -0.034457124825815498 0 -0.03160113421102282 -0.034997118036436708 0 -0.030567235810929533 -0.034999138158071735 0 -0.031811312157070185 -0.034457124825815498 0 -0.032724771025831746 -0.033967836102620531 0 -0.03160113421102282 -0.034997118036436708 0 -0.031811312157070185 -0.034457124825815498 0 -0.030567235810929533 -0.034999138158071735 0 -0.030104325062183447 -0.034908287792451129 0 -0.030567235810929533 -0.034999138158071735 0 -0.030104325062183447 -0.034908287792451129 0 -0.027198216294360134 -0.03499795548601433 0 -0.031811312157070185 -0.034457124825815498 0 -0.030104325062183447 -0.034908287792451129 0 -0.032469105130885932 -0.034298818507069742 0 -0.030104325062183447 -0.034908287792451129 0 -0.027198216294360134 -0.03499795548601433 0 -0.028025865448626376 -0.035729797911955935 0 -0.027198216294360134 -0.03499795548601433 0 -0.028025865448626376 -0.035729797911955935 0 -0.025601243244280498 -0.035881260818765734 0 -0.028025865448626376 -0.035729797911955935 0 -0.028651711812483445 -0.036804702126092839 0 -0.026531799242786112 -0.037136824059284125 0 -0.028025865448626376 -0.035729797911955935 0 -0.028651711812483445 -0.036804702126092839 0 -0.030090347959734795 -0.035453738666491673 0 -0.030104325062183447 -0.034908287792451129 0 -0.028025865448626376 -0.035729797911955935 0 -0.030090347959734795 -0.035453738666491673 0 -0.032819858438231424 -0.033444910955658692 0 -0.033875112038762346 -0.033309646681563956 0 -0.037115056714572797 -0.030109466067101492 0 -0.036857322336548544 -0.03126458927661005 0 -0.037211587144937677 -0.030347121128803015 0 -0.032819858438231424 -0.033444910955658692 0 -0.031400668566206213 -0.033322242482724529 0 -0.037115056714572797 -0.030109466067101492 0 -0.036922259432345089 -0.030137651069465581 0 -0.036587224341303314 -0.029600162287670616 0 -0.030104325062183447 -0.034908287792451129 0 -0.032469105130885932 -0.034298818507069742 0 -0.030090347959734795 -0.035453738666491673 0 -0.032469105130885932 -0.034298818507069742 0 -0.030090347959734795 -0.035453738666491673 0 -0.031356015326281003 -0.03562599770001168 0 -0.028651711812483445 -0.036804702126092839 0 -0.030090347959734795 -0.035453738666491673 0 -0.031356015326281003 -0.03562599770001168 0 -0.033875112038762346 -0.033309646681563956 0 -0.034190447516987799 -0.032743866655658337 0 -0.032469105130885932 -0.034298818507069742 0 -0.031356015326281003 -0.03562599770001168 0 -0.034528235195703701 -0.032614149384164383 0 -0.036857322336548544 -0.03126458927661005 0 -0.036709994308415844 -0.030430094547001754 0 -0.034528235195703701 -0.032614149384164383 0 -0.036709994308415844 -0.030430094547001754 0 -0.034528235195703701 -0.032614149384164383 0 -0.035393885617253255 -0.029812885588380744 0 -0.036709994308415844 -0.030430094547001754 0 -0.037211587144937677 -0.030347121128803015 0 -0.03734650820486278 -0.029910116739338698 0 -0.036857322336548544 -0.03126458927661005 0 -0.036709994308415844 -0.030430094547001754 0 -0.037211587144937677 -0.030347121128803015 0 -0.03734650820486278 -0.029910116739338698 0 -0.037487375980141589 -0.029107036970284276 0 -0.036833444523784613 -0.029158846597410793 0 -0.036709994308415844 -0.030430094547001754 0 -0.03734650820486278 -0.029910116739338698 0 -0.036833444523784613 -0.029158846597410793 0 -0.036709994308415844 -0.030430094547001754 0 -0.036833444523784613 -0.029158846597410793 0 -0.035393885617253255 -0.029812885588380744 0 -0.037115056714572797 -0.030109466067101492 0 -0.036922259432345089 -0.030137651069465581 0 -0.037211587144937677 -0.030347121128803015 0 -0.036922259432345089 -0.030137651069465581 0 -0.037211587144937677 -0.030347121128803015 0 -0.03734650820486278 -0.029910116739338698 0 -0.036922259432345089 -0.030137651069465581 0 -0.03734650820486278 -0.029910116739338698 0 -0.03753275787481937 -0.029617130483311962 0 -0.03734650820486278 -0.029910116739338698 0 -0.03753275787481937 -0.029617130483311962 0 -0.037487375980141589 -0.029107036970284276 0 -0.036922259432345089 -0.030137651069465581 0 -0.036025378311577365 -0.028985506271798449 0 -0.035426542669072726 -0.028831467338458913 0 -0.036922259432345089 -0.030137651069465581 0 -0.03753275787481937 -0.029617130483311962 0 -0.03810722744970816 -0.029060458638006322 0 -0.036922259432345089 -0.030137651069465581 0 -0.036025378311577365 -0.028985506271798449 0 -0.036586400984491639 -0.029761926946812494 0 -0.036895584318575529 -0.029987770526989976 0 -0.036773746188203282 -0.028822993051957242 0 -0.036025378311577365 -0.028985506271798449 0 -0.035765792373657762 -0.027801039442447328 0 -0.036574386101126947 -0.027949495471432481 0 -0.036025378311577365 -0.028985506271798449 0 -0.035426542669072726 -0.028831467338458913 0 -0.035765792373657762 -0.027801039442447328 0 -0.03810722744970816 -0.029060458638006322 0 -0.037487375980141589 -0.029107036970284276 0 -0.037473925392819164 -0.028197943616575225 0 -0.03753275787481937 -0.029617130483311962 0 -0.03810722744970816 -0.029060458638006322 0 -0.037487375980141589 -0.029107036970284276 0 -0.03810722744970816 -0.029060458638006322 0 -0.037473925392819164 -0.028197943616575225 0 -0.038188723747787139 -0.027238969017523873 0 -0.037473925392819164 -0.028197943616575225 0 -0.03740162618165014 -0.02727166497102089 0 -0.038188723747787139 -0.027238969017523873 0 -0.036773746188203282 -0.028822993051957242 0 -0.036294241990054404 -0.026928385992991181 0 -0.035765792373657762 -0.027801039442447328 0 -0.035995576257509015 -0.026994668420224521 0 -0.03471498378276678 -0.026239496321383667 0 -0.035426542669072726 -0.028831467338458913 0 -0.035765792373657762 -0.027801039442447328 0 -0.03471498378276678 -0.026239496321383667 0 -0.035765792373657762 -0.027801039442447328 0 -0.035995576257509015 -0.026994668420224521 0 -0.036574386101126947 -0.027949495471432481 0 -0.036833444523784613 -0.029158846597410793 0 -0.036963468695830948 -0.028099440077535918 0 -0.036273048156967462 -0.028106909805531689 0 -0.036833444523784613 -0.029158846597410793 0 -0.036273048156967462 -0.028106909805531689 0 -0.035393885617253255 -0.029812885588380744 0 -0.037487375980141589 -0.029107036970284276 0 -0.036833444523784613 -0.029158846597410793 0 -0.037473925392819164 -0.028197943616575225 0 -0.036833444523784613 -0.029158846597410793 0 -0.037473925392819164 -0.028197943616575225 0 -0.036963468695830948 -0.028099440077535918 0 -0.037473925392819164 -0.028197943616575225 0 -0.036963468695830948 -0.028099440077535918 0 -0.03740162618165014 -0.02727166497102089 0 -0.036963468695830948 -0.028099440077535918 0 -0.037046860756570654 -0.026887496375711771 0 -0.03740162618165014 -0.02727166497102089 0 -0.036963468695830948 -0.028099440077535918 0 -0.036273048156967462 -0.028106909805531689 0 -0.037046860756570654 -0.026887496375711771 0 -0.036303536112224942 -0.026979433861654578 0 -0.036273048156967462 -0.028106909805531689 0 -0.037046860756570654 -0.026887496375711771 0 -0.036303536112224942 -0.026979433861654578 0 -0.036273048156967462 -0.028106909805531689 0 -0.035578390332178009 -0.02806208641624286 0 -0.036273048156967462 -0.028106909805531689 0 -0.035578390332178009 -0.02806208641624286 0 -0.035393885617253255 -0.029812885588380744 0 -0.035578390332178009 -0.02806208641624286 0 -0.035276169654444384 -0.026919109500699319 0 -0.035879352953953711 -0.026141573721986132 0 -0.036303536112224942 -0.026979433861654578 0 -0.035578390332178009 -0.02806208641624286 0 -0.035879352953953711 -0.026141573721986132 0 -0.035578390332178009 -0.02806208641624286 0 -0.035276169654444384 -0.026919109500699319 0 -0.035067792659289526 -0.028391895722202333 0 -0.035276169654444384 -0.026919109500699319 0 -0.034999210144122599 -0.027733731340316828 0 -0.034999300054829117 -0.025913813603565695 0 -0.034999210144122599 -0.027733731340316828 0 -0.035067792659289526 -0.028391895722202333 0 -0.034998736447827659 -0.029553590133181498 0 -0.035276169654444384 -0.026919109500699319 0 -0.034999210144122599 -0.027733731340316828 0 -0.035067792659289526 -0.028391895722202333 0 -0.035578390332178009 -0.02806208641624286 0 -0.035067792659289526 -0.028391895722202333 0 -0.034811410078102359 -0.030006983996093837 0 -0.035067792659289526 -0.028391895722202333 0 -0.034811410078102359 -0.030006983996093837 0 -0.034998736447827659 -0.029553590133181498 0 -0.034999107191977748 -0.031374490896264574 0 -0.034998736447827659 -0.029553590133181498 0 -0.03475856633488409 -0.030811155827339141 0 -0.034811410078102359 -0.030006983996093837 0 -0.034998736447827659 -0.029553590133181498 0 -0.03475856633488409 -0.030811155827339141 0 -0.0342852491454416 -0.032126797269716172 0 -0.034811410078102359 -0.030006983996093837 0 -0.03475856633488409 -0.030811155827339141 0 -0.0342852491454416 -0.032126797269716172 0 -0.034811410078102359 -0.030006983996093837 0 -0.034570683361183852 -0.031445813254256931 0 -0.034570683361183852 -0.031445813254256931 0 -0.034528235195703701 -0.032614149384164383 0 -0.035393885617253255 -0.029812885588380744 0 -0.034811410078102359 -0.030006983996093837 0 -0.034570683361183852 -0.031445813254256931 0 -0.035393885617253255 -0.029812885588380744 0 -0.035578390332178009 -0.02806208641624286 0 -0.034811410078102359 -0.030006983996093837 0 -0.035393885617253255 -0.029812885588380744 0 -0.024687025310188439 -0.026542287882204689 0 -0.024876663062763066 -0.02616776420306368 0 -0.024403697670371507 -0.026236379626497705 0 -0.024687025310188439 -0.026542287882204689 0 -0.025032436858276701 -0.026529972135529094 0 -0.024876663062763066 -0.02616776420306368 0 -0.024687025310188439 -0.026542287882204689 0 -0.025032436858276701 -0.026529972135529094 0 -0.024636990613699655 -0.026853377114104873 0 -0.025032436858276701 -0.026529972135529094 0 -0.025302897823777447 -0.026351409757799777 0 -0.025093685255846786 -0.026688426036408208 0 -0.025302897823777447 -0.026351409757799777 0 -0.025564166421964525 -0.026420608646107849 0 -0.025093685255846786 -0.026688426036408208 0 -0.025481213385437809 -0.026469387570696029 0 -0.025557730241158243 -0.026453857584515617 0 -0.025302897823777447 -0.026351409757799777 0 -0.025325666902673957 -0.026124991234455032 0 -0.025611301281429161 -0.026258489444145033 0 -0.025032436858276701 -0.026529972135529094 0 -0.025302897823777447 -0.026351409757799777 0 -0.024876663062763066 -0.02616776420306368 0 -0.025325666902673957 -0.026124991234455032 0 -0.025056808298593546 -0.025774678795884146 0 -0.025675644057032296 -0.026012014583097355 0 -0.025302897823777447 -0.026351409757799777 0 -0.025325666902673957 -0.026124991234455032 0 -0.024876663062763066 -0.02616776420306368 0 -0.025325666902673957 -0.026124991234455032 0 -0.024876663062763066 -0.02616776420306368 0 -0.025056808298593546 -0.025774678795884146 0 -0.024876663062763066 -0.02616776420306368 0 -0.025056808298593546 -0.025774678795884146 0 -0.02429512622102455 -0.025638558456768483 0 -0.017915889151546727 -0.035739570660367218 0 -0.018775838758755221 -0.036759215580061205 0 -0.016875390710008972 -0.036354327239083169 0 -0.02249678751352294 -0.03139873120792297 0 -0.018526718852141813 -0.030470333999286843 0 -0.017915889151546727 -0.035739570660367218 0 -0.018693294573540811 -0.034999957571831178 0 -0.016693602370795525 -0.034999942476237979 0 -0.017915889151546727 -0.035739570660367218 0 -0.018693294573540811 -0.034999957571831178 0 -0.019616464199959389 -0.035872148408079722 0 -0.018693294573540811 -0.034999957571831178 0 -0.019616464199959389 -0.035872148408079722 0 -0.020693011566124169 -0.034999970027769042 0 -0.017915889151546727 -0.035739570660367218 0 -0.019616464199959389 -0.035872148408079722 0 -0.018775838758755221 -0.036759215580061205 0 -0.019616464199959389 -0.035872148408079722 0 -0.018775838758755221 -0.036759215580061205 0 -0.020669744800945272 -0.037139267531082341 0 -0.02249678751352294 -0.03139873120792297 0 -0.022504638092723146 -0.031500037047474914 0 -0.019616464199959389 -0.035872148408079722 0 -0.020693011566124169 -0.034999970027769042 0 -0.020669744800945272 -0.037139267531082341 0 -0.020693011566124169 -0.034999970027769042 0 -0.020669744800945272 -0.037139267531082341 0 -0.022601567116465483 -0.036264015429608616 0 -0.022504638092723146 -0.031500037047474914 0 -0.026775655071449515 -0.031829683487373556 0 -0.025675644057032296 -0.026012014583097355 0 -0.025805373465051049 -0.026242308283489758 0 -0.025981710868512656 -0.026177740054376394 0 -0.025325666902673957 -0.026124991234455032 0 -0.025675644057032296 -0.026012014583097355 0 -0.025611301281429161 -0.026258489444145033 0 -0.025675644057032296 -0.026012014583097355 0 -0.025611301281429161 -0.026258489444145033 0 -0.025805373465051049 -0.026242308283489758 0 -0.025611301281429161 -0.026258489444145033 0 -0.025564166421964525 -0.026420608646107849 0 -0.02575527943226158 -0.026359636973446659 0 -0.025302897823777447 -0.026351409757799777 0 -0.025611301281429161 -0.026258489444145033 0 -0.025564166421964525 -0.026420608646107849 0 -0.025611301281429161 -0.026258489444145033 0 -0.025805373465051049 -0.026242308283489758 0 -0.02575527943226158 -0.026359636973446659 0 -0.025805373465051049 -0.026242308283489758 0 -0.02575527943226158 -0.026359636973446659 0 -0.02593907901217175 -0.026344698334749447 0 -0.027198216294360134 -0.03499795548601433 0 -0.022694091417239642 -0.034999835826321268 0 -0.025601243244280498 -0.035881260818765734 0 -0.035824685679443927 -0.029543361195279026 0 -0.036058651547603543 -0.02957816593230073 0 -0.035653698183482643 -0.029259390699418273 0 -0.025805373465051049 -0.026242308283489758 0 -0.02593907901217175 -0.026344698334749447 0 -0.025981710868512656 -0.026177740054376394 0 -0.031156883856788421 -0.027049208143785121 0 -0.026775655071449515 -0.031829683487373556 0 -0.036058651547603543 -0.02957816593230073 0 -0.035653698183482643 -0.029259390699418273 0 -0.036121070321295572 -0.029382690629993428 0 -0.026775655071449515 -0.031829683487373556 0 -0.031011674242916565 -0.033445008739589138 0 -0.023214040827475382 -0.03689387085272517 0 -0.023858873954859118 -0.036129613847219355 0 -0.024746865168042326 -0.037143918760644018 0 -0.020669744800945272 -0.037139267531082341 0 -0.022537358548488585 -0.037502992325731538 0 -0.022601567116465483 -0.036264015429608616 0 -0.023214040827475382 -0.03689387085272517 0 -0.023092416812139721 -0.035857752186430454 0 -0.023858873954859118 -0.036129613847219355 0 -0.026775655071449515 -0.031829683487373556 0 -0.022662739535904711 -0.037031705049045231 0 -0.022694091417239642 -0.034999835826321268 0 -0.023858873954859118 -0.036129613847219355 0 -0.025601243244280498 -0.035881260818765734 0 -0.020693011566124169 -0.034999970027769042 0 -0.022601567116465483 -0.036264015429608616 0 -0.022692536638568322 -0.034999949480095688 0 -0.023092416812139721 -0.035857752186430454 0 -0.022694091417239642 -0.034999835826321268 0 -0.023858873954859118 -0.036129613847219355 0 -0.022662739535904711 -0.037031705049045231 0 -0.022692816526633228 -0.034999187659809916 0 -0.023858873954859118 -0.036129613847219355 0 -0.025601243244280498 -0.035881260818765734 0 -0.024746865168042326 -0.037143918760644018 0 -0.028025865448626376 -0.035729797911955935 0 -0.025601243244280498 -0.035881260818765734 0 -0.026531799242786112 -0.037136824059284125 0 -0.031011674242916565 -0.033445008739589138 0 -0.031400668566206213 -0.033322242482724529 0 -0.025601243244280498 -0.035881260818765734 0 -0.024746865168042326 -0.037143918760644018 0 -0.026531799242786112 -0.037136824059284125 0 -0.036058651547603543 -0.02957816593230073 0 -0.036121070321295572 -0.029382690629993428 0 -0.036354530381730206 -0.029751238357648296 0 -0.036121070321295572 -0.029382690629993428 0 -0.036560742841159753 -0.029816595936181196 0 -0.036354530381730206 -0.029751238357648296 0 -0.036922259432345089 -0.030137651069465581 0 -0.036587224341303314 -0.029600162287670616 0 -0.036560742841159753 -0.029816595936181196 0 -0.036121070321295572 -0.029382690629993428 0 -0.036587224341303314 -0.029600162287670616 0 -0.036560742841159753 -0.029816595936181196 0 -0.036560742841159753 -0.029816595936181196 0 -0.036354530381730206 -0.029751238357648296 0 -0.036586400984491639 -0.029761926946812494 0 -0.036922259432345089 -0.030137651069465581 0 -0.036560742841159753 -0.029816595936181196 0 -0.036586400984491639 -0.029761926946812494 0 -0.036354530381730206 -0.029751238357648296 0 -0.036556744294387308 -0.029627068905105598 0 -0.036177008698769525 -0.029754278896256075 0 -0.036025378311577365 -0.028985506271798449 0 -0.036586400984491639 -0.029761926946812494 0 -0.036556744294387308 -0.029627068905105598 0 -0.036354530381730206 -0.029751238357648296 0 -0.036586400984491639 -0.029761926946812494 0 -0.036556744294387308 -0.029627068905105598 0 -0.036025378311577365 -0.028985506271798449 0 -0.037196757933864372 -0.028426673640652152 0 -0.036574386101126947 -0.027949495471432481 0 -0.037196757933864372 -0.028426673640652152 0 -0.036574386101126947 -0.027949495471432481 0 -0.037735568733574726 -0.02734957908152896 0 -0.036116269014957882 -0.029002190870600193 0 -0.03656276152345745 -0.029028418341689451 0 -0.035995576257509015 -0.026994668420224521 0 -0.036574386101126947 -0.027949495471432481 0 -0.036808087283770247 -0.026630758744526317 0 -0.036574386101126947 -0.027949495471432481 0 -0.036808087283770247 -0.026630758744526317 0 -0.037735568733574726 -0.02734957908152896 0 -0.037735568733574726 -0