<?xml version="1.0"?>
<VTKFile type="UnstructuredGrid" version="0.1" byte_order="LittleEndian">
<UnstructuredGrid>
<Piece NumberOfPoints="31898" NumberOfCells="11152">
<Points>
<DataArray type="Float64" NumberOfComponents="3" format="ascii">
-0.5 -0.5 0 -0.47620991077874902 -0.44978878706170539 0 -0.49999999999999473 -0.42132396840504388 0 -0.5 -0.5 0 -0.47160970827802529 -0.4793630013852106 0 -0.47620991077874902 -0.44978878706170539 0 -0.5 -0.5 0 -0.47160970827802529 -0.4793630013852106 0 -0.44860394795025399 -0.5 0 -0.47160970827802529 -0.4793630013852106 0 -0.44860394795025399 -0.5 0 -0.4490820238307246 -0.45820516232899983 0 -0.44860394795025399 -0.5 0 -0.4490820238307246 -0.45820516232899983 0 -0.42881687682924802 -0.47781464288736519 0 -0.4490820238307246 -0.45820516232899983 0 -0.45555437223955858 -0.42914059360647611 0 -0.4490820238307246 -0.45820516232899983 0 -0.45555437223955858 -0.42914059360647611 0 -0.43867285131603428 -0.4271457417558665 0 -0.4490820238307246 -0.45820516232899983 0 -0.43867285131603428 -0.4271457417558665 0 -0.4263356171060747 -0.44269880333887462 0 -0.47160970827802529 -0.4793630013852106 0 -0.4490820238307246 -0.45820516232899983 0 -0.47620991077874902 -0.44978878706170539 0 -0.4490820238307246 -0.45820516232899983 0 -0.47620991077874902 -0.44978878706170539 0 -0.45555437223955858 -0.42914059360647611 0 -0.47620991077874902 -0.44978878706170539 0 -0.48101336032419229 -0.41069999664450008 0 -0.45555437223955858 -0.42914059360647611 0 -0.47620991077874902 -0.44978878706170539 0 -0.49999999999999473 -0.42132396840504388 0 -0.48101336032419229 -0.41069999664450008 0 -0.49999999999999473 -0.42132396840504388 0 -0.48101336032419229 -0.41069999664450008 0 -0.5 -0.393886241813306 0 -0.49999999999999473 -0.42132396840504388 0 -0.48101336032419229 -0.41069999664450008 0 -0.5 -0.393886241813306 0 -0.47854472220918332 -0.38978458738689759 0 -0.48422759779560409 -0.37130120630367158 0 -0.5 -0.393886241813306 0 -0.5 -0.36644851522156802 0 -0.48422759779560409 -0.37130120630367158 0 -0.48101336032419229 -0.41069999664450008 0 -0.5 -0.393886241813306 0 -0.47854472220918332 -0.38978458738689759 0 -0.48101336032419229 -0.41069999664450008 0 -0.47854472220918332 -0.38978458738689759 0 -0.46202672064839212 -0.40007602488395211 0 -0.48101336032419229 -0.41069999664450008 0 -0.46202672064839212 -0.40007602488395211 0 -0.47854472220918332 -0.38978458738689759 0 -0.46725442735267431 -0.37660061361585562 0 -0.46202672064839212 -0.40007602488395211 0 -0.47854472220918332 -0.38978458738689759 0 -0.46725442735267431 -0.37660061361585562 0 -0.48422759779560409 -0.37130120630367158 0 -0.46725442735267431 -0.37660061361585562 0 -0.46202672064839212 -0.40007602488395211 0 -0.46725442735267431 -0.37660061361585562 0 -0.45645674801697989 -0.38644133236760531 0 -0.46202672064839212 -0.40007602488395211 0 -0.46725442735267431 -0.37660061361585562 0 -0.45645674801697989 -0.38644133236760531 0 -0.4540003998136638 -0.37455519391687309 0 -0.45645674801697989 -0.38644133236760531 0 -0.46202672064839212 -0.40007602488395211 0 -0.44257020456291563 -0.38918913383950271 0 -0.46202672064839212 -0.40007602488395211 0 -0.44257020456291563 -0.38918913383950271 0 -0.44727608925983742 -0.41095911152778891 0 -0.46202672064839212 -0.40007602488395211 0 -0.44257020456291563 -0.38918913383950271 0 -0.44257020456291563 -0.38918913383950271 0 -0.44727608925983742 -0.41095911152778891 0 -0.43479358559901082 -0.4041454901736512 0 -0.44257020456291563 -0.38918913383950271 0 -0.4540003998136638 -0.37455519391687309 0 -0.44172858264042247 -0.37082207246888088 0 -0.45645674801697989 -0.38644133236760531 0 -0.44257020456291563 -0.38918913383950271 0 -0.4540003998136638 -0.37455519391687309 0 -0.46202672064839212 -0.40007602488395211 0 -0.45555437223955858 -0.42914059360647611 0 -0.44727608925983742 -0.41095911152778891 0 -0.46202672064839212 -0.40007602488395211 0 -0.45555437223955858 -0.42914059360647611 0 -0.48101336032419229 -0.41069999664450008 0 -0.46202672064839212 -0.40007602488395211 0 -0.45555437223955858 -0.42914059360647611 0 -0.44727608925983742 -0.41095911152778891 0 -0.43867285131603428 -0.4271457417558665 0 -0.43676601469929588 -0.41441201227470881 0 -0.44727608925983742 -0.41095911152778891 0 -0.43676601469929588 -0.41441201227470881 0 -0.43479358559901082 -0.4041454901736512 0 -0.45555437223955858 -0.42914059360647611 0 -0.44727608925983742 -0.41095911152778891 0 -0.43867285131603428 -0.4271457417558665 0 -0.43867285131603428 -0.4271457417558665 0 -0.42681803064840879 -0.42717069814352421 0 -0.4263356171060747 -0.44269880333887462 0 -0.42681803064840879 -0.42717069814352421 0 -0.41531815884496182 -0.42985383783075998 0 -0.4263356171060747 -0.44269880333887462 0 -0.42681803064840879 -0.42717069814352421 0 -0.42624289495594048 -0.42089725947505818 0 -0.42083332353326591 -0.42146747131641099 0 -0.42681803064840879 -0.42717069814352421 0 -0.43096994786351572 -0.41951492446283251 0 -0.42624289495594048 -0.42089725947505818 0 -0.43867285131603428 -0.4271457417558665 0 -0.42681803064840879 -0.42717069814352421 0 -0.43096994786351572 -0.41951492446283251 0 -0.43867285131603428 -0.4271457417558665 0 -0.43676601469929588 -0.41441201227470881 0 -0.43096994786351572 -0.41951492446283251 0 -0.43676601469929588 -0.41441201227470881 0 -0.43096994786351572 -0.41951492446283251 0 -0.42907264086257813 -0.41311715872526122 0 -0.43676601469929588 -0.41441201227470881 0 -0.42907264086257813 -0.41311715872526122 0 -0.43479358559901082 -0.4041454901736512 0 -0.42907264086257813 -0.41311715872526122 0 -0.43479358559901082 -0.4041454901736512 0 -0.42460885511582858 -0.40417321677700252 0 -0.42907264086257813 -0.41311715872526122 0 -0.41997834854398469 -0.41180534796019508 0 -0.42907264086257813 -0.41311715872526122 0 -0.42635027777857132 -0.41543594397746519 0 -0.41997834854398469 -0.41180534796019508 0 -0.42907264086257813 -0.41311715872526122 0 -0.41997834854398469 -0.41180534796019508 0 -0.42460885511582858 -0.40417321677700252 0 -0.42635027777857132 -0.41543594397746519 0 -0.41997834854398469 -0.41180534796019508 0 -0.42635027777857132 -0.41543594397746519 0 -0.42083332353326591 -0.42146747131641099 0 -0.41997834854398469 -0.41180534796019508 0 -0.43096994786351572 -0.41951492446283251 0 -0.42624289495594048 -0.42089725947505818 0 -0.42635027777857132 -0.41543594397746519 0 -0.43096994786351572 -0.41951492446283251 0 -0.42907264086257813 -0.41311715872526122 0 -0.42635027777857132 -0.41543594397746519 0 -0.42624289495594048 -0.42089725947505818 0 -0.42635027777857132 -0.41543594397746519 0 -0.42083332353326591 -0.42146747131641099 0 -0.42083332353326591 -0.42146747131641099 0 -0.41997834854398469 -0.41180534796019508 0 -0.40992282953163789 -0.42011435591993562 0 -0.41997834854398469 -0.41180534796019508 0 -0.39756877647335259 -0.40857286797681719 0 -0.41997834854398469 -0.41180534796019508 0 -0.40992282953163789 -0.42011435591993562 0 -0.39756877647335259 -0.40857286797681719 0 -0.40992282953163789 -0.42011435591993562 0 -0.41531815884496182 -0.42985383783075998 0 -0.39591554026262499 -0.42887225451549271 0 -0.41531815884496182 -0.42985383783075998 0 -0.39591554026262499 -0.42887225451549271 0 -0.41160927495564159 -0.44339431233754628 0 -0.42083332353326591 -0.42146747131641099 0 -0.40992282953163789 -0.42011435591993562 0 -0.41531815884496182 -0.42985383783075998 0 -0.42681803064840879 -0.42717069814352421 0 -0.42083332353326591 -0.42146747131641099 0 -0.41531815884496182 -0.42985383783075998 0 -0.44257020456291563 -0.38918913383950271 0 -0.42311368847744002 -0.37830224279505142 0 -0.42594061475171041 -0.39368797999533162 0 -0.44257020456291563 -0.38918913383950271 0 -0.42311368847744002 -0.37830224279505142 0 -0.44172858264042247 -0.37082207246888088 0 -0.44257020456291563 -0.38918913383950271 0 -0.42311368847744002 -0.37830224279505142 0 -0.42311368847744002 -0.37830224279505142 0 -0.42594061475171041 -0.39368797999533162 0 -0.416587075656149 -0.38785930376960043 0 -0.44257020456291563 -0.38918913383950271 0 -0.42594061475171041 -0.39368797999533162 0 -0.43479358559901082 -0.4041454901736512 0 -0.42594061475171041 -0.39368797999533162 0 -0.43479358559901082 -0.4041454901736512 0 -0.42460885511582858 -0.40417321677700252 0 -0.41997834854398469 -0.41180534796019508 0 -0.41325908582185972 -0.39811010703057192 0 -0.39770572831670092 -0.39911486077581648 0 -0.41997834854398469 -0.41180534796019508 0 -0.39770572831670092 -0.39911486077581648 0 -0.42594061475171041 -0.39368797999533162 0 -0.42460885511582858 -0.40417321677700252 0 -0.41325908582185972 -0.39811010703057192 0 -0.41997834854398469 -0.41180534796019508 0 -0.42460885511582858 -0.40417321677700252 0 -0.41325908582185972 -0.39811010703057192 0 -0.42594061475171041 -0.39368797999533162 0 -0.41325908582185972 -0.39811010703057192 0 -0.416587075656149 -0.38785930376960043 0 -0.41325908582185972 -0.39811010703057192 0 -0.416587075656149 -0.38785930376960043 0 -0.40403491357358612 -0.38133688525744702 0 -0.42311368847744002 -0.37830224279505142 0 -0.40403491357358612 -0.38133688525744702 0 -0.40365717239196519 -0.36741535175059892 0 -0.42311368847744002 -0.37830224279505142 0 -0.416587075656149 -0.38785930376960043 0 -0.40403491357358612 -0.38133688525744702 0 -0.40403491357358612 -0.38133688525744702 0 -0.39190790742475001 -0.38540387676521748 0 -0.39770572831670092 -0.39911486077581648 0 -0.40403491357358612 -0.38133688525744702 0 -0.39190790742475001 -0.38540387676521748 0 -0.3904578797192948 -0.37473938743617019 0 -0.41325908582185972 -0.39811010703057192 0 -0.40403491357358612 -0.38133688525744702 0 -0.39770572831670092 -0.39911486077581648 0 -0.39770572831670092 -0.39911486077581648 0 -0.37543310808941849 -0.38642437359143528 0 -0.39770572831670092 -0.39911486077581648 0 -0.37515920440272033 -0.40534038799344108 0 -0.37543310808941849 -0.38642437359143528 0 -0.39770572831670092 -0.39911486077581648 0 -0.37515920440272033 -0.40534038799344108 0 -0.39756877647335259 -0.40857286797681719
[...]
<PointData Scalars="" Vectors="displacement," Tensors="">
<DataArray type="Float64" Name="displacement" NumberOfComponents="3" format="ascii">
-7.2833593048181307e-07 -0.014998628411681227 0 -7.2991752421338674e-05 -0.014023741217120632 0 1.5420652981203396e-06 -0.012643215663275304 0 -7.2833593048181307e-07 -0.014998628411681227 0 -6.7222808635072234e-05 -0.014657466279261235 0 -7.2991752421338674e-05 -0.014023741217120632 0 -7.2833593048181307e-07 -0.014998628411681227 0 -6.7222808635072234e-05 -0.014657466279261235 0 2.6197862858488614e-09 -0.014999633488137865 0 -6.7222808635072234e-05 -0.014657466279261235 0 2.6197862858488614e-09 -0.014999633488137865 0 -3.7005500042271142e-05 -0.014657566129540984 0 2.6197862858488614e-09 -0.014999633488137865 0 -3.7005500042271142e-05 -0.014657566129540984 0 -2.918031460857646e-05 -0.014899299855548208 0 -0.00012802340152808249 -0.013738498088965155 0 5.0220790516089321e-06 -0.01334795941137551 0 -3.7005500042271142e-05 -0.014657566129540984 0 0.00016895461975372398 -0.014644530562502013 0 0.0001821874953420776 -0.014727773369817072 0 -3.7005500042271142e-05 -0.014657566129540984 0 0.0001821874953420776 -0.014727773369817072 0 8.9383098577212902e-05 -0.014822165531601627 0 -6.7222808635072234e-05 -0.014657466279261235 0 -3.7005500042271142e-05 -0.014657566129540984 0 -7.2991752421338674e-05 -0.014023741217120632 0 -3.7005500042271142e-05 -0.014657566129540984 0 -7.2991752421338674e-05 -0.014023741217120632 0 0.00026708177481402339 -0.014304995037773096 0 -7.2991752421338674e-05 -0.014023741217120632 0 0.00056758981781823681 -0.013553403940731944 0 0.00026708177481402339 -0.014304995037773096 0 -7.2991752421338674e-05 -0.014023741217120632 0 1.5420652981203396e-06 -0.012643215663275304 0 0.00056758981781823681 -0.013553403940731944 0 8.4871290380035913e-07 -0.012638422957144431 0 0.00012912504028847393 -0.011654643140816311 0 -3.5815287712194688e-07 -0.011816591693015225 0 5.2903660725083256e-07 -0.012639226510705022 0 0.00022293742101494102 -0.012413012625478559 0 -3.5815287712194688e-07 -0.011816591693015225 0 -3.4031893944476467e-05 -0.011352383607336407 0 -7.1837780605938528e-05 -0.011049220249675929 0 -3.5815287712194688e-07 -0.011816591693015225 0 -1.0921373533004942e-07 -0.010993360127825811 0 -7.1837780605938528e-05 -0.011049220249675929 0 0.00012912504028847393 -0.011654643140816311 0 -3.5815287712194688e-07 -0.011816591693015225 0 -3.4031893944476467e-05 -0.011352383607336407 0 0.00012912504028847393 -0.011654643140816311 0 -3.4031893944476467e-05 -0.011352383607336407 0 5.6635643867475194e-05 -0.011241709730338282 0 0.00022293742101494102 -0.012413012625478559 0 0.00032835305101349934 -0.01195801781743595 0 -3.4031893944476467e-05 -0.011352383607336407 0 -8.8405266582268323e-05 -0.011144310372464083 0 5.6635643867475194e-05 -0.011241709730338282 0 -3.4031893944476467e-05 -0.011352383607336407 0 -8.8405266582268323e-05 -0.011144310372464083 0 -7.1837780605938528e-05 -0.011049220249675929 0 0.00023604567298468411 -0.01086174695741448 0 0.00032835305101349934 -0.01195801781743595 0 0.0003451998655899744 -0.008738267381537667 0 0.00023093088748103903 -0.0088539997534569353 0 8.2344532796892918e-05 -0.0087972587883544794 0 0.0003451998655899744 -0.008738267381537667 0 0.00023093088748103903 -0.0088539997534569353 0 0.00035293297121590037 -0.0088734586883380314 0 0.00023093088748103903 -0.0088539997534569353 0 8.2344532796892918e-05 -0.0087972587883544794 0 0.00019689292161087976 -0.0090041908069807206 0 0.00024045075978921772 -0.014675993306524608 0 0.00021235504070982923 -0.014713063787751049 0 0.0002281253620638688 -0.014696276707493391 0 0.00032835305101349934 -0.01195801781743595 0 0.00028488547577935815 -0.011830411092107342 0 0.00021235504070982923 -0.014713063787751049 0 0.0002281253620638688 -0.014696276707493391 0 0.00023297070128554197 -0.014711026942892586 0 0.00019689292161087976 -0.0090041908069807206 0 0.00035293297121590037 -0.0088734586883380314 0 0.00038976651290188751 -0.0090093218553420999 0 0.00023093088748103903 -0.0088539997534569353 0 0.00019689292161087976 -0.0090041908069807206 0 0.00035293297121590037 -0.0088734586883380314 0 0.00024045075978921772 -0.014675993306524608 0 0.00016895461975372398 -0.014644530562502013 0 0.0002281253620638688 -0.014696276707493391 0 0.00032835305101349934 -0.01195801781743595 0 5.0220790516089321e-06 -0.01334795941137551 0 0.00056758981781823681 -0.013553403940731944 0 0.00087601432281667068 -0.014055914864155339 0 0.00026708177481402339 -0.014304995037773096 0 0.0002281253620638688 -0.014696276707493391 0 0.0001821874953420776 -0.014727773369817072 0 0.00023001352450955045 -0.014721350949524856 0 0.0002281253620638688 -0.014696276707493391 0 0.00023001352450955045 -0.014721350949524856 0 0.00023297070128554197 -0.014711026942892586 0 0.00016895461975372398 -0.014644530562502013 0 0.0002281253620638688 -0.014696276707493391 0 0.0001821874953420776 -0.014727773369817072 0 0.0001821874953420776 -0.014727773369817072 0 0.00017428407048762588 -0.014792180754308841 0 8.9383098577212902e-05 -0.014822165531601627 0 0.00017428407048762588 -0.014792180754308841 0 0.00015716137150340083 -0.014865068580746465 0 8.9383098577212902e-05 -0.014822165531601627 0 0.00017428407048762588 -0.014792180754308841 0 0.0002069493425626308 -0.014783197676148472 0 0.00020259395951125288 -0.014822502351450601 0 0.00017428407048762588 -0.014792180754308841 0 0.00021472398024823908 -0.014749311210662868 0 0.0002069493425626308 -0.014783197676148472 0 0.0001821874953420776 -0.014727773369817072 0 0.00017428407048762588 -0.014792180754308841 0 0.00021472398024823908 -0.014749311210662868 0 0.0001821874953420776 -0.014727773369817072 0 0.00023001352450955045 -0.014721350949524856 0 0.00021472398024823908 -0.014749311210662868 0 0.00023001352450955045 -0.014721350949524856 0 0.00021472398024823908 -0.014749311210662868 0 0.00025464189539156461 -0.014730824960875001 0 0.00023001352450955045 -0.014721350949524856 0 0.00025464189539156461 -0.014730824960875001 0 0.00023297070128554197 -0.014711026942892586 0 0.00025464189539156461 -0.014730824960875001 0 0.00023297070128554197 -0.014711026942892586 0 0.00023671173344657603 -0.014681362630971697 0 0.00054657870311337854 -0.01440726996533899 0 0.00055212520368851776 -0.014367437864568226 0 0.00025464189539156461 -0.014730824960875001 0 0.00023698771902328915 -0.014769831917603934 0 0.00028505362033901872 -0.014847313427446791 0 0.00025464189539156461 -0.014730824960875001 0 0.00027854442903837263 -0.014658216095318874 0 0.00023671173344657603 -0.014681362630971697 0 0.00055194273114385882 -0.014387394371725081 0 0.00055212520368851776 -0.014367437864568226 0 0.00023698771902328915 -0.014769831917603934 0 0.00020259395951125288 -0.014822502351450601 0 0.00026343054218013167 -0.014826530266298106 0 0.00021472398024823908 -0.014749311210662868 0 0.0002069493425626308 -0.014783197676148472 0 0.00023698771902328915 -0.014769831917603934 0 0.00021472398024823908 -0.014749311210662868 0 0.00025464189539156461 -0.014730824960875001 0 0.00023698771902328915 -0.014769831917603934 0 0.0002069493425626308 -0.014783197676148472 0 0.00023698771902328915 -0.014769831917603934 0 0.00020259395951125288 -0.014822502351450601 0 0.00020259395951125288 -0.014822502351450601 0 0.00026343054218013167 -0.014826530266298106 0 0.0002108898124716209 -0.014889956602818619 0 0.00055212520368851776 -0.014367437864568226 0 0.00045919186761875301 -0.014279432192437722 0 0.00026343054218013167 -0.014826530266298106 0 0.0002108898124716209 -0.014889956602818619 0 0.00027313459644680472 -0.014957772792821282 0 0.0002108898124716209 -0.014889956602818619 0 0.00015716137150340083 -0.014865068580746465 0 0.00016337104804812013 -0.014967674800111731 0 0.00015716137150340083 -0.014865068580746465 0 0.00016337104804812013 -0.014967674800111731 0 8.7201934858161973e-05 -0.014896457292697687 0 0.00020259395951125288 -0.014822502351450601 0 0.0002108898124716209 -0.014889956602818619 0 0.00015716137150340083 -0.014865068580746465 0 0.00017428407048762588 -0.014792180754308841 0 0.00020259395951125288 -0.014822502351450601 0 0.00015716137150340083 -0.014865068580746465 0 0.00021235504070982923 -0.014713063787751049 0 0.00011975459854013223 -0.014655824586953496 0 0.00020039234181634308 -0.014674474946762885 0 0.00019689292161087976 -0.0090041908069807206 0 0.00030702322218491339 -0.009219052377718466 0 0.00038976651290188751 -0.0090093218553420999 0 0.00028488547577935815 -0.011830411092107342 0 0.0003108079889718884 -0.011752402392609851 0 0.00011975459854013223 -0.014655824586953496 0 0.00020039234181634308 -0.014674474946762885 0 0.00016575343857528892 -0.014620366000046337 0 0.00021235504070982923 -0.014713063787751049 0 0.00020039234181634308 -0.014674474946762885 0 0.00023297070128554197 -0.014711026942892586 0 0.00020039234181634308 -0.014674474946762885 0 0.00023297070128554197 -0.014711026942892586 0 0.00023671173344657603 -0.014681362630971697 0 0.00027854442903837263 -0.014658216095318874 0 0.0002190973974944564 -0.01460683263000841 0 0.00023797153093365901 -0.014499325637892451 0 0.00055212520368851776 -0.014367437864568226 0 0.00057967958897492985 -0.013906953986504171 0 0.00020039234181634308 -0.014674474946762885 0 0.00023671173344657603 -0.014681362630971697 0 0.0002190973974944564 -0.01460683263000841 0 0.00027854442903837263 -0.014658216095318874 0 0.00023671173344657603 -0.014681362630971697 0 0.0002190973974944564 -0.01460683263000841 0 0.00020039234181634308 -0.014674474946762885 0 0.0002190973974944564 -0.01460683263000841 0 0.00016575343857528892 -0.014620366000046337 0 0.0002190973974944564 -0.01460683263000841 0 0.00016575343857528892 -0.014620366000046337 0 0.0001216429986315261 -0.014540062771588435 0 0.00011975459854013223 -0.014655824586953496 0 0.0001216429986315261 -0.014540062771588435 0 3.9186037387927255e-05 -0.014533241167480638 0 0.00011975459854013223 -0.014655824586953496 0 0.00016575343857528892 -0.014620366000046337 0 0.0001216429986315261 -0.014540062771588435 0 0.0001216429986315261 -0.014540062771588435 0 0.00014581364789435102 -0.014447615696037733 0 0.00023797153093365901 -0.014499325637892451 0 0.0001216429986315261 -0.014540062771588435 0 0.00014581364789435102 -0.014447615696037733 0 6.4723756655328722e-05 -0.014431627018708567 0 0.0002190973974944564 -0.01460683263000841 0 0.0001216429986315261 -0.014540062771588435 0 0.00023797153093365901 -0.014499325637892451 0 0.00057967958897492985 -0.013906953986504171 0 0.00053287550358700243 -0.01296581840113748 0 0.00055178060324722288 -0.013873543693157143 0 0.00065464492249725764 -0.013499665352286748 0 0.00034201020985496035 -0.013503232014140526 0 0.00055178060324722288 -0.013873543693157143 0 0.00065464492249725764 -0.013499665352286748 0 0.00070841424451606222 -0.01387160302154395 0 0.00031708656227665677 -0.013889174024864368 0 0.00053287550358700243 -0.01296581840113748 0 0.00015653345567673198 -0.014315422268001508 0 6.4723756655328722e-05 -0.014431627018708567 0 2.055237156174396e-05 -0.014310348625776997 0 0.00014581364789435102 -0.014447615696037733 0 0.00015653345567673198 -0.014315422268001508 0 6.4723756655328722e-05 -0.014431627018708567 0 0.00053287550358700243 -0.01296581840113748 0 0.00036993776382677552 -0.012154148801381668 0 0.00014581364789435102 -0.014447615696037733 0 0.00023797153093365901 -0.014499325637892451 0 0.00015653345567673198 -0.014315422268001508 0 0.00076179801853962182 -0.014244218272737865 0 0.00055178060324722288 -0.013873543693157143 0 0.00070841424451606222 -0.01387160302154395 0 0.0002108898124716209 -0.014889956602818619 0 0.00016337104804812013 -0.014967674800111731 0 0.00027313459644680472 -0.014957772792821282 0 0.00028801516956582836 -0.01507258580871663 0 0.00016337104804812013 -0.014967674800111731 0 0.00027313459644680472 -0.014957772792821282 0 0.00031708656227665677 -0.013889174024864368 0 0.00045919186761875301 -0.014279432192437722 0 0.00028801516956582836 -0.01507258580871663 0 0.00016337104804812013 -0.014967674800111731 0 0.00013022251848774906 -0.015074437814762275 0 0.00016337104804812013 -0.014967674800111731 0 7.4673748484216062e-05 -0.014983451491852741 0 0.00013022251848774906 -0.015074437814762275 0 7.4673748484216062e-05 -0.014983451491852741 0 -1.8223166260496312e-05 -0.01507499088113181 0 0.00013022251848774906 -0.015074437814762275 0 0.00016337104804812013 -0.014967674800111731 0 7.4673748484216062e-05 -0.014983451491852741 0 8.7201934858161973e-05 -0.014896457292697687 0 7.4673748484216062e-05 -0.014983451491852741 0 2.1886166623105054e-05 -0.014931715547438959 0 8.7201934858161973e-05 -0.014896457292697687 0 2.0450806054665122e-05 -0.014943996316976632 0 -9.2333954126152579e-06 -0.014979397305869198 0 -9.5047225330010869e-06 -0.014930681973574285 0 2.2164092401943798e-06 -0.014997564575178082 0 1.7904289676023952e-06 -0.014998880859409841 0 3.9823334486919476e-07 -0.014998891982663173 0 2.8689916816714994e-05 -0.014954297014795163 0 2.5865058806029988e-06 -0.014983991255731558 0 2.8689916816714994e-05 -0.014954297014795163 0 2.8713282868161109e-05 -0.014954108274852567 0 2.8689916816714994e-05 -0.014954297014795163 0 3.1306666378728871e-05 -0.014935212365996552 0 7.4673748484216062e-05 -0.014983451491852741 0 2.1886166623105054e-05 -0.014931715547438959 0 1.7815033907124824e-06 -0.015002550739491598 0 7.4673748484216062e-05 -0.014983451491852741 0 1.7815033907124824e-06 -0.015002550739491598 0 -1.8223166260496312e-05 -0.01507499088113181 0 3.1306666378728871e-05 -0.014935212365996552 0 5.2206488886610687e-05 -0.014857195919147885 0 1.7904289676023952e-06 -0.014998880859409841 0 9.0381959389300106e-07 -0.01499928645736338 0 1.4104492305029463e-06 -0.014999873045970807 0 9.0381959389300106e-07 -0.01499928645736338 0 3.9823334486919476e-07 -0.014998891982663173 0 3.1059394264345338e-07 -0.014999837146811162 0 3.9823334486919476e-07 -0.014998891982663173 0 1.5387312945576136e-07 -0.014999887239671073 0 3.1059394264345338e-07 -0.014999837146811162 0 9.0381959389300106e-07 -0.01499928645736338 0 3.1059394264345338e-07 -0.014999837146811162 0 1.4104492305029463e-06 -0.014999873045970807 0 1.7904289676023952e-06 -0.014998880859409841 0 9.0381959389300106e-07 -0.01499928645736338 0 3.9823334486919476e-07 -0.014998891982663173 0 -1.0742660979643841e-08 -0.014999975878006101 0 2.5865058806029988e-06 -0.014983991255731558 0 -6.5132632662441422e-10 -0.014999999008695546 0 3.9823334486919476e-07 -0.014998891982663173 0 1.5387312945576136e-07 -0.014999887239671073 0 2.4365883267446173e-08 -0.014999993091135257 0 -9.2333954126152579e-06 -0.014979397305869198 0 -6.0367370270908645e-08 -0.014999948981274632 0 -9.2333954126152579e-06 -0.014979397305869198 0 -9.5047225330010869e-06 -0.014930681973574285 0 -6.0367370270908645e-08 -0.014999948981274632 0 -9.5047225330010869e-06 -0.014930681973574285 0 -6.0367370270908645e-08 -0.014999948981274632 0 -2.918031460857646e-05 -0.014899299855548208 0 2.6197862858488614e-09 -0.014999633488137865 0 -6.0367370270908645e-08 -0.014999948981274632 0 -2.918031460857646e-05 -0.014899299855548208 0 -9.5047225330010869e-06 -0.014930681973574285 0 -2.918031460857646e-05 -0.014899299855548208 0 8.5843615196705843e-07 -0.014851624385973117 0 -3.7005500042271142e-05 -0.014657566129540984 0 -2.918031460857646e-05 -0.014899299855548208 0 8.5843615196705843e-07 -0.014851624385973117 0 -3.7005500042271142e-05 -0.014657566129540984 0 8.5843615196705843e-07 -0.014851624385973117 0 8.9383098577212902e-05 -0.014822165531601627 0 8.5843615196705843e-07 -0.014851624385973117 0 8.9383098577212902e-05 -0.014822165531601627 0 3.4344583931575844e-05 -0.014888439471224051 0 8.9383098577212902e-05 -0.014822165531601627 0 8.7201934858161973e-05 -0.014896457292697687 0 3.4344583931575844e-05 -0.014888439471224051 0 0.00015716137150340083 -0.014865068580746465 0 8.9383098577212902e-05 -0.014822165531601627 0 8.7201934858161973e-05 -0.014896457292697687 0 2.0726668598648096e-05 -0.014949738508068144 0 8.7201934858161973e-05 -0.014896457292697687 0 2.3708109699390865e-05 -0.014935428829792846 0 8.7201934858161973e-05 -0.014896457292697687 0 2.3708109699390865e-05 -0.014935428829792846 0 3.4344583931575844e-05 -0.014888439471224051 0 2.8689916816714994e-05 -0.014954297014795163 0 4.1037402178440745e-05 -0.014945361081151472 0 -9.5047225330010869e-06 -0.014930681973574285 0 2.3708109699390865e-05 -0.014935428829792846 0 3.4344583931575844e-05 -0.014888439471224051 0 2.0450806054665122e-05 -0.014943996316976632 0 -9.5047225330010869e-06 -0.014930681973574285 0 2.3708109699390865e-05 -0.014935428829792846 0 -9.5047225330010869e-06 -0.014930681973574285 0 8.5843615196705843e-07 -0.014851624385973117 0 3.4344583931575844e-05 -0.014888439471224051 0 0.00048800071155320112 -0.00772199611681023 0 0.00069057155356519711 -0.0073448479890441615 0 0.00021641285877266781 -0.0075270850152447059 0 0.00025708636506782472 -0.0072880367603746637 0 0.00014400732002892348 -0.0074488132080437241 0 -5.165472676947692e-05 -0.00839684158473223 0 6.2948068541490715e-05 -0.0083785073091047872 0 3.354575209994268e-05 -0.0084331209161701993 0 -5.165472676947692e-05 -0.00839684158473223 0 -3.0176773992157154e-05 -0.0084101181360349761 0 3.354575209994268e-05 -0.0084331209161701993 0 -5.165472676947692e-05 -0.00839684158473223 0 -2.9680493309801995e-05 -0.0083692282378787942 0 -3.0176773992157154e-05 -0.0084101181360349761 0 -5.165472676947692e-05 -0.00839684158473223 0 -4.7815062242013534e-05 -0.0082792529990038354 0 -7.7416987982383912e-05 -0.0084261420654155161 0 -5.165472676947692e-05 -0.00839684158473223 0 -4.7815062242013534e-05 -0.0082792529990038354 0 6.2948068541490715e-05 -0.0083785073091047872 0 0.00048800071155320112 -0.00772199611681023 0 0.00042047449391431326 -0.007790599991542321 0 -4.7815062242013534e-05 -0.0082792529990038354 0 6.2948068541490715e-05 -0.0083785073091047872 0 6.1259503265742872e-05 -0.0079314398027094946 0 0.00021641285877266781 -0.0075270850152447059 0 6.1259503265742872e-05 -0.0079314398027094946 0 2.308773699035567e-05 -0.0076374560013796966 0 6.1259503265742872e-05 -0.0079314398027094946 0 -1.7557033001404019e-07 -0.0077008258054177877 0 -5.2514029779506828e-05 -0.0082571763792625916 0 6.1259503265742872e-05 -0.0079314398027094946 0 -1.7557033001404019e-07 -0.0077008258054177877 0 -9.3177341282271597e-06 -0.0075282993391871441 0 -1.7557033001404019e-07 -0.0077008258054177877 0 -5.2514029779506828e-05 -0.0082571763792625916 0 -1.5529529041184895e-07 -0.0085240591465270896 0 -4.7815062242013534e-05 -0.0082792529990038354 0 6.1259503265742872e-05 -0.0079314398027094946 0 -5.2514029779506828e-05 -0.0082571763792625916 0 -4.7815062242013534e-05 -0.0082792529990038354 0 -5.2514029779506828e-05 -0.0082571763792625916 0 -7.7416987982383912e-05 -0.0084261420654155161 0 -7.7416987982383912e-05 -0.0084261420654155161 0 -3.2547741346365161e-05 -0.0086875114202175554 0 -9.6792211640699511e-06 -0.00863556419553437 0 -5.2514029779506828e-05 -0.0082571763792625916 0 -7.7416987982383912e-05 -0.0084261420654155161 0 -3.2547741346365161e-05 -0.0086875114202175554 0 -1.5529529041184895e-07 -0.0085240591465270896 0 -3.2547741346365161e-05 -0.0086875114202175554 0 1.9665777234516498e-07 -0.0093471348367720787 0 -5.2514029779506828e-05 -0.0082571763792625916 0 -1.5529529041184895e-07 -0.0085240591465270896 0 -3.2547741346365161e-05 -0.0086875114202175554 0 -3.2547741346365161e-05 -0.0086875114202175554 0 1.9665777234516498e-07 -0.0093471348367720787 0 6.34794271473301e-05 -0.0090202220780365057 0 6.34794271473301e-05 -0.0090202220780365057 0 -9.6792211640699511e-06 -0.00863556419553437 0 0.00023551634201079993 -0.0087371916297748521 0 -3.2547741346365161e-05 -0.0086875114202175554 0 6.34794271473301e-05 -0.0090202220780365057 0 -9.6792211640699511e-06 -0.00863556419553437 0 -9.6792211640699511e-06 -0.00863556419553437 0 0.0001105721775009827 -0.0085369492106151124 0 0.00023551634201079993 -0.008737191629774852