<?xml version="1.0"?>
<VTKFile type="UnstructuredGrid" version="0.1" byte_order="LittleEndian">
<UnstructuredGrid>
<Piece NumberOfPoints="31898" NumberOfCells="11152">
<Points>
<DataArray type="Float64" NumberOfComponents="3" format="ascii">
-0.5 -0.5 0 -0.47620991077874902 -0.44978878706170539 0 -0.49999999999999473 -0.42132396840504388 0 -0.5 -0.5 0 -0.47160970827802529 -0.4793630013852106 0 -0.47620991077874902 -0.44978878706170539 0 -0.5 -0.5 0 -0.47160970827802529 -0.4793630013852106 0 -0.44860394795025399 -0.5 0 -0.47160970827802529 -0.4793630013852106 0 -0.44860394795025399 -0.5 0 -0.4490820238307246 -0.45820516232899983 0 -0.44860394795025399 -0.5 0 -0.4490820238307246 -0.45820516232899983 0 -0.42881687682924802 -0.47781464288736519 0 -0.4490820238307246 -0.45820516232899983 0 -0.45555437223955858 -0.42914059360647611 0 -0.4490820238307246 -0.45820516232899983 0 -0.45555437223955858 -0.42914059360647611 0 -0.43867285131603428 -0.4271457417558665 0 -0.4490820238307246 -0.45820516232899983 0 -0.43867285131603428 -0.4271457417558665 0 -0.4263356171060747 -0.44269880333887462 0 -0.47160970827802529 -0.4793630013852106 0 -0.4490820238307246 -0.45820516232899983 0 -0.47620991077874902 -0.44978878706170539 0 -0.4490820238307246 -0.45820516232899983 0 -0.47620991077874902 -0.44978878706170539 0 -0.45555437223955858 -0.42914059360647611 0 -0.47620991077874902 -0.44978878706170539 0 -0.48101336032419229 -0.41069999664450008 0 -0.45555437223955858 -0.42914059360647611 0 -0.47620991077874902 -0.44978878706170539 0 -0.49999999999999473 -0.42132396840504388 0 -0.48101336032419229 -0.41069999664450008 0 -0.49999999999999473 -0.42132396840504388 0 -0.48101336032419229 -0.41069999664450008 0 -0.5 -0.393886241813306 0 -0.49999999999999473 -0.42132396840504388 0 -0.48101336032419229 -0.41069999664450008 0 -0.5 -0.393886241813306 0 -0.47854472220918332 -0.38978458738689759 0 -0.48422759779560409 -0.37130120630367158 0 -0.5 -0.393886241813306 0 -0.5 -0.36644851522156802 0 -0.48422759779560409 -0.37130120630367158 0 -0.48101336032419229 -0.41069999664450008 0 -0.5 -0.393886241813306 0 -0.47854472220918332 -0.38978458738689759 0 -0.48101336032419229 -0.41069999664450008 0 -0.47854472220918332 -0.38978458738689759 0 -0.46202672064839212 -0.40007602488395211 0 -0.48101336032419229 -0.41069999664450008 0 -0.46202672064839212 -0.40007602488395211 0 -0.47854472220918332 -0.38978458738689759 0 -0.46725442735267431 -0.37660061361585562 0 -0.46202672064839212 -0.40007602488395211 0 -0.47854472220918332 -0.38978458738689759 0 -0.46725442735267431 -0.37660061361585562 0 -0.48422759779560409 -0.37130120630367158 0 -0.46725442735267431 -0.37660061361585562 0 -0.46202672064839212 -0.40007602488395211 0 -0.46725442735267431 -0.37660061361585562 0 -0.45645674801697989 -0.38644133236760531 0 -0.46202672064839212 -0.40007602488395211 0 -0.46725442735267431 -0.37660061361585562 0 -0.45645674801697989 -0.38644133236760531 0 -0.4540003998136638 -0.37455519391687309 0 -0.45645674801697989 -0.38644133236760531 0 -0.46202672064839212 -0.40007602488395211 0 -0.44257020456291563 -0.38918913383950271 0 -0.46202672064839212 -0.40007602488395211 0 -0.44257020456291563 -0.38918913383950271 0 -0.44727608925983742 -0.41095911152778891 0 -0.46202672064839212 -0.40007602488395211 0 -0.44257020456291563 -0.38918913383950271 0 -0.44257020456291563 -0.38918913383950271 0 -0.44727608925983742 -0.41095911152778891 0 -0.43479358559901082 -0.4041454901736512 0 -0.44257020456291563 -0.38918913383950271 0 -0.4540003998136638 -0.37455519391687309 0 -0.44172858264042247 -0.37082207246888088 0 -0.45645674801697989 -0.38644133236760531 0 -0.44257020456291563 -0.38918913383950271 0 -0.4540003998136638 -0.37455519391687309 0 -0.46202672064839212 -0.40007602488395211 0 -0.45555437223955858 -0.42914059360647611 0 -0.44727608925983742 -0.41095911152778891 0 -0.46202672064839212 -0.40007602488395211 0 -0.45555437223955858 -0.42914059360647611 0 -0.48101336032419229 -0.41069999664450008 0 -0.46202672064839212 -0.40007602488395211 0 -0.45555437223955858 -0.42914059360647611 0 -0.44727608925983742 -0.41095911152778891 0 -0.43867285131603428 -0.4271457417558665 0 -0.43676601469929588 -0.41441201227470881 0 -0.44727608925983742 -0.41095911152778891 0 -0.43676601469929588 -0.41441201227470881 0 -0.43479358559901082 -0.4041454901736512 0 -0.45555437223955858 -0.42914059360647611 0 -0.44727608925983742 -0.41095911152778891 0 -0.43867285131603428 -0.4271457417558665 0 -0.43867285131603428 -0.4271457417558665 0 -0.42681803064840879 -0.42717069814352421 0 -0.4263356171060747 -0.44269880333887462 0 -0.42681803064840879 -0.42717069814352421 0 -0.41531815884496182 -0.42985383783075998 0 -0.4263356171060747 -0.44269880333887462 0 -0.42681803064840879 -0.42717069814352421 0 -0.42624289495594048 -0.42089725947505818 0 -0.42083332353326591 -0.42146747131641099 0 -0.42681803064840879 -0.42717069814352421 0 -0.43096994786351572 -0.41951492446283251 0 -0.42624289495594048 -0.42089725947505818 0 -0.43867285131603428 -0.4271457417558665 0 -0.42681803064840879 -0.42717069814352421 0 -0.43096994786351572 -0.41951492446283251 0 -0.43867285131603428 -0.4271457417558665 0 -0.43676601469929588 -0.41441201227470881 0 -0.43096994786351572 -0.41951492446283251 0 -0.43676601469929588 -0.41441201227470881 0 -0.43096994786351572 -0.41951492446283251 0 -0.42907264086257813 -0.41311715872526122 0 -0.43676601469929588 -0.41441201227470881 0 -0.42907264086257813 -0.41311715872526122 0 -0.43479358559901082 -0.4041454901736512 0 -0.42907264086257813 -0.41311715872526122 0 -0.43479358559901082 -0.4041454901736512 0 -0.42460885511582858 -0.40417321677700252 0 -0.42907264086257813 -0.41311715872526122 0 -0.41997834854398469 -0.41180534796019508 0 -0.42907264086257813 -0.41311715872526122 0 -0.42635027777857132 -0.41543594397746519 0 -0.41997834854398469 -0.41180534796019508 0 -0.42907264086257813 -0.41311715872526122 0 -0.41997834854398469 -0.41180534796019508 0 -0.42460885511582858 -0.40417321677700252 0 -0.42635027777857132 -0.41543594397746519 0 -0.41997834854398469 -0.41180534796019508 0 -0.42635027777857132 -0.41543594397746519 0 -0.42083332353326591 -0.42146747131641099 0 -0.41997834854398469 -0.41180534796019508 0 -0.43096994786351572 -0.41951492446283251 0 -0.42624289495594048 -0.42089725947505818 0 -0.42635027777857132 -0.41543594397746519 0 -0.43096994786351572 -0.41951492446283251 0 -0.42907264086257813 -0.41311715872526122 0 -0.42635027777857132 -0.41543594397746519 0 -0.42624289495594048 -0.42089725947505818 0 -0.42635027777857132 -0.41543594397746519 0 -0.42083332353326591 -0.42146747131641099 0 -0.42083332353326591 -0.42146747131641099 0 -0.41997834854398469 -0.41180534796019508 0 -0.40992282953163789 -0.42011435591993562 0 -0.41997834854398469 -0.41180534796019508 0 -0.39756877647335259 -0.40857286797681719 0 -0.41997834854398469 -0.41180534796019508 0 -0.40992282953163789 -0.42011435591993562 0 -0.39756877647335259 -0.40857286797681719 0 -0.40992282953163789 -0.42011435591993562 0 -0.41531815884496182 -0.42985383783075998 0 -0.39591554026262499 -0.42887225451549271 0 -0.41531815884496182 -0.42985383783075998 0 -0.39591554026262499 -0.42887225451549271 0 -0.41160927495564159 -0.44339431233754628 0 -0.42083332353326591 -0.42146747131641099 0 -0.40992282953163789 -0.42011435591993562 0 -0.41531815884496182 -0.42985383783075998 0 -0.42681803064840879 -0.42717069814352421 0 -0.42083332353326591 -0.42146747131641099 0 -0.41531815884496182 -0.42985383783075998 0 -0.44257020456291563 -0.38918913383950271 0 -0.42311368847744002 -0.37830224279505142 0 -0.42594061475171041 -0.39368797999533162 0 -0.44257020456291563 -0.38918913383950271 0 -0.42311368847744002 -0.37830224279505142 0 -0.44172858264042247 -0.37082207246888088 0 -0.44257020456291563 -0.38918913383950271 0 -0.42311368847744002 -0.37830224279505142 0 -0.42311368847744002 -0.37830224279505142 0 -0.42594061475171041 -0.39368797999533162 0 -0.416587075656149 -0.38785930376960043 0 -0.44257020456291563 -0.38918913383950271 0 -0.42594061475171041 -0.39368797999533162 0 -0.43479358559901082 -0.4041454901736512 0 -0.42594061475171041 -0.39368797999533162 0 -0.43479358559901082 -0.4041454901736512 0 -0.42460885511582858 -0.40417321677700252 0 -0.41997834854398469 -0.41180534796019508 0 -0.41325908582185972 -0.39811010703057192 0 -0.39770572831670092 -0.39911486077581648 0 -0.41997834854398469 -0.41180534796019508 0 -0.39770572831670092 -0.39911486077581648 0 -0.42594061475171041 -0.39368797999533162 0 -0.42460885511582858 -0.40417321677700252 0 -0.41325908582185972 -0.39811010703057192 0 -0.41997834854398469 -0.41180534796019508 0 -0.42460885511582858 -0.40417321677700252 0 -0.41325908582185972 -0.39811010703057192 0 -0.42594061475171041 -0.39368797999533162 0 -0.41325908582185972 -0.39811010703057192 0 -0.416587075656149 -0.38785930376960043 0 -0.41325908582185972 -0.39811010703057192 0 -0.416587075656149 -0.38785930376960043 0 -0.40403491357358612 -0.38133688525744702 0 -0.42311368847744002 -0.37830224279505142 0 -0.40403491357358612 -0.38133688525744702 0 -0.40365717239196519 -0.36741535175059892 0 -0.42311368847744002 -0.37830224279505142 0 -0.416587075656149 -0.38785930376960043 0 -0.40403491357358612 -0.38133688525744702 0 -0.40403491357358612 -0.38133688525744702 0 -0.39190790742475001 -0.38540387676521748 0 -0.39770572831670092 -0.39911486077581648 0 -0.40403491357358612 -0.38133688525744702 0 -0.39190790742475001 -0.38540387676521748 0 -0.3904578797192948 -0.37473938743617019 0 -0.41325908582185972 -0.39811010703057192 0 -0.40403491357358612 -0.38133688525744702 0 -0.39770572831670092 -0.39911486077581648 0 -0.39770572831670092 -0.39911486077581648 0 -0.37543310808941849 -0.38642437359143528 0 -0.39770572831670092 -0.39911486077581648 0 -0.37515920440272033 -0.40534038799344108 0 -0.37543310808941849 -0.38642437359143528 0 -0.39770572831670092 -0.39911486077581648 0 -0.37515920440272033 -0.40534038799344108 0 -0.39756877647335259 -0.40857286797681719
[...]
<PointData Scalars="" Vectors="displacement," Tensors="">
<DataArray type="Float64" Name="displacement" NumberOfComponents="3" format="ascii">
-0.014998917918543402 -0.014999155363980811 0 -0.013984207018642909 -0.014732600490290808 0 -0.01264426076796544 -0.014998001328208754 0 -0.014998917918543402 -0.014999155363980811 0 -0.014760753712391498 -0.014453049981077709 0 -0.013984207018642909 -0.014732600490290808 0 -0.014998917918543402 -0.014999155363980811 0 -0.014760753712391498 -0.014453049981077709 0 -0.014999159683845959 -0.01345941405116227 0 -0.014760753712391498 -0.014453049981077709 0 -0.014999159683845959 -0.01345941405116227 0 -0.014851727831273811 -0.014244355471314644 0 -0.014999159683845959 -0.01345941405116227 0 -0.014851727831273811 -0.014244355471314644 0 -0.015047774043298601 -0.013182873237177603 0 -0.014551299680200736 -0.014646141330452942 0 -0.014494192652991891 -0.014764336926497567 0 -0.014851727831273811 -0.014244355471314644 0 -0.016137694641676425 -0.014374941834261523 0 -0.016238213138849111 -0.013733817417417507 0 -0.014851727831273811 -0.014244355471314644 0 -0.016238213138849111 -0.013733817417417507 0 -0.015699125972223379 -0.01324049572569256 0 -0.014760753712391498 -0.014453049981077709 0 -0.014851727831273811 -0.014244355471314644 0 -0.013984207018642909 -0.014732600490290808 0 -0.014851727831273811 -0.014244355471314644 0 -0.013984207018642909 -0.014732600490290808 0 -0.013647711234180484 -0.01499121687499344 0 -0.013984207018642909 -0.014732600490290808 0 -0.013014458679014702 -0.014839794425565428 0 -0.013647711234180484 -0.01499121687499344 0 -0.013984207018642909 -0.014732600490290808 0 -0.01264426076796544 -0.014998001328208754 0 -0.013014458679014702 -0.014839794425565428 0 -0.012639715061264567 -0.014999998238354772 0 -0.012320603629317538 -0.015565795647517193 0 -0.011816589332706868 -0.014999997581762592 0 -0.012640161403537428 -0.01500019290861194 0 -0.012844774468133997 -0.015074063455239782 0 -0.011816589332706868 -0.014999997581762592 0 -0.011694694264930219 -0.01563923585971902 0 -0.011140006265535468 -0.015470067948836499 0 -0.011816589332706868 -0.014999997581762592 0 -0.010993456657194207 -0.014999997150727232 0 -0.011140006265535468 -0.015470067948836499 0 -0.012320603629317538 -0.015565795647517193 0 -0.011816589332706868 -0.014999997581762592 0 -0.011694694264930219 -0.01563923585971902 0 -0.012320603629317538 -0.015565795647517193 0 -0.011694694264930219 -0.01563923585971902 0 -0.012004010876038243 -0.016130134990731456 0 -0.012844774468133997 -0.015074063455239782 0 -0.013286247102827253 -0.014813863835373999 0 -0.011694694264930219 -0.01563923585971902 0 -0.01129993138899295 -0.015976120186872445 0 -0.012004010876038243 -0.016130134990731456 0 -0.011694694264930219 -0.01563923585971902 0 -0.01129993138899295 -0.015976120186872445 0 -0.011140006265535468 -0.015470067948836499 0 -0.011391240738256099 -0.01519323722166184 0 -0.013286247102827253 -0.014813863835373999 0 -0.010448766231516395 -0.015853294788665186 0 -0.01042033556646684 -0.015844223839045421 0 -0.010400927135396316 -0.015853474172868569 0 -0.010448766231516395 -0.015853294788665186 0 -0.01042033556646684 -0.015844223839045421 0 -0.010424570813288583 -0.015849727474508159 0 -0.01042033556646684 -0.015844223839045421 0 -0.010400927135396316 -0.015853474172868569 0 -0.010405603425829798 -0.01582015618574598 0 -0.017039197289910577 -0.014447785594830329 0 -0.017295336391720047 -0.013847570592560268 0 -0.016725710519284512 -0.014019165667694084 0 -0.013286247102827253 -0.014813863835373999 0 -0.013413348380048134 -0.014562760911309433 0 -0.017295336391720047 -0.013847570592560268 0 -0.016725710519284512 -0.014019165667694084 0 -0.016909270207212151 -0.013634557122821089 0 -0.010405603425829798 -0.01582015618574598 0 -0.010424570813288583 -0.015849727474508159 0 -0.010425288057780785 -0.015818965847212128 0 -0.01042033556646684 -0.015844223839045421 0 -0.010405603425829798 -0.01582015618574598 0 -0.010424570813288583 -0.015849727474508159 0 -0.017039197289910577 -0.014447785594830329 0 -0.016137694641676425 -0.014374941834261523 0 -0.016725710519284512 -0.014019165667694084 0 -0.013286247102827253 -0.014813863835373999 0 -0.014494192652991891 -0.014764336926497567 0 -0.013014458679014702 -0.014839794425565428 0 -0.012949131643580429 -0.015064049039520702 0 -0.013647711234180484 -0.01499121687499344 0 -0.016725710519284512 -0.014019165667694084 0 -0.016238213138849111 -0.013733817417417507 0 -0.016631754024619829 -0.013683671593874593 0 -0.016725710519284512 -0.014019165667694084 0 -0.016631754024619829 -0.013683671593874593 0 -0.016909270207212151 -0.013634557122821089 0 -0.016137694641676425 -0.014374941834261523 0 -0.016725710519284512 -0.014019165667694084 0 -0.016238213138849111 -0.013733817417417507 0 -0.016238213138849111 -0.013733817417417507 0 -0.016224223093804054 -0.013312380055853243 0 -0.015699125972223379 -0.01324049572569256 0 -0.016224223093804054 -0.013312380055853243 0 -0.016132283696506738 -0.012917036646716278 0 -0.015699125972223379 -0.01324049572569256 0 -0.016224223093804054 -0.013312380055853243 0 -0.016429927600021748 -0.01331104764482618 0 -0.016408895273293141 -0.013117004507179425 0 -0.016224223093804054 -0.013312380055853243 0 -0.016477290466954966 -0.013484774173608507 0 -0.016429927600021748 -0.01331104764482618 0 -0.016238213138849111 -0.013733817417417507 0 -0.016224223093804054 -0.013312380055853243 0 -0.016477290466954966 -0.013484774173608507 0 -0.016238213138849111 -0.013733817417417507 0 -0.016631754024619829 -0.013683671593874593 0 -0.016477290466954966 -0.013484774173608507 0 -0.016631754024619829 -0.013683671593874593 0 -0.016477290466954966 -0.013484774173608507 0 -0.016690255463971931 -0.013450752696695658 0 -0.016631754024619829 -0.013683671593874593 0 -0.016690255463971931 -0.013450752696695658 0 -0.016909270207212151 -0.013634557122821089 0 -0.016690255463971931 -0.013450752696695658 0 -0.016909270207212151 -0.013634557122821089 0 -0.016905104724958049 -0.013377642065233586 0 -0.016145249276583822 -0.01256939640323677 0 -0.016136723468716297 -0.01246763809448569 0 -0.016690255463971931 -0.013450752696695658 0 -0.016609693753539316 -0.013330546223016215 0 -0.016764007864408795 -0.013065215850452004 0 -0.016690255463971931 -0.013450752696695658 0 -0.016741135026949322 -0.013272980457350004 0 -0.016905104724958049 -0.013377642065233586 0 -0.016134887544493944 -0.012506724757836546 0 -0.016136723468716297 -0.01246763809448569 0 -0.016609693753539316 -0.013330546223016215 0 -0.016408895273293141 -0.013117004507179425 0 -0.016737820067556017 -0.013088235463410173 0 -0.016477290466954966 -0.013484774173608507 0 -0.016429927600021748 -0.01331104764482618 0 -0.016609693753539316 -0.013330546223016215 0 -0.016477290466954966 -0.013484774173608507 0 -0.016690255463971931 -0.013450752696695658 0 -0.016609693753539316 -0.013330546223016215 0 -0.016429927600021748 -0.01331104764482618 0 -0.016609693753539316 -0.013330546223016215 0 -0.016408895273293141 -0.013117004507179425 0 -0.016408895273293141 -0.013117004507179425 0 -0.016737820067556017 -0.013088235463410173 0 -0.016454531145401879 -0.012745741352057815 0 -0.016136723468716297 -0.01246763809448569 0 -0.016237772228314084 -0.011929929482543821 0 -0.016737820067556017 -0.013088235463410173 0 -0.016454531145401879 -0.012745741352057815 0 -0.016830979138374266 -0.012338408271019676 0 -0.016454531145401879 -0.012745741352057815 0 -0.016132283696506738 -0.012917036646716278 0 -0.016170616947457302 -0.012286482128866958 0 -0.016132283696506738 -0.012917036646716278 0 -0.016170616947457302 -0.012286482128866958 0 -0.015706107521525268 -0.012788940535140297 0 -0.016408895273293141 -0.013117004507179425 0 -0.016454531145401879 -0.012745741352057815 0 -0.016132283696506738 -0.012917036646716278 0 -0.016224223093804054 -0.013312380055853243 0 -0.016408895273293141 -0.013117004507179425 0 -0.016132283696506738 -0.012917036646716278 0 -0.017295336391720047 -0.013847570592560268 0 -0.017464948964098975 -0.013353483714752893 0 -0.017146568647081268 -0.013419196589682873 0 -0.010405603425829798 -0.01582015618574598 0 -0.010409285368174145 -0.0157640360574491 0 -0.010425288057780785 -0.015818965847212128 0 -0.013413348380048134 -0.014562760911309433 0 -0.013403928674621941 -0.014110068142929106 0 -0.017464948964098975 -0.013353483714752893 0 -0.017146568647081268 -0.013419196589682873 0 -0.017254939094626366 -0.01321331758214994 0 -0.017295336391720047 -0.013847570592560268 0 -0.017146568647081268 -0.013419196589682873 0 -0.016909270207212151 -0.013634557122821089 0 -0.017146568647081268 -0.013419196589682873 0 -0.016909270207212151 -0.013634557122821089 0 -0.016905104724958049 -0.013377642065233586 0 -0.016741135026949322 -0.013272980457350004 0 -0.017041035164746757 -0.013139454520821882 0 -0.017030384161844377 -0.012831580825561012 0 -0.016136723468716297 -0.01246763809448569 0 -0.016041106720395687 -0.011952335847699697 0 -0.017146568647081268 -0.013419196589682873 0 -0.016905104724958049 -0.013377642065233586 0 -0.017041035164746757 -0.013139454520821882 0 -0.016741135026949322 -0.013272980457350004 0 -0.016905104724958049 -0.013377642065233586 0 -0.017041035164746757 -0.013139454520821882 0 -0.017146568647081268 -0.013419196589682873 0 -0.017041035164746757 -0.013139454520821882 0 -0.017254939094626366 -0.01321331758214994 0 -0.017041035164746757 -0.013139454520821882 0 -0.017254939094626366 -0.01321331758214994 0 -0.017365107934737892 -0.012947824365764601 0 -0.017464948964098975 -0.013353483714752893 0 -0.017365107934737892 -0.012947824365764601 0 -0.017654268493681288 -0.012941087969799496 0 -0.017464948964098975 -0.013353483714752893 0 -0.017254939094626366 -0.01321331758214994 0 -0.017365107934737892 -0.012947824365764601 0 -0.017365107934737892 -0.012947824365764601 0 -0.017277802271979073 -0.012738923150054787 0 -0.017030384161844377 -0.012831580825561012 0 -0.017365107934737892 -0.012947824365764601 0 -0.017277802271979073 -0.012738923150054787 0 -0.017450034027719403 -0.012717797635267959 0 -0.017041035164746757 -0.013139454520821882 0 -0.017365107934737892 -0.012947824365764601 0 -0.017030384161844377 -0.012831580825561012 0 -0.016041106720395687 -0.011952335847699697 0 -0.015679671232064884 -0.011148967823749916 0 -0.016159149226183236 -0.01175322341509011 0 -0.016035054435804556 -0.011303796388148426 0 -0.016409724355016236 -0.011308907335313471 0 -0.016159149226183236 -0.01175322341509011 0 -0.016035054435804556 -0.011303796388148426 0 -0.015971080919924795 -0.011750769749165797 0 -0.016291293190727158 -0.011169770162903622 0 -0.015679671232064884 -0.011148967823749916 0 -0.017260335007814924 -0.012468181510085595 0 -0.017450034027719403 -0.012717797635267959 0 -0.017530339583279129 -0.012483641818475104 0 -0.017277802271979073 -0.012738923150054787 0 -0.017260335007814924 -0.012468181510085595 0 -0.017450034027719403 -0.012717797635267959 0 -0.015679671232064884 -0.011148967823749916 0 -0.014842003301590353 -0.011428428111889077 0 -0.017277802271979073 -0.012738923150054787 0 -0.017030384161844377 -0.012831580825561012 0 -0.017260335007814924 -0.012468181510085595 0 -0.015907784513155346 -0.012199601397302378 0 -0.016159149226183236 -0.01175322341509011 0 -0.015971080919924795 -0.011750769749165797 0 -0.016454531145401879 -0.012745741352057815 0 -0.016170616947457302 -0.012286482128866958 0 -0.016830979138374266 -0.012338408271019676 0 -0.016932348768506522 -0.011613734315937796 0 -0.016170616947457302 -0.012286482128866958 0 -0.016830979138374266 -0.012338408271019676 0 -0.016291293190727158 -0.011169770162903622 0 -0.016237772228314084 -0.011929929482543821 0 -0.016932348768506522 -0.011613734315937796 0 -0.016170616947457302 -0.012286482128866958 0 -0.015960046925428992 -0.011604165902710137 0 -0.016170616947457302 -0.012286482128866958 0 -0.015605242355994777 -0.012191922048628987 0 -0.015960046925428992 -0.011604165902710137 0 -0.015605242355994777 -0.012191922048628987 0 -0.014998306492388671 -0.01159185126278226 0 -0.015960046925428992 -0.011604165902710137 0 -0.016170616947457302 -0.012286482128866958 0 -0.015605242355994777 -0.012191922048628987 0 -0.015706107521525268 -0.012788940535140297 0 -0.015605242355994777 -0.012191922048628987 0 -0.015254551228912444 -0.012542019749720624 0 -0.015706107521525268 -0.012788940535140297 0 -0.015443820195583687 -0.012569332865044389 0 -0.015256749135492206 -0.012074653881122532 0 -0.015247564868541157 -0.012698125740116875 0 -0.016243683871417502 -0.012090819053468867 0 -0.016127932081512975 -0.011661717584413842 0 -0.015628473756637801 -0.011760187287844946 0 -0.015721643399040777 -0.011931097504071484 0 -0.015380358291535941 -0.011727681982633185 0 -0.015721643399040777 -0.011931097504071484 0 -0.015722005198961907 -0.011937178335920418 0 -0.015721643399040777 -0.011931097504071484 0 -0.015723573064496434 -0.01168695052275474 0 -0.015605242355994777 -0.012191922048628987 0 -0.015254551228912444 -0.012542019749720624 0 -0.015126547301820651 -0.012066751852582385 0 -0.015605242355994777 -0.012191922048628987 0 -0.015126547301820651 -0.012066751852582385 0 -0.014998306492388671 -0.01159185126278226 0 -0.015723573064496434 -0.01168695052275474 0 -0.015718770405964706 -0.011314143791715407 0 -0.016127932081512975 -0.011661717584413842 0 -0.015837090282190738 -0.011506187820888868 0 -0.016012060958238122 -0.011229404317330494 0 -0.015837090282190738 -0.011506187820888868 0 -0.015628473756637801 -0.011760187287844946 0 -0.015670796951767485 -0.011222531712459757 0 -0.015628473756637801 -0.011760187287844946 0 -0.015304183329061874 -0.011171686737061967 0 -0.015670796951767485 -0.011222531712459757 0 -0.015837090282190738 -0.011506187820888868 0 -0.015670796951767485 -0.011222531712459757 0 -0.016012060958238122 -0.011229404317330494 0 -0.016127932081512975 -0.011661717584413842 0 -0.015837090282190738 -0.011506187820888868 0 -0.015628473756637801 -0.011760187287844946 0 -0.015000283568804274 -0.011428784491621633 0 -0.015380358291535941 -0.011727681982633185 0 -0.015000001403379395 -0.011428396676266621 0 -0.015628473756637801 -0.011760187287844946 0 -0.015304183329061874 -0.011171686737061967 0 -0.014999950158821843 -0.011428927180838102 0 -0.015256749135492206 -0.012074653881122532 0 -0.01499962793056884 -0.012299606846997215 0 -0.015256749135492206 -0.012074653881122532 0 -0.015247564868541157 -0.012698125740116875 0 -0.01499962793056884 -0.012299606846997215 0 -0.015247564868541157 -0.012698125740116875 0 -0.01499962793056884 -0.012299606846997215 0 -0.015047774043298601 -0.013182873237177603 0 -0.014999159683845959 -0.01345941405116227 0 -0.01499962793056884 -0.012299606846997215 0 -0.015047774043298601 -0.013182873237177603 0 -0.015247564868541157 -0.012698125740116875 0 -0.015047774043298601 -0.013182873237177603 0 -0.015219663888174088 -0.013217641065866708 0 -0.014851727831273811 -0.014244355471314644 0 -0.015047774043298601 -0.013182873237177603 0 -0.015219663888174088 -0.013217641065866708 0 -0.014851727831273811 -0.014244355471314644 0 -0.015219663888174088 -0.013217641065866708 0 -0.015699125972223379 -0.01324049572569256 0 -0.015219663888174088 -0.013217641065866708 0 -0.015699125972223379 -0.01324049572569256 0 -0.015445982364644664 -0.012903999879493078 0 -0.015699125972223379 -0.01324049572569256 0 -0.015706107521525268 -0.012788940535140297 0 -0.015445982364644664 -0.012903999879493078 0 -0.016132283696506738 -0.012917036646716278 0 -0.015699125972223379 -0.01324049572569256 0 -0.015706107521525268 -0.012788940535140297 0 -0.015427776881482577 -0.012572300451457432 0 -0.015706107521525268 -0.012788940535140297 0 -0.015440314879873488 -0.012631464431952915 0 -0.015706107521525268 -0.012788940535140297 0 -0.015440314879873488 -0.012631464431952915 0 -0.015445982364644664 -0.012903999879493078 0 -0.015721643399040777 -0.011931097504071484 0 -0.01575236482762957 -0.012030250713893234 0 -0.015247564868541157 -0.012698125740116875 0 -0.015440314879873488 -0.012631464431952915 0 -0.015445982364644664 -0.012903999879493078 0 -0.015443820195583687 -0.012569332865044389 0 -0.015247564868541157 -0.012698125740116875 0 -0.015440314879873488 -0.012631464431952915 0 -0.015247564868541157 -0.012698125740116875 0 -0.015219663888174088 -0.013217641065866708 0 -0.015445982364644664 -0.012903999879493078 0 -0.0064223262685893555 -0.015730858849751492 0 -0.0057481938754522259 -0.014905709643771825 0 -0.0075483684826001827 -0.016191455643076749 0 -0.0075071270568912024 -0.017095195883241866 0 -0.0070276204327433013 -0.016405330241151546 0 -0.008242913586135367 -0.016406118942948342 0 -0.0076758264625863774 -0.016218069931800059 0 -0.0076273464407789326 -0.016857531644310069 0 -0.008242913586135367 -0.016406118942948342 0 -0.0082119085401692639 -0.016962280881114705 0 -0.0076273464407789326 -0.016857531644310069 0 -0.008242913586135367 -0.016406118942948342 0 -0.0087596071018467784 -0.016646616067000884 0 -0.0082119085401692639 -0.016962280881114705 0 -0.008242913586135367 -0.016406118942948342 0 -0.0080273518582411382 -0.015913066541040809 0 -0.0084762898009421422 -0.015857172917887696 0 -0.008242913586135367 -0.016406118942948342 0 -0.0080273518582411382 -0.015913066541040809 0 -0.0076758264625863774 -0.016218069931800059 0 -0.0064223262685893555 -0.015730858849751492 0 -0.0066425693794274323 -0.01569687462248949 0 -0.0080273518582411382 -0.015913066541040809 0 -0.0076758264625863774 -0.016218069931800059 0 -0.0076902210767788165 -0.015548623839260535 0 -0.0075483684826001827 -0.016191455643076749 0 -0.0076902210767788165 -0.015548623839260535 0 -0.0069261574028981129 -0.015706667506002241 0 -0.0076902210767788165 -0.015548623839260535 0 -0.0077008569355210268 -0.014999866514710958 0 -0.0082072355449886534 -0.015437943450012757 0 -0.0076902210767788165 -0.015548623839260535 0 -0.0077008569355210268 -0.014999866514710958 0 -0.0071988173582630006 -0.015290072305473155 0 -0.0077008569355210268 -0.014999866514710958 0 -0.0082072355449886534 -0.015437943450012757 0 -0.0085240379593786147 -0.014999981375667527 0 -0.0080273518582411382 -0.015913066541040809 0 -0.0076902210767788165 -0.015548623839260535 0 -0.0082072355449886534 -0.015437943450012757 0 -0.0080273518582411382 -0.015913066541040809 0 -0.0082072355449886534 -0.015437943450012757 0 -0.0084762898009421422 -0.015857172917887696 0 -0.0084762898009421422 -0.015857172917887696 0 -0.0087460012572433497 -0.015392560525700894 0 -0.0089366989963251941 -0.015786988343279903 0 -0.0082072355449886534 -0.015437943450012757 0 -0.0084762898009421422 -0.015857172917887696 0 -0.0087460012572433497 -0.015392560525700894 0 -0.0085240379593786147 -0.014999981375667527 0 -0.0087460012572433497 -0.015392560525700894 0 -0.0093471593555357908 -0.014999975101338938 0 -0.0082072355449886534 -0.015437943450012757 0 -0.0085240379593786147 -0.014999981375667527 0 -0.0087460012572433497 -0.015392560525700894 0 -0.0087460012572433497 -0.015392560525700894 0 -0.0093471593555357908 -0.014999975101338938 0 -0.009168343106793134 -0.015481478358183257 0 -0.009168343106793134 -0.015481478358183257 0 -0.0089366989963251941 -0.015786988343279903 0 -0.0094124803800962453 -0.01576869628438873 0 -0.0087460012572433497 -0.015392560525700894 0 -0.009168343106793134 -0.015481478358183257 0 -0.0089366989963251941 -0.015786988343279903 0 -0.0089366989963251941 -0.015786988343279903 0 -0.0091708970138739063 -0.016078261403612279 0 -0.0094124803800962453 -0.01576869628438873 0 -0.0091708970138739063 -0.016078261403612279 0 -0.0090774460883738112 -0.01646677986775167 0 -0.0093807568279552014 -0.016316796860340724 0 -0.0091708970138739063 -0.016078261403612279 0 -0.008768142519184759 -0.016204191230524585 0 -0.0090774460883738112 -0.01646677986775167 0 -0.0089366989963251941 -0.015786988343279903 0 -0.0091708970138739063 -0.016078261403612279 0 -0.008768142519184759 -0.016204191230524585 0 -0.008242913586135367 -0.016406118942948342 0 -0.0084762898009421422 -0.0158