<?xml version="1.0"?>
<VTKFile type="UnstructuredGrid" version="0.1" byte_order="LittleEndian">
<UnstructuredGrid>
<Piece NumberOfPoints="31226" NumberOfCells="11009">
<Points>
<DataArray type="Float64" NumberOfComponents="3" format="ascii">
-0.5 -0.5 0 -0.43871930207811111 -0.45891724975366438 0 -0.40384101907146369 -0.5 0 -0.5 -0.5 0 -0.43871930207811111 -0.45891724975366438 0 -0.46083075985932132 -0.42897289368348213 0 -0.5 -0.5 0 -0.5 -0.40326431735400148 0 -0.46083075985932132 -0.42897289368348213 0 -0.43871930207811111 -0.45891724975366438 0 -0.46083075985932132 -0.42897289368348213 0 -0.43091080924206532 -0.42715367974442969 0 -0.5 -0.40326431735400148 0 -0.45952682300873521 -0.38412174532472082 0 -0.47464425460675203 -0.3583195487233698 0 -0.5 -0.40326431735400148 0 -0.45952682300873521 -0.38412174532472082 0 -0.46083075985932132 -0.42897289368348213 0 -0.45952682300873521 -0.38412174532472082 0 -0.46083075985932132 -0.42897289368348213 0 -0.43582762482701659 -0.40038036992407638 0 -0.45952682300873521 -0.38412174532472082 0 -0.4346910646910595 -0.37575034760356429 0 -0.43582762482701659 -0.40038036992407638 0 -0.45952682300873521 -0.38412174532472082 0 -0.4346910646910595 -0.37575034760356429 0 -0.44123995097782442 -0.36643166531102639 0 -0.46083075985932132 -0.42897289368348213 0 -0.43091080924206532 -0.42715367974442969 0 -0.43582762482701659 -0.40038036992407638 0 -0.43091080924206532 -0.42715367974442969 0 -0.41151361289866278 -0.41092465734884193 0 -0.43582762482701659 -0.40038036992407638 0 -0.43091080924206532 -0.42715367974442969 0 -0.41151361289866278 -0.41092465734884193 0 -0.40700932804526269 -0.43892091401505678 0 -0.4346910646910595 -0.37575034760356429 0 -0.42635037099702722 -0.38628661989648161 0 -0.41725404796856491 -0.37643399477150868 0 -0.4346910646910595 -0.37575034760356429 0 -0.42635037099702722 -0.38628661989648161 0 -0.43582762482701659 -0.40038036992407638 0 -0.42635037099702722 -0.38628661989648161 0 -0.43582762482701659 -0.40038036992407638 0 -0.41762874650146792 -0.39258176728677691 0 -0.41151361289866278 -0.41092465734884193 0 -0.43582762482701659 -0.40038036992407638 0 -0.41762874650146792 -0.39258176728677691 0 -0.41151361289866278 -0.41092465734884193 0 -0.41762874650146792 -0.39258176728677691 0 -0.40418338934825859 -0.39739240496431433 0 -0.41762874650146792 -0.39258176728677691 0 -0.40288036993058352 -0.3837125203285387 0 -0.40418338934825859 -0.39739240496431433 0 -0.41762874650146792 -0.39258176728677691 0 -0.41725404796856491 -0.37643399477150868 0 -0.40288036993058352 -0.3837125203285387 0 -0.42635037099702722 -0.38628661989648161 0 -0.41762874650146792 -0.39258176728677691 0 -0.41725404796856491 -0.37643399477150868 0 -0.41725404796856491 -0.37643399477150868 0 -0.40288036993058352 -0.3837125203285387 0 -0.39866947172609718 -0.37080665172562038 0 -0.40288036993058352 -0.3837125203285387 0 -0.38447606531509682 -0.37985247333909022 0 -0.39866947172609718 -0.37080665172562038 0 -0.40288036993058352 -0.3837125203285387 0 -0.39280672532895328 -0.39212647076801688 0 -0.38447606531509682 -0.37985247333909022 0 -0.41151361289866278 -0.41092465734884193 0 -0.40418338934825859 -0.39739240496431433 0 -0.39235375255438798 -0.40687396911205093 0 -0.40288036993058352 -0.3837125203285387 0 -0.39280672532895328 -0.39212647076801688 0 -0.40418338934825859 -0.39739240496431433 0 -0.39280672532895328 -0.39212647076801688 0 -0.40418338934825859 -0.39739240496431433 0 -0.39235375255438798 -0.40687396911205093 0 -0.39280672532895328 -0.39212647076801688 0 -0.37543729610374182 -0.40035972880021758 0 -0.39235375255438798 -0.40687396911205093 0 -0.39280672532895328 -0.39212647076801688 0 -0.37543729610374182 -0.40035972880021758 0 -0.38447606531509682 -0.37985247333909022 0 -0.37543729610374182 -0.40035972880021758 0 -0.38447606531509682 -0.37985247333909022 0 -0.36888034525926222 -0.38213737344447007 0 -0.39281933665145041 -0.42196322252131679 0 -0.37994300046570861 -0.43881233864818592 0 -0.40700932804526269 -0.43892091401505678 0 -0.41151361289866278 -0.41092465734884193 0 -0.39281933665145041 -0.42196322252131679 0 -0.40700932804526269 -0.43892091401505678 0 -0.41151361289866278 -0.41092465734884193 0 -0.39281933665145041 -0.42196322252131679 0 -0.39235375255438798 -0.40687396911205093 0 -0.39281933665145041 -0.42196322252131679 0 -0.39235375255438798 -0.40687396911205093 0 -0.37569179333885278 -0.41750543381529159 0 -0.37543729610374182 -0.40035972880021758 0 -0.39235375255438798 -0.40687396911205093 0 -0.37569179333885278 -0.41750543381529159 0 -0.39281933665145041 -0.42196322252131679 0 -0.37569179333885278 -0.41750543381529159 0 -0.37994300046570861 -0.43881233864818592 0 -0.37994300046570861 -0.43881233864818592 0 -0.38292052203384208 -0.47291015650172752 0 -0.40700932804526269 -0.43892091401505678 0 -0.43871930207811111 -0.45891724975366438 0 -0.40384101907146369 -0.5 0 -0.38292052203384208 -0.47291015650172752 0 -0.43871930207811111 -0.45891724975366438 0 -0.43091080924206532 -0.42715367974442969 0 -0.40700932804526269 -0.43892091401505678 0 -0.43871930207811111 -0.45891724975366438 0 -0.38292052203384208 -0.47291015650172752 0 -0.40700932804526269 -0.43892091401505678 0 -0.48426433641225619 -0.30452504295788119 0 -0.5 -0.3342057304494942 0 -0.50000000000007061 -0.24971206281257469 0 -0.44166156803621048 -0.26068998837293411 0 -0.44156103305135391 -0.28590419087790031 0 -0.44166156803621048 -0.26068998837293411 0 -0.45151012702321092 -0.2792001649341872 0 -0.44156103305135391 -0.28590419087790031 0 -0.44166156803621048 -0.26068998837293411 0 -0.45151012702321092 -0.2792001649341872 0 -0.46259580027936592 -0.27292653742177542 0 -0.46259580027936592 -0.27292653742177542 0 -0.47775936345751291 -0.27481877015208611 0 -0.46384547035312368 -0.28608032109010739 0 -0.46259580027936592 -0.27292653742177542 0 -0.4731634513857978 -0.25383060944122859 0 -0.45593915217321729 -0.24874065597167061 0 -0.44166156803621048 -0.26068998837293411 0 -0.46259580027936592 -0.27292653742177542 0 -0.45593915217321729 -0.24874065597167061 0 -0.46259580027936592 -0.27292653742177542 0 -0.4731634513857978 -0.25383060944122859 0 -0.4731634513857978 -0.25383060944122859 0 -0.47775936345751291 -0.27481877015208611 0 -0.47775936345751291 -0.27481877015208611 0 -0.48101184993488511 -0.28967190655498343 0 -0.50000000000007061 -0.24971206281257469 0 -0.4731634513857978 -0.25383060944122859 0 -0.48266462991948589 -0.25833475050481602 0 -0.47775936345751291 -0.27481877015208611 0 -0.4731634513857978 -0.25383060944122859 0 -0.48266462991948589 -0.25833475050481602 0 -0.48129311132275548 -0.24895476074014711 0 -0.48266462991948589 -0.25833475050481602 0 -0.48756989638148879 -0.24185073085755471 0 -0.48266462991948589 -0.25833475050481602 0 -0.47775936345751291 -0.27481877015208611 0 -0.50000000000007061 -0.24971206281257469 0 -0.48266462991948589 -0.25833475050481602 0 -0.47775936345751291 -0.27481877015208611 0 -0.46259580027936592 -0.27292653742177542 0 -0.4731634513857978 -0.25383060944122859 0 -0.47775936345751291 -0.27481877015208611 0 -0.48101184993488511 -0.28967190655498343 0 -0.48426433641225619 -0.30452504295788119 0 -0.50000000000007061 -0.24971206281257469 0 -0.47775936345751291 -0.27481877015208611 0 -0.4714238992774904 -0.29610893182375569 0 -0.48101184993488511 -0.28967190655498343 0 -0.47775936345751291 -0.27481877015208611 0 -0.4714238992774904 -0.29610893182375569 0 -0.46384547035312368 -0.28608032109010739 0 -0.47775936345751291 -0.27481877015208611 0 -0.4714238992774904 -0.29610893182375569 0 -0.4714238992774904 -0.29610893182375569 0 -0.48101184993488511 -0.28967190655498343 0 -0.48426433641225619 -0.30452504295788119 0 -0.47775936345751291 -0.27481877015208611 0 -0.48101184993488511 -0.28967190655498343 0 -0.4714238992774904 -0.29610893182375569 0 -0.48426433641225619 -0.30452504295788119 0 -0.47932053420002818 -0.31787952843204892 0 -0.4714238992774904 -0.29610893182375569 0 -0.46508843509746889 -0.31739909349542572 0 -0.47932053420002818 -0.31787952843204892 0 -0.48101184993488511 -0.28967190655498343 0 -0.48426433641225619 -0.30452504295788119 0 -0.45424148032967099 -0.30769770547220959 0 -0.46132548684613722 -0.29986170345676388 0 -0.46508843509746889 -0.31739909349542572 0 -0.4714238992774904 -0.29610893182375569 0 -0.46132548684613722 -0.29986170345676388 0 -0.46508843509746889 -0.31739909349542572 0 -0.45424148032967099 -0.30769770547220959 0 -0.46132548684613722 -0.29986170345676388 0 -0.45202814917293188 -0.29202246540232107 0 -0.4714238992774904 -0.29610893182375569 0 -0.46508843509746889 -0.31739909349542572 0 -0.4714238992774904 -0.29610893182375569 0 -0.46132548684613722 -0.29986170345676388 0 -0.46384547035312368 -0.28608032109010739 0 -0.46259580027936592 -0.27292653742177542 0 -0.46384547035312368 -0.28608032109010739 0 -0.45202814917293188 -0.29202246540232107 0 -0.46259580027936592 -0.27292653742177542 0 -0.45202814917293188 -0.29202246540232107 0 -0.45151012702321092 -0.2792001649341872 0 -0.46259580027936592 -0.27292653742177542 0 -0.45202814917293188 -0.29202246540232107 0 -0.46132548684613722 -0.29986170345676388 0 -0.46384547035312368 -0.28608032109010739 0 -0.45202814917293188 -0.29202246540232107 0 -0.45202814917293188 -0.29202246540232107 0 -0.44156103305135391 -0.28590419087790031 0 -0.44146049806649751 -0.31111839338286651 0 -0.45151012702321092 -0.2792001649341872 0 -0.45202814917293188 -0.29202246540232107 0 -0.44156103305135391 -0.28590419087790031 0 -0.45424148032967099 -0.30769770547220959 0 -0.45202814917293188 -0.29202246540232107 0 -0.44146049806649751 -0.31111839338286651 0 -0.44156103305135391 -0.28590419087790031 0 -0.44146049806649751 -0.31111839338286651 0 -0.43221058229147702 -0.30027501697148973 0 -0.44156103305135391 -0.28590419087790031 0 -0.44146049806649751 -0.31111839338286651 0 -0.45202814917293188 -0.29202246540232107 0 -0.44146049806649751 -0.31111839338286651 0 -0.5 -0.40326431735400148 0 -0.5 -0.3342057304494942 0 -0.47464425460675203 -0.35
[...]
<PointData Scalars="" Vectors="displacement," Tensors="">
<DataArray type="Float64" Name="displacement" NumberOfComponents="3" format="ascii">
-0.0049994897813805967 -7.4003618068652427e-08 0 -0.0045409834203901482 -3.638769475234243e-05 0 -0.0040387917032931918 -7.5578795265633478e-08 0 -0.0049994897813805967 -7.4003618068652427e-08 0 -0.0045409834203901482 -3.638769475234243e-05 0 -0.0047539225116123938 -3.1334546010889952e-05 0 -0.0049994897813805967 -7.4003618068652427e-08 0 -0.0049995019679706055 -6.3055144998669524e-08 0 -0.0047539225116123938 -3.1334546010889952e-05 0 -0.0045409834203901482 -3.638769475234243e-05 0 -0.0047539225116123938 -3.1334546010889952e-05 0 -0.0046058417960115391 -8.6684556725263762e-06 0 -0.0049995019679706055 -6.3055144998669524e-08 0 -0.0048435139994139021 -8.5542684338641105e-06 0 -0.0049369952909092737 -1.1068584537472262e-05 0 -0.0049995019679706055 -6.3055144998669524e-08 0 -0.0048435139994139021 -8.5542684338641105e-06 0 -0.0047539225116123938 -3.1334546010889952e-05 0 -0.0048435139994139021 -8.5542684338641105e-06 0 -0.0047539225116123938 -3.1334546010889952e-05 0 -0.0047023500920382886 1.3713278217053691e-05 0 -0.0048435139994139021 -8.5542684338641105e-06 0 -0.0047595593336807731 4.9856155758868163e-05 0 -0.0047023500920382886 1.3713278217053691e-05 0 -0.0048435139994139021 -8.5542684338641105e-06 0 -0.0047595593336807731 4.9856155758868163e-05 0 -0.0048394550343655298 3.1731576387543066e-05 0 -0.0047539225116123938 -3.1334546010889952e-05 0 -0.0046058417960115391 -8.6684556725263762e-06 0 -0.0047023500920382886 1.3713278217053691e-05 0 -0.0046058417960115391 -8.6684556725263762e-06 0 -0.004579382146610785 2.9530046258198874e-05 0 -0.0047023500920382886 1.3713278217053691e-05 0 -0.0046058417960115391 -8.6684556725263762e-06 0 -0.004579382146610785 2.9530046258198874e-05 0 -0.004440270689931327 -3.5035323944581525e-06 0 -0.0047595593336807731 4.9856155758868163e-05 0 -0.0046981126958448348 4.3529320137972653e-05 0 -0.0046734356903025262 5.6598841031609423e-05 0 -0.0047595593336807731 4.9856155758868163e-05 0 -0.0046981126958448348 4.3529320137972653e-05 0 -0.0047023500920382886 1.3713278217053691e-05 0 -0.0046981126958448348 4.3529320137972653e-05 0 -0.0047023500920382886 1.3713278217053691e-05 0 -0.0046485168976691795 4.5987433949268878e-05 0 -0.004579382146610785 2.9530046258198874e-05 0 -0.0047023500920382886 1.3713278217053691e-05 0 -0.0046485168976691795 4.5987433949268878e-05 0 -0.004579382146610785 2.9530046258198874e-05 0 -0.0046485168976691795 4.5987433949268878e-05 0 -0.0045901741518880549 6.0860206855302415e-05 0 -0.0046485168976691795 4.5987433949268878e-05 0 -0.004605085974918377 8.9721297274039468e-05 0 -0.0045901741518880549 6.0860206855302415e-05 0 -0.0046485168976691795 4.5987433949268878e-05 0 -0.0046734356903025262 5.6598841031609423e-05 0 -0.004605085974918377 8.9721297274039468e-05 0 -0.0046981126958448348 4.3529320137972653e-05 0 -0.0046485168976691795 4.5987433949268878e-05 0 -0.0046734356903025262 5.6598841031609423e-05 0 -0.0046734356903025262 5.6598841031609423e-05 0 -0.004605085974918377 8.9721297274039468e-05 0 -0.0045947096308528368 0.00013308338640374018 0 -0.004605085974918377 8.9721297274039468e-05 0 -0.0045533702033303328 8.1437291281058992e-05 0 -0.0045947096308528368 0.00013308338640374018 0 -0.004605085974918377 8.9721297274039468e-05 0 -0.004564392746404247 7.4498941652902521e-05 0 -0.0045533702033303328 8.1437291281058992e-05 0 -0.004579382146610785 2.9530046258198874e-05 0 -0.0045901741518880549 6.0860206855302415e-05 0 -0.0045306937336301095 6.0332637884362943e-05 0 -0.004605085974918377 8.9721297274039468e-05 0 -0.004564392746404247 7.4498941652902521e-05 0 -0.0045901741518880549 6.0860206855302415e-05 0 -0.004564392746404247 7.4498941652902521e-05 0 -0.0045901741518880549 6.0860206855302415e-05 0 -0.0045306937336301095 6.0332637884362943e-05 0 -0.004564392746404247 7.4498941652902521e-05 0 -0.0044990242770924669 7.7894849240336646e-05 0 -0.0045306937336301095 6.0332637884362943e-05 0 -0.004564392746404247 7.4498941652902521e-05 0 -0.0044990242770924669 7.7894849240336646e-05 0 -0.0045533702033303328 8.1437291281058992e-05 0 -0.0044990242770924669 7.7894849240336646e-05 0 -0.0045533702033303328 8.1437291281058992e-05 0 -0.0045042269586383545 6.5959666826796631e-05 0 -0.0044720424450013178 4.1278624577524052e-05 0 -0.0043193501429662894 5.8463726133799945e-05 0 -0.004440270689931327 -3.5035323944581525e-06 0 -0.004579382146610785 2.9530046258198874e-05 0 -0.0044720424450013178 4.1278624577524052e-05 0 -0.004440270689931327 -3.5035323944581525e-06 0 -0.004579382146610785 2.9530046258198874e-05 0 -0.0044720424450013178 4.1278624577524052e-05 0 -0.0045306937336301095 6.0332637884362943e-05 0 -0.0044720424450013178 4.1278624577524052e-05 0 -0.0045306937336301095 6.0332637884362943e-05 0 -0.0044559174082461159 8.0338953844841696e-05 0 -0.0044990242770924669 7.7894849240336646e-05 0 -0.0045306937336301095 6.0332637884362943e-05 0 -0.0044559174082461159 8.0338953844841696e-05 0 -0.0044720424450013178 4.1278624577524052e-05 0 -0.0044559174082461159 8.0338953844841696e-05 0 -0.0043193501429662894 5.8463726133799945e-05 0 -0.0043193501429662894 5.8463726133799945e-05 0 -0.0040168678666786676 9.4013982848087865e-06 0 -0.004440270689931327 -3.5035323944581525e-06 0 -0.0045409834203901482 -3.638769475234243e-05 0 -0.0040387917032931918 -7.5578795265633478e-08 0 -0.0040168678666786676 9.4013982848087865e-06 0 -0.0045409834203901482 -3.638769475234243e-05 0 -0.0046058417960115391 -8.6684556725263762e-06 0 -0.004440270689931327 -3.5035323944581525e-06 0 -0.0045409834203901482 -3.638769475234243e-05 0 -0.0040168678666786676 9.4013982848087865e-06 0 -0.004440270689931327 -3.5035323944581525e-06 0 -0.0049954077552006532 2.0875241850853431e-06 0 -0.0049999869901878784 -5.5885520486082396e-09 0 -0.0049999886680246568 8.4784861760332484e-09 0 -0.0036923611705929503 0.00058472611970350463 0 -0.0039053837599411449 0.00060438312512455861 0 -0.003736382861432973 0.00056054662331168903 0 -0.0039531828742731369 0.00066434431314098621 0 -0.0040329856493915781 0.00054445074391296859 0 -0.003736382861432973 0.00056054662331168903 0 -0.0039531828742731369 0.00066434431314098621 0 -0.0038777996876558215 0.0007906370294364051 0 -0.0046566244737102185 3.5907703038837155e-05 0 -0.0046739394148690811 0.00016385127825564255 0 -0.0047661450392493055 4.6957078234788329e-05 0 -0.0038777996876558215 0.0007906370294364051 0 -0.0036646157722422979 0.00089703706986533915 0 -0.0036051077257695514 0.00072055745515850933 0 -0.003736382861432973 0.00056054662331168903 0 -0.0038777996876558215 0.0007906370294364051 0 -0.0036051077257695514 0.00072055745515850933 0 -0.0042317435790090244 0.0004390932060922625 0 -0.0041838782204200132 0.00038084809476979556 0 -0.0041838782204200132 0.00038084809476979556 0 -0.0048651521388494278 8.4110824093917489e-05 0 -0.0049971696730648505 2.6181039297494206e-06 0 -0.0049964014631930474 2.3161066889293792e-06 0 -0.0049999886680246568 8.4784861760332484e-09 0 -0.0046198194586540313 0.00014866578062783958 0 -0.0046374901052116035 0.00018289546901824655 0 -0.0047002697461763238 0.00016459445549786995 0 -0.0046198194586540313 0.00014866578062783958 0 -0.0046374901052116035 0.00018289546901824655 0 -0.0046038512592877336 0.00017731685986685329 0 -0.0048072384770974303 9.5424344600081719e-05 0 -0.0048287050026099773 4.8680976740532491e-05 0 -0.0049983424713419804 1.9580550652199659e-06 0 -0.0049971696730648505 2.6181039297494206e-06 0 -0.0049999886680246568 8.4784861760332484e-09 0 -0.0048072384770974303 9.5424344600081719e-05 0 -0.0048651521388494278 8.4110824093917489e-05 0 -0.0046566244737102185 3.5907703038837155e-05 0 -0.0044848931147009564 0.00012872643001981317 0 -0.0046739394148690811 0.00016385127825564255 0 -0.0049964014631930474 2.3161066889293792e-06 0 -0.0049954077552006532 2.0875241850853431e-06 0 -0.0049999886680246568 8.4784861760332484e-09 0 -0.0050001391277640621 8.1068705811369434e-06 0 -0.0049984771484341758 1.0605448748240753e-05 0 -0.0049994305980542606 7.5558255537695781e-06 0 -0.0046739394148690811 0.00016385127825564255 0 -0.0048430153361543448 9.8319959084922312e-05 0 -0.0047661450392493055 4.6957078234788329e-05 0 -0.0048651521388494278 8.4110824093917489e-05 0 -0.0049124919328382873 5.450112079759051e-05 0 -0.0049984771484341758 1.0605448748240753e-05 0 -0.0049994305980542606 7.5558255537695781e-06 0 -0.0049954077552006532 2.0875241850853431e-06 0 -0.0048651521388494278 8.4110824093917489e-05 0 -0.0050133938777417808 1.285697478406025e-05 0 -0.0049984771484341758 1.0605448748240753e-05 0 -0.0049954077552006532 2.0875241850853431e-06 0 -0.0049849522393483172 5.4665109349888493e-06 0 -0.0049984771484341758 1.0605448748240753e-05 0 -0.004970766018361202 1.9647220190396773e-05 0 -0.0049849522393483172 5.4665109349888493e-06 0 -0.0050133938777417808 1.285697478406025e-05 0 -0.0049903130694486254 2.2856279373599744e-06 0 -0.0049118007906017403 -1.4506319876369588e-05 0 -0.004867000472616575 2.4756193164284794e-05 0 -0.004970766018361202 1.9647220190396773e-05 0 -0.0048430153361543448 9.8319959084922312e-05 0 -0.004867000472616575 2.4756193164284794e-05 0 -0.004970766018361202 1.9647220190396773e-05 0 -0.0049118007906017403 -1.4506319876369588e-05 0 -0.004867000472616575 2.4756193164284794e-05 0 -0.0048166059048287023 -3.433886550635396e-05 0 -0.0049124919328382873 5.450112079759051e-05 0 -0.004968222451391115 2.541405252671001e-05 0 -0.0048430153361543448 9.8319959084922312e-05 0 -0.004867000472616575 2.4756193164284794e-05 0 -0.0047661450392493055 4.6957078234788329e-05 0 -0.0046566244737102185 3.5907703038837155e-05 0 -0.0047661450392493055 4.6957078234788329e-05 0 -0.0048166059048287023 -3.433886550635396e-05 0 -0.0042317435790090244 0.0004390932060922625 0 -0.0045169677664619297 0.00028416219795841363 0 -0.0039531828742731369 0.00066434431314098621 0 -0.0038777996876558215 0.0007906370294364051 0 -0.0041097495218341638 0.00067151528357432583 0 -0.004867000472616575 2.4756193164284794e-05 0 -0.0047661450392493055 4.6957078234788329e-05 0 -0.0048166059048287023 -3.433886550635396e-05 0 -0.0041097495218341638 0.00067151528357432583 0 -0.0040329856493915781 0.00054445074391296859 0 -0.0043499585912023537 0.00053839083475955957 0 -0.0039531828742731369 0.00066434431314098621 0 -0.0041097495218341638 0.00067151528357432583 0 -0.0040329856493915781 0.00054445074391296859 0 -0.0049118007906017403 -1.4506319876369588e-05 0 -0.0048166059048287023 -3.433886550635396e-05 0 -0.0049276287588093477 -6.3135128170010559e-05 0 -0.0038507223373833496 0.00063028781661932922 0 -0.0041100196530510736 0.00063771878606023774 0 -0.0039956165712213658 0.00054341092388285003 0 -0.0039053837599411449 0.00060438312512455861 0 -0.0044079611160113968 0.00042955827324483526 0 -0.0045169677664619297 0.00028416219795841363 0 -0.0044079611160113968 0.00042955827324483526 0 -0.0049995019679706055 -6.3055144998669524e-08 0 -0.0049999869901878784 -5.5885520486082396e-09 0 -0.0049369952909092737 -1.1068584537472262e-05 0 -0.0044079611160113968 0.00042955827324483526 0 -0.0046581011825078018 0.00029361908988878891 0 -0.0049276287588093477 -6.3135128170010559e-05 0 -0.0049632508152750348 -2.045510344920753e-05 0 -0.0049818479438494667 -4.2196022585956794e-05 0 -0.0041177866838798633 0.00063052938958887994 0 -0.0043094728844665147 0.00063305840857611059 0 -0.0042253831264377796 0.00057278487258208884 0 -0.0049632508152750348 -2.045510344920753e-05 0 -0.0049818479438494667 -4.2196022585956794e-05 0 -0.0049839957296168406 -1.8824063808689321e-05 0 -0.0049118007906017403 -1.4506319876369588e-05 0 -0.0049276287588093477 -6.3135128170010559e-05 0 -0.0049632508152750348 -2.045510344920753e-05 0 -0.0044079611160113968 0.00042955827324483526 0 -0.0041359263172276242 0.0006116727498500609 0 -0.0049839957296168406 -1.8824063808689321e-05 0 -0.0049977608997415447 -5.5643568026887388e-06 0 -0.0050139744467884969 -3.6963701015783858e-05 0 -0.0043094728844665147 0.00063305840857611059 0 -0.004511191284086156 0.00063042151037357537 0 -0.0043781769538593475 0.00055621173543625858 0 -0.0049818479438494667 -4.2196022585956794e-05 0 -0.0049839957296168406 -1.8824063808689321e-05 0 -0.0050139744467884969 -3.6963701015783858e-05 0 -0.0046581011825078018 0.00029361908988878891 0 -0.0047988765544527707 0.00015896419500917669 0 -0.0049839957296168406 -1.8824063808689321e-05 0 -0.0049977608997415447 -5.5643568026887388e-06 0 -0.0049809759842839273 2.8747380170443946e-06 0 -0.0049977608997415447 -5.5643568026887388e-06 0 -0.0049809759842839273 2.8747380170443946e-06 0 -0.0049785013705562851 6.0755498391224112e-06 0 -0.0049961303777204379 -3.3106152109426432e-05 0 -0.0049719000362458184 1.5613628135318618e-05 0 -0.0049809759842839273 2.8747380170443946e-06 0 -0.004970766018361202 1.9647220190396773e-05 0 -0.0049785013705562851 6.0755498391224112e-06 0 -0.0049632508152750348 -2.045510344920753e-05 0 -0.0049809759842839273 2.8747380170443946e-06 0 -0.004970766018361202 1.9647220190396773e-05 0 -0.0049632508152750348 -2.045510344920753e-05 0 -0.0049839957296168406 -1.8824063808689321e-05 0 -0.0049809759842839273 2.8747380170443946e-06 0 -0.0049118007906017403 -1.4506319876369588e-05 0 -0.0049632508152750348 -2.045510344920753e-05 0 -0.004970766018361202 1.9647220190396773e-05 0 -0.004970766018361202 1.9647220190396773e-05 0 -0.0049849522393483172 5.4665109349888493e-06 0 -0.0049785013705562851 6.0755498391224112e-06 0 -0.0049849522393483172 5.4665109349888493e-06 0 -0.0049999869901878784 -5.5885520486082396e-09 0 -0.0049785013705562851 6.0755498391224112e-06 0 -0.0049954077552006532 2.0875241850853431e-06 0 -0.0049849522393483172 5.4665109349888493e-06 0 -0.0049999869901878784 -5.5885520486082396e-09 0 -0.0049999869901878784 -5.5885520486082396e-09 0 -0.0049785013705562851 6.0755498391224112e-06 0 -0.0049369952909092737 -1.1068584537472262e-05 0 -0.0049529117029613453 1.1038114332580524e-05 0 -0.0049785013705562851 6.0755498391224112e-06 0 -0.0049369952909092737 -1.1068584537472262e-05 0 -0.0048435139994139021 -8.5542684338641105e-06 0 -0.0049369952909092737 -1.1068584537472262e-05 0 -0.0049019011154745832 7.8230385012651401e-06 0 -0.0049529117029613453 1.1038114332580524e-05 0 -0.0049369952909092737 -1.1068584537472262e-05 0 -0.0049019011154745832 7.8230385012651401e-06 0 -0.0049019011154745832 7.8230385012651401e-06 0 -0.0049236057759183332 4.7673336257505167e-05 0 -0.0048394550343655298 3.1731576387543066e-05 0 -0.0049961303777204379 -3.3106152109426432e-05 0 -0.0047988765544527707 0.00015896419500917669 0 -0.0049529117029613453 1.1038114332580524e-05 0 -0.0049019011154745832 7.8230385012651401e-06 0 -0.0049236057759183332 4.7673336257505167e-05 0 -0.0047988765544527707 0.00015896419500917669 0 -0.0049001165552568253 3.1385133866778941e-05 0 -0.0048435139994139021 -8.5542684338641105e-06 0 -0.0049019011154745832 7.8230385012651401e-06 0 -0.0048394550343655298 3.1731576387543066e-05 0 -0.0048149145665468459 3.2528843274294107e-05 0 -0.0046325460814746738 0.00030462874646379983 0 -0.0047595593336807731 4.9856155758868163e-05 0 -0.0046734356903025262 5.6598841031609423e-05 0 -0.0047115457060175761 5.0860944226664946e-05 0 -0.0047595593336807731 4.9856155758868163e-05 0 -0.0048394550343655298 3.1731576387543066e-05 0 -0.0049175834915112168 0.00011245835111094322 0 -0.0047595593336807731 4.9856155758868163e-05 0 -0.0047115457060175761 5.0860944226664946e-05 0 -0.0046936275204528637 6.0089734712144165e-05 0 -0.0047115457060175761 5.0860944226664946e-05 0 -0.0046936275204528637 6.0089734712144165e-05 0 -0.004703387352051518 6.2708195461177364e-05 0 -0.004511191284086156 0.00063042151037357537 0 -0.0045765146522574506 0.00050446431746499574 0 -0.0043781769538593475 0.00055621173543625858 0 -0.0049573777040140552 3.4895154906957769e-05 0 -0.0048394550343655298 3.1731576387543066e-05 0 -0.0049175834915112168 0.00011245835111094322 0 -0.0047988765544527707 0.00015896419500917669 0 -0.0046325460814746738 0.00030462874646379983 0 -0.0046325460814746738 0.00030462874646379983 0 -0.0046026138662381109 0.00020468238016822877 0 -0.0043543815436934063 0.00034790432064424494 0 -0.0045214062847458826 0.00034689901338090187 0 -0.004428396725079828 0.00018280279774742815 0 -0.0044365195915007215 0.00051974155218804702 0 -0.0043543815436934063 0.00034790432064424494 0 -0.0045214062847458826 0.00034689901338090187 0 -0.0046734356903025262 5.6598841031609423e-05 0 -0.004703387352051518 6.2708195461177364e-05 0 -0.0045947096308528368 0.00013308338640374018 0 -0.0046026138662381109 0.00020468238016822877 0 -0.0046082011164831401 0.00014220638400752828 0 -0.0046734356903025262 5.6598841031609423e-05 0 -0.0047115457060175761 5.0860944226664946e-05 0 -0.004703387352051518 6.2708195461177364e-05 0 -0.0045947096308528368 0.00013308338640374018 0 -0.0045037743592344559 7.2716717802994913e-05 0 -0.004428396725079828 0.00018280279774742815 0 -0.0045214062847458826 0.00034689901338090187 0 -0.0045947096308528368 0.00013308338640374018 0 -0.004428396725079828 0.00018280279774742815 0 -0.0045533702033303328 8.1437291281058992e-05 0 -0.0045947096308528368 0.00013308338640374018 0 -0.0045037743592344559 7.2716717802994913e-05 0 -0.0045533702033303328 8.1437291281058992e-05 0 -0.0045037743592344559 7.2716717802994913e-05 0 -0.0045009648359823776 5.0951996200068679e-05 0 -0.0045037743592344559 7.2716717802994913e-05 0 -0.0043208025389984582 6.0257865623444671e-05 0 -0.0044786260483255661 2.5378853873492617e-05 0 -0.0045037743592344559 7.2716717802994913e-05 0 -0.004428396725079828 0.00018280279774742815 0 -0.0043208025389984582 6.0257865623444671e-05 0 -0.0043543815436934063 0.00034790432064424494 0 -0.004428396725079828 0.00018280279774742815 0 -0.004264493099233534 0.00023758963817714182 0 -0.004428396725079828 0.00018280279774742815 0 -0.004264493099233534 0.00023758963817714182 0 -0.0043208025389984582 6.0257865623444671e-05 0 -0.004264493099233534 0.00023758963817714182 0 -0.0043208025389984582 6.0257865623444671e-05 0 -0.0040801058949120426 0.00024428815996116059 0 -0.0042096165740031707 0.00013018165713372891 0 -0.0040869277344535498 0.00023774181228890321 0 -0.0040801058949120426 0.00024428815996116059 0 -0.003965897082023888 0.00018253562659161911 0 -0.0040323497725333422 0.00014955945526464313 0 -0.0041048641487478497 0.00018245725762782035 0 -0.0040801058949120426 0.00024428815996116059 0 -0.0040323497725333422 0.00014955945526464313 0 -0.0040801058949120426 0.00024428815996116059 0 -0.0041334814473108069 0.00045662418189416779 0 -0.0038987119115016233 0.00039841584257452583 0 -0.004264493099233534 0.00023758963817714182 0 -0.0040801058949120426 0.00024428815996116059 0 -0.0041334814473108069 0.00045662418189416779 0 -0.0044365195915007215 0.00051974155218804702 0 -0.0043543815436934063 0.00034790432064424494 0 -0.0041334814473108069 0.00045662418189416779 0 -0.0043543815436934063 0.00034790432064424494 0 -0.004264493099233534 0.00023758963817714182 0 -0.0041334814473108069 0.00045662418189416779 0 -0.0045765146522574506 0.00050446431746499574 0 -0.0043781769538593475 0.00055621173543625858 0 -0.0042708212661629798 0.00044045389704652202 0 -0.0046325460814746738 0.00030462874646379983 0 -0.0041794778251749458 0.00047601251757414613 0 -0.0043094728844665147 0.00063305840857611059 0 -0.0043781769538593475 0.00055621173543625858 0 -0.0042253831264377796 0.00057278487258208884 0 -0.0043781769538593475 0.00055621173543625858 0 -0.0042253831264377796 0.00057278487258208884 0 -0.0042708212661629798 0.00044045389704652202 0 -0.0042253831264377796 0.00057278487258208884 0 -0.0042708212661629798 0.00044045389704652202 0 -0.0039674863287107376 0.00038595973392685268 0 -0.0042253831264377796 0.00057278487258208884 0 -0.0039956165712213658 0.00054341092388285003 0 -0.0039674863287107376 0.00038595973392685268 0 -0.0041100196530510736 0.00063771878606023774 0 -0.0042253831264377796 0.00057278487258208884 0 -0.0039956165712213658 0.0005434109