<?xml version="1.0"?>
<VTKFile type="UnstructuredGrid" version="0.1" byte_order="LittleEndian">
<UnstructuredGrid>
<Piece NumberOfPoints="28576" NumberOfCells="10048">
<Points>
<DataArray type="Float64" NumberOfComponents="3" format="ascii">
-0.5 -0.5 0 -0.43953934410462792 -0.47246878913718671 0 -0.41820629520677122 -0.49360840079729418 0 -0.5 -0.5 0 -0.39465741350786032 -0.5 0 -0.41820629520677122 -0.49360840079729418 0 -0.5 -0.5 0 -0.43953934410462792 -0.47246878913718671 0 -0.45567571182803418 -0.45344785252938669 0 -0.45567571182803418 -0.45344785252938669 0 -0.46070185493415228 -0.43313110965816781 0 -0.43540650535197178 -0.432083129580842 0 -0.45567571182803418 -0.45344785252938669 0 -0.43540650535197178 -0.432083129580842 0 -0.43351356774205058 -0.45455466234301939 0 -0.43953934410462792 -0.47246878913718671 0 -0.45567571182803418 -0.45344785252938669 0 -0.43351356774205058 -0.45455466234301939 0 -0.45567571182803418 -0.45344785252938669 0 -0.43351356774205058 -0.45455466234301939 0 -0.45567571182803418 -0.45344785252938669 0 -0.47783785591401767 -0.45234104271575393 0 -0.45567571182803418 -0.45344785252938669 0 -0.47783785591401767 -0.45234104271575393 0 -0.46070185493415228 -0.43313110965816781 0 -0.47783785591401767 -0.45234104271575393 0 -0.48344691308858551 -0.43506355489942888 0 -0.46070185493415228 -0.43313110965816781 0 -0.5 -0.5 0 -0.45567571182803418 -0.45344785252938669 0 -0.47783785591401767 -0.45234104271575393 0 -0.5 -0.5 0 -0.47783785591401767 -0.45234104271575393 0 -0.50000000000000133 -0.45123423290212111 0 -0.47783785591401767 -0.45234104271575393 0 -0.50000000000000133 -0.45123423290212111 0 -0.48344691308858551 -0.43506355489942888 0 -0.47783785591401767 -0.45234104271575393 0 -0.50000000000000133 -0.45123423290212111 0 -0.50000000000000133 -0.45123423290212111 0 -0.5 -0.42550590956087703 0 -0.48344691308858551 -0.43506355489942888 0 -0.5 -0.42550590956087703 0 -0.47497917668391187 -0.4194029438215896 0 -0.48344691308858551 -0.43506355489942888 0 -0.5 -0.42550590956087703 0 -0.48617156422541641 -0.40786895856726801 0 -0.47497917668391187 -0.4194029438215896 0 -0.5 -0.42550590956087703 0 -0.48617156422541641 -0.40786895856726801 0 -0.50000000000000067 -0.39977758621963289 0 -0.48617156422541641 -0.40786895856726801 0 -0.47497917668391187 -0.4194029438215896 0 -0.46863823799529541 -0.40187436012486488 0 -0.47497917668391187 -0.4194029438215896 0 -0.48344691308858551 -0.43506355489942888 0 -0.46070185493415228 -0.43313110965816781 0 -0.49999999999999689 -0.38256672950026349 0 -0.4735889100247217 -0.38120330611478598 0 -0.49999999999999689 -0.38256672950026349 0 -0.48214266938645473 -0.39303734635761189 0 -0.4735889100247217 -0.38120330611478598 0 -0.48617156422541641 -0.40786895856726801 0 -0.50000000000000067 -0.39977758621963289 0 -0.48214266938645473 -0.39303734635761189 0 -0.50000000000000067 -0.39977758621963289 0 -0.48214266938645473 -0.39303734635761189 0 -0.49999999999999689 -0.38256672950026349 0 -0.50000000000000067 -0.39977758621963289 0 -0.48214266938645473 -0.39303734635761189 0 -0.48214266938645473 -0.39303734635761189 0 -0.46426992593287358 -0.38633794067743549 0 -0.46863823799529541 -0.40187436012486488 0 -0.48617156422541641 -0.40786895856726801 0 -0.48214266938645473 -0.39303734635761189 0 -0.46863823799529541 -0.40187436012486488 0 -0.48214266938645473 -0.39303734635761189 0 -0.46426992593287358 -0.38633794067743549 0 -0.48214266938645473 -0.39303734635761189 0 -0.4735889100247217 -0.38120330611478598 0 -0.46426992593287358 -0.38633794067743549 0 -0.46426992593287358 -0.38633794067743549 0 -0.44760394953379939 -0.38266973576097779 0 -0.46426992593287358 -0.38633794067743549 0 -0.44717782004944662 -0.37983988272930858 0 -0.4735889100247217 -0.38120330611478598 0 -0.44717782004944662 -0.37983988272930858 0 -0.4735889100247217 -0.38120330611478598 0 -0.44717782004944662 -0.37983988272930858 0 -0.46086785194016749 -0.37113652201865621 0 -0.46426992593287358 -0.38633794067743549 0 -0.4507667274794237 -0.39524143656881511 0 -0.44760394953379939 -0.38266973576097779 0 -0.4735889100247217 -0.38120330611478598 0 -0.46426992593287358 -0.38633794067743549 0 -0.44717782004944662 -0.37983988272930858 0 -0.46426992593287358 -0.38633794067743549 0 -0.46863823799529541 -0.40187436012486488 0 -0.4507667274794237 -0.39524143656881511 0 -0.46863823799529541 -0.40187436012486488 0 -0.4507667274794237 -0.39524143656881511 0 -0.45090944822602608 -0.41385446015088712 0 -0.4507667274794237 -0.39524143656881511 0 -0.45090944822602608 -0.41385446015088712 0 -0.43539624344527578 -0.3991141447743603 0 -0.4507667274794237 -0.39524143656881511 0 -0.43770865960849797 -0.38817907426217718 0 -0.43539624344527578 -0.3991141447743603 0 -0.44717782004944662 -0.37983988272930858 0 -0.43093797313472521 -0.37900153084451982 0 -0.43521555320558081 -0.37532473152524298 0 -0.46426992593287358 -0.38633794067743549 0 -0.44760394953379939 -0.38266973576097779 0 -0.44717782004944662 -0.37983988272930858 0 -0.44717782004944662 -0.37983988272930858 0 -0.43093797313472521 -0.37900153084451982 0 -0.44760394953379939 -0.38266973576097779 0 -0.44717782004944662 -0.37983988272930858 0 -0.43093797313472521 -0.37900153084451982 0 -0.44760394953379939 -0.38266973576097779 0 -0.43093797313472521 -0.37900153084451982 0 -0.43770865960849797 -0.38817907426217718 0 -0.44760394953379939 -0.38266973576097779 0 -0.43093797313472521 -0.37900153084451982 0 -0.4507667274794237 -0.39524143656881511 0 -0.43770865960849797 -0.38817907426217718 0 -0.44760394953379939 -0.38266973576097779 0 -0.44717782004944662 -0.37983988272930858 0 -0.43521555320558081 -0.37532473152524298 0 -0.47497917668391187 -0.4194029438215896 0 -0.46070185493415228 -0.43313110965816781 0 -0.45090944822602608 -0.41385446015088712 0 -0.47497917668391187 -0.4194029438215896 0 -0.46863823799529541 -0.40187436012486488 0 -0.45090944822602608 -0.41385446015088712 0 -0.45090944822602608 -0.41385446015088712 0 -0.43169214306641313 -0.41277735181865921 0 -0.43539624344527578 -0.3991141447743603 0 -0.45090944822602608 -0.41385446015088712 0 -0.43540650535197178 -0.432083129580842 0 -0.43169214306641313 -0.41277735181865921 0 -0.46070185493415228 -0.43313110965816781 0 -0.45090944822602608 -0.41385446015088712 0 -0.43540650535197178 -0.432083129580842 0 -0.43540650535197178 -0.432083129580842 0 -0.41781899417693458 -0.41796815709965712 0 -0.41951979820134638 -0.44200216300715389 0 -0.43540650535197178 -0.432083129580842 0 -0.43169214306641313 -0.41277735181865921 0 -0.41781899417693458 -0.41796815709965712 0 -0.41781899417693458 -0.41796815709965712 0 -0.41558169647104581 -0.39803072619898472 0 -0.40250682278312311 -0.40540024677963238 0 -0.41781899417693458 -0.41796815709965712 0 -0.41558169647104581 -0.39803072619898472 0 -0.43169214306641313 -0.41277735181865921 0 -0.41781899417693458 -0.41796815709965712 0 -0.41558169647104581 -0.39803072619898472 0 -0.41781899417693458 -0.41796815709965712 0 -0.40391727790783022 -0.43268102585624602 0 -0.41951979820134638 -0.44200216300715389 0 -0.43093797313472521 -0.37900153084451982 0 -0.41300335207331917 -0.37505409544818158 0 -0.43093797313472521 -0.37900153084451982 0 -0.41300335207331917 -0.37505409544818158 0 -0.4272910439481174 -0.37127753259719332 0 -0.43093797313472521 -0.37900153084451982 0 -0.41334439876515622 -0.37809329529831243 0 -0.43093797313472521 -0.37900153084451982 0 -0.42348368380235052 -0.38765778578371168 0 -0.41334439876515622 -0.37809329529831243 0 -0.43093797313472521 -0.37900153084451982 0 -0.43521555320558081 -0.37532473152524298 0 -0.4272910439481174 -0.37127753259719332 0 -0.43770865960849797 -0.38817907426217718 0 -0.43093797313472521 -0.37900153084451982 0 -0.42348368380235052 -0.38765778578371168 0 -0.43169214306641313 -0.41277735181865921 0 -0.43539624344527578 -0.3991141447743603 0 -0.41558169647104581 -0.39803072619898472 0 -0.42348368380235052 -0.38765778578371168 0 -0.43539624344527578 -0.3991141447743603 0 -0.41558169647104581 -0.39803072619898472 0 -0.43770865960849797 -0.38817907426217718 0 -0.42348368380235052 -0.38765778578371168 0 -0.43539624344527578 -0.3991141447743603 0 -0.41558169647104581 -0.39803072619898472 0 -0.40502742494231708 -0.38912083809061382 0 -0.40250682278312311 -0.40540024677963238 0 -0.43093797313472521 -0.37900153084451982 0 -0.41334439876515622 -0.37809329529831243 0 -0.41300335207331917 -0.37505409544818158 0 -0.42348368380235052 -0.38765778578371168 0 -0.41558169647104581 -0.39803072619898472 0 -0.41334439876515622 -0.37809329529831243 0 -0.41558169647104581 -0.39803072619898472 0 -0.41334439876515622 -0.37809329529831243 0 -0.40502742494231708 -0.38912083809061382 0 -0.41558169647104581 -0.39803072619898472 0 -0.41334439876515622 -0.37809329529831243 0 -0.41334439876515622 -0.37809329529831243 0 -0.41300335207331917 -0.37505409544818158 0 -0.39789018855708802 -0.3772955004469265 0 -0.41334439876515622 -0.37809329529831243 0 -0.41300335207331917 -0.37505409544818158 0 -0.39789018855708802 -0.3772955004469265 0 -0.39328798826525668 -0.39266907078507302 0 -0.38185398631092049 -0.38596502818282841 0 -0.41334439876515622 -0.37809329529831243 0 -0.39789018855708802 -0.3772955004469265 0 -0.41334439876515622 -0.37809329529831243 0 -0.39789018855708802 -0.3772955004469265 0 -0.40502742494231708 -0.38912083809061382 0 -0.39789018855708802 -0.3772955004469265 0 -0.40502742494231708 -0.38912083809061382 0 -0.39328798826525668 -0.39266907078507302 0 -0.40250682278312311 -0.40540024677963238 0 -0.39328798826525668 -0.39266907078507302 0 -0.38655034176720982 -0.40379191289305449 0 -0.40502742494231708 -0.38912083809061382 0 -0.40250682278312311 -0.40540024677963238 0 -0.39328798826525668 -0.39266907078507302 0 -0.38655034176720982 -0.40379191289305449 0 -0.38185398631092049 -0.38596502818282841 0 -0.37000489206808301 -0.39927219329134062 0 -0.39328798826525668 -0.39266907078507302 0 -0.38655034176720982 -0.40379191289305449 0 -0.38185398631092049 -0.38596502818282841 0 -0.397890
[...]
<PointData Scalars="" Vectors="displacement," Tensors="">
<DataArray type="Float64" Name="displacement" NumberOfComponents="3" format="ascii">
5.7866398031335376e-07 0.014997967398644035 0 1.0543693835017413e-05 0.014622881547545515 0 -4.0572900125278171e-05 0.01488691334886123 0 5.7866398031335376e-07 0.014997967398644035 0 -3.9115401806068183e-07 0.014999397493839873 0 -4.0572900125278171e-05 0.01488691334886123 0 5.7866398031335376e-07 0.014997967398644035 0 1.0543693835017413e-05 0.014622881547545515 0 8.3782642897750422e-05 0.014525078097478375 0 0.00029689803567074834 0.013555908688007344 0 9.1802971288728577e-05 0.013391642129831459 0 4.3573855683673106e-05 0.01389540377067673 0 0.00029689803567074834 0.013555908688007344 0 4.3573855683673106e-05 0.01389540377067673 0 0.0002063172625979126 0.014218387737894682 0 1.0543693835017413e-05 0.014622881547545515 0 8.3782642897750422e-05 0.014525078097478375 0 0.0002063172625979126 0.014218387737894682 0 0.00017999894698741357 0.014032621900162452 0 0.00020466284395938199 0.014188593945204411 0 0.00017999894698741357 0.014032621900162452 0 8.9256762373983049e-05 0.013782810787169157 0 0.00029689803567074834 0.013555908688007344 0 0.00016070160783630385 0.013183583644373813 0 9.1802971288728577e-05 0.013391642129831459 0 0.00016070160783630385 0.013183583644373813 0 0.00011759130650986222 0.013094997995382116 0 9.1802971288728577e-05 0.013391642129831459 0 5.7866398031335376e-07 0.014997967398644035 0 8.3782642897750422e-05 0.014525078097478375 0 1.136926313180584e-05 0.014355348237660081 0 5.7866398031335376e-07 0.014997967398644035 0 1.136926313180584e-05 0.014355348237660081 0 -8.3557416501121618e-07 0.013540294558676185 0 0.00016070160783630385 0.013183583644373813 0 -5.3821858167760578e-08 0.013535926138786559 0 0.00011759130650986222 0.013094997995382116 0 8.9256762373983049e-05 0.013782810787169157 0 3.6480266220677466e-08 0.013537116633910698 0 -5.3821858167760578e-08 0.013535926138786559 0 6.117641866642477e-07 0.012765329702754487 0 0.00011759130650986222 0.013094997995382116 0 6.117641866642477e-07 0.012765329702754487 0 1.2193007125601865e-05 0.013076364469817471 0 0.00011759130650986222 0.013094997995382116 0 6.117641866642477e-07 0.012765329702754487 0 -3.7489993872212793e-05 0.012708483529801003 0 1.2193007125601865e-05 0.013076364469817471 0 6.117641866642477e-07 0.012765329702754487 0 -3.7489993872212793e-05 0.012708483529801003 0 -1.1801408331246453e-06 0.011994617753000879 0 -3.7489993872212793e-05 0.012708483529801003 0 1.2193007125601865e-05 0.013076364469817471 0 -0.00026316052767743389 0.013184302270687022 0 1.2193007125601865e-05 0.013076364469817471 0 0.00011759130650986222 0.013094997995382116 0 9.1802971288728577e-05 0.013391642129831459 0 -2.5770612847515973e-08 0.011476912779682243 0 -3.063913870173957e-05 0.011111643748328728 0 7.454160587611273e-08 0.011478666101219373 0 3.7891005546828852e-05 0.011692936864370744 0 -6.1675802902422494e-05 0.011758641956718356 0 -3.7489993872212793e-05 0.012708483529801003 0 -1.1801408331246453e-06 0.011994617753000879 0 -0.00047276282634034462 0.012827567567414667 0 -9.7295545517645409e-08 0.011993415172609099 0 -0.00019521446977884371 0.012256245361032378 0 7.454160587611273e-08 0.011478666101219373 0 -7.8472951443108132e-08 0.011991656152247818 0 3.7891005546828852e-05 0.011692936864370744 0 -0.00047276282634034462 0.012827567567414667 0 -0.00055977549646262989 0.013267667541295733 0 -0.00026316052767743389 0.013184302270687022 0 -3.7489993872212793e-05 0.012708483529801003 0 -0.00047276282634034462 0.012827567567414667 0 -0.00026316052767743389 0.013184302270687022 0 -0.00019521446977884371 0.012256245361032378 0 -0.00030767875931272715 0.012589537926537052 0 3.7891005546828852e-05 0.011692936864370744 0 -6.1675802902422494e-05 0.011758641956718356 0 -3.0007477742951003e-05 0.011811180349235933 0 -0.00030767875931272715 0.012589537926537052 0 -0.00041817543405877434 0.013039017985309428 0 -0.00030767875931272715 0.012589537926537052 0 5.3533576694605756e-05 0.011076533453969918 0 -3.063913870173957e-05 0.011111643748328728 0 5.3533576694605756e-05 0.011076533453969918 0 -2.3325684688638137e-05 0.010451002173031175 0 0.00015005467570604585 0.010207206789094972 0 0.00011092436124317627 0.010258224339458439 0 -0.00055977549646262989 0.013267667541295733 0 -0.00037547640068088693 0.013513550513098207 0 -0.00055779091773566281 0.013554960652507409 0 -6.1675802902422494e-05 0.011758641956718356 0 -3.0007477742951003e-05 0.011811180349235933 0 -5.4565616693075651e-05 0.011891880249234384 0 -0.00055977549646262989 0.013267667541295733 0 -0.00026316052767743389 0.013184302270687022 0 -0.00037547640068088693 0.013513550513098207 0 -0.00026316052767743389 0.013184302270687022 0 -0.00037547640068088693 0.013513550513098207 0 -0.0001170676851762385 0.013539867436051666 0 -0.00037547640068088693 0.013513550513098207 0 -0.0001170676851762385 0.013539867436051666 0 -0.00029730443846941429 0.013734226151886169 0 -0.00037547640068088693 0.013513550513098207 0 -0.00045764646783180701 0.013693643021758602 0 -0.00029730443846941429 0.013734226151886169 0 0.00028990164989561954 0.010195583594528476 0 0.00030767124202185251 0.01036886301552664 0 0.00025653733029444082 0.010316360271534659 0 -0.0002777716955575868 0.012477599288226868 0 -0.00019739304923820989 0.012165068102525496 0 -0.00014401438745326325 0.012156543074833806 0 5.3533576694605756e-05 0.011076533453969918 0 -7.8573604131103211e-05 0.012009254891069226 0 -0.00019739304923820989 0.012165068102525496 0 -0.00014401438745326325 0.012156543074833806 0 -0.00011658557608701802 0.01186380163761477 0 -0.00041817543405877434 0.013039017985309428 0 -7.8573604131103211e-05 0.012009254891069226 0 -0.00045764646783180701 0.013693643021758602 0 -0.00055779091773566281 0.013554960652507409 0 -0.00056575501490367045 0.01377551196571445 0 -0.00037547640068088693 0.013513550513098207 0 -0.00045764646783180701 0.013693643021758602 0 -0.00055779091773566281 0.013554960652507409 0 5.3533576694605756e-05 0.011076533453969918 0 0.00032339547318215386 0.010132409202706263 0 1.2193007125601865e-05 0.013076364469817471 0 9.1802971288728577e-05 0.013391642129831459 0 -0.0001170676851762385 0.013539867436051666 0 1.2193007125601865e-05 0.013076364469817471 0 -0.00026316052767743389 0.013184302270687022 0 -0.0001170676851762385 0.013539867436051666 0 -0.0001170676851762385 0.013539867436051666 0 -9.0302593726297216e-05 0.01380326428376275 0 -0.00029730443846941429 0.013734226151886169 0 -0.0001170676851762385 0.013539867436051666 0 4.3573855683673106e-05 0.01389540377067673 0 -9.0302593726297216e-05 0.01380326428376275 0 9.1802971288728577e-05 0.013391642129831459 0 -0.0001170676851762385 0.013539867436051666 0 4.3573855683673106e-05 0.01389540377067673 0 4.3573855683673106e-05 0.01389540377067673 0 1.9960335409412669e-05 0.013897554874597685 0 0.00010938655381969187 0.014042081205429229 0 4.3573855683673106e-05 0.01389540377067673 0 -9.0302593726297216e-05 0.01380326428376275 0 1.9960335409412669e-05 0.013897554874597685 0 1.9960335409412669e-05 0.013897554874597685 0 0.00020872837993167156 0.013731495985822951 0 0.00014796524864699761 0.013599418428953819 0 1.9510125904280235e-05 0.013881172637226793 0 -9.6773989644640247e-05 0.013899094334347255 0 -9.0302593726297216e-05 0.01380326428376275 0 1.9960335409412669e-05 0.013897554874597685 0 -0.00028985851075450433 0.013981082946382712 0 1.9960335409412669e-05 0.013897554874597685 0 7.7677048988815563e-05 0.013835376241426363 0 0.00010938655381969187 0.014042081205429229 0 -7.8573604131103211e-05 0.012009254891069226 0 0.00033575936532588948 0.012040034622674728 0 0.00030767124202185251 0.01036886301552664 0 0.00030624986818915748 0.010540687671659624 0 0.00026082940027408538 0.01040612438945877 0 -7.8573604131103211e-05 0.012009254891069226 0 0.00012224036305992465 0.013111345280954451 0 -0.00056575501490367045 0.01377551196571445 0 -0.00044292253652390007 0.013876902470016715 0 -0.00056856566806619225 0.014007928033683359 0 0.00030767124202185251 0.01036886301552664 0 0.00025653733029444082 0.010316360271534659 0 0.00026082940027408538 0.01040612438945877 0 -0.00045764646783180701 0.013693643021758602 0 -0.00056575501490367045 0.01377551196571445 0 -0.00044292253652390007 0.013876902470016715 0 -9.0302593726297216e-05 0.01380326428376275 0 -0.00029730443846941429 0.013734226151886169 0 -0.00028985851075450433 0.013981082946382712 0 -0.00044292253652390007 0.013876902470016715 0 -0.00029730443846941429 0.013734226151886169 0 -0.00028985851075450433 0.013981082946382712 0 -0.00045764646783180701 0.013693643021758602 0 -0.00044292253652390007 0.013876902470016715 0 -0.00029730443846941429 0.013734226151886169 0 0.00020872837993167156 0.013731495985822951 0 0.00028423675247490812 0.013566657409654336 0 0.00014796524864699761 0.013599418428953819 0 2.6284144425386426e-05 0.012043541885508687 0 5.548033112827784e-06 0.012550296098135459 0 -8.127040150738436e-05 0.012559696396538117 0 -0.00044292253652390007 0.013876902470016715 0 -0.00028985851075450433 0.013981082946382712 0 -0.00056856566806619225 0.014007928033683359 0 0.00020872837993167156 0.013731495985822951 0 0.00041911190671157237 0.013662974141807602 0 0.00028423675247490812 0.013566657409654336 0 -9.6773989644640247e-05 0.013899094334347255 0 0.00012224036305992465 0.013111345280954451 0 0.00041768973354200834 0.01370599889098943 0 0.00047353677911175269 0.013700338622765521 0 0.00041522634523795713 0.013428095422582255 0 0.00012224036305992465 0.013111345280954451 0 0.00033575936532588948 0.012040034622674728 0 0.00041522634523795713 0.013428095422582255 0 0.00022014575327283412 0.013383655930312668 0 0.00022236867698851315 0.013120002898313237 0 0.00012224036305992465 0.013111345280954451 0 0.00038597383173218151 0.01362682458143815 0 0.00041911190671157237 0.013662974141807602 0 0.00041522634523795713 0.013428095422582255 0 0.00028423675247490812 0.013566657409654336 0 0.00041522634523795713 0.013428095422582255 0 0.00028423675247490812 0.013566657409654336 0 0.00022014575327283412 0.013383655930312668 0 0.00014796524864699761 0.013599418428953819 0 0.00022014575327283412 0.013383655930312668 0 0.0001582265509296836 0.013351404993148557 0 0.00028423675247490812 0.013566657409654336 0 0.00014796524864699761 0.013599418428953819 0 0.00022014575327283412 0.013383655930312668 0 0.0001582265509296836 0.013351404993148557 0 0.00022236867698851315 0.013120002898313237 0 0.00016495113045064515 0.01304395049898063 0 0.00022014575327283412 0.013383655930312668 0 0.0001582265509296836 0.013351404993148557 0 0.00022236867698851315 0.013120002898313237 0 0.00041522634523795713 0.013428095422582255 0 0.00022236867698851315 0.013120002898313237 0 0.00052889390857588218 0.013169771688221803 0 0.00022236867698851315 0.013120002898313237 0 0.00052889390857588218 0.013169771688221803 0 0.00023054548676517702 0.012716360061763094 0 7.7677048988815563e-05 0.013835376241426363 0 0.0001065249604480118 0.01358600328368896 0 9.7886964831446919e-05 0.013590363168938824 0 1.9960335409412669e-05 0.013897554874597685 0 7.7677048988815563e-05 0.013835376241426363 0 0.0001065249604480118 0.01358600328368896 0 7.7677048988815563e-05 0.013835376241426363 0 9.7886964831446919e-05 0.013590363168938824 0 7.1994608485754719e-05 0.013786559338792687 0 0.00014796524864699761 0.013599418428953819 0 0.0001582265509296836 0.013351404993148557 0 0.0001065249604480118 0.01358600328368896 0 1.9960335409412669e-05 0.013897554874597685 0 0.00014796524864699761 0.013599418428953819 0 0.0001065249604480118 0.01358600328368896 0 0.0001582265509296836 0.013351404993148557 0 0.00013733662252675817 0.01333348671959287 0 0.00016495113045064515 0.01304395049898063 0 0.0001582265509296836 0.013351404993148557 0 0.0001065249604480118 0.01358600328368896 0 0.00013733662252675817 0.01333348671959287 0 0.00013733662252675817 0.01333348671959287 0 9.7886964831446919e-05 0.013590363168938824 0 0.0001089251398777605 0.013418225385536322 0 0.0001065249604480118 0.01358600328368896 0 0.00013733662252675817 0.01333348671959287 0 9.7886964831446919e-05 0.013590363168938824 0 9.7886964831446919e-05 0.013590363168938824 0 4.2518352763052075e-05 0.01359557983701166 0 0.0001089251398777605 0.013418225385536322 0 9.7886964831446919e-05 0.013590363168938824 0 4.2518352763052075e-05 0.01359557983701166 0 7.1994608485754719e-05 0.013786559338792687 0 4.2518352763052075e-05 0.01359557983701166 0 7.1994608485754719e-05 0.013786559338792687 0 2.4376237387861977e-05 0.01384933715230321 0 7.7677048988815563e-05 0.013835376241426363 0 7.1994608485754719e-05 0.013786559338792687 0 8.7489152070468714e-05 0.014015826927527916 0 7.1994608485754719e-05 0.013786559338792687 0 8.7489152070468714e-05 0.014015826927527916 0 2.4376237387861977e-05 0.01384933715230321 0 8.7489152070468714e-05 0.014015826927527916 0 -1.1448645489013248e-05 0.014001214754147062 0 3.4256848940338538e-05 0.01435369005381445 0 8.7489152070468714e-05 0.014015826927527916 0 2.4376237387861977e-05 0.01384933715230321 0 -1.1448645489013248e-05 0.014001214754147062 0 2.4376237387861977e-05 0.01384933715230321 0 -8.4740305554414499e-05 0.013805223896159778 0 -1.1448645489013248e-05 0.014001214754147062 0 4.2518352763052075e-05 0.01359557983701166 0 2.4376237387861977e-05 0.01384933715230321 0 -8.4740305554414499e-05 0.013805223896159778 0 -8.4740305554414499e-05 0.013805223896159778 0 -0.00017549722732878656 0.013980207312832111 0 -2.702660880205118e-05 0.013872740264229322 0 -7.5792107016635119e-05 0.014497317481806493 0 -2.5372542122511745e-05 0.014443058968537141 0 -8.4740305554414499e-05 0.013805223896159778 0 -0.00017549722732878656 0.013980207312832111 0 -1.1448645489013248e-05 0.014001214754147062 0 -3.9115401806068183e-07 0.014999397493839873 0 -2.3215625606467117e-05 0.014991913065068098 0 -1.4479988228294487e-05 0.014989525773354249 0 -3.9115401806068183e-07 0.014999397493839873 0 -2.3215625606467117e-05 0.014991913065068098 0 -4.0572900125278171e-05 0.01488691334886123 0 -7.5792107016635119e-05 0.014497317481806493 0 -6.1045134561390685e-05 0.014826059963921853 0 -0.00017549722732878656 0.013980207312832111 0 -1.1448645489013248e-05 0.014001214754147062 0 3.4256848940338538e-05 0.01435369005381445 0 -0.00017549722732878656 0.013980207312832111 0 3.4256848940338538e-05 0.01435369005381445 0 -4.0572900125278171e-05 0.01488691334886123 0 1.0543693835017413e-05 0.014622881547545515 0 3.4256848940338538e-05 0.01435369005381445 0 -4.0572900125278171e-05 0.01488691334886123 0 1.0543693835017413e-05 0.014622881547545515 0 3.4256848940338538e-05 0.01435369005381445 0 0.0001225630180792848 0.014229571219116123 0 1.0543693835017413e-05 0.014622881547545515 0 0.0002063172625979126 0.014218387737894682 0 0.0001225630180792848 0.014229571219116123 0 0.0002063172625979126 0.014218387737894682 0 0.00010938655381969187 0.014042081205429229 0 0.0001225630180792848 0.014229571219116123 0 4.3573855683673106e-05 0.01389540377067673 0 0.0002063172625979126 0.014218387737894682 0 0.00010938655381969187 0.014042081205429229 0 7.7677048988815563e-05 0.013835376241426363 0 8.7489152070468714e-05 0.014015826927527916 0 0.00010938655381969187 0.014042081205429229 0 8.7489152070468714e-05 0.014015826927527916 0 0.00010938655381969187 0.014042081205429229 0 0.0001225630180792848 0.014229571219116123 0 8.7489152070468714e-05 0.014015826927527916 0 3.4256848940338538e-05 0.01435369005381445 0 0.0001225630180792848 0.014229571219116123 0 0.00018038122792386407 0.0077638258825716514 0 0.00039283389358457904 0.0076393730931621356 0 0.00025254808019087928 0.0082355571738608677 0 0.00029086860969687242 0.0080886182929528986 0 0.00041680244579698014 0.0081040391480181155 0 0.00025254808019087928 0.0082355571738608677 0 0.00023293366758307517 0.0084091091091709619 0 0.00041680244579698014 0.0081040391480181155 0 0.00025254808019087928 0.0082355571738608677 0 0.00010652183557983542 0.0085057137816936332 0 0.00020780840185845238 0.0081204079257304797 0 0.00025254808019087928 0.0082355571738608677 0 0.00020780840185845238 0.0081204079257304797 0 0.00029086860969687242 0.0080886182929528986 0 0.00025254808019087928 0.0082355571738608677 0 0.00010652183557983542 0.0085057137816936332 0 0.00023293366758307517 0.0084091091091709619 0 0.00010652183557983542 0.0085057137816936332 0 0.00023293366758307517 0.0084091091091709619 0 -3.4208124629236559e-05 0.0082639494792379684 0 8.1009126269085895e-05 0.0070916061606712197 0 0.00010013439513036491 0.0075239189786603785 0 0.00022780773422264518 0.0069658393362180687 0 8.1009126269085895e-05 0.0070916061606712197 0 0.00010013439513036491 0.0075239189786603785 0 -3.4208124629236559e-05 0.0082639494792379684 0 0.00010013439513036491 0.0075239189786603785 0 -1.5194864328039593e-08 0.0079545464507178847 0 -3.4208124629236559e-05 0.0082639494792379684 0 0.00010013439513036491 0.0075239189786603785 0 -1.5194864328039593e-08 0.0079545464507178847 0 2.527080824664068e-07 0.007073972834309065 0 -1.5194864328039593e-08 0.0079545464507178847 0 -3.4208124629236559e-05 0.0082639494792379684 0 -4.7596419417881967e-08 0.0088352139641661529 0 0.00018038122792386407 0.0077638258825716514 0 -1.232926366572918e-05 0.0081822943325903525 0 0.00010652183557983542 0.0085057137816936332 0 -3.4208124629236559e-05 0.0082639494792379684 0 6.2302631929850656e-07 0.0086332219123189877 0 -3.4208124629236559e-05 0.0082639494792379684 0 6.2302631929850656e-07 0.0086332219123189877 0 -3.7333546500249802e-05 0.0088417432417594744 0 6.2302631929850656e-07 0.0086332219123189877 0 -3.7333546500249802e-05 0.0088417432417594744 0 -0.00013605373156756891 0.0090256332795785668 0 -3.4208124629236559e-05 0.0082639494792379684 0 -3.7333546500249802e-05 0.0088417432417594744 0 -4.7596419417881967e-08 0.0088352139641661529 0 -3.7333546500249802e-05 0.0088417432417594744 0 -4.7596419417881967e-08 0.0088352139641661529 0 7.8756136987000278e-06 0.0093608358994738822 0 -4.7596419417881967e-08 0.0088352139641661529 0 7.8756136987000278e-06 0.0093608358994738822 0 1.6060848380045963e-09 0.0097155046700600663 0 -3.7333546500249802e-05 0.0088417432417594744 0 -0.00013605373156756891 0.0090256332795785668 0 7.8756136987000278e-06 0.0093608358994738822 0 -0.00013605373156756891 0.0090256332795785668 0 1.7887564937173905e-05 0.0094947945176685651 0 7.8756136987000278e-06 0.0093608358994738822 0 -0.00018654985716539627 0.0097269673040970596 0 6.9717847864837106e-05 0.0098177702211323988 0 1.7887564937173905e-05 0.0094947945176685651 0 -0.00013605373156756891 0.0090256332795785668 0 -0.00018654985716539627 0.0097269673040970596 0 1.7887564937173905e-05 0.0094947945176685651 0 -0.00013605373156756891 0.0090256332795785668 0 -0.0003208652362263308 0.00853092795724621 0 -5.3208400679877755e-05 0.008403944956692359 0 -0.00017818721680275458 0.0090646074075840348 0 -0.00023214646024928153 0.0090902437449366137 0 0.00010652183557983542 0.0085057137816936332 0 -0.00013605373156756891 0.0090256332795785668 0 -5.3208400679877755e-05 0.008403944956692359 0 0.00010652183557983542 0.0085057137816936332 0 6.2302631929850656e-07 0.0086332219123189877 0 -0.00013605373156756891 0.0090256332795785668 0 0.00010652183557983542 0.0085057137816936332 0 -5.3208400679877755e-05 0.008403944956692359 0 0.00020780840185845238 0.0081204079257304797 0 -5.3208400679877755e-05 0.008403944956692359 0 -5.7548335949543776e-05 0.0081550704077684132 0 0.00020780840185845238 0.0081204079257304797 0 0.00017785655501986408 0.0081415237582794283 0 0.00019726699119899065 0.0081121330296922995 0 -5.3208400679877755e-05 0.008403944956692359 0 -5.7548335949543776e-05 0.0081550704077684132 0 -0.00037541716735466199 0.0081815495243084332 0 -0.00018654985716539627 0.0097269673040970596 0 -0.00012640027214184263 0.0099814053690596947 0 6.9717847864837106e-05 0.0098177702211323988 0 0.00017785655501986408 0.0081415237582794283 0 -0.00013614625529726856 0.0092333796984108273 0 -0.00023214646