<?xml version="1.0"?>
<VTKFile type="UnstructuredGrid" version="0.1" byte_order="LittleEndian">
<UnstructuredGrid>
<Piece NumberOfPoints="31654" NumberOfCells="11073">
<Points>
<DataArray type="Float64" NumberOfComponents="3" format="ascii">
-0.5 -0.5 0 -0.49999999999999961 -0.4955045412525596 0 -0.48963209310728212 -0.50000000000000422 0 -0.49999999999999961 -0.4955045412525596 0 -0.48203849089195971 -0.47713094086527608 0 -0.49999999999999961 -0.4955045412525596 0 -0.48963209310728212 -0.50000000000000422 0 -0.48203849089195971 -0.47713094086527608 0 -0.49999999999999961 -0.4955045412525596 0 -0.48203849089195971 -0.47713094086527608 0 -0.5 -0.46595673819470768 0 -0.46990870762866721 -0.47934720221353289 0 -0.48203849089195971 -0.47713094086527608 0 -0.46407698178391998 -0.45875734047799233 0 -0.48963209310728212 -0.50000000000000422 0 -0.46990870762866721 -0.47934720221353289 0 -0.48963209310728212 -0.50000000000000422 0 -0.46990870762866721 -0.47934720221353289 0 -0.48203849089195971 -0.47713094086527608 0 -0.48963209310728212 -0.50000000000000422 0 -0.46990870762866721 -0.47934720221353289 0 -0.46243590185244349 -0.5 0 -0.46990870762866721 -0.47934720221353289 0 -0.45363353302438197 -0.48971701633361631 0 -0.46243590185244349 -0.5 0 -0.46990870762866721 -0.47934720221353289 0 -0.45363353302438197 -0.48971701633361631 0 -0.44694981201881268 -0.47952086312093228 0 -0.46990870762866721 -0.47934720221353289 0 -0.44694981201881268 -0.47952086312093228 0 -0.45018532215005441 -0.45869440442705972 0 -0.46990870762866721 -0.47934720221353289 0 -0.45018532215005441 -0.45869440442705972 0 -0.44694981201881268 -0.47952086312093228 0 -0.45018532215005441 -0.45869440442705972 0 -0.43676142814697039 -0.46882345795161567 0 -0.45363353302438197 -0.48971701633361631 0 -0.46243590185244349 -0.5 0 -0.43523971059760491 -0.5 0 -0.45363353302438197 -0.48971701633361631 0 -0.44694981201881268 -0.47952086312093228 0 -0.43523971059760491 -0.5 0 -0.45018532215005441 -0.45869440442705972 0 -0.43046193667144161 -0.43804160664058639 0 -0.44611547267588031 -0.44038374009070869 0 -0.45018532215005441 -0.45869440442705972 0 -0.43046193667144161 -0.43804160664058639 0 -0.45018532215005441 -0.45869440442705972 0 -0.43676142814697039 -0.46882345795161567 0 -0.43177850281690772 -0.45628229593173408 0 -0.46990870762866721 -0.47934720221353289 0 -0.45018532215005441 -0.45869440442705972 0 -0.46407698178391998 -0.45875734047799233 0 -0.46407698178391998 -0.45875734047799233 0 -0.46250953793196992 -0.4412457854006509 0 -0.47684596925265937 -0.44496942617860208 0 -0.44611547267588031 -0.44038374009070869 0 -0.46407698178391998 -0.45875734047799233 0 -0.46250953793196992 -0.4412457854006509 0 -0.44611547267588031 -0.44038374009070869 0 -0.46407698178391998 -0.45875734047799233 0 -0.44611547267588031 -0.44038374009070869 0 -0.45018532215005441 -0.45869440442705972 0 -0.46407698178391998 -0.45875734047799233 0 -0.46250953793196992 -0.4412457854006509 0 -0.47684596925265937 -0.44496942617860208 0 -0.47376596402009991 -0.43093597365180991 0 -0.48203849089195971 -0.47713094086527608 0 -0.46407698178391998 -0.45875734047799233 0 -0.48203849089195971 -0.47713094086527608 0 -0.46407698178391998 -0.45875734047799233 0 -0.4838773625273069 -0.45749909622570117 0 -0.46407698178391998 -0.45875734047799233 0 -0.47684596925265937 -0.44496942617860208 0 -0.4838773625273069 -0.45749909622570117 0 -0.48203849089195971 -0.47713094086527608 0 -0.4838773625273069 -0.45749909622570117 0 -0.5 -0.46595673819470768 0 -0.4838773625273069 -0.45749909622570117 0 -0.5 -0.46595673819470768 0 -0.5 -0.43640893513685569 0 -0.47684596925265937 -0.44496942617860208 0 -0.4838773625273069 -0.45749909622570117 0 -0.5 -0.43640893513685569 0 -0.5 -0.43640893513685569 0 -0.48807352787942693 -0.42163503360792981 0 -0.47376596402009991 -0.43093597365180991 0 -0.5 -0.43640893513685569 0 -0.48807352787942693 -0.42163503360792981 0 -0.5 -0.40686113207900387 0 -0.48807352787942693 -0.42163503360792981 0 -0.5 -0.40686113207900387 0 -0.48647090372502799 -0.39376645540432531 0 -0.48807352787942693 -0.42163503360792981 0 -0.48647090372502799 -0.39376645540432531 0 -0.4667787485529945 -0.405586497379263 0 -0.48807352787942693 -0.42163503360792981 0 -0.47376596402009991 -0.43093597365180991 0 -0.4667787485529945 -0.405586497379263 0 -0.47684596925265937 -0.44496942617860208 0 -0.5 -0.43640893513685569 0 -0.47376596402009991 -0.43093597365180991 0 -0.5 -0.377313329021152 0 -0.48647090372502799 -0.39376645540432531 0 -0.47048170016765112 -0.38129471166342299 0 -0.5 -0.40686113207900387 0 -0.5 -0.377313329021152 0 -0.48647090372502799 -0.39376645540432531 0 -0.48647090372502799 -0.39376645540432531 0 -0.47048170016765112 -0.38129471166342299 0 -0.4667787485529945 -0.405586497379263 0 -0.47048170016765112 -0.38129471166342299 0 -0.44746665090917243 -0.39413820001010119 0 -0.44808162225674392 -0.37692182579735289 0 -0.47048170016765112 -0.38129471166342299 0 -0.4667787485529945 -0.405586497379263 0 -0.44746665090917243 -0.39413820001010119 0 -0.47048170016765112 -0.38129471166342299 0 -0.4667787485529945 -0.405586497379263 0 -0.4667787485529945 -0.405586497379263 0 -0.44746665090917243 -0.39413820001010119 0 -0.44389815475070749 -0.41309320310289299 0 -0.44746665090917243 -0.39413820001010119 0 -0.44389815475070749 -0.41309320310289299 0 -0.4268810438033932 -0.40405875814065001 0 -0.44808162225674392 -0.37692182579735289 0 -0.43026145018299999 -0.38326351845830642 0 -0.43543039476948919 -0.36685570225466702 0 -0.44746665090917243 -0.39413820001010119 0 -0.44808162225674392 -0.37692182579735289 0 -0.43026145018299999 -0.38326351845830642 0 -0.44611547267588031 -0.44038374009070869 0 -0.46250953793196992 -0.4412457854006509 0 -0.45531793121929531 -0.42691034632906982 0 -0.46250953793196992 -0.4412457854006509 0 -0.47376596402009991 -0.43093597365180991 0 -0.45531793121929531 -0.42691034632906982 0 -0.4667787485529945 -0.405586497379263 0 -0.45531793121929531 -0.42691034632906982 0 -0.44389815475070749 -0.41309320310289299 0 -0.47376596402009991 -0.43093597365180991 0 -0.4667787485529945 -0.405586497379263 0 -0.45531793121929531 -0.42691034632906982 0 -0.44389815475070749 -0.41309320310289299 0 -0.44123627706134622 -0.4277108435848444 0 -0.43038788998940619 -0.42012532176096379 0 -0.44611547267588031 -0.44038374009070869 0 -0.44123627706134622 -0.4277108435848444 0 -0.43046193667144161 -0.43804160664058639 0 -0.45531793121929531 -0.42691034632906982 0 -0.44389815475070749 -0.41309320310289299 0 -0.44123627706134622 -0.4277108435848444 0 -0.44611547267588031 -0.44038374009070869 0 -0.45531793121929531 -0.42691034632906982 0 -0.44123627706134622 -0.4277108435848444 0 -0.44123627706134622 -0.4277108435848444 0 -0.43038788998940619 -0.42012532176096379 0 -0.43046193667144161 -0.43804160664058639 0 -0.43038788998940619 -0.42012532176096379 0 -0.41073855119282882 -0.41738880885411322 0 -0.43046193667144161 -0.43804160664058639 0 -0.44389815475070749 -0.41309320310289299 0 -0.43038788998940619 -0.42012532176096379 0 -0.4268810438033932 -0.40405875814065001 0 -0.43038788998940619 -0.42012532176096379 0 -0.41073855119282882 -0.41738880885411322 0 -0.4268810438033932 -0.40405875814065001 0 -0.41073855119282882 -0.41738880885411322 0 -0.4061748184439441 -0.43549875007120742 0 -0.43046193667144161 -0.43804160664058639 0 -0.41073855119282882 -0.41738880885411322 0 -0.43046193667144161 -0.43804160664058639 0 -0.43026145018299999 -0.38326351845830642 0 -0.4268810438033932 -0.40405875814065001 0 -0.41111747537830812 -0.39127236395216508 0 -0.44746665090917243 -0.39413820001010119 0 -0.43026145018299999 -0.38326351845830642 0 -0.4268810438033932 -0.40405875814065001 0 -0.41073855119282882 -0.41738880885411322 0 -0.4268810438033932 -0.40405875814065001 0 -0.41111747537830812 -0.39127236395216508 0 -0.43026145018299999 -0.38326351845830642 0 -0.41111747537830812 -0.39127236395216508 0 -0.41634473552900092 -0.37082329016511723 0 -0.41111747537830812 -0.39127236395216508 0 -0.41634473552900092 -0.37082329016511723 0 -0.39304672010686581 -0.37475311150844498 0 -0.41111747537830812 -0.39127236395216508 0 -0.39101516571421591 -0.39673601106763989 0 -0.39304672010686581 -0.37475311150844498 0 -0.41073855119282882 -0.41738880885411322 0 -0.41111747537830812 -0.39127236395216508 0 -0.39101516571421591 -0.39673601106763989 0 -0.39101516571421591 -0.39673601106763989 0 -0.36842202000709551 -0.4069503877282013 0 -0.37121257174217581 -0.38460265902015978 0 -0.39101516571421591 -0.39673601106763989 0 -0.38512768531393771 -0.40976189400084922 0 -0.36842202000709551 -0.4069503877282013 0 -0.39101516571421591 -0.39673601106763989 0 -0.39304672010686581 -0.37475311150844498 0 -0.37121257174217581 -0.38460265902015978 0 -0.41073855119282882 -0.41738880885411322 0 -0.4061748184439441 -0.43549875007120742 0 -0.38590425447482968 -0.42403540064749051 0 -0.39235059255532651 -0.43725519633794602 0 -0.4061748184439441 -0.43549875007120742 0 -0.38590425447482968 -0.42403540064749051 0 -0.41073855119282882 -0.41738880885411322 0 -0.39101516571421591 -0.39673601106763989 0 -0.41073855119282882 -0.41738880885411322 0 -0.39101516571421591 -0.39673601106763989 0 -0.38512768531393771 -0.40976189400084922 0 -0.41073855119282882 -0.41738880885411322 0 -0.38512768531393771 -0.40976189400084922 0 -0.38590425447482968 -0.42403540064749051 0 -0.38512768531393771 -0.40976189400084922 0 -0.37222584211108473 -0.42374855568549852 0 -0.36842202000709551 -0.4069503877282013 0 -0.38512768531393771 -0.40976189400084922 0 -0.38590425447482968 -0.42403540064749051 0 -0.37222584211108473 -0.42374855568549852 0 -0.38590425447482968 -0.42403540064749051 0 -0.37969946268683807 -0.44093739067353832 0 -0.37222584211108473 -0.42374855568549852 0 -0.38590425447482968 -0.42403540064749051 0 -0.37969946268683807 -0.44093739067353832 0 -0.39235059255532651 -0.43725519633794602 0 -0.38590425447482968 -0.42403540064749051 0 -0.37969946268683807 -0.44093739067353832 0 -0.37969946268683
[...]
<PointData Scalars="" Vectors="displacement," Tensors="">
<DataArray type="Float64" Name="displacement" NumberOfComponents="3" format="ascii">
0.014999654817637173 0.014999852730674801 0 0.014866160020218276 0.014999157097227621 0 0.014999430037671785 0.014689988185107189 0 0.014864971790048741 0.014999992371673735 0 0.01433920382869024 0.015062916694345507 0 0.014866160020218276 0.014999157097227621 0 0.014999430037671785 0.014689988185107189 0 0.014521548931567468 0.014677632158173498 0 0.014865096187611049 0.015000042322725622 0 0.014201212523665813 0.015420558435595744 0 0.013978395858763794 0.014999800489065088 0 0.014507027833249902 0.014943952287047018 0 0.014521548931567468 0.014677632158173498 0 0.013606254905999236 0.01501602810503354 0 0.01499999895843746 0.014688904476739874 0 0.015002053926327056 0.014466537742629446 0 0.014999430037671785 0.014689988185107189 0 0.014507027833249902 0.014943952287047018 0 0.014521548931567468 0.014677632158173498 0 0.01500003149158579 0.01468893514034793 0 0.015522659549945863 0.014001029174472211 0 0.014999877860021146 0.013872887684167225 0 0.015522659549945863 0.014001029174472211 0 0.01524014131839118 0.013543229864368043 0 0.014999877860021146 0.013872887684167225 0 0.015522659549945863 0.014001029174472211 0 0.01524014131839118 0.013543229864368043 0 0.015465144491908781 0.013275963366198388 0 0.015522659549945863 0.014001029174472211 0 0.015465144491908781 0.013275963366198388 0 0.015892419665987621 0.013217481067086806 0 0.015002053926327056 0.014466537742629446 0 0.014689868964273829 0.014278165050970579 0 0.015465144491908781 0.013275963366198388 0 0.015892419665987621 0.013217481067086806 0 0.015658183896707339 0.012922343593014116 0 0.01524014131839118 0.013543229864368043 0 0.014999877860021146 0.013872887684167225 0 0.014999922556210341 0.013057036162852274 0 0.01524014131839118 0.013543229864368043 0 0.015465144491908781 0.013275963366198388 0 0.014999922556210341 0.013057036162852274 0 0.014689868964273829 0.014278165050970579 0 0.014322142190346597 0.013813468877504268 0 0.012974112470378281 0.015324322023364827 0 0.013499343657728227 0.015377198215300281 0 0.012765014697806788 0.015164797255224646 0 0.015892419665987621 0.013217481067086806 0 0.015658183896707339 0.012922343593014116 0 0.015814187224437056 0.012708626175293966 0 0.014507027833249902 0.014943952287047018 0 0.013499343657728227 0.015377198215300281 0 0.013606254905999236 0.01501602810503354 0 0.013455969383156035 0.015623279795576058 0 0.013108705097619508 0.015485831430158621 0 0.013250600180996929 0.015412497382245011 0 0.012974112470378281 0.015324322023364827 0 0.013455969383156035 0.015623279795576058 0 0.013108705097619508 0.015485831430158621 0 0.013051350282650141 0.015351067882747612 0 0.013539188304440185 0.015301383120851319 0 0.012974112470378281 0.015324322023364827 0 0.013499343657728227 0.015377198215300281 0 0.013606254905999236 0.01501602810503354 0 0.013108705097619508 0.015485831430158621 0 0.013250600180996929 0.015412497382245011 0 0.012963797686188978 0.015449097462978881 0 0.01433920382869024 0.015062916694345507 0 0.013539188304440185 0.015301383120851319 0 0.014201212523665813 0.015420558435595744 0 0.013455969383156035 0.015623279795576058 0 0.013611595333911425 0.015322038113909387 0 0.013455969383156035 0.015623279795576058 0 0.013250600180996929 0.015412497382245011 0 0.013611595333911425 0.015322038113909387 0 0.014201212523665813 0.015420558435595744 0 0.013611595333911425 0.015322038113909387 0 0.013978395858763794 0.014999800489065088 0 0.013611595333911425 0.015322038113909387 0 0.013978395858763794 0.014999800489065088 0 0.01309226162795182 0.01499997383877949 0 0.013250600180996929 0.015412497382245011 0 0.013611595333911425 0.015322038113909387 0 0.01309226162795182 0.01499997383877949 0 0.01309226162795182 0.01499997383877949 0 0.012747186893474816 0.015256732067899037 0 0.012963797686188978 0.015449097462978881 0 0.01309226162795182 0.01499997383877949 0 0.012747186893474816 0.015256732067899037 0 0.012206262307686056 0.014999882916051317 0 0.012747186893474816 0.015256732067899037 0 0.012206262307686056 0.014999882916051317 0 0.011997090424350456 0.015278957160333659 0 0.012747186893474816 0.015256732067899037 0 0.011997090424350456 0.015278957160333659 0 0.01276043646284337 0.015604341514722385 0 0.012747186893474816 0.015256732067899037 0 0.012963797686188978 0.015449097462978881 0 0.01276043646284337 0.015604341514722385 0 0.013250600180996929 0.015412497382245011 0 0.01309226162795182 0.01499997383877949 0 0.012963797686188978 0.015449097462978881 0 0.011319641480507523 0.014999804602977789 0 0.011997090424350456 0.015278957160333659 0 0.011563604874307892 0.015796680327115932 0 0.012206262307686056 0.014999882916051317 0 0.011319641480507523 0.014999804602977789 0 0.011997090424350456 0.015278957160333659 0 0.011997090424350456 0.015278957160333659 0 0.011563604874307892 0.015796680327115932 0 0.01276043646284337 0.015604341514722385 0 0.01356500931508965 0.015350258929689558 0 0.013340461260837476 0.015171561148712587 0 0.013579574243640757 0.01523091615727558 0 0.01356500931508965 0.015350258929689558 0 0.01276043646284337 0.015604341514722385 0 0.013340461260837476 0.015171561148712587 0 0.012518637402466963 0.015539674080558487 0 0.012715895221695191 0.015602765241170234 0 0.01276043646284337 0.015604341514722385 0 0.013340461260837476 0.015171561148712587 0 0.013016554397828719 0.015206238327441553 0 0.013340461260837476 0.015171561148712587 0 0.013016554397828719 0.015206238327441553 0 0.013346155713204261 0.014696899343160593 0 0.013579574243640757 0.01523091615727558 0 0.013758352559613477 0.014680025703528186 0 0.013933352657430436 0.014840729997433343 0 0.013340461260837476 0.015171561148712587 0 0.013579574243640757 0.01523091615727558 0 0.013758352559613477 0.014680025703528186 0 0.012974112470378281 0.015324322023364827 0 0.013108705097619508 0.015485831430158621 0 0.012932753519743486 0.015426527468276987 0 0.013108705097619508 0.015485831430158621 0 0.012963797686188978 0.015449097462978881 0 0.012932753519743486 0.015426527468276987 0 0.01276043646284337 0.015604341514722385 0 0.012932753519743486 0.015426527468276987 0 0.013016554397828719 0.015206238327441553 0 0.012963797686188978 0.015449097462978881 0 0.01276043646284337 0.015604341514722385 0 0.012932753519743486 0.015426527468276987 0 0.013016554397828719 0.015206238327441553 0 0.012906417350744166 0.015227407529491508 0 0.012973408481699589 0.014921541019065452 0 0.012974112470378281 0.015324322023364827 0 0.012906417350744166 0.015227407529491508 0 0.012765014697806788 0.015164797255224646 0 0.012932753519743486 0.015426527468276987 0 0.013016554397828719 0.015206238327441553 0 0.012906417350744166 0.015227407529491508 0 0.012974112470378281 0.015324322023364827 0 0.012932753519743486 0.015426527468276987 0 0.012906417350744166 0.015227407529491508 0 0.012906417350744166 0.015227407529491508 0 0.012973408481699589 0.014921541019065452 0 0.012765014697806788 0.015164797255224646 0 0.012973408481699589 0.014921541019065452 0 0.012960265975755411 0.014142548116190146 0 0.012765014697806788 0.015164797255224646 0 0.013016554397828719 0.015206238327441553 0 0.012973408481699589 0.014921541019065452 0 0.013346155713204261 0.014696899343160593 0 0.012973408481699589 0.014921541019065452 0 0.012960265975755411 0.014142548116190146 0 0.013346155713204261 0.014696899343160593 0 0.015258956567395855 0.01225765866544937 0 0.015653553933833966 0.012340828789456021 0 0.015872086800249964 0.01247564648831651 0 0.014139161113216231 0.013232060659165686 0 0.014322142190346597 0.013813468877504268 0 0.013758352559613477 0.014680025703528186 0 0.013346155713204261 0.014696899343160593 0 0.013972891307868458 0.013948879503080203 0 0.013340461260837476 0.015171561148712587 0 0.013758352559613477 0.014680025703528186 0 0.013346155713204261 0.014696899343160593 0 0.012960265975755411 0.014142548116190146 0 0.013346155713204261 0.014696899343160593 0 0.013972891307868458 0.013948879503080203 0 0.013758352559613477 0.014680025703528186 0 0.013972891307868458 0.013948879503080203 0 0.014211170880358311 0.014110160092689812 0 0.013972891307868458 0.013948879503080203 0 0.014211170880358311 0.014110160092689812 0 0.014494809468758665 0.013211309834949793 0 0.013972891307868458 0.013948879503080203 0 0.014314800483244657 0.01294238482563489 0 0.014494809468758665 0.013211309834949793 0 0.012960265975755411 0.014142548116190146 0 0.013972891307868458 0.013948879503080203 0 0.014314800483244657 0.01294238482563489 0 0.014314800483244657 0.01294238482563489 0 0.014982234892842844 0.012664987064938182 0 0.014730010949827335 0.012844223095349865 0 0.014314800483244657 0.01294238482563489 0 0.01484425634674735 0.012816041378173621 0 0.014982234892842844 0.012664987064938182 0 0.014314800483244657 0.01294238482563489 0 0.014494809468758665 0.013211309834949793 0 0.014730010949827335 0.012844223095349865 0 0.015258956567395855 0.01225765866544937 0 0.015653553933833966 0.012340828789456021 0 0.015172458336270791 0.012699666955564529 0 0.015595793378082914 0.012530014486241343 0 0.015653553933833966 0.012340828789456021 0 0.015172458336270791 0.012699666955564529 0 0.014139161113216231 0.013232060659165686 0 0.014291223707474238 0.012958429968812132 0 0.015258956567395855 0.01225765866544937 0 0.014314800483244657 0.01294238482563489 0 0.01484425634674735 0.012816041378173621 0 0.015258956567395855 0.01225765866544937 0 0.01484425634674735 0.012816041378173621 0 0.015172458336270791 0.012699666955564529 0 0.01484425634674735 0.012816041378173621 0 0.015101432290068932 0.012543424119259055 0 0.014982234892842844 0.012664987064938182 0 0.01484425634674735 0.012816041378173621 0 0.015172458336270791 0.012699666955564529 0 0.015101432290068932 0.012543424119259055 0 0.015172458336270791 0.012699666955564529 0 0.014988741553054711 0.01251712308684208 0 0.015101432290068932 0.012543424119259055 0 0.015200725932894925 0.012690899319212723 0 0.015338428882222598 0.012715423073208016 0 0.015595793378082914 0.012530014486241343 0 0.015172458336270791 0.012699666955564529 0 0.01568487024661968 0.012884125238715429 0 0.015338428882222598 0.012715423073208016 0 0.015735022999650364 0.011974209990803718 0 0.015595793378082914 0.012530014486241343 0 0.01568487024661968 0.012884125238715429 0 0.015900912267390412 0.012298557678239095 0 0.01568487024661968 0.012884125238715429 0 0.015900912267390412 0.012298557678239095 0 0.016210535968077994 0.01306833014990952 0 0.015595793378082914 0.012530014486241343 0 0.015653553933833966 0.012340828789456021 0 0.015900912267390412 0.012298557678239095 0 0.015900912267390412 0.012298557678239095 0 0.015725711058376769 0.012262701800321274 0 0.01583591052305711 0.012419655144253571 0 0.015900912267390412 0.012298557678239095 0 0.015725711058376769 0.012262701800321274 0 0.015737607884272205 0.011931208832059123 0 0.015900912267390412 0.012298557678239095 0 0.015737607884272205 0.011931208832059123 0 0.015939429937728605 0.011478263914113215 0 0.016027811209637557 0.012409227509747467 0 0.015735022999650364 0.011974209990803718 0 0.015737607884272205 0.011931208832059123 0 0.015627983007088245 0.011593252806876057 0 0.015939429937728605 0.011478263914113215 0 0.015627983007088245 0.011593252806876057 0 0.015375789088461074 0.011461055795618357 0 0.015466316705253816 0.011892248326074948 0 0.015737607884272205 0.011931208832059123 0 0.015627983007088245 0.011593252806876057 0 0.015466316705253816 0.011892248326074948 0 0.015375789088461074 0.011461055795618357 0 0.014999893147319358 0.011425636862076274 0 0.015466316705253816 0.011892248326074948 0 0.015375789088461074 0.011461055795618357 0 0.014999893147319358 0.011425636862076274 0 0.015236668745553074 0.011221228064057849 0 0.015466316705253816 0.011892248326074948 0 0.015439872591401817 0.0123440547733199 0 0.01499995511000108 0.012241358648907541 0 0.014999893147319358 0.011425636862076274 0 0.015466316705253816 0.011892248326074948 0 0.01499995511000108 0.012241358648907541 0 0.015725711058376769 0.012262701800321274 0 0.015466316705253816 0.011892248326074948 0 0.015439872591401817 0.0123440547733199 0 0.015725711058376769 0.012262701800321274 0 0.015737607884272205 0.011931208832059123 0 0.015466316705253816 0.011892248326074948 0 0.015439872591401817 0.0123440547733199 0 0.015388707752034018 0.012770438886460112 0 0.015684581248886071 0.012580979723832982 0 0.015725711058376769 0.012262701800321274 0 0.015439872591401817 0.0123440547733199 0 0.015684581248886071 0.012580979723832982 0 0.015439872591401817 0.0123440547733199 0 0.01499995511000108 0.012241358648907541 0 0.015388707752034018 0.012770438886460112 0 0.015465144491908781 0.013275963366198388 0 0.014999922556210341 0.013057036162852274 0 0.015388707752034018 0.012770438886460112 0 0.01499995511000108 0.012241358648907541 0 0.014999922556210341 0.013057036162852274 0 0.015388707752034018 0.012770438886460112 0 0.015465144491908781 0.013275963366198388 0 0.015388707752034018 0.012770438886460112 0 0.015658183896707339 0.012922343593014116 0 0.015388707752034018 0.012770438886460112 0 0.015658183896707339 0.012922343593014116 0 0.015684581248886071 0.012580979723832982 0 0.015684581248886071 0.012580979723832982 0 0.015814187224437056 0.012708626175293966 0 0.01583591052305711 0.012419655144253571 0 0.015658183896707339 0.012922343593014116 0 0.015684581248886071 0.012580979723832982 0 0.015814187224437056 0.012708626175293966 0 0.015892419665987621 0.013217481067086806 0 0.015814187224437056 0.012708626175293966 0 0.015872086800249964 0.01247564648831651 0 0.015814187224437056 0.012708626175293966 0 0.015872086800249964 0.01247564648831651 0 0.01583591052305711 0.012419655144253571 0 0.015653553933833966 0.012340828789456021 0 0.015872086800249964 0.01247564648831651 0 0.01583591052305711 0.012419655144253571 0 0.015653553933833966 0.012340828789456021 0 0.015900912267390412 0.012298557678239095 0 0.01583591052305711 0.012419655144253571 0 0.015725711058376769 0.012262701800321274 0 0.015684581248886071 0.012580979723832982 0 0.01583591052305711 0.012419655144253571 0 0.0095199436635332209 0.016440062990996665 0 0.0095896253175021262 0.016300291002352505 0 0.0083402251817649761 0.0161791578545783 0 0.0095896253175021262 0.016300291002352505 0 0.0093559541465966425 0.016345384728237114 0 0.0095067779243518304 0.01632077825703962 0 0.007999656095437414 0.016512943047248669 0 0.0083547235901358964 0.016242386468961093 0 0.008033850697439884 0.016219503150897333 0 0.0077834916774264015 0.016401951798275669 0 0.007999656095437414 0.016512943047248669 0 0.008033850697439884 0.016219503150897333 0 0.0077834916774264015 0.016401951798275669 0 0.008033850697439884 0.016219503150897333 0 0.0077680195026276974 0.016092039804918423 0 0.0080103630639721691 0.016332497191796247 0 0.0084456909000036086 0.016475520011565339 0 0.0095199436635332209 0.016440062990996665 0 0.0095896253175021262 0.016300291002352505 0 0.0095067779243518304 0.01632077825703962 0 0.0081055406762660358 0.016490185573233018 0 0.0088215276230434042 0.016529967443351203 0 0.0086454910230829071 0.016823622802750574 0 0.0084456909000036086 0.016475520011565339 0 0.0095961887662214303 0.016302343973340461 0 0.007999656095437414 0.016512943047248669 0 0.0083547235901358964 0.016242386468961093 0 0.0088215276230434042 0.016529967443351203 0 0.0084456909000036086 0.016475520011565339 0 0.0086117010106849697 0.016529857583054339 0 0.0083547235901358964 0.016242386468961093 0 0.0087240764002927771 0.016025181480018726 0 0.0088215276230434042 0.016529967443351203 0 0.0087240764002927771 0.016025181480018726 0 0.0081922251808810732 0.015944078159739257 0 0.0084954063918072607 0.015411193174854882 0 0.0083547235901358964 0.016242386468961093 0 0.0087240764002927771 0.016025181480018726 0 0.0081922251808810732 0.015944078159739257 0 0.0081922251808810732 0.015944078159739257 0 0.0077680195026276974 0.016092039804918423 0 0.0075549633157582646 0.015700292155309804 0 0.0081922251808810732 0.015944078159739257 0 0.0084954063918072607 0.015411193174854882 0 0.0075549633157582646 0.015700292155309804 0 0.0081922251808810732 0.015944078159739257 0 0.008033850697439884 0.016219503150897333 0 0.0077680195026276974 0.016092039804918423 0 0.0083547235901358964 0.016242386468961093 0 0.0081922251808810732 0.015944078159739257 0 0.008033850697439884 0.016219503150897333 0 0.0081675801164643267 0.015667457850505842 0 0.0073886459815059261 0.015387621105275534 0 0.0073751595609397053 0.01591048302652703 0 0.0083371390905102646 0.015535562857418835 0 0.0074590832903522275 0.015809803548746122 0 0.0077735632729126584 0.0150000388424394 0 0.0081675801164643267 0.015667457850505842 0 0.0073886459815059261 0.015387621105275534 0 0.0077735632729126584 0.0150000388424394 0 0.0081675801164643267 0.015667457850505842 0 0.0086605880673314359 0.014999665937433482 0 0.0083371390905102646 0.015535562857418835 0 0.0090760900929842438 0.015298012141040773 0 0.0084954063918072607 0.015411193174854882 0 0.0091281528453260458 0.015279171777346794 0 0.0091913495459638051 0.015607229365641413 0 0.0081675801164643267 0.015667457850505842 0 0.0091281528453260458 0.015279171777346794 0 0.0086605880673314359 0.014999665937433482 0 0.0091281528453260458 0.015279171777346794 0 0.0086605880673314359 0.014999665937433482 0 0.009546784691306761 0.014999899106790202 0 0.0091281528453260458 0.015279171777346794 0 0.0095446085839667183 0.015209933555724982 0 0.009546784691306761 0.014999899106790202 0 0.0095446085839667183 0.015209933555724982 0 0.010031464617598559 0.015731349773084151 0 0.0091913495459638051 0.015607229365641413 0 0.0091281528453260458 0.015279171777346794 0 0.0095446085839667183 0.015209933555724982 0 0.0091913495459638051 0.015607229365641413 0 0.010031464617598559 0.015731349773084151 0 0.0091913495459638051 0.015607229365641413 0 0.0092004391499965824 0.01639386214367617 0 0.010048401358180352 0.015750384610848003 0 0.0095298313173999508 0.016232508816366079 0 0.0087240764002927771 0.016025181480018726 0 0.0091913495459638051 0.015607229365641413 0 0.0092004391499965824 0.01639386214367617 0 0.0087240764002927771 0.016025181480018726 0 0.0084954063918072607 0.015411193174854882 0 0.0091913495459638051 0.015607229365641413 0 0.0095298313173999508 0.016232508816366079 0 0.0095961887662214303 0.016302343973340461 0 0.0092004391499965824 0.01639386214367617 0 0.0088215276230434042 0.016529967443351203 0 0.0086454910230829071 0.016823622802750574 0 0.0087240764002927771 0.016025181480018726 0 0.0092004391499965824 0.01639386214367617 0 0.0088215276230434042 0.016529967443351203 0 0.010031464617598559 0.015731349773084151 0 0.010008023445794375 0.015998838904191199 0 0.010449986607458158 0.016173794802306168 0 0.010449986607458158 0.016173794802306168 0 0.011205281723619199 0.015785559053206766 0 0.010942626683031854 0.016521667988930559 0 0.010031464617598559 0.015731349773084151 0 0.010449986607458158 0.016173794802306168 0 0.011205281723619199 0.015785559053206766 0 0.011205281723619199 0.015785559053206766 0 0.010394809647983854 0.015304701307009859 0 0.011165838087390153 0.014705287192156684 0 0.010031464617598559 0.015731349773084151 0 0.011205281723619199 0.015785559053206766 0 0.010394809647983854 0.015304701307009859 0 0.0095446085839667183 0.015209933555724982 0 0.010394809647983854 0.015304701307009859 0 0.011165838087390153 0.014705287192156684 0 0.0096675659006995839 0.015175120325225428 0 0.010600356840039489 0.015140119098379116 0 0.0095446085839667183 0.015209933555724982 0 0.010031464617598559 0.015731349773084151 0 0.010394809647983854 0.015304701307009859 0 0.0095446085839667183 0.015209933555724982 0 0.009546784691306761 0.014999899106790202 0 0.0099758456742167403 0.015527803654328898 0 0.009546784691306761 0.014999899106790202 0 0.0099758456742167403 0.015527803654328898 0 0.010432834965697349 0.01499996454818568 0 0.011205281