<?xml version="1.0"?>
<VTKFile type="UnstructuredGrid" version="0.1" byte_order="LittleEndian">
<UnstructuredGrid>
<Piece NumberOfPoints="31654" NumberOfCells="11073">
<Points>
<DataArray type="Float64" NumberOfComponents="3" format="ascii">
-0.5 -0.5 0 -0.49999999999999961 -0.4955045412525596 0 -0.48963209310728212 -0.50000000000000422 0 -0.49999999999999961 -0.4955045412525596 0 -0.48203849089195971 -0.47713094086527608 0 -0.49999999999999961 -0.4955045412525596 0 -0.48963209310728212 -0.50000000000000422 0 -0.48203849089195971 -0.47713094086527608 0 -0.49999999999999961 -0.4955045412525596 0 -0.48203849089195971 -0.47713094086527608 0 -0.5 -0.46595673819470768 0 -0.46990870762866721 -0.47934720221353289 0 -0.48203849089195971 -0.47713094086527608 0 -0.46407698178391998 -0.45875734047799233 0 -0.48963209310728212 -0.50000000000000422 0 -0.46990870762866721 -0.47934720221353289 0 -0.48963209310728212 -0.50000000000000422 0 -0.46990870762866721 -0.47934720221353289 0 -0.48203849089195971 -0.47713094086527608 0 -0.48963209310728212 -0.50000000000000422 0 -0.46990870762866721 -0.47934720221353289 0 -0.46243590185244349 -0.5 0 -0.46990870762866721 -0.47934720221353289 0 -0.45363353302438197 -0.48971701633361631 0 -0.46243590185244349 -0.5 0 -0.46990870762866721 -0.47934720221353289 0 -0.45363353302438197 -0.48971701633361631 0 -0.44694981201881268 -0.47952086312093228 0 -0.46990870762866721 -0.47934720221353289 0 -0.44694981201881268 -0.47952086312093228 0 -0.45018532215005441 -0.45869440442705972 0 -0.46990870762866721 -0.47934720221353289 0 -0.45018532215005441 -0.45869440442705972 0 -0.44694981201881268 -0.47952086312093228 0 -0.45018532215005441 -0.45869440442705972 0 -0.43676142814697039 -0.46882345795161567 0 -0.45363353302438197 -0.48971701633361631 0 -0.46243590185244349 -0.5 0 -0.43523971059760491 -0.5 0 -0.45363353302438197 -0.48971701633361631 0 -0.44694981201881268 -0.47952086312093228 0 -0.43523971059760491 -0.5 0 -0.45018532215005441 -0.45869440442705972 0 -0.43046193667144161 -0.43804160664058639 0 -0.44611547267588031 -0.44038374009070869 0 -0.45018532215005441 -0.45869440442705972 0 -0.43046193667144161 -0.43804160664058639 0 -0.45018532215005441 -0.45869440442705972 0 -0.43676142814697039 -0.46882345795161567 0 -0.43177850281690772 -0.45628229593173408 0 -0.46990870762866721 -0.47934720221353289 0 -0.45018532215005441 -0.45869440442705972 0 -0.46407698178391998 -0.45875734047799233 0 -0.46407698178391998 -0.45875734047799233 0 -0.46250953793196992 -0.4412457854006509 0 -0.47684596925265937 -0.44496942617860208 0 -0.44611547267588031 -0.44038374009070869 0 -0.46407698178391998 -0.45875734047799233 0 -0.46250953793196992 -0.4412457854006509 0 -0.44611547267588031 -0.44038374009070869 0 -0.46407698178391998 -0.45875734047799233 0 -0.44611547267588031 -0.44038374009070869 0 -0.45018532215005441 -0.45869440442705972 0 -0.46407698178391998 -0.45875734047799233 0 -0.46250953793196992 -0.4412457854006509 0 -0.47684596925265937 -0.44496942617860208 0 -0.47376596402009991 -0.43093597365180991 0 -0.48203849089195971 -0.47713094086527608 0 -0.46407698178391998 -0.45875734047799233 0 -0.48203849089195971 -0.47713094086527608 0 -0.46407698178391998 -0.45875734047799233 0 -0.4838773625273069 -0.45749909622570117 0 -0.46407698178391998 -0.45875734047799233 0 -0.47684596925265937 -0.44496942617860208 0 -0.4838773625273069 -0.45749909622570117 0 -0.48203849089195971 -0.47713094086527608 0 -0.4838773625273069 -0.45749909622570117 0 -0.5 -0.46595673819470768 0 -0.4838773625273069 -0.45749909622570117 0 -0.5 -0.46595673819470768 0 -0.5 -0.43640893513685569 0 -0.47684596925265937 -0.44496942617860208 0 -0.4838773625273069 -0.45749909622570117 0 -0.5 -0.43640893513685569 0 -0.5 -0.43640893513685569 0 -0.48807352787942693 -0.42163503360792981 0 -0.47376596402009991 -0.43093597365180991 0 -0.5 -0.43640893513685569 0 -0.48807352787942693 -0.42163503360792981 0 -0.5 -0.40686113207900387 0 -0.48807352787942693 -0.42163503360792981 0 -0.5 -0.40686113207900387 0 -0.48647090372502799 -0.39376645540432531 0 -0.48807352787942693 -0.42163503360792981 0 -0.48647090372502799 -0.39376645540432531 0 -0.4667787485529945 -0.405586497379263 0 -0.48807352787942693 -0.42163503360792981 0 -0.47376596402009991 -0.43093597365180991 0 -0.4667787485529945 -0.405586497379263 0 -0.47684596925265937 -0.44496942617860208 0 -0.5 -0.43640893513685569 0 -0.47376596402009991 -0.43093597365180991 0 -0.5 -0.377313329021152 0 -0.48647090372502799 -0.39376645540432531 0 -0.47048170016765112 -0.38129471166342299 0 -0.5 -0.40686113207900387 0 -0.5 -0.377313329021152 0 -0.48647090372502799 -0.39376645540432531 0 -0.48647090372502799 -0.39376645540432531 0 -0.47048170016765112 -0.38129471166342299 0 -0.4667787485529945 -0.405586497379263 0 -0.47048170016765112 -0.38129471166342299 0 -0.44746665090917243 -0.39413820001010119 0 -0.44808162225674392 -0.37692182579735289 0 -0.47048170016765112 -0.38129471166342299 0 -0.4667787485529945 -0.405586497379263 0 -0.44746665090917243 -0.39413820001010119 0 -0.47048170016765112 -0.38129471166342299 0 -0.4667787485529945 -0.405586497379263 0 -0.4667787485529945 -0.405586497379263 0 -0.44746665090917243 -0.39413820001010119 0 -0.44389815475070749 -0.41309320310289299 0 -0.44746665090917243 -0.39413820001010119 0 -0.44389815475070749 -0.41309320310289299 0 -0.4268810438033932 -0.40405875814065001 0 -0.44808162225674392 -0.37692182579735289 0 -0.43026145018299999 -0.38326351845830642 0 -0.43543039476948919 -0.36685570225466702 0 -0.44746665090917243 -0.39413820001010119 0 -0.44808162225674392 -0.37692182579735289 0 -0.43026145018299999 -0.38326351845830642 0 -0.44611547267588031 -0.44038374009070869 0 -0.46250953793196992 -0.4412457854006509 0 -0.45531793121929531 -0.42691034632906982 0 -0.46250953793196992 -0.4412457854006509 0 -0.47376596402009991 -0.43093597365180991 0 -0.45531793121929531 -0.42691034632906982 0 -0.4667787485529945 -0.405586497379263 0 -0.45531793121929531 -0.42691034632906982 0 -0.44389815475070749 -0.41309320310289299 0 -0.47376596402009991 -0.43093597365180991 0 -0.4667787485529945 -0.405586497379263 0 -0.45531793121929531 -0.42691034632906982 0 -0.44389815475070749 -0.41309320310289299 0 -0.44123627706134622 -0.4277108435848444 0 -0.43038788998940619 -0.42012532176096379 0 -0.44611547267588031 -0.44038374009070869 0 -0.44123627706134622 -0.4277108435848444 0 -0.43046193667144161 -0.43804160664058639 0 -0.45531793121929531 -0.42691034632906982 0 -0.44389815475070749 -0.41309320310289299 0 -0.44123627706134622 -0.4277108435848444 0 -0.44611547267588031 -0.44038374009070869 0 -0.45531793121929531 -0.42691034632906982 0 -0.44123627706134622 -0.4277108435848444 0 -0.44123627706134622 -0.4277108435848444 0 -0.43038788998940619 -0.42012532176096379 0 -0.43046193667144161 -0.43804160664058639 0 -0.43038788998940619 -0.42012532176096379 0 -0.41073855119282882 -0.41738880885411322 0 -0.43046193667144161 -0.43804160664058639 0 -0.44389815475070749 -0.41309320310289299 0 -0.43038788998940619 -0.42012532176096379 0 -0.4268810438033932 -0.40405875814065001 0 -0.43038788998940619 -0.42012532176096379 0 -0.41073855119282882 -0.41738880885411322 0 -0.4268810438033932 -0.40405875814065001 0 -0.41073855119282882 -0.41738880885411322 0 -0.4061748184439441 -0.43549875007120742 0 -0.43046193667144161 -0.43804160664058639 0 -0.41073855119282882 -0.41738880885411322 0 -0.43046193667144161 -0.43804160664058639 0 -0.43026145018299999 -0.38326351845830642 0 -0.4268810438033932 -0.40405875814065001 0 -0.41111747537830812 -0.39127236395216508 0 -0.44746665090917243 -0.39413820001010119 0 -0.43026145018299999 -0.38326351845830642 0 -0.4268810438033932 -0.40405875814065001 0 -0.41073855119282882 -0.41738880885411322 0 -0.4268810438033932 -0.40405875814065001 0 -0.41111747537830812 -0.39127236395216508 0 -0.43026145018299999 -0.38326351845830642 0 -0.41111747537830812 -0.39127236395216508 0 -0.41634473552900092 -0.37082329016511723 0 -0.41111747537830812 -0.39127236395216508 0 -0.41634473552900092 -0.37082329016511723 0 -0.39304672010686581 -0.37475311150844498 0 -0.41111747537830812 -0.39127236395216508 0 -0.39101516571421591 -0.39673601106763989 0 -0.39304672010686581 -0.37475311150844498 0 -0.41073855119282882 -0.41738880885411322 0 -0.41111747537830812 -0.39127236395216508 0 -0.39101516571421591 -0.39673601106763989 0 -0.39101516571421591 -0.39673601106763989 0 -0.36842202000709551 -0.4069503877282013 0 -0.37121257174217581 -0.38460265902015978 0 -0.39101516571421591 -0.39673601106763989 0 -0.38512768531393771 -0.40976189400084922 0 -0.36842202000709551 -0.4069503877282013 0 -0.39101516571421591 -0.39673601106763989 0 -0.39304672010686581 -0.37475311150844498 0 -0.37121257174217581 -0.38460265902015978 0 -0.41073855119282882 -0.41738880885411322 0 -0.4061748184439441 -0.43549875007120742 0 -0.38590425447482968 -0.42403540064749051 0 -0.39235059255532651 -0.43725519633794602 0 -0.4061748184439441 -0.43549875007120742 0 -0.38590425447482968 -0.42403540064749051 0 -0.41073855119282882 -0.41738880885411322 0 -0.39101516571421591 -0.39673601106763989 0 -0.41073855119282882 -0.41738880885411322 0 -0.39101516571421591 -0.39673601106763989 0 -0.38512768531393771 -0.40976189400084922 0 -0.41073855119282882 -0.41738880885411322 0 -0.38512768531393771 -0.40976189400084922 0 -0.38590425447482968 -0.42403540064749051 0 -0.38512768531393771 -0.40976189400084922 0 -0.37222584211108473 -0.42374855568549852 0 -0.36842202000709551 -0.4069503877282013 0 -0.38512768531393771 -0.40976189400084922 0 -0.38590425447482968 -0.42403540064749051 0 -0.37222584211108473 -0.42374855568549852 0 -0.38590425447482968 -0.42403540064749051 0 -0.37969946268683807 -0.44093739067353832 0 -0.37222584211108473 -0.42374855568549852 0 -0.38590425447482968 -0.42403540064749051 0 -0.37969946268683807 -0.44093739067353832 0 -0.39235059255532651 -0.43725519633794602 0 -0.38590425447482968 -0.42403540064749051 0 -0.37969946268683807 -0.44093739067353832 0 -0.37969946268683
[...]
<PointData Scalars="" Vectors="displacement," Tensors="">
<DataArray type="Float64" Name="displacement" NumberOfComponents="3" format="ascii">
1.1894664812405142e-07 0.014999735296040546 0 -8.8786334570314727e-08 0.0148660166362104 0 -3.8910380395382664e-07 0.014999252602919034 0 -3.1438116645601389e-08 0.014864795904011584 0 -7.591904009437395e-05 0.014032349349168917 0 -8.8786334570314727e-08 0.0148660166362104 0 -3.8910380395382664e-07 0.014999252602919034 0 -3.842049142818382e-05 0.014487410729033767 0 -7.2656357512855955e-07 0.014864148684804721 0 -0.00019249610492328727 0.013612381884157415 0 4.4476369235799278e-08 0.013978412325278446 0 -0.00018405006271664029 0.014046055345527093 0 -3.842049142818382e-05 0.014487410729033767 0 0.00029299173709317609 0.013493683717045197 0 9.9693580659993082e-09 0.014999777746881307 0 -7.072483953370324e-05 0.01447824543765156 0 -3.8910380395382664e-07 0.014999252602919034 0 -0.00018405006271664029 0.014046055345527093 0 -3.842049142818382e-05 0.014487410729033767 0 1.4470956467719206e-08 0.014999993811391419 0 -2.9335861282376422e-05 0.014966944585644926 0 -4.4615261501882195e-08 0.014999927839485934 0 -2.9335861282376422e-05 0.014966944585644926 0 -2.6167637866524051e-05 0.01496544214139529 0 -4.4615261501882195e-08 0.014999927839485934 0 -2.9335861282376422e-05 0.014966944585644926 0 -2.6167637866524051e-05 0.01496544214139529 0 -5.4947628566177536e-05 0.014924593722736834 0 -2.9335861282376422e-05 0.014966944585644926 0 -5.4947628566177536e-05 0.014924593722736834 0 -6.8578530286763048e-05 0.01488393427078309 0 -7.072483953370324e-05 0.01447824543765156 0 6.1385707123828034e-05 0.013873236944122127 0 -5.4947628566177536e-05 0.014924593722736834 0 -6.8578530286763048e-05 0.01488393427078309 0 -8.3689639802116144e-05 0.014857460369117797 0 -2.6167637866524051e-05 0.01496544214139529 0 -4.4615261501882195e-08 0.014999927839485934 0 -5.4727277494346265e-08 0.014999867008018298 0 -2.6167637866524051e-05 0.01496544214139529 0 -5.4947628566177536e-05 0.014924593722736834 0 -5.4727277494346265e-08 0.014999867008018298 0 6.1385707123828034e-05 0.013873236944122127 0 0.00017711141417799315 0.013540277897529812 0 0.00034937196664748104 0.012495518785656454 0 0.00016405351799499048 0.012856949157120235 0 0.00040170912541770756 0.012313349462256852 0 -6.8578530286763048e-05 0.01488393427078309 0 -8.3689639802116144e-05 0.014857460369117797 0 -0.0001006625313416781 0.014786437232349689 0 -0.00018405006271664029 0.014046055345527093 0 0.00016405351799499048 0.012856949157120235 0 0.00029299173709317609 0.013493683717045197 0 -9.2728614139703502e-06 0.012737500617581653 0 0.00021805597417439706 0.012578976190167295 0 0.00013134858013919351 0.012887937386589218 0 0.00034937196664748104 0.012495518785656454 0 -9.2728614139703502e-06 0.012737500617581653 0 0.00021805597417439706 0.012578976190167295 0 0.00033457292964060825 0.012584117227300658 0 0.00013063765925882138 0.013140558100049307 0 0.00034937196664748104 0.012495518785656454 0 0.00016405351799499048 0.012856949157120235 0 0.00029299173709317609 0.013493683717045197 0 0.00021805597417439706 0.012578976190167295 0 0.00013134858013919351 0.012887937386589218 0 0.00018677351943677373 0.012535336561156026 0 -7.591904009437395e-05 0.014032349349168917 0 0.00013063765925882138 0.013140558100049307 0 -0.00019249610492328727 0.013612381884157415 0 -9.2728614139703502e-06 0.012737500617581653 0 4.1937365982218877e-05 0.01331079679037209 0 -9.2728614139703502e-06 0.012737500617581653 0 0.00013134858013919351 0.012887937386589218 0 4.1937365982218877e-05 0.01331079679037209 0 -0.00019249610492328727 0.013612381884157415 0 4.1937365982218877e-05 0.01331079679037209 0 4.4476369235799278e-08 0.013978412325278446 0 4.1937365982218877e-05 0.01331079679037209 0 4.4476369235799278e-08 0.013978412325278446 0 2.9151460238565332e-07 0.013091997148158056 0 0.00013134858013919351 0.012887937386589218 0 4.1937365982218877e-05 0.01331079679037209 0 2.9151460238565332e-07 0.013091997148158056 0 2.9151460238565332e-07 0.013091997148158056 0 9.7148910366913634e-05 0.012501956774025717 0 0.00018677351943677373 0.012535336561156026 0 2.9151460238565332e-07 0.013091997148158056 0 9.7148910366913634e-05 0.012501956774025717 0 2.4946497470590228e-07 0.012205738763837713 0 9.7148910366913634e-05 0.012501956774025717 0 2.4946497470590228e-07 0.012205738763837713 0 8.0144821298144074e-05 0.011777947218999165 0 9.7148910366913634e-05 0.012501956774025717 0 8.0144821298144074e-05 0.011777947218999165 0 0.00018854618875098115 0.01193128632779406 0 9.7148910366913634e-05 0.012501956774025717 0 0.00018677351943677373 0.012535336561156026 0 0.00018854618875098115 0.01193128632779406 0 0.00013134858013919351 0.012887937386589218 0 2.9151460238565332e-07 0.013091997148158056 0 0.00018677351943677373 0.012535336561156026 0 1.2419541046217187e-07 0.011319364627739288 0 8.0144821298144074e-05 0.011777947218999165 0 6.0510938091302624e-05 0.011531738382783907 0 2.4946497470590228e-07 0.012205738763837713 0 1.2419541046217187e-07 0.011319364627739288 0 8.0144821298144074e-05 0.011777947218999165 0 8.0144821298144074e-05 0.011777947218999165 0 6.0510938091302624e-05 0.011531738382783907 0 0.00018854618875098115 0.01193128632779406 0 -0.00015643498053909079 0.011149266182445045 0 9.1875077572152908e-05 0.011857719835818395 0 -0.00021418850647390459 0.011516863772830678 0 -0.00015643498053909079 0.011149266182445045 0 0.00018854618875098115 0.01193128632779406 0 9.1875077572152908e-05 0.011857719835818395 0 -4.7507412516654439e-05 0.011352317058878836 0 0.0001612405067361877 0.011814370449340274 0 0.00018854618875098115 0.01193128632779406 0 9.1875077572152908e-05 0.011857719835818395 0 0.00029299558920998657 0.012160820446309759 0 9.1875077572152908e-05 0.011857719835818395 0 0.00029299558920998657 0.012160820446309759 0 0.00022406703005743589 0.012334461531089901 0 -0.00021418850647390459 0.011516863772830678 0 -0.00014221128041362206 0.012158360608439641 0 -0.00051454121443997595 0.011900796244645745 0 9.1875077572152908e-05 0.011857719835818395 0 -0.00021418850647390459 0.011516863772830678 0 -0.00014221128041362206 0.012158360608439641 0 0.00034937196664748104 0.012495518785656454 0 0.00021805597417439706 0.012578976190167295 0 0.00029690484855081513 0.012329719710316349 0 0.00021805597417439706 0.012578976190167295 0 0.00018677351943677373 0.012535336561156026 0 0.00029690484855081513 0.012329719710316349 0 0.00018854618875098115 0.01193128632779406 0 0.00029690484855081513 0.012329719710316349 0 0.00029299558920998657 0.012160820446309759 0 0.00018677351943677373 0.012535336561156026 0 0.00018854618875098115 0.01193128632779406 0 0.00029690484855081513 0.012329719710316349 0 0.00029299558920998657 0.012160820446309759 0 0.0003736486018980032 0.012335411158920936 0 0.00038622388067964932 0.012346010010920446 0 0.00034937196664748104 0.012495518785656454 0 0.0003736486018980032 0.012335411158920936 0 0.00040170912541770756 0.012313349462256852 0 0.00029690484855081513 0.012329719710316349 0 0.00029299558920998657 0.012160820446309759 0 0.0003736486018980032 0.012335411158920936 0 0.00034937196664748104 0.012495518785656454 0 0.00029690484855081513 0.012329719710316349 0 0.0003736486018980032 0.012335411158920936 0 0.0003736486018980032 0.012335411158920936 0 0.00038622388067964932 0.012346010010920446 0 0.00040170912541770756 0.012313349462256852 0 0.00038622388067964932 0.012346010010920446 0 0.00048020158934444784 0.012649956982213313 0 0.00040170912541770756 0.012313349462256852 0 0.00029299558920998657 0.012160820446309759 0 0.00038622388067964932 0.012346010010920446 0 0.00022406703005743589 0.012334461531089901 0 0.00038622388067964932 0.012346010010920446 0 0.00048020158934444784 0.012649956982213313 0 0.00022406703005743589 0.012334461531089901 0 7.7144747265622053e-05 0.014301355884044875 0 -9.7856071681123473e-05 0.014410792513512188 0 -5.8515422297085977e-05 0.014727928180294681 0 0.00023065439075922202 0.013487157048865757 0 0.00017711141417799315 0.013540277897529812 0 -0.00014221128041362206 0.012158360608439641 0 0.00022406703005743589 0.012334461531089901 0 -6.02152236973362e-05 0.012733008184501706 0 9.1875077572152908e-05 0.011857719835818395 0 -0.00014221128041362206 0.012158360608439641 0 0.00022406703005743589 0.012334461531089901 0 0.00048020158934444784 0.012649956982213313 0 0.00022406703005743589 0.012334461531089901 0 -6.02152236973362e-05 0.012733008184501706 0 -0.00014221128041362206 0.012158360608439641 0 -6.02152236973362e-05 0.012733008184501706 0 -0.00049791612228158313 0.012555830350458638 0 -6.02152236973362e-05 0.012733008184501706 0 -0.00049791612228158313 0.012555830350458638 0 -0.00044481370782572052 0.013229853460105048 0 -6.02152236973362e-05 0.012733008184501706 0 1.2493485143056554e-05 0.013472174850590794 0 -0.00044481370782572052 0.013229853460105048 0 0.00048020158934444784 0.012649956982213313 0 -6.02152236973362e-05 0.012733008184501706 0 1.2493485143056554e-05 0.013472174850590794 0 1.2493485143056554e-05 0.013472174850590794 0 -8.0272193527731743e-05 0.013749644875235221 0 -0.00030819786151055063 0.013529148856920607 0 1.2493485143056554e-05 0.013472174850590794 0 1.5442921215310302e-05 0.013698246307564648 0 -8.0272193527731743e-05 0.013749644875235221 0 1.2493485143056554e-05 0.013472174850590794 0 -0.00044481370782572052 0.013229853460105048 0 -0.00030819786151055063 0.013529148856920607 0 7.7144747265622053e-05 0.014301355884044875 0 -9.7856071681123473e-05 0.014410792513512188 0 -2.0795058540195169e-05 0.013906042876884236 0 -0.00011698974781260088 0.014209293831681923 0 -9.7856071681123473e-05 0.014410792513512188 0 -2.0795058540195169e-05 0.013906042876884236 0 0.00023065439075922202 0.013487157048865757 0 1.4929709496299608e-05 0.013519052177996795 0 7.7144747265622053e-05 0.014301355884044875 0 1.2493485143056554e-05 0.013472174850590794 0 1.5442921215310302e-05 0.013698246307564648 0 7.7144747265622053e-05 0.014301355884044875 0 1.5442921215310302e-05 0.013698246307564648 0 -2.0795058540195169e-05 0.013906042876884236 0 1.5442921215310302e-05 0.013698246307564648 0 -2.3563962961654868e-05 0.01384103614981436 0 -8.0272193527731743e-05 0.013749644875235221 0 1.5442921215310302e-05 0.013698246307564648 0 -2.0795058540195169e-05 0.013906042876884236 0 -2.3563962961654868e-05 0.01384103614981436 0 -2.0795058540195169e-05 0.013906042876884236 0 1.3642565498876607e-05 0.01386161624421201 0 -2.3563962961654868e-05 0.01384103614981436 0 2.2127138750013705e-06 0.013931089391103393 0 -9.5832063580383634e-05 0.013913780807833842 0 -0.00011698974781260088 0.014209293831681923 0 -2.0795058540195169e-05 0.013906042876884236 0 -0.00013900184068461955 0.014022105952854913 0 -9.5832063580383634e-05 0.013913780807833842 0 -0.00015939735883652484 0.01445141414456446 0 -0.00011698974781260088 0.014209293831681923 0 -0.00013900184068461955 0.014022105952854913 0 -0.00023961164411805282 0.014491139974159418 0 -0.00013900184068461955 0.014022105952854913 0 -0.00023961164411805282 0.014491139974159418 0 -0.00053501617895476239 0.013880996890454279 0 -0.00011698974781260088 0.014209293831681923 0 -9.7856071681123473e-05 0.014410792513512188 0 -0.00023961164411805282 0.014491139974159418 0 -0.00023961164411805282 0.014491139974159418 0 -0.00013034132271191727 0.014711986666756291 0 -0.00015154240056141586 0.014646022012520715 0 -0.00023961164411805282 0.014491139974159418 0 -0.00013034132271191727 0.014711986666756291 0 -0.00012156040527722557 0.014760987055782276 0 -0.00023961164411805282 0.014491139974159418 0 -0.00012156040527722557 0.014760987055782276 0 -0.0002015411355897948 0.014961139000147216 0 -0.00031034687651992931 0.014471119720756894 0 -0.00015939735883652484 0.01445141414456446 0 -0.00012156040527722557 0.014760987055782276 0 -7.8358966446385577e-05 0.014899912028568064 0 -0.0002015411355897948 0.014961139000147216 0 -7.8358966446385577e-05 0.014899912028568064 0 -3.0016493656163201e-05 0.014946387678370065 0 -4.7170611379967469e-05 0.014872015101788007 0 -0.00012156040527722557 0.014760987055782276 0 -7.8358966446385577e-05 0.014899912028568064 0 -4.7170611379967469e-05 0.014872015101788007 0 -3.0016493656163201e-05 0.014946387678370065 0 1.4607709667215212e-08 0.014999912279527194 0 -4.7170611379967469e-05 0.014872015101788007 0 -3.0016493656163201e-05 0.014946387678370065 0 1.4607709667215212e-08 0.014999912279527194 0 -1.2205454033881692e-05 0.014984054010400476 0 -4.7170611379967469e-05 0.014872015101788007 0 -6.3471021759067708e-05 0.014857798788083599 0 -5.2597188779546462e-08 0.014999786930234241 0 1.4607709667215212e-08 0.014999912279527194 0 -4.7170611379967469e-05 0.014872015101788007 0 -5.2597188779546462e-08 0.014999786930234241 0 -0.00013034132271191727 0.014711986666756291 0 -4.7170611379967469e-05 0.014872015101788007 0 -6.3471021759067708e-05 0.014857798788083599 0 -0.00013034132271191727 0.014711986666756291 0 -0.00012156040527722557 0.014760987055782276 0 -4.7170611379967469e-05 0.014872015101788007 0 -6.3471021759067708e-05 0.014857798788083599 0 -5.7330176846903266e-05 0.014900979085182025 0 -0.00010725555988728783 0.014787012004604038 0 -0.00013034132271191727 0.014711986666756291 0 -6.3471021759067708e-05 0.014857798788083599 0 -0.00010725555988728783 0.014787012004604038 0 -6.3471021759067708e-05 0.014857798788083599 0 -5.2597188779546462e-08 0.014999786930234241 0 -5.7330176846903266e-05 0.014900979085182025 0 -5.4947628566177536e-05 0.014924593722736834 0 -5.4727277494346265e-08 0.014999867008018298 0 -5.7330176846903266e-05 0.014900979085182025 0 -5.2597188779546462e-08 0.014999786930234241 0 -5.4727277494346265e-08 0.014999867008018298 0 -5.7330176846903266e-05 0.014900979085182025 0 -5.4947628566177536e-05 0.014924593722736834 0 -5.7330176846903266e-05 0.014900979085182025 0 -8.3689639802116144e-05 0.014857460369117797 0 -5.7330176846903266e-05 0.014900979085182025 0 -8.3689639802116144e-05 0.014857460369117797 0 -0.00010725555988728783 0.014787012004604038 0 -0.00010725555988728783 0.014787012004604038 0 -0.0001006625313416781 0.014786437232349689 0 -0.00015154240056141586 0.014646022012520715 0 -8.3689639802116144e-05 0.014857460369117797 0 -0.00010725555988728783 0.014787012004604038 0 -0.0001006625313416781 0.014786437232349689 0 -6.8578530286763048e-05 0.01488393427078309 0 -0.0001006625313416781 0.014786437232349689 0 -5.8515422297085977e-05 0.014727928180294681 0 -0.0001006625313416781 0.014786437232349689 0 -5.8515422297085977e-05 0.014727928180294681 0 -0.00015154240056141586 0.014646022012520715 0 -9.7856071681123473e-05 0.014410792513512188 0 -5.8515422297085977e-05 0.014727928180294681 0 -0.00015154240056141586 0.014646022012520715 0 -9.7856071681123473e-05 0.014410792513512188 0 -0.00023961164411805282 0.014491139974159418 0 -0.00015154240056141586 0.014646022012520715 0 -0.00013034132271191727 0.014711986666756291 0 -0.00010725555988728783 0.014787012004604038 0 -0.00015154240056141586 0.014646022012520715 0 0.0014582421032700665 0.0068600084554025212 0 0.0015728497733902367 0.0065851611131127821 0 0.00070323404206528708 0.0062402346109408429 0 0.0015728497733902367 0.0065851611131127821 0 0.0027896617543794544 0.0072983566293322163 0 0.0018661352636167104 0.0073190516222205433 0 0.0002285867895314708 0.0080060671415356516 0 0.00014202974443133874 0.0082485976250318734 0 0.0002131536062842827 0.0080530607757959699 0 0.0002666805464657168 0.0078344000954154325 0 0.0002285867895314708 0.0080060671415356516 0 0.0002131536062842827 0.0080530607757959699 0 0.0002666805464657168 0.0078344000954154325 0 0.0002131536062842827 0.0080530607757959699 0 0.00027330144964386852 0.0079082653402220374 0 0.00042001157325906004 0.0077219401142028824 0 0.00071815039320252704 0.00775022528681005 0 0.0014582421032700665 0.0068600084554025212 0 0.0015728497733902367 0.0065851611131127821 0 0.0018661352636167104 0.0073190516222205433 0 0.00050612063622320637 0.0084062235446903718 0 2.7215318734377944e-05 0.0083958406438517201 0 0.0001253148394409927 0.0081863282252168743 0 0.00071815039320252704 0.00775022528681005 0 0.00050907952617214249 0.0088702765240936659 0 0.0002285867895314708 0.0080060671415356516 0 0.00014202974443133874 0.0082485976250318734 0 2.7215318734377944e-05 0.0083958406438517201 0 0.00071815039320252704 0.00775022528681005 0 -5.5024119632054155e-05 0.0084287529646971983 0 0.00014202974443133874 0.0082485976250318734 0 3.8427606073515508e-05 0.0085434205057512858 0 2.7215318734377944e-05 0.0083958406438517201 0 3.8427606073515508e-05 0.0085434205057512858 0 0.00016877887035895772 0.0082470104082313315 0 6.0296995796882392e-05 0.0087003351393582559 0 0.00014202974443133874 0.0082485976250318734 0 3.8427606073515508e-05 0.0085434205057512858 0 0.00016877887035895772 0.0082470104082313315 0 0.00016877887035895772 0.0082470104082313315 0 0.00027330144964386852 0.0079082653402220374 0 0.00035514143021132431 0.0079511031477026289 0 0.00016877887035895772 0.0082470104082313315 0 6.0296995796882392e-05 0.0087003351393582559 0 0.00035514143021132431 0.0079511031477026289 0 0.00016877887035895772 0.0082470104082313315 0 0.0002131536062842827 0.0080530607757959699 0 0.00027330144964386852 0.0079082653402220374 0 0.00014202974443133874 0.0082485976250318734 0 0.00016877887035895772 0.0082470104082313315 0 0.0002131536062842827 0.0080530607757959699 0 -5.660040714891939e-05 0.0078951311958913167 0 4.6214193778066294e-05 0.0073175095401716485 0 6.5519766477163213e-05 0.0070985489431256606 0 3.1715081158675948e-05 0.0083007075413110021 0 0.00017986068727140098 0.0075135432850512102 0 7.6337319496644318e-08 0.0077735332071162209 0 -5.660040714891939e-05 0.0078951311958913167 0 4.6214193778066294e-05 0.0073175095401716485 0 7.6337319496644318e-08 0.0077735332071162209 0 -5.660040714891939e-05 0.0078951311958913167 0 -2.9481373591656406e-07 0.0086601984794611193 0 3.1715081158675948e-05 0.0083007075413110021 0 -5.5356461974419876e-05 0.0088563074676814152 0 6.0296995796882392e-05 0.0087003351393582559 0 -7.5376375190165019e-05 0.0089820079867331103 0 -0.00010711519340642436 0.0090396564712529985 0 -5.660040714891939e-05 0.0078951311958913167 0 -7.5376375190165019e-05 0.0089820079867331103 0 -2.9481373591656406e-07 0.0086601984794611193 0 -7.5376375190165019e-05 0.0089820079867331103 0 -2.9481373591656406e-07 0.0086601984794611193 0 -6.9527532336373733e-08 0.0095465864909052515 0 -7.5376375190165019e-05 0.0089820079867331103 0 -8.0258489233705864e-05 0.0093644799346571383 0 -6.9527532336373733e-08 0.0095465864909052515 0 -8.0258489233705864e-05 0.0093644799346571383 0 -0.00020628813580858695 0.0095129880202753057 0 -0.00010711519340642436 0.0090396564712529985 0 -7.5376375190165019e-05 0.0089820079867331103 0 -8.0258489233705864e-05 0.0093644799346571383 0 -0.00010711519340642436 0.0090396564712529985 0 -0.00020628813580858695 0.0095129880202753057 0 -0.00010711519340642436 0.0090396564712529985 0 -0.00012518728554873252 0.008587974948034819 0 -0.00015413917761934815 0.0093851287421471089 0 -0.00035659684626586423 0.009295030995253575 0 3.8427606073515508e-05 0.0085434205057512858 0 -0.00010711519340642436 0.0090396564712529985 0 -0.00012518728554873252 0.008587974948034819 0 3.8427606073515508e-05 0.0085434205057512858 0 6.0296995796882392e-05 0.0087003351393582559 0 -0.00010711519340642436 0.0090396564712529985 0 -0.00035659684626586423 0.009295030995253575 0 0.00050907952617214249 0.0088702765240936659 0 -0.00012518728554873252 0.008587974948034819 0 2.7215318734377944e-05 0.0083958406438517201 0 0.0001253148394409927 0.0081863282252168743 0 3.8427606073515508e-05 0.0085434205057512858 0 -0.00012518728554873252 0.008587974948034819 0 2.7215318734377944e-05 0.0083958406438517201 0 -0.00020628813580858695 0.0095129880202753057 0 -0.00041139108127608546 0.0098376169744499604 0 -0.000165830069610535 0.0099956307886868642 0 -0.000165830069610535 0.0099956307886868642 0 -0.00013375202746547388 0.0101544207731941