<?xml version="1.0"?>
<VTKFile type="UnstructuredGrid" version="0.1" byte_order="LittleEndian">
<UnstructuredGrid>
<Piece NumberOfPoints="27373" NumberOfCells="9562">
<Points>
<DataArray type="Float64" NumberOfComponents="3" format="ascii">
-0.5 -0.5 0 -0.48745584138043668 -0.47517336607221372 0 -0.50000000000000111 -0.45081327450525932 0 -0.5 -0.5 0 -0.48745584138043668 -0.47517336607221372 0 -0.47930948244852839 -0.49999999999999911 0 -0.48745584138043668 -0.47517336607221372 0 -0.46724028715427551 -0.48253994338522083 0 -0.46534337959849031 -0.46416742440384551 0 -0.48745584138043668 -0.47517336607221372 0 -0.47930948244852839 -0.49999999999999911 0 -0.46724028715427551 -0.48253994338522083 0 -0.48745584138043668 -0.47517336607221372 0 -0.47930948244852839 -0.49999999999999911 0 -0.4566566780843509 -0.5 0 -0.46724028715427551 -0.48253994338522083 0 -0.44853248132214713 -0.47322357409894111 0 -0.47930948244852839 -0.49999999999999911 0 -0.4566566780843509 -0.5 0 -0.46724028715427551 -0.48253994338522083 0 -0.46724028715427551 -0.48253994338522083 0 -0.44853248132214713 -0.47322357409894111 0 -0.46534337959849031 -0.46416742440384551 0 -0.4566566780843509 -0.5 0 -0.44853248132214713 -0.47322357409894111 0 -0.43400387372017329 -0.5 0 -0.44853248132214713 -0.47322357409894111 0 -0.4476211762097736 -0.44525664577175278 0 -0.4343302545912992 -0.45277724616840181 0 -0.44853248132214713 -0.47322357409894111 0 -0.4476211762097736 -0.44525664577175278 0 -0.46534337959849031 -0.46416742440384551 0 -0.4476211762097736 -0.44525664577175278 0 -0.47161168826105909 -0.44780168895809058 0 -0.46173786185390081 -0.4321638580033394 0 -0.4476211762097736 -0.44525664577175278 0 -0.46534337959849031 -0.46416742440384551 0 -0.47161168826105909 -0.44780168895809058 0 -0.4476211762097736 -0.44525664577175278 0 -0.47161168826105909 -0.44780168895809058 0 -0.47161168826105909 -0.44780168895809058 0 -0.48107181604604371 -0.45959300113489648 0 -0.49560220031234481 -0.4503467321444285 0 -0.47161168826105909 -0.44780168895809058 0 -0.48242733484426109 -0.43317668807628879 0 -0.46173786185390081 -0.4321638580033394 0 -0.47161168826105909 -0.44780168895809058 0 -0.49560220031234481 -0.4503467321444285 0 -0.47161168826105909 -0.44780168895809058 0 -0.49560220031234481 -0.4503467321444285 0 -0.48242733484426109 -0.43317668807628879 0 -0.48745584138043668 -0.47517336607221372 0 -0.46534337959849031 -0.46416742440384551 0 -0.48107181604604371 -0.45959300113489648 0 -0.46534337959849031 -0.46416742440384551 0 -0.47161168826105909 -0.44780168895809058 0 -0.48107181604604371 -0.45959300113489648 0 -0.48745584138043668 -0.47517336607221372 0 -0.49560220031234481 -0.4503467321444285 0 -0.50000000000000111 -0.45081327450525932 0 -0.48745584138043668 -0.47517336607221372 0 -0.49560220031234481 -0.4503467321444285 0 -0.48745584138043668 -0.47517336607221372 0 -0.48107181604604371 -0.45959300113489648 0 -0.49560220031234481 -0.4503467321444285 0 -0.49560220031234481 -0.4503467321444285 0 -0.50000000000000111 -0.45081327450525932 0 -0.5 -0.42117432925725501 0 -0.49560220031234481 -0.4503467321444285 0 -0.50000000000000111 -0.45081327450525932 0 -0.49560220031234481 -0.4503467321444285 0 -0.5 -0.42117432925725501 0 -0.48242733484426109 -0.43317668807628879 0 -0.5 -0.42117432925725501 0 -0.48219560307639969 -0.41557524706336468 0 -0.48242733484426109 -0.43317668807628879 0 -0.5 -0.42117432925725501 0 -0.48219560307639969 -0.41557524706336468 0 -0.5 -0.39153538400925009 0 -0.48219560307639969 -0.41557524706336468 0 -0.46173786185390081 -0.4321638580033394 0 -0.46278497764374049 -0.41278341815901087 0 -0.48219560307639969 -0.41557524706336468 0 -0.47717649811297502 -0.39887552224826889 0 -0.46278497764374049 -0.41278341815901087 0 -0.48219560307639969 -0.41557524706336468 0 -0.48242733484426109 -0.43317668807628879 0 -0.46173786185390081 -0.4321638580033394 0 -0.48219560307639969 -0.41557524706336468 0 -0.5 -0.39153538400925009 0 -0.47717649811297502 -0.39887552224826889 0 -0.5 -0.39153538400925009 0 -0.47717649811297502 -0.39887552224826889 0 -0.47115376455896962 -0.38166873759546482 0 -0.5 -0.39153538400925009 0 -0.47115376455896962 -0.38166873759546482 0 -0.48186965382477198 -0.36593601733936848 0 -0.47115376455896962 -0.38166873759546482 0 -0.45592823019405471 -0.39407585751885482 0 -0.45282842779942101 -0.37702848065694999 0 -0.45592823019405471 -0.39407585751885482 0 -0.46278497764374049 -0.41278341815901087 0 -0.44696493711993091 -0.40679020733190929 0 -0.47717649811297502 -0.39887552224826889 0 -0.47115376455896962 -0.38166873759546482 0 -0.45592823019405471 -0.39407585751885482 0 -0.47717649811297502 -0.39887552224826889 0 -0.45592823019405471 -0.39407585751885482 0 -0.46278497764374049 -0.41278341815901087 0 -0.45592823019405471 -0.39407585751885482 0 -0.4430419717954881 -0.3979231169679226 0 -0.43748842303499169 -0.38401460145049221 0 -0.45592823019405471 -0.39407585751885482 0 -0.4430419717954881 -0.3979231169679226 0 -0.44696493711993091 -0.40679020733190929 0 -0.4430419717954881 -0.3979231169679226 0 -0.44696493711993091 -0.40679020733190929 0 -0.4317862968329752 -0.40681180157043439 0 -0.45592823019405471 -0.39407585751885482 0 -0.45282842779942101 -0.37702848065694999 0 -0.43748842303499169 -0.38401460145049221 0 -0.46173786185390081 -0.4321638580033394 0 -0.46278497764374049 -0.41278341815901087 0 -0.44497384373920601 -0.42118329704410951 0 -0.46278497764374049 -0.41278341815901087 0 -0.44696493711993091 -0.40679020733190929 0 -0.44497384373920601 -0.42118329704410951 0 -0.44696493711993091 -0.40679020733190929 0 -0.44497384373920601 -0.42118329704410951 0 -0.4317862968329752 -0.40681180157043439 0 -0.4476211762097736 -0.44525664577175278 0 -0.46173786185390081 -0.4321638580033394 0 -0.43903913231428437 -0.43442343924153548 0 -0.46173786185390081 -0.4321638580033394 0 -0.44497384373920601 -0.42118329704410951 0 -0.43903913231428437 -0.43442343924153548 0 -0.44497384373920601 -0.42118329704410951 0 -0.43903913231428437 -0.43442343924153548 0 -0.42608417063095871 -0.42960900169037658 0 -0.43903913231428437 -0.43442343924153548 0 -0.42608417063095871 -0.42960900169037658 0 -0.42285539826136098 -0.44251769000131358 0 -0.42608417063095871 -0.42960900169037658 0 -0.42285539826136098 -0.44251769000131358 0 -0.42608417063095871 -0.42960900169037658 0 -0.4317862968329752 -0.40681180157043439 0 -0.41589004424973391 -0.41694244958704541 0 -0.42608417063095871 -0.42960900169037658 0 -0.4317862968329752 -0.40681180157043439 0 -0.44497384373920601 -0.42118329704410951 0 -0.42608417063095871 -0.42960900169037658 0 -0.4317862968329752 -0.40681180157043439 0 -0.41589004424973391 -0.41694244958704541 0 -0.41457197988337569 -0.40334059984365223 0 -0.40359171317229509 -0.41116702041248321 0 -0.41589004424973391 -0.41694244958704541 0 -0.40032442140612717 -0.42393802692023952 0 -0.40359171317229509 -0.41116702041248321 0 -0.42608417063095871 -0.42960900169037658 0 -0.41589004424973391 -0.41694244958704541 0 -0.40779714076018109 -0.44455657281993272 0 -0.41589004424973391 -0.41694244958704541 0 -0.40032442140612717 -0.42393802692023952 0 -0.40779714076018109 -0.44455657281993272 0 -0.41589004424973391 -0.41694244958704541 0 -0.40779714076018109 -0.44455657281993272 0 -0.42398294773928658 -0.38932832635415832 0 -0.43207585122883929 -0.36171420312127112 0 -0.42398294773928658 -0.38932832635415832 0 -0.43748842303499169 -0.38401460145049221 0 -0.43207585122883929 -0.36171420312127112 0 -0.4430419717954881 -0.3979231169679226 0 -0.4317862968329752 -0.40681180157043439 0 -0.43748842303499169 -0.38401460145049221 0 -0.4317862968329752 -0.40681180157043439 0 -0.41589004424973391 -0.41694244958704541 0 -0.42398294773928658 -0.38932832635415832 0 -0.4317862968329752 -0.40681180157043439 0 -0.43748842303499169 -0.38401460145049221 0 -0.4317862968329752 -0.40681180157043439 0 -0.42398294773928658 -0.38932832635415832 0 -0.43748842303499169 -0.38401460145049221 0 -0.41457197988337569 -0.40334059984365223 0 -0.40312100572328269 -0.38231002028283168 0 -0.41589004424973391 -0.41694244958704541 0 -0.42398294773928658 -0.38932832635415832 0 -0.41589004424973391 -0.41694244958704541 0 -0.42398294773928658 -0.38932832635415832 0 -0.41457197988337569 -0.40334059984365223 0 -0.42398294773928658 -0.38932832635415832 0 -0.41457197988337569 -0.40334059984365223 0 -0.40312100572328269 -0.38231002028283168 0 -0.42398294773928658 -0.38932832635415832 0 -0.40312100572328269 -0.38231002028283168 0 -0.41129744175414779 -0.36286544724050968 0 -0.40312100572328269 -0.38231002028283168 0 -0.39774536953599021 -0.39886977856277528 0 -0.38415455409997568 -0.37932097912718982 0 -0.41457197988337569 -0.40334059984365223 0 -0.40312100572328269 -0.38231002028283168 0 -0.39774536953599021 -0.39886977856277528 0 -0.41457197988337569 -0.40334059984365223 0 -0.39774536953599021 -0.39886977856277528 0 -0.40359171317229509 -0.41116702041248321 0 -0.39774536953599021 -0.39886977856277528 0 -0.3816910740018018 -0.3978199791907685 0 -0.38942675078624878 -0.41274424714870339 0 -0.39774536953599021 -0.39886977856277528 0 -0.3816910740018018 -0.3978199791907685 0 -0.38415455409997568 -0.37932097912718982 0 -0.3816910740018018 -0.3978199791907685 0 -0.38415455409997568 -0.37932097912718982 0 -0.36846150912401782 -0.38921121351916349 0 -0.40032442140612717 -0.42393802692023952 0 -0.38942675078624878 -0.41274424714870339 0 -0.38620992578879237 -0.43274906637102339 0 -0.40032442140612717 -0.42393802692023952 0 -0.38620992578879237 -0.43274906637102339 0 -0.40779714076018109 -0.44455657281993272 0 -0.39774536953599021 -0.39886977856277528 0 -0.40359171317229509 -0.41116702041248321 0 -0.38942675078624878 -0.41274424714870339 0 -0.40032442140612717 -0.42393802692023952 0 -0.40359171317229509 -0.41116702041248321 0 -0.38942675078624878 -0.41274424714870339 0 -0.3816910740018018 -0.3978199791907685 0 -0.38942675078624878 -0.41274424714870339 0 -0.36839808653706002 -0.41274616982070422 0 -0.38942675078624878 -0.4127442471
[...]
<PointData Scalars="" Vectors="displacement," Tensors="">
<DataArray type="Float64" Name="displacement" NumberOfComponents="3" format="ascii">
0.014998867967503627 2.5083054607719085e-07 0 0.014961166545158337 -2.0800921983267299e-06 0 0.015000441198527614 -1.2623965329703061e-07 0 0.014998867967503627 2.5083054607719085e-07 0 0.014961166545158337 -2.0800921983267299e-06 0 0.014381086111008669 -3.802243274772799e-07 0 0.013610456705398816 -0.00028021136267326251 0 0.013710915442682431 5.0640297177927499e-05 0 0.013441812069582041 3.213878438476654e-05 0 0.013610456705398816 -0.00028021136267326251 0 0.014377934351768283 -6.3911240621819701e-07 0 0.013710915442682431 5.0640297177927499e-05 0 0.014235060335135764 -0.00015545572432687841 0 0.014379388362024409 -1.0258073323256827e-08 0 0.013699817285008844 2.9590113264116654e-07 0 0.013710915442682431 5.0640297177927499e-05 0 0.013417353263771985 0.00011998054429644847 0 0.014377934351768283 -6.3911240621819701e-07 0 0.013699817285008844 2.9590113264116654e-07 0 0.013710915442682431 5.0640297177927499e-05 0 0.013710915442682431 5.0640297177927499e-05 0 0.013417353263771985 0.00011998054429644847 0 0.013441812069582041 3.213878438476654e-05 0 0.013699817285008844 2.9590113264116654e-07 0 0.013417353263771985 0.00011998054429644847 0 0.013020009632504296 4.474000658339903e-07 0 0.013417353263771985 0.00011998054429644847 0 0.013373215647333262 0.00010379307608054109 0 0.01337913738355519 7.3034759018464297e-05 0 0.013417353263771985 0.00011998054429644847 0 0.013373215647333262 0.00010379307608054109 0 0.013441812069582041 3.213878438476654e-05 0 0.014980868039234398 1.6049201261798099e-05 0 0.014991143448228663 9.4284148093352032e-06 0 0.014987580403754331 1.2948271733403122e-05 0 0.013373215647333262 0.00010379307608054109 0 0.013441812069582041 3.213878438476654e-05 0 0.013321976769100914 -4.3487632411332597e-05 0 0.014194489707876559 8.3989947457368175e-05 0 0.014135139522566753 -5.676234412866992e-05 0 0.013321976769100914 -4.3487632411332597e-05 0 0.013421744902811122 -0.00016496976649423841 0 0.013323400504902855 -0.00032506025952908915 0 0.014991143448228663 9.4284148093352032e-06 0 0.01499430479660765 5.6341185166421321e-06 0 0.014987580403754331 1.2948271733403122e-05 0 0.014135139522566753 -5.676234412866992e-05 0 0.014409609119995793 -5.0225034256763802e-06 0 0.014991143448228663 9.4284148093352032e-06 0 0.014998833959561413 1.2914273441362545e-06 0 0.01499430479660765 5.6341185166421321e-06 0 0.013610456705398816 -0.00028021136267326251 0 0.013441812069582041 3.213878438476654e-05 0 0.013421744902811122 -0.00016496976649423841 0 0.013441812069582041 3.213878438476654e-05 0 0.013321976769100914 -4.3487632411332597e-05 0 0.013421744902811122 -0.00016496976649423841 0 0.014961166545158337 -2.0800921983267299e-06 0 0.014999450233394024 -4.8958186272289002e-06 0 0.015000441198527614 -1.2623965329703061e-07 0 0.014235060335135764 -0.00015545572432687841 0 0.014409609119995793 -5.0225034256763802e-06 0 0.013610456705398816 -0.00028021136267326251 0 0.013421744902811122 -0.00016496976649423841 0 0.013323400504902855 -0.00032506025952908915 0 0.014998833959561413 1.2914273441362545e-06 0 0.014999994216846096 3.5347980561319482e-09 0 0.014999989709789271 5.7644408361386543e-09 0 0.014409609119995793 -5.0225034256763802e-06 0 0.014998762913761754 -8.3823564285311815e-08 0 0.014998833959561413 1.2914273441362545e-06 0 0.014999989709789271 5.7644408361386543e-09 0 0.01499430479660765 5.6341185166421321e-06 0 0.014999989709789271 5.7644408361386543e-09 0 0.014993716943294339 5.4937036876889257e-06 0 0.01499430479660765 5.6341185166421321e-06 0 0.014999989709789271 5.7644408361386543e-09 0 0.014993716943294339 5.4937036876889257e-06 0 0.014999986031122192 8.1291613606220656e-11 0 0.014993716943294339 5.4937036876889257e-06 0 0.014987580403754331 1.2948271733403122e-05 0 0.014988008836495748 1.2790952697517243e-05 0 0.014993716943294339 5.4937036876889257e-06 0 0.014990126607706438 6.8797036089793276e-06 0 0.014988008836495748 1.2790952697517243e-05 0 0.014993716943294339 5.4937036876889257e-06 0 0.01499430479660765 5.6341185166421321e-06 0 0.014987580403754331 1.2948271733403122e-05 0 0.014993716943294339 5.4937036876889257e-06 0 0.014999986031122192 8.1291613606220656e-11 0 0.014990126607706438 6.8797036089793276e-06 0 0.014999986031122192 8.1291613606220656e-11 0 0.014990126607706438 6.8797036089793276e-06 0 0.014980908872617474 8.7054268201531927e-06 0 0.014999986031122192 8.1291613606220656e-11 0 0.014980908872617474 8.7054268201531927e-06 0 0.014983808512810406 5.2970649367629407e-06 0 0.014980908872617474 8.7054268201531927e-06 0 0.014981963664577899 1.6292721223813228e-05 0 0.01496473187947024 1.9557779110657631e-05 0 0.014981963664577899 1.6292721223813228e-05 0 0.014988008836495748 1.2790952697517243e-05 0 0.014983612754746429 1.9628205829409468e-05 0 0.014990126607706438 6.8797036089793276e-06 0 0.014980908872617474 8.7054268201531927e-06 0 0.014981963664577899 1.6292721223813228e-05 0 0.014990126607706438 6.8797036089793276e-06 0 0.014981963664577899 1.6292721223813228e-05 0 0.014988008836495748 1.2790952697517243e-05 0 0.014981963664577899 1.6292721223813228e-05 0 0.014980699692977223 2.3919521574673268e-05 0 0.014973137145169712 3.548171074245768e-05 0 0.014981963664577899 1.6292721223813228e-05 0 0.014980699692977223 2.3919521574673268e-05 0 0.014983612754746429 1.9628205829409468e-05 0 0.014980699692977223 2.3919521574673268e-05 0 0.014983612754746429 1.9628205829409468e-05 0 0.01498136637049239 2.1144867915123776e-05 0 0.014981963664577899 1.6292721223813228e-05 0 0.01496473187947024 1.9557779110657631e-05 0 0.014973137145169712 3.548171074245768e-05 0 0.014987580403754331 1.2948271733403122e-05 0 0.014988008836495748 1.2790952697517243e-05 0 0.014983255639631713 1.755753792519089e-05 0 0.014988008836495748 1.2790952697517243e-05 0 0.014983612754746429 1.9628205829409468e-05 0 0.014983255639631713 1.755753792519089e-05 0 0.014983612754746429 1.9628205829409468e-05 0 0.014983255639631713 1.755753792519089e-05 0 0.01498136637049239 2.1144867915123776e-05 0 0.014980868039234398 1.6049201261798099e-05 0 0.014987580403754331 1.2948271733403122e-05 0 0.014979517885544328 1.6356777914203615e-05 0 0.014987580403754331 1.2948271733403122e-05 0 0.014983255639631713 1.755753792519089e-05 0 0.014979517885544328 1.6356777914203615e-05 0 0.014983255639631713 1.755753792519089e-05 0 0.014979517885544328 1.6356777914203615e-05 0 0.014976899206073327 1.4662814089953042e-05 0 0.014979517885544328 1.6356777914203615e-05 0 0.014976899206073327 1.4662814089953042e-05 0 0.014970540543836485 1.3443586363813773e-05 0 0.014370764092718735 7.5068291868784584e-06 0 0.014045813531424268 -0.00012050878760600016 0 0.013721665262653636 -1.0738001603846414e-06 0 0.01409802761439697 5.0382796240233686e-05 0 0.013910349373539341 -0.00017775717768234538 0 0.014370764092718735 7.5068291868784584e-06 0 0.014532450669064898 3.3856808187157425e-05 0 0.014983255639631713 1.755753792519089e-05 0 0.014976899206073327 1.4662814089953042e-05 0 0.01498136637049239 2.1144867915123776e-05 0 0.011190983877657977 -0.00053399821294710552 0 0.011246039193870213 -0.00051419881734123874 0 0.011205888375793205 -0.00048891726178206245 0 0.011190983877657977 -0.00053399821294710552 0 0.011260085924195831 -0.000465193916795912 0 0.011205888375793205 -0.00048891726178206245 0 0.013721665262653636 -1.0738001603846414e-06 0 0.013910349373539341 -0.00017775717768234538 0 0.013504120287865407 -0.00020391703962321516 0 0.011190983877657977 -0.00053399821294710552 0 0.011260085924195831 -0.000465193916795912 0 0.011408875964035678 -0.0005201342529881994 0 0.012566681820513983 -0.00035054172507118804 0 0.012443828665810581 -0.00036000554542037395 0 0.012908523405533062 -0.00025483764682515881 0 0.013392114418301614 -0.00012055288511639839 0 0.01441782775274565 -0.00012429949002257013 0 0.014528868032621153 8.5882825179009855e-05 0 0.01490203783091822 -3.4425342547992863e-05 0 0.014980699692977223 2.3919521574673268e-05 0 0.01498136637049239 2.1144867915123776e-05 0 0.014973137145169712 3.548171074245768e-05 0 0.01409802761439697 5.0382796240233686e-05 0 0.013910349373539341 -0.00017775717768234538 0 0.01441782775274565 -0.00012429949002257013 0 0.014532450669064898 3.3856808187157425e-05 0 0.014746981224263388 5.4356963711577675e-05 0 0.01409802761439697 5.0382796240233686e-05 0 0.01441782775274565 -0.00012429949002257013 0 0.014528868032621153 8.5882825179009855e-05 0 0.011246454215476681 -0.0005314892843172232 0 0.01124455629794726 -0.00058107642707970952 0 0.012566681820513983 -0.00035054172507118804 0 0.012908523405533062 -0.00025483764682515881 0 0.011190983877657977 -0.00053399821294710552 0 0.011387230872506893 -0.000388269463229572 0 0.011246039193870213 -0.00051419881734123874 0 0.011387230872506893 -0.000388269463229572 0 0.011246039193870213 -0.00051419881734123874 0 0.011507256003738267 -0.00069528836051399731 0 0.011387230872506893 -0.000388269463229572 0 0.011507256003738267 -0.00069528836051399731 0 0.011838943787480729 -0.00056563147066983864 0 0.011018318710672367 -0.00050200788014852444 0 0.011144951410748869 -0.00045621160914600646 0 0.010977110856136582 -0.00037828222777089879 0 0.011246039193870213 -0.00051419881734123874 0 0.011018318710672367 -0.00050200788014852444 0 0.011144951410748869 -0.00045621160914600646 0 0.011246039193870213 -0.00051419881734123874 0 0.011144951410748869 -0.00045621160914600646 0 0.011205888375793205 -0.00048891726178206245 0 0.011144951410748869 -0.00045621160914600646 0 0.011106392632517089 -0.00036259023907733712 0 0.011202675138634828 -0.00040745066195315441 0 0.011144951410748869 -0.00045621160914600646 0 0.011106392632517089 -0.00036259023907733712 0 0.010977110856136582 -0.00037828222777089879 0 0.011106392632517089 -0.00036259023907733712 0 0.010977110856136582 -0.00037828222777089879 0 0.011027975194235927 -0.00028285203260721862 0 0.011260085924195831 -0.000465193916795912 0 0.011202675138634828 -0.00040745066195315441 0 0.011322106860672091 -0.00037844569461622786 0 0.011260085924195831 -0.000465193916795912 0 0.011322106860672091 -0.00037844569461622786 0 0.011408875964035678 -0.0005201342529881994 0 0.011144951410748869 -0.00045621160914600646 0 0.011205888375793205 -0.00048891726178206245 0 0.011202675138634828 -0.00040745066195315441 0 0.011260085924195831 -0.000465193916795912 0 0.011205888375793205 -0.00048891726178206245 0 0.011202675138634828 -0.00040745066195315441 0 0.011106392632517089 -0.00036259023907733712 0 0.011202675138634828 -0.00040745066195315441 0 0.011192196897628966 -0.00027545441164990195 0 0.011202675138634828 -0.00040745066195315441 0 0.011322106860672091 -0.00037844569461622786 0 0.011192196897628966 -0.00027545441164990195 0 0.011322106860672091 -0.00037844569461622786 0 0.011445111358316705 -0.00031998032741354277 0 0.011468686950232143 -0.00042340813602997988 0 0.011322106860672091 -0.00037844569461622786 0 0.011445111358316705 -0.00031998032741354277 0 0.011316037292242294 -0.00024929737788037889 0 0.011322106860672091 -0.00037844569461622786 0 0.011468686950232143 -0.00042340813602997988 0 0.011408875964035678 -0.0005201342529881994 0 0.012469473729052058 -0.00040685872436991237 0 0.012443828665810581 -0.00036000554542037395 0 0.011468686950232143 -0.00042340813602997988 0 0.011611733732721223 -0.00046848745469565511 0 0.011408875964035678 -0.0005201342529881994 0 0.011468686950232143 -0.00042340813602997988 0 0.011581723465272503 -0.00039945937562581893 0 0.011611733732721223 -0.00046848745469565511 0 0.011533255569205324 -0.00019280676261162355 0 0.011185198451410269 -8.64235363550721e-05 0 0.011418020551916739 -0.00030439125398337241 0 0.011506091998537837 -0.00035985682214986433 0 0.011469197475203138 -0.00026287644212679708 0 0.010937591961659306 -9.9449896996869593e-05 0 0.010986480926228892 6.9692975695961141e-05 0 0.010951218321130291 9.8096584901313639e-05 0 0.011445111358316705 -0.00031998032741354277 0 0.011468686950232143 -0.00042340813602997988 0 0.011581723465272503 -0.00039945937562581893 0 0.011443579350303396 -0.00033416201877443453 0 0.011533255569205324 -0.00019280676261162355 0 0.010937591961659306 -9.9449896996869593e-05 0 0.011134561162890974 7.1078854095150235e-05 0 0.011108909267150691 -0.00024459971938951884 0 0.010937591961659306 -9.9449896996869593e-05 0 0.011134561162890974 7.1078854095150235e-05 0 0.010986480926228892 6.9692975695961141e-05 0 0.011134561162890974 7.1078854095150235e-05 0 0.011745304961512713 -6.948322860218577e-07 0 0.010986308742522578 6.5774653790084506e-07 0 0.011134561162890974 7.1078854095150235e-05 0 0.011745304961512713 -6.948322860218577e-07 0 0.011108909267150691 -0.00024459971938951884 0 0.012030224085606804 -0.0002773369055661681 0 0.012341025209748311 -2.7523409003986134e-07 0 0.011745868138942238 -1.2175787384983672e-07 0 0.012030224085606804 -0.0002773369055661681 0 0.011748289875487723 -5.9075764498669791e-09 0 0.011930843825862538 -1.9206964623867533e-06 0 0.012338692289601218 3.2713756905894108e-09 0 0.011871695504936308 -0.00017880829051162967 0 0.012161177438759257 -0.00037242284713179718 0 0.011970722482630545 -0.0004282569463413002 0 0.011533255569205324 -0.00019280676261162355 0 0.012469473729052058 -0.00040685872436991237 0 0.011533255569205324 -0.00019280676261162355 0 0.012030224085606804 -0.0002773369055661681 0 0.012030224085606804 -0.0002773369055661681 0 0.012469473729052058 -0.00040685872436991237 0 0.013067488719641107 3.0565921289043104e-05 0 0.013311403553633165 5.0474105707992772e-05 0 0.013275943785835536 -8.1798886100906034e-05 0 0.013179035733995656 -0.00028287880382332444 0 0.013067488719641107 3.0565921289043104e-05 0 0.013275943785835536 -8.1798886100906034e-05 0 0.013041675533094868 -0.00055309491244245163 0 0.01321814182198457 -0.00050116273065114276 0 0.013067488719641107 3.0565921289043104e-05 0 0.012469473729052058 -0.00040685872436991237 0 0.013221738420633943 -4.5253916575350159e-05 0 0.013041675533094868 -0.00055309491244245163 0 0.013067488719641107 3.0565921289043104e-05 0 0.012341876000294518 -9.1243571581899955e-07 0 0.013067488719641107 3.0565921289043104e-05 0 0.012341876000294518 -9.1243571581899955e-07 0 0.013020009632504296 4.474000658339903e-07 0 0.013417353263771985 0.00011998054429644847 0 0.013067488719641107 3.0565921289043104e-05 0 0.013020009632504296 4.474000658339903e-07 0 0.013417353263771985 0.00011998054429644847 0 0.013067488719641107 3.0565921289043104e-05 0 0.013311403553633165 5.0474105707992772e-05 0 0.013417353263771985 0.00011998054429644847 0 0.013311403553633165 5.0474105707992772e-05 0 0.01337913738355519 7.3034759018464297e-05 0 0.013311403553633165 5.0474105707992772e-05 0 0.01337913738355519 7.3034759018464297e-05 0 0.01340467282141434 -2.8055294484917241e-05 0 0.013373215647333262 0.00010379307608054109 0 0.01337913738355519 7.3034759018464297e-05 0 0.013449117295702067 9.2701071745206038e-06 0 0.014980868039234398 1.6049201261798099e-05 0 0.014979517885544328 1.6356777914203615e-05 0 0.014970540543836485 1.3443586363813773e-05 0 0.014194489707876559 8.3989947457368175e-05 0 0.014045813531424268 -0.00012050878760600016 0 0.01337913738355519 7.3034759018464297e-05 0 0.013449117295702067 9.2701071745206038e-06 0 0.01340467282141434 -2.8055294484917241e-05 0 0.013721665262653636 -1.0738001603846414e-06 0 0.013539550842246154 -1.6275676649810028e-05 0 0.013504120287865407 -0.00020391703962321516 0 0.013539550842246154 -1.6275676649810028e-05 0 0.01340467282141434 -2.8055294484917241e-05 0 0.013504120287865407 -0.00020391703962321516 0 0.014045813531424268 -0.00012050878760600016 0 0.013395112851605684 -0.00012764354705624816 0 0.01340467282141434 -2.8055294484917241e-05 0 0.013504120287865407 -0.00020391703962321516 0 0.013275943785835536 -8.1798886100906034e-05 0 0.013179035733995656 -0.00028287880382332444 0 0.013504120287865407 -0.00020391703962321516 0 0.013275943785835536 -8.1798886100906034e-05 0 0.013311403553633165 5.0474105707992772e-05 0 0.01340467282141434 -2.8055294484917241e-05 0 0.013275943785835536 -8.1798886100906034e-05 0 0.013247599612421036 -0.00013948145018637421 0 0.013104893419350337 -1.4851359052929211e-05 0 0.0133299459879592 3.3748461393388525e-05 0 0.013384082604393331 -0.00011921621013126031 0 0.013247599612421036 -0.00013948145018637421 0 0.0133299459879592 3.3748461393388525e-05 0 0.013321215037997105 9.69582904958113e-05 0 0.013590375519212322 -2.2911442670602429e-05 0 0.013321215037997105 9.69582904958113e-05 0 0.012975030981886479 -8.3685214686491087e-05 0 0.013247599612421036 -0.00013948145018637421 0 0.013104893419350337 -1.4851359052929211e-05 0 0.013068569499934493 -0.00019980316530002245 0 0.013321215037997105 9.69582904958113e-05 0 0.013449645664051511 0.00011395706802721195 0 0.013728469105238362 5.6555336446192856e-05 0 0.013734424127361006 8.2351242425460387e-05 0 0.013784315465972431 0.00010184630812096426 0 0.013728469105238362 5.6555336446192856e-05 0 0.013784315465972431 0.00010184630812096426 0 0.013816341261543373 7.488544415520823e-05 0 0.013734424127361006 8.2351242425460387e-05 0 0.013784315465972431 0.00010184630812096426 0 0.013691637496826475 7.5422344567164512e-05 0 0.014212921184999875 -6.0766103462793177e-05 0 0.014244592430598021 0.00011374998814575496 0 0.014422238043484836 1.5295257568908342e-05 0 0.014425947006377568 1.3341285384791213e-05 0 0.014427009546278645 1.7192448789219611e-05 0 0.013728668724599965 5.6631565297925759e-05 0 0.013734424127361006 8.2351242425460387e-05 0 0.013691637496826475 7.5422344567164512e-05 0 0.014841781776531022 -2.0584593706033363e-05 0 0.014244592430598021 0.00011374998814575496 0 0.014974489767659811 -1.9943008656584871e-05 0 0.014977341551011405 -1.1390322811689724e-05 0 0.014966684609934658 -1.334561707354467e-05 0 0.014212921184999875 -6.0766103462793177e-05 0 0.014841781776531022 -2.0584593706033363e-05 0 0.013634739507211075 -0.00015003644463733098 0 0.013658418157281998 -0.00017127403568627529 0 0.01372205692424292 -0.0001134533757193057 0 0.014974489767659811 -1.9943008656584871e-05 0 0.014984897821836176 -1.074937365315352e-05 0 0.014992464966225949 -9.8349664229956654e-06 0 0.014212921184999875 -6.0766103462793177e-05 0 0.014377874324004976 -6.1395290734152198e-05 0 0.014974489767659811 -1.9943008656584871e-05 0 0.014984897821836176 -1.074937365315352e-05 0 0.014977341551011405 -1.1390322811689724e-05 0 0.014212921184999875 -6.0766103462793177e-05 0 0.013590375519212322 -2.2911442670602429e-05 0 0.014984897821836176 -1.074937365315352e-05 0 0.014988129747909537 -4.962853993384795e-06 0 0.014991199152961951 -6.5099799782545515e-06 0 0.014984897821836176 -1.074937365315352e-05 0 0.014977341551011405 -1.1390322811689724e-05 0 0.014988129747909537 -4.962853993384795e-06 0 0.014977341551011405 -1.1390322811689724e-05 0 0.014979462275396031 -3.4623131055124446e-06 0 0.014988129747909537 -4.962853993384795e-06 0 0.014988129747909537 -4.962853993384795e-06 0 0.0149979371919536 3.4029689258886498e-07 0 0.014994885419972126 -2.4067470613286489e-06 0 0.014998444751183003 3.3340239958410781e-07 0 0.0149979371919536 3.4029689258886498e-07 0 0.014999996251422525 2.0778188666544782e-09 0 0.0149979371919536 3.4029689258886498e-07 0 0.014999996251422525 2.0778188666544782e-09 0 0.014999984519606725 -7.589963397560026e-10 0 0.014997234846272236 1.0922458566649816e-05 0 0.014992091404914214 -3.9429973209599795e-06 0 0.014979462275396031 -3.4623131055124446e-06 0 0.014988129747909537 -4.962853993384795e-06 0 0.0149979371919536 3.4029689258886498e-07 0 0.014999996251422525 2.0778188666544782e-09 0 0.014997034589978009 1.8358077673067954e-07 0 0.014992697135872833 1.1905824327639139e-06 0 0.014998444751183003 3.3340239958410781e-07 0 0.014999996251422525 2.0778188666544782e-09 0 0.014997034589978009 1.8358077673067954e-07 0 0.014997034589978009 1.8358077673067954e-07 0 0.014996542275337636 -3.0381310044073102e-06 0 0.0149926