<?xml version="1.0"?>
<VTKFile type="UnstructuredGrid" version="0.1" byte_order="LittleEndian">
<UnstructuredGrid>
<Piece NumberOfPoints="31460" NumberOfCells="11032">
<Points>
<DataArray type="Float64" NumberOfComponents="3" format="ascii">
-0.5 -0.5 0 -0.45826379443595727 -0.49240595043268048 0 -0.46642144748582659 -0.46827107884399732 0 -0.5 -0.5 0 -0.45826379443595727 -0.49240595043268048 0 -0.45848359805609501 -0.5 0 -0.5 -0.5 0 -0.46642144748582659 -0.46827107884399732 0 -0.47457910053569591 -0.44413620725531422 0 -0.5 -0.5 0 -0.47457910053569591 -0.44413620725531422 0 -0.5 -0.41751269325046653 0 -0.45826379443595727 -0.49240595043268048 0 -0.45848359805609501 -0.5 0 -0.42679110151757371 -0.48004619837947488 0 -0.45826379443595727 -0.49240595043268048 0 -0.44201261089570698 -0.4714523331548211 0 -0.42679110151757371 -0.48004619837947488 0 -0.45826379443595727 -0.49240595043268048 0 -0.46642144748582659 -0.46827107884399732 0 -0.45826379443595727 -0.49240595043268048 0 -0.44201261089570698 -0.4714523331548211 0 -0.46642144748582659 -0.46827107884399732 0 -0.44240823633296938 -0.45229162232937098 0 -0.45670593271524501 -0.43994674796861938 0 -0.44031796922511218 -0.42850724856467381 0 -0.44201261089570698 -0.4714523331548211 0 -0.44240823633296938 -0.45229162232937098 0 -0.46642144748582659 -0.46827107884399732 0 -0.44240823633296938 -0.45229162232937098 0 -0.46642144748582659 -0.46827107884399732 0 -0.45670593271524501 -0.43994674796861938 0 -0.46642144748582659 -0.46827107884399732 0 -0.45670593271524501 -0.43994674796861938 0 -0.47457910053569591 -0.44413620725531422 0 -0.46642144748582659 -0.46827107884399732 0 -0.47457910053569591 -0.44413620725531422 0 -0.47457910053569591 -0.44413620725531422 0 -0.5 -0.41751269325046653 0 -0.48273675358556511 -0.42000133566663111 0 -0.5 -0.41751269325046653 0 -0.48273675358556511 -0.42000133566663111 0 -0.49089440663543438 -0.39586646407794801 0 -0.48273675358556511 -0.42000133566663111 0 -0.49089440663543438 -0.39586646407794801 0 -0.48273675358556511 -0.42000133566663111 0 -0.47239969127523262 -0.40464396238003442 0 -0.46060228419306642 -0.42088664922356989 0 -0.48273675358556511 -0.42000133566663111 0 -0.49089440663543438 -0.39586646407794801 0 -0.47239969127523262 -0.40464396238003442 0 -0.47457910053569591 -0.44413620725531422 0 -0.48273675358556511 -0.42000133566663111 0 -0.46060228419306642 -0.42088664922356989 0 -0.47457910053569591 -0.44413620725531422 0 -0.48273675358556511 -0.42000133566663111 0 -0.5 -0.41751269325046653 0 -0.49089440663543438 -0.39586646407794801 0 -0.5 -0.35718982066189531 0 -0.49089440663543438 -0.39586646407794801 0 -0.47239969127523262 -0.40464396238003442 0 -0.47015997070342119 -0.38996932702083759 0 -0.49089440663543438 -0.39586646407794801 0 -0.47015997070342119 -0.38996932702083759 0 -0.47429781889144779 -0.36869290898349849 0 -0.47015997070342119 -0.38996932702083759 0 -0.45406055381680549 -0.3790110336362707 0 -0.47429781889144779 -0.36869290898349849 0 -0.47015997070342119 -0.38996932702083759 0 -0.45406055381680549 -0.3790110336362707 0 -0.45692306129662602 -0.39916895556881221 0 -0.47239969127523262 -0.40464396238003442 0 -0.47015997070342119 -0.38996932702083759 0 -0.45692306129662602 -0.39916895556881221 0 -0.45406055381680549 -0.3790110336362707 0 -0.45692306129662602 -0.39916895556881221 0 -0.44355292439190502 -0.39507389339917143 0 -0.45692306129662602 -0.39916895556881221 0 -0.44355292439190502 -0.39507389339917143 0 -0.44688333252642382 -0.41058587036408029 0 -0.44355292439190502 -0.39507389339917143 0 -0.44688333252642382 -0.41058587036408029 0 -0.43210225647489492 -0.40762766561943192 0 -0.45406055381680549 -0.3790110336362707 0 -0.44355292439190502 -0.39507389339917143 0 -0.44065104410712241 -0.3826525541742411 0 -0.44355292439190502 -0.39507389339917143 0 -0.44065104410712241 -0.3826525541742411 0 -0.43069729812955759 -0.39139728103219218 0 -0.45670593271524501 -0.43994674796861938 0 -0.47457910053569591 -0.44413620725531422 0 -0.46060228419306642 -0.42088664922356989 0 -0.47239969127523262 -0.40464396238003442 0 -0.45692306129662602 -0.39916895556881221 0 -0.46060228419306642 -0.42088664922356989 0 -0.45692306129662602 -0.39916895556881221 0 -0.46060228419306642 -0.42088664922356989 0 -0.44688333252642382 -0.41058587036408029 0 -0.46060228419306642 -0.42088664922356989 0 -0.44688333252642382 -0.41058587036408029 0 -0.44031796922511218 -0.42850724856467381 0 -0.44688333252642382 -0.41058587036408029 0 -0.44031796922511218 -0.42850724856467381 0 -0.43210225647489492 -0.40762766561943192 0 -0.45670593271524501 -0.43994674796861938 0 -0.46060228419306642 -0.42088664922356989 0 -0.44031796922511218 -0.42850724856467381 0 -0.44031796922511218 -0.42850724856467381 0 -0.42101849629073163 -0.4240660635467729 0 -0.42333571139453008 -0.44444857464324627 0 -0.43210225647489492 -0.40762766561943192 0 -0.42101849629073163 -0.4240660635467729 0 -0.41813940108592951 -0.4002994084223529 0 -0.44031796922511218 -0.42850724856467381 0 -0.43210225647489492 -0.40762766561943192 0 -0.42101849629073163 -0.4240660635467729 0 -0.40688855083469172 -0.41211063442899998 0 -0.42101849629073163 -0.4240660635467729 0 -0.41813940108592951 -0.4002994084223529 0 -0.40688855083469172 -0.41211063442899998 0 -0.42101849629073163 -0.4240660635467729 0 -0.4016048111967645 -0.43978488499474971 0 -0.42101849629073163 -0.4240660635467729 0 -0.4016048111967645 -0.43978488499474971 0 -0.42333571139453008 -0.44444857464324627 0 -0.43069932187709958 -0.37879002033441939 0 -0.42063656841534353 -0.38461657006784372 0 -0.42385265753588541 -0.3725179346807968 0 -0.44065104410712241 -0.3826525541742411 0 -0.43069932187709958 -0.37879002033441939 0 -0.43069729812955759 -0.39139728103219218 0 -0.43069932187709958 -0.37879002033441939 0 -0.43069729812955759 -0.39139728103219218 0 -0.42063656841534353 -0.38461657006784372 0 -0.43069729812955759 -0.39139728103219218 0 -0.41813940108592951 -0.4002994084223529 0 -0.42063656841534353 -0.38461657006784372 0 -0.43210225647489492 -0.40762766561943192 0 -0.43069729812955759 -0.39139728103219218 0 -0.41813940108592951 -0.4002994084223529 0 -0.44355292439190502 -0.39507389339917143 0 -0.43210225647489492 -0.40762766561943192 0 -0.43069729812955759 -0.39139728103219218 0 -0.40688855083469172 -0.41211063442899998 0 -0.41813940108592951 -0.4002994084223529 0 -0.41217229047262077 -0.38443638386325091 0 -0.40688855083469172 -0.41211063442899998 0 -0.41217229047262077 -0.38443638386325091 0 -0.41813940108592951 -0.4002994084223529 0 -0.42063656841534353 -0.38461657006784372 0 -0.41217229047262077 -0.38443638386325091 0 -0.42063656841534353 -0.38461657006784372 0 -0.41217229047262077 -0.38443638386325091 0 -0.42063656841534353 -0.38461657006784372 0 -0.41217229047262077 -0.38443638386325091 0 -0.42385265753588541 -0.3725179346807968 0 -0.41217229047262077 -0.38443638386325091 0 -0.39638845942390522 -0.39754947296885251 0 -0.39027020230279269 -0.38397013568871091 0 -0.41217229047262077 -0.38443638386325091 0 -0.39027020230279269 -0.38397013568871091 0 -0.39866833408116109 -0.359484049848948 0 -0.41217229047262077 -0.38443638386325091 0 -0.39027020230279269 -0.38397013568871091 0 -0.40688855083469172 -0.41211063442899998 0 -0.41217229047262077 -0.38443638386325091 0 -0.39638845942390522 -0.39754947296885251 0 -0.40688855083469172 -0.41211063442899998 0 -0.39638845942390522 -0.39754947296885251 0 -0.39207740415033382 -0.40817179700541478 0 -0.39638845942390522 -0.39754947296885251 0 -0.38053384935908718 -0.39905841385788582 0 -0.39027020230279269 -0.38397013568871091 0 -0.39638845942390522 -0.39754947296885251 0 -0.38053384935908718 -0.39905841385788582 0 -0.39207740415033382 -0.40817179700541478 0 -0.38053384935908718 -0.39905841385788582 0 -0.38076443343398969 -0.4131052076953004 0 -0.37129162846163649 -0.40646668987925128 0 -0.38053384935908718 -0.39905841385788582 0 -0.39027020230279269 -0.38397013568871091 0 -0.36836811413296489 -0.38350388751415809 0 -0.39027020230279269 -0.38397013568871091 0 -0.37276014916928413 -0.36968874551325409 0 -0.36836811413296489 -0.38350388751415809 0 -0.39027020230279269 -0.38397013568871091 0 -0.36836811413296489 -0.38350388751415809 0 -0.39119617914405191 -0.42217665770588209 0 -0.38893306401390532 -0.43437150840034638 0 -0.4016048111967645 -0.43978488499474971 0 -0.40688855083469172 -0.41211063442899998 0 -0.39119617914405191 -0.42217665770588209 0 -0.4016048111967645 -0.43978488499474971 0 -0.40688855083469172 -0.41211063442899998 0 -0.4016048111967645 -0.43978488499474971 0 -0.40688855083469172 -0.41211063442899998 0 -0.39119617914405191 -0.42217665770588209 0 -0.39207740415033382 -0.40817179700541478 0 -0.39119617914405191 -0.42217665770588209 0 -0.39207740415033382 -0.40817179700541478 0 -0.38076443343398969 -0.4131052076953004 0 -0.39119617914405191 -0.42217665770588209 0 -0.38076443343398969 -0.4131052076953004 0 -0.37754063201758509 -0.42531469454045251 0 -0.38053384935908718 -0.39905841385788582 0 -0.39207740415033382 -0.40817179700541478 0 -0.38076443343398969 -0.4131052076953004 0 -0.38076443343398969 -0.4131052076953004 0 -0.37754063201758509 -0.42531469454045251 0 -0.36883198683104568 -0.41905626867772777 0 -0.37754063201758509 -0.42531469454045251 0 -0.38893306401390532 -0.43437150840034638 0 -0.38539063369721949 -0.45020979636030162 0 -0.39119617914405191 -0.42217665770588209 0 -0.37754063201758509 -0.42531469454045251 0 -0.38893306401390532 -0.43437150840034638 0 -0.37754063201758509 -0.42531469454045251 0 -0.38539063369721949 -0.45020979636030162 0 -0.37754063201758509 -0.42531469454045251 0 -0.38539063369721949 -0.45020979636030162 0 -0.3683365684192384 -0.44086890113562249 0 -0.38893306401390532 -0.43437150840034638 0 -0.38539063369721949 -0.45020979636030162 0 -0.4016048111967645 -0.43978488499474971 0 -0.38539063369721949 -0.45020979636030162 0 -0.4016048111967645 -0.43978488499474971 0 -0.40699761504363058 -0.45864100006030317 0 -0.38539063369721949 -0.45020979636030162 0 -0.39
[...]
<PointData Scalars="" Vectors="displacement," Tensors="">
<DataArray type="Float64" Name="displacement" NumberOfComponents="3" format="ascii">
-0.055000504970116444 -0.054996945839937764 0 -0.054650137410435201 -0.050814721836282821 0 -0.05280185639298686 -0.054479690929482794 0 -0.055000504970116444 -0.054996945839937764 0 -0.054650137410435201 -0.050814721836282821 0 -0.05499513805079434 -0.050434301512023591 0 -0.055000504970116444 -0.054996945839937764 0 -0.05280185639298686 -0.054479690929482794 0 -0.049876466318769123 -0.055799654905520739 0 -0.055000504970116444 -0.054996945839937764 0 -0.049876466318769123 -0.055799654905520739 0 -0.045928231002043178 -0.054996971028251053 0 -0.054650137410435201 -0.050814721836282821 0 -0.05499513805079434 -0.050434301512023591 0 -0.053989711917114637 -0.048437613749398339 0 -0.054650137410435201 -0.050814721836282821 0 -0.053258409487489479 -0.049965136325910389 0 -0.053989711917114637 -0.048437613749398339 0 -0.054224470070724978 -0.051037498600864636 0 -0.052586548125013961 -0.051965296603148602 0 -0.054650137410435201 -0.050814721836282821 0 -0.053258409487489479 -0.049965136325910389 0 -0.052623210300726947 -0.049633194193661939 0 -0.051122644358345411 -0.050830012152261246 0 -0.049503973710030041 -0.051163791889131213 0 -0.048529739201143764 -0.052254844063304204 0 -0.053258409487489479 -0.049965136325910389 0 -0.051122644358345411 -0.050830012152261246 0 -0.052623210300726947 -0.049633194193661939 0 -0.051122644358345411 -0.050830012152261246 0 -0.052623210300726947 -0.049633194193661939 0 -0.049503973710030041 -0.051163791889131213 0 -0.052623210300726947 -0.049633194193661939 0 -0.049503973710030041 -0.051163791889131213 0 -0.049692114775975273 -0.049998595802112217 0 -0.052586548125013961 -0.051965296603148602 0 -0.049775844929690671 -0.052919126146282976 0 -0.049876466318769123 -0.055799654905520739 0 -0.045928231002043178 -0.054996971028251053 0 -0.046458457819723069 -0.056149880705937599 0 -0.045928231002043178 -0.054996971028251053 0 -0.046458457819723069 -0.056149880705937599 0 -0.043716950813676068 -0.054673720647757197 0 -0.046563963976028695 -0.053855805786067509 0 -0.04418239688819723 -0.054492022176404288 0 -0.046440387188096288 -0.051460518827511827 0 -0.044924110916714402 -0.053095848991314379 0 -0.047077498464746875 -0.052214573042775492 0 -0.046440387188096288 -0.051460518827511827 0 -0.043716950813676068 -0.054673720647757197 0 -0.044924110916714402 -0.053095848991314379 0 -0.049692114775975273 -0.049998595802112217 0 -0.046440387188096288 -0.051460518827511827 0 -0.047077498464746875 -0.052214573042775492 0 -0.049775844929690671 -0.052919126146282976 0 -0.046563963976028695 -0.053855805786067509 0 -0.045928231002043178 -0.054996971028251053 0 -0.043716950813676068 -0.054673720647757197 0 -0.039293416152586254 -0.054996027134354884 0 -0.043716950813676068 -0.054673720647757197 0 -0.044924110916714402 -0.053095848991314379 0 -0.043625303577832904 -0.054077474818455783 0 -0.043716950813676068 -0.054673720647757197 0 -0.043625303577832904 -0.054077474818455783 0 -0.041426634258483495 -0.055067871508064935 0 -0.043625303577832904 -0.054077474818455783 0 -0.042892702048737727 -0.054821568855222109 0 -0.041426634258483495 -0.055067871508064935 0 -0.043625303577832904 -0.054077474818455783 0 -0.042892702048737727 -0.054821568855222109 0 -0.044803246434295632 -0.053626189412990966 0 -0.044924110916714402 -0.053095848991314379 0 -0.043625303577832904 -0.054077474818455783 0 -0.044803246434295632 -0.053626189412990966 0 -0.042892702048737727 -0.054821568855222109 0 -0.044803246434295632 -0.053626189412990966 0 -0.044697572649383469 -0.054104415113150249 0 -0.044803246434295632 -0.053626189412990966 0 -0.044697572649383469 -0.054104415113150249 0 -0.046305783009723607 -0.053144510668875315 0 -0.044697572649383469 -0.054104415113150249 0 -0.046305783009723607 -0.053144510668875315 0 -0.046350135362002179 -0.053693731491957906 0 -0.042892702048737727 -0.054821568855222109 0 -0.044697572649383469 -0.054104415113150249 0 -0.043489161337602215 -0.054853902447119685 0 -0.044697572649383469 -0.054104415113150249 0 -0.043489161337602215 -0.054853902447119685 0 -0.044557303985878621 -0.054681039989685015 0 -0.049503973710030041 -0.051163791889131213 0 -0.049692114775975273 -0.049998595802112217 0 -0.047077498464746875 -0.052214573042775492 0 -0.044924110916714402 -0.053095848991314379 0 -0.044803246434295632 -0.053626189412990966 0 -0.047077498464746875 -0.052214573042775492 0 -0.044803246434295632 -0.053626189412990966 0 -0.047077498464746875 -0.052214573042775492 0 -0.046305783009723607 -0.053144510668875315 0 -0.047077498464746875 -0.052214573042775492 0 -0.046305783009723607 -0.053144510668875315 0 -0.048529739201143764 -0.052254844063304204 0 -0.046305783009723607 -0.053144510668875315 0 -0.048529739201143764 -0.052254844063304204 0 -0.046350135362002179 -0.053693731491957906 0 -0.049503973710030041 -0.051163791889131213 0 -0.047077498464746875 -0.052214573042775492 0 -0.048529739201143764 -0.052254844063304204 0 -0.048529739201143764 -0.052254844063304204 0 -0.048517177231927576 -0.052924648604657905 0 -0.050519158470955235 -0.051396086371328815 0 -0.046350135362002179 -0.053693731491957906 0 -0.048517177231927576 -0.052924648604657905 0 -0.045751512697510537 -0.054725171823665958 0 -0.048529739201143764 -0.052254844063304204 0 -0.046350135362002179 -0.053693731491957906 0 -0.048517177231927576 -0.052924648604657905 0 -0.047284992220206136 -0.054654626753754557 0 -0.048517177231927576 -0.052924648604657905 0 -0.045751512697510537 -0.054725171823665958 0 -0.047284992220206136 -0.054654626753754557 0 -0.048517177231927576 -0.052924648604657905 0 -0.050549662606456346 -0.051361362168059803 0 -0.048517177231927576 -0.052924648604657905 0 -0.050549662606456346 -0.051361362168059803 0 -0.050519158470955235 -0.051396086371328815 0 -0.043282787537231998 -0.055298801610530794 0 -0.043975483677822939 -0.055496126730183941 0 -0.042799841015207264 -0.055773894205632162 0 -0.043489161337602215 -0.054853902447119685 0 -0.043282787537231998 -0.055298801610530794 0 -0.044557303985878621 -0.054681039989685015 0 -0.043282787537231998 -0.055298801610530794 0 -0.044557303985878621 -0.054681039989685015 0 -0.043975483677822939 -0.055496126730183941 0 -0.044557303985878621 -0.054681039989685015 0 -0.045751512697510537 -0.054725171823665958 0 -0.043975483677822939 -0.055496126730183941 0 -0.046350135362002179 -0.053693731491957906 0 -0.044557303985878621 -0.054681039989685015 0 -0.045751512697510537 -0.054725171823665958 0 -0.044697572649383469 -0.054104415113150249 0 -0.046350135362002179 -0.053693731491957906 0 -0.044557303985878621 -0.054681039989685015 0 -0.047284992220206136 -0.054654626753754557 0 -0.045751512697510537 -0.054725171823665958 0 -0.044080952923487973 -0.055935133258747258 0 -0.051425325642750305 -0.053879680307128093 0 -0.04832863340099252 -0.048703204275986497 0 -0.045751512697510537 -0.054725171823665958 0 -0.043975483677822939 -0.055496126730183941 0 -0.044080952923487973 -0.055935133258747258 0 -0.046136115139334112 -0.055599717465733202 0 -0.04832863340099252 -0.048703204275986497 0 -0.043975483677822939 -0.055496126730183941 0 -0.04378753120413819 -0.056297921958697997 0 -0.042799841015207264 -0.055773894205632162 0 -0.058596604006831948 -0.052598696715831582 0 -0.056526782636776948 -0.050073264886152623 0 -0.058906737316766766 -0.049027965828663027 0 -0.048240214331346856 -0.03643004329739629 0 -0.048218106784940568 -0.035543516977496137 0 -0.049104936717707326 -0.035910051962899786 0 -0.04832863340099252 -0.048703204275986497 0 -0.053965054866402948 -0.041307242473479798 0 -0.054188176391790695 -0.051699520454633989 0 -0.058596604006831948 -0.052598696715831582 0 -0.056526782636776948 -0.050073264886152623 0 -0.054188176391790695 -0.051699520454633989 0 -0.056526782636776948 -0.050073264886152623 0 -0.054783398845990407 -0.049416388821293171 0 -0.056526782636776948 -0.050073264886152623 0 -0.056250312795504041 -0.047348144823908561 0 -0.058906737316766766 -0.049027965828663027 0 -0.056526782636776948 -0.050073264886152623 0 -0.056250312795504041 -0.047348144823908561 0 -0.054783398845990407 -0.049416388821293171 0 -0.056250312795504041 -0.047348144823908561 0 -0.053884800156554676 -0.047491239619885946 0 -0.054838096214138876 -0.045682392438357304 0 -0.056250312795504041 -0.047348144823908561 0 -0.058906737316766766 -0.049027965828663027 0 -0.059381722555003777 -0.044878266516251132 0 -0.048218106784940568 -0.035543516977496137 0 -0.048838339854332925 -0.034694641511789574 0 -0.048288399083499724 -0.034536513732517461 0 -0.053965054866402948 -0.041307242473479798 0 -0.053678948213058686 -0.040262497688289905 0 -0.05279839946987569 -0.049468020307913245 0 -0.051377912822965159 -0.04948241339337911 0 -0.050549662606456346 -0.051361362168059803 0 -0.054188176391790695 -0.051699520454633989 0 -0.05279839946987569 -0.049468020307913245 0 -0.050549662606456346 -0.051361362168059803 0 -0.051425325642750305 -0.053879680307128093 0 -0.049943046112421209 -0.051379050760485767 0 -0.054188176391790695 -0.051699520454633989 0 -0.05279839946987569 -0.049468020307913245 0 -0.054783398845990407 -0.049416388821293171 0 -0.05279839946987569 -0.049468020307913245 0 -0.054783398845990407 -0.049416388821293171 0 -0.053884800156554676 -0.047491239619885946 0 -0.05279839946987569 -0.049468020307913245 0 -0.053884800156554676 -0.047491239619885946 0 -0.052128896609679704 -0.046900648591412276 0 -0.056250312795504041 -0.047348144823908561 0 -0.054783398845990407 -0.049416388821293171 0 -0.053884800156554676 -0.047491239619885946 0 -0.053884800156554676 -0.047491239619885946 0 -0.052128896609679704 -0.046900648591412276 0 -0.052574889199805207 -0.045658062476793229 0 -0.052128896609679704 -0.046900648591412276 0 -0.051377912822965159 -0.04948241339337911 0 -0.050561193333281775 -0.050189443376334589 0 -0.05279839946987569 -0.049468020307913245 0 -0.052128896609679704 -0.046900648591412276 0 -0.051377912822965159 -0.04948241339337911 0 -0.052282782859183988 -0.046976838910910174 0 -0.051426922778362721 -0.047560565409787682 0 -0.052128896609679704 -0.046900648591412276 0 -0.051863949692119056 -0.04528935848526594 0 -0.051872211104186168 -0.045819846611229634 0 -0.051377912822965159 -0.04948241339337911 0 -0.050561193333281775 -0.050189443376334589 0 -0.050549662606456346 -0.051361362168059803 0 -0.050561193333281775 -0.050189443376334589 0 -0.050549662606456346 -0.051361362168059803 0 -0.051619155656447833 -0.050144331130388992 0 -0.050561193333281775 -0.050189443376334589 0 -0.05292045050192859 -0.048929753272415166 0 -0.051619155656447833 -0.050144331130388992 0 -0.051426922778362721 -0.047560565409787682 0 -0.052999376749849836 -0.046446811668750691 0 -0.051863949692119056 -0.04528935848526594 0 -0.052885172949705246 -0.044903518179712353 0 -0.053505085694337873 -0.044009239533731148 0 -0.051863949692119056 -0.04528935848526594 0 -0.052885172949705246 -0.044903518179712353 0 -0.052556362370780686 -0.045330094255005851 0 -0.051863949692119056 -0.04528935848526594 0 -0.052556362370780686 -0.045330094255005851 0 -0.052048202403410133 -0.045634378995327102 0 -0.052885172949705246 -0.044903518179712353 0 -0.052556362370780686 -0.045330094255005851 0 -0.053785989605271166 -0.045130052829729414 0 -0.052885172949705246 -0.044903518179712353 0 -0.053785989605271166 -0.045130052829729414 0 -0.053505085694337873 -0.044009239533731148 0 -0.055114037932114987 -0.043207498394746434 0 -0.054999904838068395 -0.043436243669900981 0 -0.056616702767498174 -0.041295460966902127 0 -0.056103775800138783 -0.041108400249514759 0 -0.055000039019085484 -0.043435660483914465 0 -0.053785989605271166 -0.045130052829729414 0 -0.054998884614445749 -0.043443533238230643 0 -0.053505085694337873 -0.044009239533731148 0 -0.056103775800138783 -0.041108400249514759 0 -0.055000039019085484 -0.043435660483914465 0 -0.054999625851166863 -0.040493060351254655 0 -0.054998974393142989 -0.044121026763718769 0 -0.052999376749849836 -0.046446811668750691 0 -0.055000748721742682 -0.044113082727593629 0 -0.054998884614445749 -0.043443533238230643 0 -0.053505085694337873 -0.044009239533731148 0 -0.05292045050192859 -0.048929753272415166 0 -0.053989711917114637 -0.048437613749398339 0 -0.051619155656447833 -0.050144331130388992 0 -0.05499513805079434 -0.050434301512023591 0 -0.054996479753584147 -0.044135590413495782 0 -0.053989711917114637 -0.048437613749398339 0 -0.054996479753584147 -0.044135590413495782 0 -0.05292045050192859 -0.048929753272415166 0 -0.053989711917114637 -0.048437613749398339 0 -0.053258409487489479 -0.049965136325910389 0 -0.053989711917114637 -0.048437613749398339 0 -0.052281516768405693 -0.050007941479303444 0 -0.051122644358345411 -0.050830012152261246 0 -0.052281516768405693 -0.050007941479303444 0 -0.050519158470955235 -0.051396086371328815 0 -0.053258409487489479 -0.049965136325910389 0 -0.051122644358345411 -0.050830012152261246 0 -0.052281516768405693 -0.050007941479303444 0 -0.051122644358345411 -0.050830012152261246 0 -0.048529739201143764 -0.052254844063304204 0 -0.050519158470955235 -0.051396086371328815 0 -0.050549662606456346 -0.051361362168059803 0 -0.050519158470955235 -0.051396086371328815 0 -0.051619155656447833 -0.050144331130388992 0 -0.052281516768405693 -0.050007941479303444 0 -0.050519158470955235 -0.051396086371328815 0 -0.051619155656447833 -0.050144331130388992 0 -0.053989711917114637 -0.048437613749398339 0 -0.052281516768405693 -0.050007941479303444 0 -0.051619155656447833 -0.050144331130388992 0 -0.032010829343528079 -0.057503421243800132 0 -0.031859451650389344 -0.05767293018304237 0 -0.031993853222672591 -0.057702104248586739 0 -0.032010829343528079 -0.057503421243800132 0 -0.031859451650389344 -0.05767293018304237 0 -0.031722100972885102 -0.057499027787649461 0 -0.031859451650389344 -0.05767293018304237 0 -0.031666182950752117 -0.057734494075801161 0 -0.031722100972885102 -0.057499027787649461 0 -0.031666182950752117 -0.057734494075801161 0 -0.031548404147378452 -0.057734898503309783 0 -0.031722100972885102 -0.057499027787649461 0 -0.031859451650389344 -0.05767293018304237 0 -0.031666182950752117 -0.057734494075801161 0 -0.031869773544653382 -0.057835707671842547 0 -0.029088922625182648 -0.058208641587005082 0 -0.029260486385991109 -0.057129075157102874 0 -0.031238847154210481 -0.057520770475480244 0 -0.030745877010729474 -0.058072663065656956 0 -0.031084449827970845 -0.057897370699919383 0 -0.031666182950752117 -0.057734494075801161 0 -0.031869773544653382 -0.057835707671842547 0 -0.031316476197616072 -0.057903596128555126 0 -0.031859451650389344 -0.05767293018304237 0 -0.031869773544653382 -0.057835707671842547 0 -0.031993853222672591 -0.057702104248586739 0 -0.028489159326468481 -0.056356053187696153 0 -0.029241579578962021 -0.057679197396044712 0 -0.026603579960690536 -0.056596041283346464 0 -0.027713696258985621 -0.057487194862068672 0 -0.029260486385991109 -0.057129075157102874 0 -0.026603579960690536 -0.056596041283346464 0 -0.028777831712234237 -0.057520510739515335 0 -0.026961428143843578 -0.056627298856350934 0 -0.029088922625182648 -0.058208641587005082 0 -0.027713696258985621 -0.057487194862068672 0 -0.029260486385991109 -0.057129075157102874 0 -0.028489159326468481 -0.056356053187696153 0 -0.029678070822126579 -0.056172596965242301 0 -0.029241579578962021 -0.057679197396044712 0 -0.028489159326468481 -0.056356053187696153 0 -0.028383645936999713 -0.054999972686183209 0 -0.026603579960690536 -0.056596041283346464 0 -0.028489159326468481 -0.056356053187696153 0 -0.028383645936999713 -0.054999972686183209 0 -0.029678070822126579 -0.056172596965242301 0 -0.030889074654801979 -0.054999930612476947 0 -0.029678070822126579 -0.056172596965242301 0 -0.031373438677149111 -0.056826379893248916 0 -0.028383645936999713 -0.054999972686183209 0 -0.030889074654801979 -0.054999930612476947 0 -0.029678070822126579 -0.056172596965242301 0 -0.028777831712234237 -0.057520510739515335 0 -0.033903325112466222 -0.056566545810612927 0 -0.029241579578962021 -0.057679197396044712 0 -0.031373438677149111 -0.056826379893248916 0 -0.031900089110733866 -0.058666343602069786 0 -0.029678070822126579 -0.056172596965242301 0 -0.029241579578962021 -0.057679197396044712 0 -0.031373438677149111 -0.056826379893248916 0 -0.031980456735941853 -0.056132330104217441 0 -0.034789153826150394 -0.056135372505919379 0 -0.032805995537688794 -0.057513454457930553 0 -0.03166541317626545 -0.056619473164103352 0 -0.033903325112466222 -0.056566545810612927 0 -0.030892006588663128 -0.054999339786510296 0 -0.031980456735941853 -0.056132330104217441 0 -0.034789153826150394 -0.056135372505919379 0 -0.030889426898423306 -0.055000076888886106 0 -0.03166541317626545 -0.056619473164103352 0 -0.039267771007353076 -0.054539901829864811 0 -0.03952566137266561 -0.055269315394405542 0 -0.040288608225677952 -0.054905596727874713 0 -0.033903325112466222 -0.056566545810612927 0 -0.038315562927985554 -0.056322536899336272 0 -0.034789153826150394 -0.056135372505919379 0 -0.032805995537688794 -0.057513454457930553 0 -0.035586256165463265 -0.057802614807343874 0 -0.031238847154210481 -0.057520770475480244 0 -0.031316476197616072 -0.057903596128555126 0 -0.031391312628698625 -0.057937963552330135 0 -0.033903325112466222 -0.056566545810612927 0 -0.035601351855388159 -0.057870219833575237 0 -0.029088922625182648 -0.058208641587005082 0 -0.031238847154210481 -0.057520770475480244 0 -0.031316476197616072 -0.057903596128555126 0 -0.031316476197616072 -0.057903596128555126 0 -0.031391312628698625 -0.057937963552330135 0 -0.031548404147378452 -0.057734898503309783 0 -0.031391312628698625 -0.057937963552330135 0 -0.031548404147378452 -0.057734898503309783 0 -0.031372681312646741 -0.057416176113246779 0 -0.031666182950752117 -0.057734494075801161 0 -0.031316476197616072 -0.057903596128555126 0 -0.031548404147378452 -0.057734898503309783 0 -0.03952566137266561 -0.055269315394405542 0 -0.039998684205137573 -0.055433013563881944 0 -0.03977548360687725 -0.055932218189094038 0 -0.03952566137266561 -0.055269315394405542 0 -0.039998684205137573 -0.055433013563881944 0 -0.040288608225677952 -0.054905596727874713 0 -0.030892006588663128 -0.054999339786510296 0 -0.034789153826150394 -0.056135372505919379 0 -0.039293416152586254 -0.054996027134354884 0 -0.039800109438861267 -0.056275576648406885 0 -0.038315562927985554 -0.056322536899336272 0 -0.0404155514182871 -0.055601018502904762 0 -0.041226738334625278 -0.055338401842389195 0 -0.040288608225677952 -0.054905596727874713 0 -0.039998684205137573 -0.055433013563881944 0 -0.0404155514182871 -0.055601018502904762 0 -0.040288608225677952 -0.054905596727874713 0 -0.03868652863201124 -0.0574478042554456 0 -0.038520410086939613 -0.056057795007574136 0 -0.035586256165463265 -0.057802614807343874 0 -0.034789153826150394 -0.056135372505919379 0 -0.038520410086939613 -0.056057795007574136 0 -0.035586256165463265 -0.057802614807343874 0 -0.034789153826150394 -0.056135372505919379 0 -0.038520410086939613 -0.056057795007574136 0 -0.039293416152586254 -0.054996027134354884 0 -0.038520410086939613 -0.056057795007574136 0 -0.039293416152586254 -0.054996027134354884 0 -0.041426634258483495 -0.055067871508064935 0 -0.043716950813676068 -0.054673720647757197 0 -0.039293416152586254 -0.054996027134354884 0 -0.041426634258483495 -0.055067871508064935 0 -0.042892702048737727 -0.054821568855222109 0 -0.041426634258483495 -0.055067871508064935 0 -0.040829085943136945 -0.055840201496625774 0 -0.03868652863201124 -0.0574478042554456 0 -0.038520410086939613 -0.056057795007574136 0 -0.040829085943136945 -0.055840201496625774 0 -0.038520410086939613 -0.056057795007574136 0 -0.041426634258483495 -0.055067871508064935 0 -0.040829085943136945 -0.055840201496625774 0 -0.03868652863201124 -0.0574478042554456 0 -0.040829085943136945 -0.055840201496625774 0 -0.041866168630818469 -0.055848247602340632 0 -0.041226738334625278 -0.055338401842