<?xml version="1.0"?>
<VTKFile type="UnstructuredGrid" version="0.1" byte_order="LittleEndian">
<UnstructuredGrid>
<Piece NumberOfPoints="31460" NumberOfCells="11032">
<Points>
<DataArray type="Float64" NumberOfComponents="3" format="ascii">
-0.5 -0.5 0 -0.45826379443595727 -0.49240595043268048 0 -0.46642144748582659 -0.46827107884399732 0 -0.5 -0.5 0 -0.45826379443595727 -0.49240595043268048 0 -0.45848359805609501 -0.5 0 -0.5 -0.5 0 -0.46642144748582659 -0.46827107884399732 0 -0.47457910053569591 -0.44413620725531422 0 -0.5 -0.5 0 -0.47457910053569591 -0.44413620725531422 0 -0.5 -0.41751269325046653 0 -0.45826379443595727 -0.49240595043268048 0 -0.45848359805609501 -0.5 0 -0.42679110151757371 -0.48004619837947488 0 -0.45826379443595727 -0.49240595043268048 0 -0.44201261089570698 -0.4714523331548211 0 -0.42679110151757371 -0.48004619837947488 0 -0.45826379443595727 -0.49240595043268048 0 -0.46642144748582659 -0.46827107884399732 0 -0.45826379443595727 -0.49240595043268048 0 -0.44201261089570698 -0.4714523331548211 0 -0.46642144748582659 -0.46827107884399732 0 -0.44240823633296938 -0.45229162232937098 0 -0.45670593271524501 -0.43994674796861938 0 -0.44031796922511218 -0.42850724856467381 0 -0.44201261089570698 -0.4714523331548211 0 -0.44240823633296938 -0.45229162232937098 0 -0.46642144748582659 -0.46827107884399732 0 -0.44240823633296938 -0.45229162232937098 0 -0.46642144748582659 -0.46827107884399732 0 -0.45670593271524501 -0.43994674796861938 0 -0.46642144748582659 -0.46827107884399732 0 -0.45670593271524501 -0.43994674796861938 0 -0.47457910053569591 -0.44413620725531422 0 -0.46642144748582659 -0.46827107884399732 0 -0.47457910053569591 -0.44413620725531422 0 -0.47457910053569591 -0.44413620725531422 0 -0.5 -0.41751269325046653 0 -0.48273675358556511 -0.42000133566663111 0 -0.5 -0.41751269325046653 0 -0.48273675358556511 -0.42000133566663111 0 -0.49089440663543438 -0.39586646407794801 0 -0.48273675358556511 -0.42000133566663111 0 -0.49089440663543438 -0.39586646407794801 0 -0.48273675358556511 -0.42000133566663111 0 -0.47239969127523262 -0.40464396238003442 0 -0.46060228419306642 -0.42088664922356989 0 -0.48273675358556511 -0.42000133566663111 0 -0.49089440663543438 -0.39586646407794801 0 -0.47239969127523262 -0.40464396238003442 0 -0.47457910053569591 -0.44413620725531422 0 -0.48273675358556511 -0.42000133566663111 0 -0.46060228419306642 -0.42088664922356989 0 -0.47457910053569591 -0.44413620725531422 0 -0.48273675358556511 -0.42000133566663111 0 -0.5 -0.41751269325046653 0 -0.49089440663543438 -0.39586646407794801 0 -0.5 -0.35718982066189531 0 -0.49089440663543438 -0.39586646407794801 0 -0.47239969127523262 -0.40464396238003442 0 -0.47015997070342119 -0.38996932702083759 0 -0.49089440663543438 -0.39586646407794801 0 -0.47015997070342119 -0.38996932702083759 0 -0.47429781889144779 -0.36869290898349849 0 -0.47015997070342119 -0.38996932702083759 0 -0.45406055381680549 -0.3790110336362707 0 -0.47429781889144779 -0.36869290898349849 0 -0.47015997070342119 -0.38996932702083759 0 -0.45406055381680549 -0.3790110336362707 0 -0.45692306129662602 -0.39916895556881221 0 -0.47239969127523262 -0.40464396238003442 0 -0.47015997070342119 -0.38996932702083759 0 -0.45692306129662602 -0.39916895556881221 0 -0.45406055381680549 -0.3790110336362707 0 -0.45692306129662602 -0.39916895556881221 0 -0.44355292439190502 -0.39507389339917143 0 -0.45692306129662602 -0.39916895556881221 0 -0.44355292439190502 -0.39507389339917143 0 -0.44688333252642382 -0.41058587036408029 0 -0.44355292439190502 -0.39507389339917143 0 -0.44688333252642382 -0.41058587036408029 0 -0.43210225647489492 -0.40762766561943192 0 -0.45406055381680549 -0.3790110336362707 0 -0.44355292439190502 -0.39507389339917143 0 -0.44065104410712241 -0.3826525541742411 0 -0.44355292439190502 -0.39507389339917143 0 -0.44065104410712241 -0.3826525541742411 0 -0.43069729812955759 -0.39139728103219218 0 -0.45670593271524501 -0.43994674796861938 0 -0.47457910053569591 -0.44413620725531422 0 -0.46060228419306642 -0.42088664922356989 0 -0.47239969127523262 -0.40464396238003442 0 -0.45692306129662602 -0.39916895556881221 0 -0.46060228419306642 -0.42088664922356989 0 -0.45692306129662602 -0.39916895556881221 0 -0.46060228419306642 -0.42088664922356989 0 -0.44688333252642382 -0.41058587036408029 0 -0.46060228419306642 -0.42088664922356989 0 -0.44688333252642382 -0.41058587036408029 0 -0.44031796922511218 -0.42850724856467381 0 -0.44688333252642382 -0.41058587036408029 0 -0.44031796922511218 -0.42850724856467381 0 -0.43210225647489492 -0.40762766561943192 0 -0.45670593271524501 -0.43994674796861938 0 -0.46060228419306642 -0.42088664922356989 0 -0.44031796922511218 -0.42850724856467381 0 -0.44031796922511218 -0.42850724856467381 0 -0.42101849629073163 -0.4240660635467729 0 -0.42333571139453008 -0.44444857464324627 0 -0.43210225647489492 -0.40762766561943192 0 -0.42101849629073163 -0.4240660635467729 0 -0.41813940108592951 -0.4002994084223529 0 -0.44031796922511218 -0.42850724856467381 0 -0.43210225647489492 -0.40762766561943192 0 -0.42101849629073163 -0.4240660635467729 0 -0.40688855083469172 -0.41211063442899998 0 -0.42101849629073163 -0.4240660635467729 0 -0.41813940108592951 -0.4002994084223529 0 -0.40688855083469172 -0.41211063442899998 0 -0.42101849629073163 -0.4240660635467729 0 -0.4016048111967645 -0.43978488499474971 0 -0.42101849629073163 -0.4240660635467729 0 -0.4016048111967645 -0.43978488499474971 0 -0.42333571139453008 -0.44444857464324627 0 -0.43069932187709958 -0.37879002033441939 0 -0.42063656841534353 -0.38461657006784372 0 -0.42385265753588541 -0.3725179346807968 0 -0.44065104410712241 -0.3826525541742411 0 -0.43069932187709958 -0.37879002033441939 0 -0.43069729812955759 -0.39139728103219218 0 -0.43069932187709958 -0.37879002033441939 0 -0.43069729812955759 -0.39139728103219218 0 -0.42063656841534353 -0.38461657006784372 0 -0.43069729812955759 -0.39139728103219218 0 -0.41813940108592951 -0.4002994084223529 0 -0.42063656841534353 -0.38461657006784372 0 -0.43210225647489492 -0.40762766561943192 0 -0.43069729812955759 -0.39139728103219218 0 -0.41813940108592951 -0.4002994084223529 0 -0.44355292439190502 -0.39507389339917143 0 -0.43210225647489492 -0.40762766561943192 0 -0.43069729812955759 -0.39139728103219218 0 -0.40688855083469172 -0.41211063442899998 0 -0.41813940108592951 -0.4002994084223529 0 -0.41217229047262077 -0.38443638386325091 0 -0.40688855083469172 -0.41211063442899998 0 -0.41217229047262077 -0.38443638386325091 0 -0.41813940108592951 -0.4002994084223529 0 -0.42063656841534353 -0.38461657006784372 0 -0.41217229047262077 -0.38443638386325091 0 -0.42063656841534353 -0.38461657006784372 0 -0.41217229047262077 -0.38443638386325091 0 -0.42063656841534353 -0.38461657006784372 0 -0.41217229047262077 -0.38443638386325091 0 -0.42385265753588541 -0.3725179346807968 0 -0.41217229047262077 -0.38443638386325091 0 -0.39638845942390522 -0.39754947296885251 0 -0.39027020230279269 -0.38397013568871091 0 -0.41217229047262077 -0.38443638386325091 0 -0.39027020230279269 -0.38397013568871091 0 -0.39866833408116109 -0.359484049848948 0 -0.41217229047262077 -0.38443638386325091 0 -0.39027020230279269 -0.38397013568871091 0 -0.40688855083469172 -0.41211063442899998 0 -0.41217229047262077 -0.38443638386325091 0 -0.39638845942390522 -0.39754947296885251 0 -0.40688855083469172 -0.41211063442899998 0 -0.39638845942390522 -0.39754947296885251 0 -0.39207740415033382 -0.40817179700541478 0 -0.39638845942390522 -0.39754947296885251 0 -0.38053384935908718 -0.39905841385788582 0 -0.39027020230279269 -0.38397013568871091 0 -0.39638845942390522 -0.39754947296885251 0 -0.38053384935908718 -0.39905841385788582 0 -0.39207740415033382 -0.40817179700541478 0 -0.38053384935908718 -0.39905841385788582 0 -0.38076443343398969 -0.4131052076953004 0 -0.37129162846163649 -0.40646668987925128 0 -0.38053384935908718 -0.39905841385788582 0 -0.39027020230279269 -0.38397013568871091 0 -0.36836811413296489 -0.38350388751415809 0 -0.39027020230279269 -0.38397013568871091 0 -0.37276014916928413 -0.36968874551325409 0 -0.36836811413296489 -0.38350388751415809 0 -0.39027020230279269 -0.38397013568871091 0 -0.36836811413296489 -0.38350388751415809 0 -0.39119617914405191 -0.42217665770588209 0 -0.38893306401390532 -0.43437150840034638 0 -0.4016048111967645 -0.43978488499474971 0 -0.40688855083469172 -0.41211063442899998 0 -0.39119617914405191 -0.42217665770588209 0 -0.4016048111967645 -0.43978488499474971 0 -0.40688855083469172 -0.41211063442899998 0 -0.4016048111967645 -0.43978488499474971 0 -0.40688855083469172 -0.41211063442899998 0 -0.39119617914405191 -0.42217665770588209 0 -0.39207740415033382 -0.40817179700541478 0 -0.39119617914405191 -0.42217665770588209 0 -0.39207740415033382 -0.40817179700541478 0 -0.38076443343398969 -0.4131052076953004 0 -0.39119617914405191 -0.42217665770588209 0 -0.38076443343398969 -0.4131052076953004 0 -0.37754063201758509 -0.42531469454045251 0 -0.38053384935908718 -0.39905841385788582 0 -0.39207740415033382 -0.40817179700541478 0 -0.38076443343398969 -0.4131052076953004 0 -0.38076443343398969 -0.4131052076953004 0 -0.37754063201758509 -0.42531469454045251 0 -0.36883198683104568 -0.41905626867772777 0 -0.37754063201758509 -0.42531469454045251 0 -0.38893306401390532 -0.43437150840034638 0 -0.38539063369721949 -0.45020979636030162 0 -0.39119617914405191 -0.42217665770588209 0 -0.37754063201758509 -0.42531469454045251 0 -0.38893306401390532 -0.43437150840034638 0 -0.37754063201758509 -0.42531469454045251 0 -0.38539063369721949 -0.45020979636030162 0 -0.37754063201758509 -0.42531469454045251 0 -0.38539063369721949 -0.45020979636030162 0 -0.3683365684192384 -0.44086890113562249 0 -0.38893306401390532 -0.43437150840034638 0 -0.38539063369721949 -0.45020979636030162 0 -0.4016048111967645 -0.43978488499474971 0 -0.38539063369721949 -0.45020979636030162 0 -0.4016048111967645 -0.43978488499474971 0 -0.40699761504363058 -0.45864100006030317 0 -0.38539063369721949 -0.45020979636030162 0 -0.39
[...]
<PointData Scalars="" Vectors="displacement," Tensors="">
<DataArray type="Float64" Name="displacement" NumberOfComponents="3" format="ascii">
-7.0905154699880093e-07 -0.054997688056150761 0 -0.00022655458653946938 -0.054402073321520548 0 -0.00016637459002204175 -0.052627902123823241 0 -7.0905154699880093e-07 -0.054997688056150761 0 -0.00022655458653946938 -0.054402073321520548 0 -6.5851856722047732e-07 -0.054996585725973393 0 -7.0905154699880093e-07 -0.054997688056150761 0 -0.00016637459002204175 -0.052627902123823241 0 -8.4809628060932167e-05 -0.05008355945968352 0 -7.0905154699880093e-07 -0.054997688056150761 0 -8.4809628060932167e-05 -0.05008355945968352 0 3.1624537567390952e-07 -0.045929484749671227 0 -0.00022655458653946938 -0.054402073321520548 0 -6.5851856722047732e-07 -0.054996585725973393 0 -0.00074184115743139846 -0.053494410185567748 0 -0.00022655458653946938 -0.054402073321520548 0 -0.0010770838824320922 -0.052652114555332481 0 -0.00074184115743139846 -0.053494410185567748 0 -0.0002913553947260197 -0.053958631458111792 0 -0.00070021044778055812 -0.052140619062432614 0 -0.00022655458653946938 -0.054402073321520548 0 -0.0010770838824320922 -0.052652114555332481 0 -0.0013541596292612737 -0.051640957613979327 0 -0.0013802361589366318 -0.051081126297124399 0 -0.001444758057769439 -0.049482178342756526 0 -0.0013030559945600808 -0.049382706479237669 0 -0.0010770838824320922 -0.052652114555332481 0 -0.0013802361589366318 -0.051081126297124399 0 -0.0013541596292612737 -0.051640957613979327 0 -0.0013802361589366318 -0.051081126297124399 0 -0.0013541596292612737 -0.051640957613979327 0 -0.001444758057769439 -0.049482178342756526 0 -0.0013541596292612737 -0.051640957613979327 0 -0.001444758057769439 -0.049482178342756526 0 -0.0015768307811182491 -0.04883000668166023 0 -0.00070021044778055812 -0.052140619062432614 0 -0.0008214283270765139 -0.049458553320540374 0 -8.4809628060932167e-05 -0.05008355945968352 0 3.1624537567390952e-07 -0.045929484749671227 0 0.00011105807651159595 -0.047229121188424456 0 3.1624537567390952e-07 -0.045929484749671227 0 0.00011105807651159595 -0.047229121188424456 0 -0.00015493223509008007 -0.043909642241933645 0 -0.00058605945791648825 -0.046643005667379903 0 -0.0001532447279943739 -0.044416060756655294 0 -0.0012073932146870647 -0.0461357856844479 0 -0.00067535749824749829 -0.045664756156067694 0 -0.0011691358203237674 -0.047725304630669776 0 -0.0012073932146870647 -0.0461357856844479 0 -0.00015493223509008007 -0.043909642241933645 0 -0.00067535749824749829 -0.045664756156067694 0 -0.0015768307811182491 -0.04883000668166023 0 -0.0012073932146870647 -0.0461357856844479 0 -0.0011691358203237674 -0.047725304630669776 0 -0.0008214283270765139 -0.049458553320540374 0 -0.00058605945791648825 -0.046643005667379903 0 3.1624537567390952e-07 -0.045929484749671227 0 -0.00015493223509008007 -0.043909642241933645 0 -2.2840970851141756e-06 -0.039291570523477877 0 -0.00015493223509008007 -0.043909642241933645 0 -0.00067535749824749829 -0.045664756156067694 0 -0.00037947786628421198 -0.044561274719286094 0 -0.00015493223509008007 -0.043909642241933645 0 -0.00037947786628421198 -0.044561274719286094 0 -0.00010609894241978872 -0.042395874448299398 0 -0.00037947786628421198 -0.044561274719286094 0 -0.00027897614435164566 -0.044827533208358181 0 -0.00010609894241978872 -0.042395874448299398 0 -0.00037947786628421198 -0.044561274719286094 0 -0.00027897614435164566 -0.044827533208358181 0 -0.00066468819717999952 -0.046219038806914858 0 -0.00067535749824749829 -0.045664756156067694 0 -0.00037947786628421198 -0.044561274719286094 0 -0.00066468819717999952 -0.046219038806914858 0 -0.00027897614435164566 -0.044827533208358181 0 -0.00066468819717999952 -0.046219038806914858 0 -0.00063007604138978399 -0.046827300201843072 0 -0.00066468819717999952 -0.046219038806914858 0 -0.00063007604138978399 -0.046827300201843072 0 -0.00096536664917644453 -0.047727531321424287 0 -0.00063007604138978399 -0.046827300201843072 0 -0.00096536664917644453 -0.047727531321424287 0 -0.00091740608585771347 -0.048374834780409028 0 -0.00027897614435164566 -0.044827533208358181 0 -0.00063007604138978399 -0.046827300201843072 0 -0.00032679394772947598 -0.046221831809138546 0 -0.00063007604138978399 -0.046827300201843072 0 -0.00032679394772947598 -0.046221831809138546 0 -0.00051451438380631712 -0.047449659931932765 0 -0.001444758057769439 -0.049482178342756526 0 -0.0015768307811182491 -0.04883000668166023 0 -0.0011691358203237674 -0.047725304630669776 0 -0.00067535749824749829 -0.045664756156067694 0 -0.00066468819717999952 -0.046219038806914858 0 -0.0011691358203237674 -0.047725304630669776 0 -0.00066468819717999952 -0.046219038806914858 0 -0.0011691358203237674 -0.047725304630669776 0 -0.00096536664917644453 -0.047727531321424287 0 -0.0011691358203237674 -0.047725304630669776 0 -0.00096536664917644453 -0.047727531321424287 0 -0.0013030559945600808 -0.049382706479237669 0 -0.00096536664917644453 -0.047727531321424287 0 -0.0013030559945600808 -0.049382706479237669 0 -0.00091740608585771347 -0.048374834780409028 0 -0.001444758057769439 -0.049482178342756526 0 -0.0011691358203237674 -0.047725304630669776 0 -0.0013030559945600808 -0.049382706479237669 0 -0.0013030559945600808 -0.049382706479237669 0 -0.0012092921712532894 -0.049948423784636445 0 -0.0014101672647466885 -0.051118318122887481 0 -0.00091740608585771347 -0.048374834780409028 0 -0.0012092921712532894 -0.049948423784636445 0 -0.00073014037733936765 -0.04871841150119522 0 -0.0013030559945600808 -0.049382706479237669 0 -0.00091740608585771347 -0.048374834780409028 0 -0.0012092921712532894 -0.049948423784636445 0 -0.00099110369228135996 -0.049870317431131732 0 -0.0012092921712532894 -0.049948423784636445 0 -0.00073014037733936765 -0.04871841150119522 0 -0.00099110369228135996 -0.049870317431131732 0 -0.0012092921712532894 -0.049948423784636445 0 -0.0014095400591977347 -0.051667806361880154 0 -0.0012092921712532894 -0.049948423784636445 0 -0.0014095400591977347 -0.051667806361880154 0 -0.0014101672647466885 -0.051118318122887481 0 -0.00016323397976664004 -0.046760991123500836 0 -0.00026215962486802921 -0.047688808106577711 0 5.4648824862660661e-05 -0.046953944645384299 0 -0.00032679394772947598 -0.046221831809138546 0 -0.00016323397976664004 -0.046760991123500836 0 -0.00051451438380631712 -0.047449659931932765 0 -0.00016323397976664004 -0.046760991123500836 0 -0.00051451438380631712 -0.047449659931932765 0 -0.00026215962486802921 -0.047688808106577711 0 -0.00051451438380631712 -0.047449659931932765 0 -0.00073014037733936765 -0.04871841150119522 0 -0.00026215962486802921 -0.047688808106577711 0 -0.00091740608585771347 -0.048374834780409028 0 -0.00051451438380631712 -0.047449659931932765 0 -0.00073014037733936765 -0.04871841150119522 0 -0.00063007604138978399 -0.046827300201843072 0 -0.00091740608585771347 -0.048374834780409028 0 -0.00051451438380631712 -0.047449659931932765 0 -0.00099110369228135996 -0.049870317431131732 0 -0.00073014037733936765 -0.04871841150119522 0 -0.00019778376030701441 -0.04840321373897162 0 -0.0015053252331141695 -0.051572096769378822 0 -0.0019550628962097731 -0.046583366856769226 0 -0.00073014037733936765 -0.04871841150119522 0 -0.00026215962486802921 -0.047688808106577711 0 -0.00019778376030701441 -0.04840321373897162 0 -0.0011254022084177541 -0.047856490110766974 0 -0.0019550628962097731 -0.046583366856769226 0 -0.00026215962486802921 -0.047688808106577711 0 -0.00039620932712480767 -0.047826516969514538 0 5.4648824862660661e-05 -0.046953944645384299 0 -0.0028459041541483618 -0.052384386669822404 0 -0.0024166488882872853 -0.051918327328107028 0 -0.0029526076024015604 -0.051728182990937378 0 -0.0065675228473149206 -0.038255694605488007 0 -0.0065763208827300836 -0.039197661685830255 0 -0.005506858189760537 -0.038762482642514105 0 -0.0019550628962097731 -0.046583366856769226 0 -0.0049756184163003269 -0.045196657810786481 0 -0.001907574380439392 -0.052166675327357734 0 -0.0028459041541483618 -0.052384386669822404 0 -0.0024166488882872853 -0.051918327328107028 0 -0.001907574380439392 -0.052166675327357734 0 -0.0024166488882872853 -0.051918327328107028 0 -0.0020347954681768504 -0.051804721511771824 0 -0.0024166488882872853 -0.051918327328107028 0 -0.002392709437615298 -0.051457374391368438 0 -0.0029526076024015604 -0.051728182990937378 0 -0.0024166488882872853 -0.051918327328107028 0 -0.002392709437615298 -0.051457374391368438 0 -0.0020347954681768504 -0.051804721511771824 0 -0.002392709437615298 -0.051457374391368438 0 -0.0018276612117119654 -0.051558419556609392 0 -0.0020640274938392897 -0.051167597247365547 0 -0.002392709437615298 -0.051457374391368438 0 -0.0029526076024015604 -0.051728182990937378 0 -0.0032876259039743695 -0.050869064338685731 0 -0.0065763208827300836 -0.039197661685830255 0 -0.005984230822904375 -0.039937790306185612 0 -0.0065839561739997462 -0.040165393008480141 0 -0.0049756184163003269 -0.045196657810786481 0 -0.0049695971346078267 -0.045491642277058576 0 -0.0016581757467776987 -0.051763221164390805 0 -0.0014912840458132591 -0.051739050539873585 0 -0.0014095400591977347 -0.051667806361880154 0 -0.001907574380439392 -0.052166675327357734 0 -0.0016581757467776987 -0.051763221164390805 0 -0.0014095400591977347 -0.051667806361880154 0 -0.0015053252331141695 -0.051572096769378822 0 -0.0015138977718329133 -0.051441301005923479 0 -0.001907574380439392 -0.052166675327357734 0 -0.0016581757467776987 -0.051763221164390805 0 -0.0020347954681768504 -0.051804721511771824 0 -0.0016581757467776987 -0.051763221164390805 0 -0.0020347954681768504 -0.051804721511771824 0 -0.0018276612117119654 -0.051558419556609392 0 -0.0016581757467776987 -0.051763221164390805 0 -0.0018276612117119654 -0.051558419556609392 0 -0.0015913515844555477 -0.051626950543052996 0 -0.002392709437615298 -0.051457374391368438 0 -0.0020347954681768504 -0.051804721511771824 0 -0.0018276612117119654 -0.051558419556609392 0 -0.0018276612117119654 -0.051558419556609392 0 -0.0015913515844555477 -0.051626950543052996 0 -0.0015122838698733007 -0.051370566438197499 0 -0.0015913515844555477 -0.051626950543052996 0 -0.0014912840458132591 -0.051739050539873585 0 -0.0013848739022820006 -0.051856122579256925 0 -0.0016581757467776987 -0.051763221164390805 0 -0.0015913515844555477 -0.051626950543052996 0 -0.0014912840458132591 -0.051739050539873585 0 -0.0015700192441876566 -0.05173233325607822 0 -0.0013795639320503014 -0.052265266520239335 0 -0.0015913515844555477 -0.051626950543052996 0 -0.0014485648713762503 -0.052629207802073759 0 -0.0015184432334323121 -0.05187181924865962 0 -0.0014912840458132591 -0.051739050539873585 0 -0.0013848739022820006 -0.051856122579256925 0 -0.0014095400591977347 -0.051667806361880154 0 -0.0013848739022820006 -0.051856122579256925 0 -0.0014095400591977347 -0.051667806361880154 0 -0.0013178377423279897 -0.052213569645652595 0 -0.0013848739022820006 -0.051856122579256925 0 -0.00089978303907968743 -0.052791593951376538 0 -0.0013178377423279897 -0.052213569645652595 0 -0.0013795639320503014 -0.052265266520239335 0 -0.00079074628107827832 -0.053359983494804281 0 -0.0014485648713762503 -0.052629207802073759 0 -0.00087267533815944028 -0.053053282635779464 0 -0.00059994058053308556 -0.053854479462756448 0 -0.0014485648713762503 -0.052629207802073759 0 -0.00087267533815944028 -0.053053282635779464 0 -0.0010098999414000663 -0.052609731755852165 0 -0.0014485648713762503 -0.052629207802073759 0 -0.0010098999414000663 -0.052609731755852165 0 -0.0013091406857205887 -0.052175333174560634 0 -0.00087267533815944028 -0.053053282635779464 0 -0.0010098999414000663 -0.052609731755852165 0 -0.00033729910228574232 -0.053044378273614357 0 -0.00087267533815944028 -0.053053282635779464 0 -0.00033729910228574232 -0.053044378273614357 0 -0.00059994058053308556 -0.053854479462756448 0 -0.00033829224374735099 -0.054050230525650139 0 -1.5176163787058651e-07 -0.05499956336227603 0 -0.00015939471367366832 -0.055096594023852162 0 -7.7813596716650777e-05 -0.05505246666814409 0 2.8916694877056948e-08 -0.055000126142016929 0 -0.00033729910228574232 -0.053044378273614357 0 5.4609153556526961e-07 -0.054996886181310649 0 -0.00059994058053308556 -0.053854479462756448 0 -7.7813596716650777e-05 -0.05505246666814409 0 2.8916694877056948e-08 -0.055000126142016929 0 -1.0864421010874972e-07 -0.055000093989099712 0 -2.4103964820499414e-07 -0.054999345389059248 0 -0.00079074628107827832 -0.053359983494804281 0 -2.4055174629767088e-07 -0.055002100715392493 0 5.4609153556526961e-07 -0.054996886181310649 0 -0.00059994058053308556 -0.053854479462756448 0 -0.00089978303907968743 -0.052791593951376538 0 -0.00074184115743139846 -0.053494410185567748 0 -0.0013178377423279897 -0.052213569645652595 0 -6.5851856722047732e-07 -0.054996585725973393 0 -1.2599816619480809e-06 -0.054993159243714215 0 -0.00074184115743139846 -0.053494410185567748 0 -1.2599816619480809e-06 -0.054993159243714215 0 -0.00089978303907968743 -0.052791593951376538 0 -0.00074184115743139846 -0.053494410185567748 0 -0.0010770838824320922 -0.052652114555332481 0 -0.00074184115743139846 -0.053494410185567748 0 -0.0012088785431699921 -0.052256765411189614 0 -0.0013802361589366318 -0.051081126297124399 0 -0.0012088785431699921 -0.052256765411189614 0 -0.0014101672647466885 -0.051118318122887481 0 -0.0010770838824320922 -0.052652114555332481 0 -0.0013802361589366318 -0.051081126297124399 0 -0.0012088785431699921 -0.052256765411189614 0 -0.0013802361589366318 -0.051081126297124399 0 -0.0013030559945600808 -0.049382706479237669 0 -0.0014101672647466885 -0.051118318122887481 0 -0.0014095400591977347 -0.051667806361880154 0 -0.0014101672647466885 -0.051118318122887481 0 -0.0013178377423279897 -0.052213569645652595 0 -0.0012088785431699921 -0.052256765411189614 0 -0.0014101672647466885 -0.051118318122887481 0 -0.0013178377423279897 -0.052213569645652595 0 -0.00074184115743139846 -0.053494410185567748 0 -0.0012088785431699921 -0.052256765411189614 0 -0.0013178377423279897 -0.052213569645652595 0 -0.00058658347781136264 -0.029674286187803225 0 -0.0013494237261935495 -0.02900803182368256 0 -0.00049053791337461225 -0.028594546358499215 0 -0.00058658347781136264 -0.029674286187803225 0 -0.0013494237261935495 -0.02900803182368256 0 -0.0022227363756929042 -0.030099844687608842 0 -0.0013494237261935495 -0.02900803182368256 0 -0.0021995737005771942 -0.028973151664332109 0 -0.0022227363756929042 -0.030099844687608842 0 -0.0021995737005771942 -0.028973151664332109 0 -0.0028420150077552858 -0.029334907051959885 0 -0.0022227363756929042 -0.030099844687608842 0 -0.0013494237261935495 -0.02900803182368256 0 -0.0021995737005771942 -0.028973151664332109 0 -0.001334213146237599 -0.028090122839325521 0 -0.0011863965836452894 -0.027417743809918464 0 -0.0013436595797475409 -0.026518220828275946 0 -0.0032644085208806592 -0.027440055211028807 0 -0.0011549078736420033 -0.027895930017003776 0 -0.0033035920520333175 -0.02846215812614758 0 -0.0021995737005771942 -0.028973151664332109 0 -0.001334213146237599 -0.028090122839325521 0 -0.0033135205595145475 -0.028533860201678484 0 -0.0013494237261935495 -0.02900803182368256 0 -0.001334213146237599 -0.028090122839325521 0 -0.00049053791337461225 -0.028594546358499215 0 -9.3658440581055664e-05 -0.02790746030029204 0 -0.00013071932694796936 -0.028130627115803816 0 -0.00021401679924979179 -0.026315503968491638 0 -0.00062474763611308206 -0.026611110893903337 0 -0.0013436595797475409 -0.026518220828275946 0 -0.00021401679924979179 -0.026315503968491638 0 -0.0010683749033219821 -0.026443725616068409 0 -0.00025167477816617285 -0.026709416213464444 0 -0.0011863965836452894 -0.027417743809918464 0 -0.00062474763611308206 -0.026611110893903337 0 -0.0013436595797475409 -0.026518220828275946 0 -9.3658440581055664e-05 -0.02790746030029204 0 -0.00011950167597118311 -0.028794481166600834 0 -0.00013071932694796936 -0.028130627115803816 0 -9.3658440581055664e-05 -0.02790746030029204 0 -1.2054524158362019e-06 -0.028383755319854924 0 -0.00021401679924979179 -0.026315503968491638 0 -9.3658440581055664e-05 -0.02790746030029204 0 -1.2054524158362019e-06 -0.028383755319854924 0 -0.00011950167597118311 -0.028794481166600834 0 2.3578693597249605e-06 -0.030885042921548103 0 -0.00011950167597118311 -0.028794481166600834 0 0.00083543432625051589 -0.028584634858014792 0 -1.2054524158362019e-06 -0.028383755319854924 0 2.3578693597249605e-06 -0.030885042921548103 0 -0.00011950167597118311 -0.028794481166600834 0 -0.0010683749033219821 -0.026443725616068409 0 0.0013680909963305833 -0.03438874318789497 0 -0.00013071932694796936 -0.028130627115803816 0 0.00083543432625051589 -0.028584634858014792 0 0.0010517438862655587 -0.027810062983959334 0 -0.00011950167597118311 -0.028794481166600834 0 -0.00013071932694796936 -0.028130627115803816 0 0.00083543432625051589 -0.028584634858014792 0 0.0014257796079934792 -0.035020325345107198 0 0.00033054813100014553 -0.036847326046515361 0 0.0016974456815436927 -0.037548989030247525 0 0.0010276996125573375 -0.031645011196252834 0 0.0013680909963305833 -0.03438874318789497 0 7.48142445371605e-06 -0.030899694381741501 0 0.0014257796079934792 -0.035020325345107198 0 0.00033054813100014553 -0.036847326046515361 0 4.9498857112714755e-07 -0.030890215174520244 0 0.0010276996125573375 -0.031645011196252834 0 0.0049812887647869425 -0.04322027644364463 0 0.0046556955046817517 -0.044516854821070061 0 0.0034405243102449815 -0.043967078000652415 0 0.0013680909963305833 -0.03438874318789497 0 0.0021999080685854624 -0.042521868534589558 0 0.00033054813100014553 -0.036847326046515361 0 0.0016974456815436927 -0.037548989030247525 0 0.0006975902779976569 -0.039568201359846879 0 -0.0032644085208806592 -0.027440055211028807 0 -0.0033135205595145475 -0.028533860201678484 0 -0.0037080763642761629 -0.029090471388015897 0 0.0013680909963305833 -0.03438874318789497 0 0.00045986192605377256 -0.037076836839587124 0 -0.0011863965836452894 -0.027417743809918464 0 -0.0032644085208806592 -0.027440055211028807 0 -0.0033135205595145475 -0.028533860201678484 0 -0.0033135205595145475 -0.028533860201678484 0 -0.0037080763642761629 -0.029090471388015897 0 -0.0028420150077552858 -0.029334907051959885 0 -0.0037080763642761629 -0.029090471388015897 0 -0.0028420150077552858 -0.029334907051959885 0 -0.0040863293650285912 -0.030577827274120579 0 -0.0021995737005771942 -0.028973151664332109 0 -0.0033135205595145475 -0.028533860201678484 0 -0.0028420150077552858 -0.029334907051959885 0 0.0046556955046817517 -0.044516854821070061 0 0.0039297816528606 -0.044854142191550858 0 0.0042984801542073764 -0.045709532974656894 0 0.0046556955046817517 -0.044516854821070061 0 0.0039297816528606 -0.044854142191550858 0 0.0034405243102449815 -0.043967078000652415 0 7.48142445371605e-06 -0.030899694381741501 0 0.00033054813100014553 -0.036847326046515361 0 -2.2840970851141756e-06 -0.039291570523477877 0 0.0011894296571946864 -0.043442244622629994 0 0.0021999080685854624 -0.042521868534589558 0 0.0033093257534340626 -0.045183582747620493 0 0.0019878218843322835 -0.044692982724912948 0 0.0034405243102449815 -0.043967078000652415 0 0.0039297816528606 -0.044854142191550858 0 0.0033093257534340626 -0.045183582747620493 0 0.0034405243102449815 -0.043967078000652415 0 0.00068305608787399966 -0.042164214437132211 0 0.00031383371327329981 -0.040473141518167097 0 0.0006975902779976569 -0.039568201359846879 0 0.00033054813100014553 -0.036847326046515361 0 0.00031383371327329981 -0.040473141518167097 0 0.0006975902779976569 -0.039568201359846879 0 0.00033054813100014553 -0.036847326046515361 0 0.00031383371327329981 -0.040473141518167097 0 -2.2840970851141756e-06 -0.039291570523477877 0 0.00031383371327329981 -0.040473141518167097 0 -2.2840970851141756e-06 -0.039291570523477877 0 -0.00010609894241978872 -0.042395874448299398 0 -0.00015493223509008007 -0.043909642241933645 0 -2.2840970851141756e-06 -0.039291570523477877 0 -0.00010609894241978872 -0.042395874448299398 0 -0.00027897614435164566 -0.044827533208358181 0 -0.000106098