<?xml version="1.0"?>
<VTKFile type="UnstructuredGrid" version="0.1" byte_order="LittleEndian">
<UnstructuredGrid>
<Piece NumberOfPoints="30881" NumberOfCells="10862">
<Points>
<DataArray type="Float64" NumberOfComponents="3" format="ascii">
-0.49999999999999828 -0.48677703703187492 0 -0.5 -0.5 0 -0.48129281494584059 -0.49338851851593718 0 -0.5 -0.5 0 -0.48129281494584059 -0.49338851851593718 0 -0.46258562989168328 -0.5 0 -0.49999999999999828 -0.48677703703187492 0 -0.48129281494584059 -0.49338851851593718 0 -0.49999999999999828 -0.48677703703187492 0 -0.4824545428279598 -0.47451624516148783 0 -0.48129281494584059 -0.49338851851593718 0 -0.49999999999999828 -0.48677703703187492 0 -0.4824545428279598 -0.47451624516148783 0 -0.5 -0.46599539173150673 0 -0.4824545428279598 -0.47451624516148783 0 -0.46853075243710779 -0.48354990242643758 0 -0.46411508256092049 -0.46598235294430129 0 -0.4824545428279598 -0.47451624516148783 0 -0.48129281494584059 -0.49338851851593718 0 -0.46853075243710779 -0.48354990242643758 0 -0.48129281494584059 -0.49338851851593718 0 -0.46258562989168328 -0.5 0 -0.48129281494584059 -0.49338851851593718 0 -0.46258562989168328 -0.5 0 -0.46853075243710779 -0.48354990242643758 0 -0.46258562989168328 -0.5 0 -0.46853075243710779 -0.48354990242643758 0 -0.45147378687733691 -0.48362213557840178 0 -0.46853075243710779 -0.48354990242643758 0 -0.45147378687733691 -0.48362213557840178 0 -0.46411508256092049 -0.46598235294430129 0 -0.4457251648104853 -0.47020164095208389 0 -0.45147378687733691 -0.48362213557840178 0 -0.46411508256092049 -0.46598235294430129 0 -0.4457251648104853 -0.47020164095208389 0 -0.45147378687733691 -0.48362213557840178 0 -0.43513446131126993 -0.48199891714758791 0 -0.45147378687733691 -0.48362213557840178 0 -0.43275163025255442 -0.5 0 -0.43513446131126993 -0.48199891714758791 0 -0.46258562989168328 -0.5 0 -0.45147378687733691 -0.48362213557840178 0 -0.43275163025255442 -0.5 0 -0.4467190029717853 -0.45478934699519452 0 -0.4422915115958943 -0.43555510214664611 0 -0.43246707723660932 -0.44794326854796312 0 -0.4457251648104853 -0.47020164095208389 0 -0.4467190029717853 -0.45478934699519452 0 -0.46411508256092049 -0.46598235294430129 0 -0.4457251648104853 -0.47020164095208389 0 -0.4467190029717853 -0.45478934699519452 0 -0.43016578207734568 -0.46313500011938619 0 -0.4467190029717853 -0.45478934699519452 0 -0.46411508256092049 -0.46598235294430129 0 -0.47114575579794699 -0.4403844242888923 0 -0.4467190029717853 -0.45478934699519452 0 -0.47114575579794699 -0.4403844242888923 0 -0.4422915115958943 -0.43555510214664611 0 -0.47114575579794699 -0.4403844242888923 0 -0.4422915115958943 -0.43555510214664611 0 -0.46411508256092049 -0.46598235294430129 0 -0.47114575579794699 -0.4403844242888923 0 -0.48354307623736548 -0.45841843211146538 0 -0.4824545428279598 -0.47451624516148783 0 -0.46411508256092049 -0.46598235294430129 0 -0.48354307623736548 -0.45841843211146538 0 -0.4824545428279598 -0.47451624516148783 0 -0.48354307623736548 -0.45841843211146538 0 -0.5 -0.46599539173150673 0 -0.48354307623736548 -0.45841843211146538 0 -0.5 -0.46599539173150673 0 -0.49999999999999972 -0.44521374643113848 0 -0.47114575579794699 -0.4403844242888923 0 -0.49999999999999972 -0.44521374643113848 0 -0.47114575579794699 -0.4403844242888923 0 -0.49999999999999972 -0.44521374643113848 0 -0.48704432221743971 -0.42935617662229603 0 -0.47114575579794699 -0.4403844242888923 0 -0.48354307623736548 -0.45841843211146538 0 -0.49999999999999972 -0.44521374643113848 0 -0.49999999999999972 -0.44521374643113848 0 -0.48704432221743971 -0.42935617662229603 0 -0.5 -0.41591957503128979 0 -0.48704432221743971 -0.42935617662229603 0 -0.5 -0.41591957503128979 0 -0.47703153307181151 -0.41590696073786332 0 -0.5 -0.41591957503128979 0 -0.47703153307181151 -0.41590696073786332 0 -0.48817838912021821 -0.4022119694541284 0 -0.47114575579794699 -0.4403844242888923 0 -0.48704432221743971 -0.42935617662229603 0 -0.47703153307181151 -0.41590696073786332 0 -0.5 -0.38662540363144121 0 -0.47568202340906118 -0.39039593841591919 0 -0.4947615751445838 -0.37332156409002909 0 -0.47568202340906118 -0.39039593841591919 0 -0.4947615751445838 -0.37332156409002909 0 -0.5 -0.38662540363144121 0 -0.48817838912021821 -0.4022119694541284 0 -0.47568202340906118 -0.39039593841591919 0 -0.5 -0.41591957503128979 0 -0.5 -0.38662540363144121 0 -0.48817838912021821 -0.4022119694541284 0 -0.47703153307181151 -0.41590696073786332 0 -0.48817838912021821 -0.4022119694541284 0 -0.47568202340906118 -0.39039593841591919 0 -0.47703153307181151 -0.41590696073786332 0 -0.47568202340906118 -0.39039593841591919 0 -0.45660247167353862 -0.40747031274180939 0 -0.47568202340906118 -0.39039593841591919 0 -0.48030931097003587 -0.37191064435083931 0 -0.46669490250066459 -0.37481721741951951 0 -0.47568202340906118 -0.39039593841591919 0 -0.4947615751445838 -0.37332156409002909 0 -0.48030931097003587 -0.37191064435083931 0 -0.45332061783919553 -0.38729481725706361 0 -0.46669490250066459 -0.37481721741951951 0 -0.45095991715087752 -0.36968037302039969 0 -0.47568202340906118 -0.39039593841591919 0 -0.45332061783919553 -0.38729481725706361 0 -0.46669490250066459 -0.37481721741951951 0 -0.47568202340906118 -0.39039593841591919 0 -0.45660247167353862 -0.40747031274180939 0 -0.47568202340906118 -0.39039593841591919 0 -0.45332061783919553 -0.38729481725706361 0 -0.45660247167353862 -0.40747031274180939 0 -0.44332653075004852 -0.401690115615219 0 -0.44646247228389868 -0.41654464256061052 0 -0.42870657106664078 -0.39987574649354879 0 -0.45332061783919553 -0.38729481725706361 0 -0.44332653075004852 -0.401690115615219 0 -0.43479631603355468 -0.39077639303142497 0 -0.45332061783919553 -0.38729481725706361 0 -0.44332653075004852 -0.401690115615219 0 -0.45660247167353862 -0.40747031274180939 0 -0.45332061783919553 -0.38729481725706361 0 -0.43421362475025049 -0.37527491429266319 0 -0.43479631603355468 -0.39077639303142497 0 -0.45332061783919553 -0.38729481725706361 0 -0.43421362475025049 -0.37527491429266319 0 -0.45095991715087752 -0.36968037302039969 0 -0.47114575579794699 -0.4403844242888923 0 -0.45663439814062529 -0.42533932462455271 0 -0.4422915115958943 -0.43555510214664611 0 -0.47114575579794699 -0.4403844242888923 0 -0.47703153307181151 -0.41590696073786332 0 -0.45663439814062529 -0.42533932462455271 0 -0.45663439814062529 -0.42533932462455271 0 -0.45660247167353862 -0.40747031274180939 0 -0.44646247228389868 -0.41654464256061052 0 -0.47703153307181151 -0.41590696073786332 0 -0.45663439814062529 -0.42533932462455271 0 -0.45660247167353862 -0.40747031274180939 0 -0.44332653075004852 -0.401690115615219 0 -0.45660247167353862 -0.40747031274180939 0 -0.44646247228389868 -0.41654464256061052 0 -0.45660247167353862 -0.40747031274180939 0 -0.44646247228389868 -0.41654464256061052 0 -0.44646247228389868 -0.41654464256061052 0 -0.4375229199380159 -0.42454468706769971 0 -0.45663439814062529 -0.42533932462455271 0 -0.4375229199380159 -0.42454468706769971 0 -0.4422915115958943 -0.43555510214664611 0 -0.45663439814062529 -0.42533932462455271 0 -0.44646247228389868 -0.41654464256061052 0 -0.4375229199380159 -0.42454468706769971 0 -0.4375229199380159 -0.42454468706769971 0 -0.4422915115958943 -0.43555510214664611 0 -0.43077617074680319 -0.43406335077952207 0 -0.43077617074680319 -0.43406335077952207 0 -0.42550232634077589 -0.42345940056268039 0 -0.41950844772475421 -0.43888456563633732 0 -0.4375229199380159 -0.42454468706769971 0 -0.43077617074680319 -0.43406335077952207 0 -0.42550232634077589 -0.42345940056268039 0 -0.44646247228389868 -0.41654464256061052 0 -0.41657232816672918 -0.41306671883907142 0 -0.42870657106664078 -0.39987574649354879 0 -0.44646247228389868 -0.41654464256061052 0 -0.4375229199380159 -0.42454468706769971 0 -0.42550232634077589 -0.42345940056268039 0 -0.44646247228389868 -0.41654464256061052 0 -0.42550232634077589 -0.42345940056268039 0 -0.41657232816672918 -0.41306671883907142 0 -0.44646247228389868 -0.41654464256061052 0 -0.41657232816672918 -0.41306671883907142 0 -0.42550232634077589 -0.42345940056268039 0 -0.41657232816672918 -0.41306671883907142 0 -0.41333489101611293 -0.42699700567040988 0 -0.41657232816672918 -0.41306671883907142 0 -0.41333489101611293 -0.42699700567040988 0 -0.39893236021425188 -0.42931692235905211 0 -0.41333489101611293 -0.42699700567040988 0 -0.39893236021425188 -0.42931692235905211 0 -0.41950844772475421 -0.43888456563633732 0 -0.42550232634077589 -0.42345940056268039 0 -0.41333489101611293 -0.42699700567040988 0 -0.41950844772475421 -0.43888456563633732 0 -0.43421362475025049 -0.37527491429266319 0 -0.42478231784314502 -0.38643128255249681 0 -0.41656514696884139 -0.37636588688318029 0 -0.43421362475025049 -0.37527491429266319 0 -0.42478231784314502 -0.38643128255249681 0 -0.43479631603355468 -0.39077639303142497 0 -0.42478231784314502 -0.38643128255249681 0 -0.43479631603355468 -0.39077639303142497 0 -0.42870657106664078 -0.39987574649354879 0 -0.44332653075004852 -0.401690115615219 0 -0.43479631603355468 -0.39077639303142497 0 -0.42870657106664078 -0.39987574649354879 0 -0.41657232816672918 -0.41306671883907142 0 -0.40962993039643741 -0.3898634720616666 0 -0.3946356370269814 -0.39577424904278191 0 -0.42478231784314502 -0.38643128255249681 0 -0.42870657106664078 -0.39987574649354879 0 -0.40962993039643741 -0.3898634720616666 0 -0.41657232816672918 -0.41306671883907142 0 -0.42870657106664078 -0.39987574649354879 0 -0.40962993039643741 -0.3898634720616666 0 -0.42478231784314502 -0.38643128255249681 0 -0.40962993039643741 -0.3898634720616666 0 -0.41656514696884139 -0.37636588688318029 0 -0.40962993039643741 -0.3898634720616666 0 -0.41656514696884139 -0.37636588688318029 0 -0.40465459864295228 -0.37650109000307358 0 -0.39431275766669582 -0.38061373190328529 0 -0.40465459864295228 -0.37650109000307358 0 -0.3968495855878465 -0.36923685638487008 0 -0.40962993039643741 -0.3898634720616666 0 -0.39431275766669582 -0.38061373190328529 0 -0.40465459864295228 -0.376501090003
[...]
<PointData Scalars="" Vectors="displacement," Tensors="">
<DataArray type="Float64" Name="displacement" NumberOfComponents="3" format="ascii">
0.014999910077389968 -4.1417621034896602e-08 0 0.014999703024529337 8.3672130969244242e-08 0 0.014550972790124671 -1.4061536281705159e-08 0 0.014999703024529337 8.3672130969244242e-08 0 0.014550972790124671 -1.4061536281705159e-08 0 0.013878251893532857 -1.2566878917661329e-07 0 0.01499867294079309 2.1665282615407789e-07 0 0.014447697405529774 2.0077867462174982e-05 0 0.014999145760087646 2.622310216985182e-07 0 0.014630364768367248 0.00010774070386799492 0 0.01440994046903721 0.000127483145099997 0 0.014999145760087646 2.622310216985182e-07 0 0.014630364768367248 0.00010774070386799492 0 0.014999778192095687 1.9139896408146172e-08 0 0.014630364768367248 0.00010774070386799492 0 0.01424914419640181 9.0810500897555129e-05 0 0.014371723407580961 0.00012406867948200131 0 0.014630364768367248 0.00010774070386799492 0 0.01440994046903721 0.000127483145099997 0 0.01424914419640181 9.0810500897555129e-05 0 0.014447697405529774 2.0077867462174982e-05 0 0.013878935635387 -1.4290942511071065e-07 0 0.01440994046903721 0.000127483145099997 0 0.013877370440753968 4.7924480535414618e-07 0 0.01424914419640181 9.0810500897555129e-05 0 0.013877370440753968 4.7924480535414618e-07 0 0.01424914419640181 9.0810500897555129e-05 0 0.013881129088809882 8.0710994333045336e-05 0 0.01424914419640181 9.0810500897555129e-05 0 0.013881129088809882 8.0710994333045336e-05 0 0.014371723407580961 0.00012406867948200131 0 0.01402493501072675 6.8395244630402413e-05 0 0.013881129088809882 8.0710994333045336e-05 0 0.014371723407580961 0.00012406867948200131 0 0.01402493501072675 6.8395244630402413e-05 0 0.013881129088809882 8.0710994333045336e-05 0 0.013599207535584024 2.7817188476111889e-05 0 0.013881129088809882 8.0710994333045336e-05 0 0.012983267937272886 1.0068956635750164e-07 0 0.013599207535584024 2.7817188476111889e-05 0 0.013877370440753968 4.7924480535414618e-07 0 0.013881129088809882 8.0710994333045336e-05 0 0.012983267937272886 1.0068956635750164e-07 0 0.014269415163208342 6.009324093172714e-05 0 0.014476123511483112 -9.8491033934720796e-06 0 0.014254497145545072 -5.7030143968640782e-05 0 0.01402493501072675 6.8395244630402413e-05 0 0.014269415163208342 6.009324093172714e-05 0 0.014371723407580961 0.00012406867948200131 0 0.01402493501072675 6.8395244630402413e-05 0 0.014269415163208342 6.009324093172714e-05 0 0.013998476418350033 -4.3993595818479017e-05 0 0.014269415163208342 6.009324093172714e-05 0 0.014371723407580961 0.00012406867948200131 0 0.014562226835759435 0.0001459115683521311 0 0.014269415163208342 6.009324093172714e-05 0 0.014562226835759435 0.0001459115683521311 0 0.014476123511483112 -9.8491033934720796e-06 0 0.014824301567989563 5.5639793784895704e-05 0 0.014752875591897719 1.5686658446152577e-05 0 0.014371723407580961 0.00012406867948200131 0 0.014562226835759435 0.0001459115683521311 0 0.014719589892785935 9.0655074248116273e-05 0 0.014630364768367248 0.00010774070386799492 0 0.014371723407580961 0.00012406867948200131 0 0.014719589892785935 9.0655074248116273e-05 0 0.014630364768367248 0.00010774070386799492 0 0.014719589892785935 9.0655074248116273e-05 0 0.014999778192095687 1.9139896408146172e-08 0 0.014719589892785935 9.0655074248116273e-05 0 0.014999778192095687 1.9139896408146172e-08 0 0.014999366189636494 1.2516362434220291e-07 0 0.014824301567989563 5.5639793784895704e-05 0 0.014999675078717696 1.0265558207772051e-07 0 0.014829707254598878 3.5844546440664172e-05 0 0.014999892709136889 1.5294130182456991e-08 0 0.014928925135333579 1.9443927777823436e-05 0 0.014562226835759435 0.0001459115683521311 0 0.014719589892785935 9.0655074248116273e-05 0 0.014999366189636494 1.2516362434220291e-07 0 0.014999892709136889 1.5294130182456991e-08 0 0.014928925135333579 1.9443927777823436e-05 0 0.014999863458072003 3.7721215497102464e-08 0 0.014928925135333579 1.9443927777823436e-05 0 0.014999863458072003 3.7721215497102464e-08 0 0.01488559351063537 3.3075504755370128e-05 0 0.014999863458072003 3.7721215497102464e-08 0 0.01488559351063537 3.3075504755370128e-05 0 0.014963522835417629 2.2256812748734231e-05 0 0.014829707254598878 3.5844546440664172e-05 0 0.014928925135333579 1.9443927777823436e-05 0 0.01488559351063537 3.3075504755370128e-05 0 0.01499987084702563 2.9797906324824175e-08 0 0.014964944883412061 2.5410388456509552e-05 0 0.014941776326072307 1.9644861453522398e-05 0 0.014667733772734426 -7.9213303027962032e-05 0 0.01472923160698587 -3.9985176872503552e-05 0 0.01499987084702563 2.9797906324824175e-08 0 0.014963522835417629 2.2256812748734231e-05 0 0.014964944883412061 2.5410388456509552e-05 0 0.014999863458072003 3.7721215497102464e-08 0 0.01499987084702563 2.9797906324824175e-08 0 0.014963522835417629 2.2256812748734231e-05 0 0.01488559351063537 3.3075504755370128e-05 0 0.014963522835417629 2.2256812748734231e-05 0 0.014964944883412061 2.5410388456509552e-05 0 0.01488559351063537 3.3075504755370128e-05 0 0.014964944883412061 2.5410388456509552e-05 0 0.014849836970677925 -6.2238984792213627e-07 0 0.014443871269548811 -6.5178576555450333e-05 0 0.014779578353080424 -4.7262340940254377e-05 0 0.014631272721009565 -0.00016919239577802757 0 0.014443871269548811 -6.5178576555450333e-05 0 0.014941776326072307 1.9644861453522398e-05 0 0.014779578353080424 -4.7262340940254377e-05 0 0.0143921367817795 -0.00033745270787876127 0 0.014631272721009565 -0.00016919239577802757 0 0.01456909170013931 -0.0003217708745282168 0 0.014443871269548811 -6.5178576555450333e-05 0 0.0143921367817795 -0.00033745270787876127 0 0.014631272721009565 -0.00016919239577802757 0 0.014667733772734426 -7.9213303027962032e-05 0 0.014555884924192837 -0.00017215497357269557 0 0.014443871269548811 -6.5178576555450333e-05 0 0.0143921367817795 -0.00033745270787876127 0 0.0141557546621235 -0.00031172790701710512 0 0.014204135926244537 -0.0004590449375604527 0 0.014079496062939066 -0.00043807518398234451 0 0.014206769263473784 -0.00058659647423539704 0 0.0143921367817795 -0.00033745270787876127 0 0.014204135926244537 -0.0004590449375604527 0 0.014269230624167444 -0.00053478426669713102 0 0.0143921367817795 -0.00033745270787876127 0 0.014204135926244537 -0.0004590449375604527 0 0.0141557546621235 -0.00031172790701710512 0 0.0143921367817795 -0.00033745270787876127 0 0.014379894902909965 -0.00052775838773797435 0 0.014269230624167444 -0.00053478426669713102 0 0.0143921367817795 -0.00033745270787876127 0 0.014379894902909965 -0.00052775838773797435 0 0.01456909170013931 -0.0003217708745282168 0 0.014829707254598878 3.5844546440664172e-05 0 0.01471521786847242 2.3137429000973867e-05 0 0.014476123511483112 -9.8491033934720796e-06 0 0.014829707254598878 3.5844546440664172e-05 0 0.01488559351063537 3.3075504755370128e-05 0 0.01471521786847242 2.3137429000973867e-05 0 0.01471521786847242 2.3137429000973867e-05 0 0.014849836970677925 -6.2238984792213627e-07 0 0.014729375259437336 -3.6316536252688057e-05 0 0.01488559351063537 3.3075504755370128e-05 0 0.01471521786847242 2.3137429000973867e-05 0 0.014849836970677925 -6.2238984792213627e-07 0 0.014204135926244537 -0.0004590449375604527 0 0.0141557546621235 -0.00031172790701710512 0 0.014079496062939066 -0.00043807518398234451 0 0.014555884924192837 -0.00017215497357269557 0 0.014497991327356633 -0.00023388434645623305 0 0.014497991327356633 -0.00023388434645623305 0 0.014528047122370333 -0.00019488696574344427 0 0.01471521786847242 2.3137429000973867e-05 0 0.014528996982018844 -7.0185628554969242e-05 0 0.014476123511483112 -9.8491033934720796e-06 0 0.01471521786847242 2.3137429000973867e-05 0 0.014729375259437336 -3.6316536252688057e-05 0 0.014528996982018844 -7.0185628554969242e-05 0 0.014528996982018844 -7.0185628554969242e-05 0 0.014476123511483112 -9.8491033934720796e-06 0 0.014405507888628474 -9.3631759759539717e-05 0 0.014405507888628474 -9.3631759759539717e-05 0 0.014457678400780284 -0.00013532695635889714 0 0.014287648373543148 -0.00017255991174000099 0 0.014528996982018844 -7.0185628554969242e-05 0 0.014405507888628474 -9.3631759759539717e-05 0 0.014457678400780284 -0.00013532695635889714 0 0.014079496062939066 -0.00043807518398234451 0 0.01416910668898151 -0.00065344224919493894 0 0.014206769263473784 -0.00058659647423539704 0 0.014569550140808674 -2.3424931336588265e-05 0 0.014528996982018844 -7.0185628554969242e-05 0 0.014457678400780284 -0.00013532695635889714 0 0.014569550140808674 -2.3424931336588265e-05 0 0.014457678400780284 -0.00013532695635889714 0 0.014466311213055303 -0.0001973739110086937 0 0.014497991327356633 -0.00023388434645623305 0 0.014381814962971447 -0.00033698244778781935 0 0.014457678400780284 -0.00013532695635889714 0 0.014466311213055303 -0.0001973739110086937 0 0.014364922454908455 -0.00022367491890958442 0 0.014466311213055303 -0.0001973739110086937 0 0.014364922454908455 -0.00022367491890958442 0 0.014288770252685556 -0.00033364782208476009 0 0.014364922454908455 -0.00022367491890958442 0 0.014288770252685556 -0.00033364782208476009 0 0.014287648373543148 -0.00017255991174000099 0 0.014457678400780284 -0.00013532695635889714 0 0.014364922454908455 -0.00022367491890958442 0 0.014287648373543148 -0.00017255991174000099 0 0.014379894902909965 -0.00052775838773797435 0 0.014242393267063808 -0.0006157146089020624 0 0.014220388707481664 -0.0006885932967565199 0 0.014379894902909965 -0.00052775838773797435 0 0.014242393267063808 -0.0006157146089020624 0 0.014269230624167444 -0.00053478426669713102 0 0.014242393267063808 -0.0006157146089020624 0 0.014269230624167444 -0.00053478426669713102 0 0.014206769263473784 -0.00058659647423539704 0 0.014204135926244537 -0.0004590449375604527 0 0.014269230624167444 -0.00053478426669713102 0 0.014206769263473784 -0.00058659647423539704 0 0.01416910668898151 -0.00065344224919493894 0 0.014179132945799753 -0.00066822258633079598 0 0.014170341042873371 -0.00060111191106261173 0 0.014242393267063808 -0.0006157146089020624 0 0.014206769263473784 -0.00058659647423539704 0 0.014179132945799753 -0.00066822258633079598 0 0.01416910668898151 -0.00065344224919493894 0 0.014206769263473784 -0.00058659647423539704 0 0.014179132945799753 -0.00066822258633079598 0 0.014242393267063808 -0.0006157146089020624 0 0.014179132945799753 -0.00066822258633079598 0 0.014220388707481664 -0.0006885932967565199 0 0.014179132945799753 -0.00066822258633079598 0 0.014220388707481664 -0.0006885932967565199 0 0.014114060674288291 -0.00069054539302384154 0 0.014064852510838815 -0.00060705194403574622 0 0.014114060674288291 -0.00069054539302384154 0 0.013975461638818463 -0.00064478159410445094 0 0.014179132945799753 -0.00066822258633079598 0 0.014064852510838815 -0.00060705194403574622 0 0.014114060674288291 -0.00069054539302384154 0 0.014179132945799753 -0.00066822258633079598 0 0.014064852510838815 -0.00060705194403574622 0 0.014170341042873371 -0.00060111191106261173 0 0.014170341042873371 -0.00060111191106261173 0 0.014240135683429066 -0.00053932703145383501 0 0.014141579703319283 -0.0004136731178350729 0 0.014170341042873371 -0.00060111191106261173 0 0.013968921664165948 -0.00039424862436148741 0 0.014141579703319283 -0.0004136731178350729 0 0.014064852510838815 -0.00060705194403574622 0 0.014170341042873371 -0.00060111191106261173 0 0.013968921664165948 -0.00039424862436148741 0 0.014064852510838815 -0.00060705194403574622 0 0.013968921664165948 -0.00039424862436148741 0 0.013882979885523833 -0.00050405839548637015 0 0.014466311213055303 -0.0001973739110086937 0 0.014288770252685556 -0.00033364782208476009 0 0.014325352874963794 -0.00040703360681056778 0 0.01416910668898151 -0.00065344224919493894 0 0.014170341042873371 -0.00060111191106261173 0 0.014240135683429066 -0.00053932703145383501 0 0.014381814962971447 -0.00033698244778781935 0 0.014323249078382613 -0.00038099145409367359 0 0.014325352874963794 -0.00040703360681056778 0 0.014256205691993472 -0.00041945556515542208 0 0.014246757403383976 -0.0003855444174608288 0 0.014256205691993472 -0.00041945556515542208 0 0.014123633482722222 -0.00045065842874819395 0 0.014205152196986029 -0.00045133591124342851 0 0.014288770252685556 -0.00033364782208476009 0 0.014256205691993472 -0.00041945556515542208 0 0.014123633482722222 -0.00045065842874819395 0 0.014288770252685556 -0.00033364782208476009 0 0.014325352874963794 -0.00040703360681056778 0 0.014256205691993472 -0.00041945556515542208 0 0.014123633482722222 -0.00045065842874819395 0 0.014079679831751041 -0.00030410861377417789 0 0.013852660254433729 -0.00046129703637042279 0 0.014288770252685556 -0.00033364782208476009 0 0.014123633482722222 -0.00045065842874819395 0 0.014079679831751041 -0.00030410861377417789 0 0.014079679831751041 -0.00030410861377417789 0 0.013852660254433729 -0.00046129703637042279 0 0.013717812931538075 -0.00034035888131195443 0 0.014123633482722222 -0.00045065842874819395 0 0.013852660254433729 -0.00046129703637042279 0 0.013920960060930692 -0.0005572761286897251 0 0.013852660254433729 -0.00046129703637042279 0 0.013625490756515262 -0.00057632342937245491 0 0.013920960060930692 -0.0005572761286897251 0 0.013625490756515262 -0.00057632342937245491 0 0.013308045941902368 -0.00051317288748684953 0 0.013573522636750202 -0.0004601417259038177 0 0.013852660254433729 -0.00046129703637042279 0 0.013625490756515262 -0.00057632342937245491 0 0.013573522636750202 -0.0004601417259038177 0 0.011740649686686741 4.4417939826844236e-05 0 0.011234672368206572 -0.00023576519180629329 0 0.01177909421469768 -5.0295922041187203e-06 0 0.012087925250050452 -4.1959577472893024e-07 0 0.011192885279052321 9.576743146903678e-08 0 0.01177909421469768 -5.0295922041187203e-06 0 0.01123790272195848 -2.0615786023395052e-05 0 0.011192885279052321 9.576743146903678e-08 0 0.013625490756515262 -0.00057632342937245491 0 0.013308045941902368 -0.00051317288748684953 0 0.013405678667530207 -0.00069695595865765529 0 0.011740649686686741 4.4417939826844236e-05 0 0.011914032568580328 0.00019623126043738203 0 0.013308045941902368 -0.00051317288748684953 0 0.013573522636750202 -0.0004601417259038177 0 0.013386314686374799 -0.00034065478077883055 0 0.01177909421469768 -5.0295922041187203e-06 0 0.012087925250050452 -4.1959577472893024e-07 0 0.012836846580875227 -7.4052611210300337e-05 0 0.013308045941902368 -0.00051317288748684953 0 0.013386314686374799 -0.00034065478077883055 0 0.012836846580875227 -7.4052611210300337e-05 0 0.013852660254433729 -0.00046129703637042279 0 0.013573522636750202 -0.0004601417259038177 0 0.013717812931538075 -0.00034035888131195443 0 0.013573522636750202 -0.0004601417259038177 0 0.013386314686374799 -0.00034065478077883055 0 0.013717812931538075 -0.00034035888131195443 0 0.013717812931538075 -0.00034035888131195443 0 0.013603801752415328 -0.00011444520419688482 0 0.01392373128822871 -0.00018823459762822074 0 0.013386314686374799 -0.00034065478077883055 0 0.013603801752415328 -0.00011444520419688482 0 0.012836846580875227 -7.4052611210300337e-05 0 0.013386314686374799 -0.00034065478077883055 0 0.013717812931538075 -0.00034035888131195443 0 0.013603801752415328 -0.00011444520419688482 0 0.013603801752415328 -0.00011444520419688482 0 0.012836846580875227 -7.4052611210300337e-05 0 0.013234516200421402 -2.8483957046763252e-05 0 0.012087925250050452 -4.1959577472893024e-07 0 0.012836846580875227 -7.4052611210300337e-05 0 0.012983267937272886 1.0068956635750164e-07 0 0.012836846580875227 -7.4052611210300337e-05 0 0.013234516200421402 -2.8483957046763252e-05 0 0.012983267937272886 1.0068956635750164e-07 0 0.013234516200421402 -2.8483957046763252e-05 0 0.012983267937272886 1.0068956635750164e-07 0 0.013599207535584024 2.7817188476111889e-05 0 0.01402493501072675 6.8395244630402413e-05 0 0.013599207535584024 2.7817188476111889e-05 0 0.013998476418350033 -4.3993595818479017e-05 0 0.013603801752415328 -0.00011444520419688482 0 0.013599207535584024 2.7817188476111889e-05 0 0.013998476418350033 -4.3993595818479017e-05 0 0.013603801752415328 -0.00011444520419688482 0 0.013234516200421402 -2.8483957046763252e-05 0 0.013599207535584024 2.7817188476111889e-05 0 0.014269415163208342 6.009324093172714e-05 0 0.013998476418350033 -4.3993595818479017e-05 0 0.014254497145545072 -5.7030143968640782e-05 0 0.013998476418350033 -4.3993595818479017e-05 0 0.01412347384796017 -0.00015094033817165552 0 0.01392373128822871 -0.00018823459762822074 0 0.013998476418350033 -4.3993595818479017e-05 0 0.014254497145545072 -5.7030143968640782e-05 0 0.01412347384796017 -0.00015094033817165552 0 0.014476123511483112 -9.8491033934720796e-06 0 0.014405507888628474 -9.3631759759539717e-05 0 0.014254497145545072 -5.7030143968640782e-05 0 0.014405507888628474 -9.3631759759539717e-05 0 0.014254497145545072 -5.7030143968640782e-05 0 0.014287648373543148 -0.00017255991174000099 0 0.014254497145545072 -5.7030143968640782e-05 0 0.01412347384796017 -0.00015094033817165552 0 0.014287648373543148 -0.00017255991174000099 0 0.014288770252685556 -0.00033364782208476009 0 0.014079679831751041 -0.00030410861377417789 0 0.014287648373543148 -0.00017255991174000099 0 0.014079679831751041 -0.00030410861377417789 0 0.01412347384796017 -0.00015094033817165552 0 0.014287648373543148 -0.00017255991174000099 0 0.014079679831751041 -0.00030410861377417789 0 0.01412347384796017 -0.00015094033817165552 0 0.01392373128822871 -0.00018823459762822074 0 0.014079679831751041 -0.00030410861377417789 0 0.013717812931538075 -0.00034035888131195443 0 0.01392373128822871 -0.00018823459762822074 0 0.013603801752415328 -0.00011444520419688482 0 0.013998476418350033 -4.3993595818479017e-05 0 0.01392373128822871 -0.00018823459762822074 0 0.014952588666766107 1.367643541329958e-05 0 0.014955410205577932 2.9167102622222768e-06 0 0.014951597860575197 1.0212196619316211e-05 0 0.014952588666766107 1.367643541329958e-05 0 0.014963391765571927 -4.1655900066656679e-06 0 0.014955410205577932 2.9167102622222768e-06 0 0.014952588666766107 1.367643541329958e-05 0 0.014951597860575197 1.0212196619316211e-05 0 0.014941441639402525 2.4317965895077382e-05 0 0.014952588666766107 1.367643541329958e-05 0 0.014963391765571927 -4.1655900066656679e-06 0 0.014975331523426496 -4.7248952684972935e-06 0 0.014963391765571927 -4.1655900066656679e-06 0 0.014975331523426496 -4.7248952684972935e-06 0 0.014977131883113507 -2.5184264417734427e-05 0 0.014975331523426496 -4.7248952684972935e-06 0 0.014969499282919355 -9.3011636339038948e-06 0 0.014942928693025711 1.9319559419186558e-05 0 0.014952588666766107 1.367643541329958e-05 0 0.014975331523426496 -4.7248952684972935e-06 0 0.014942928693025711 1.9319559419186558e-05 0 0.014952588666766107 1.367643541329958e-05 0 0.014942928693025711 1.9319559419186558e-05 0 0.014941441639402525 2.4317965895077382e-05 0 0.014969499282919355 -9.3011636339038948e-06 0 0.014999999594703481 6.011162059509157e-09 0 0.014999851343323425 -8.8680614717551694e-08 0 0.014969499282919355 -9.3011636339038948e-06 0 0.014999999594703481 6.011162059509157e-09 0 0.014991937850253064 -1.1175253247275114e-05 0 0.014975331523426496 -4.7248952684972935e-06 0 0.014969499282919355 -9.3011636339038948e-06 0 0.014991937850253064 -1.1175253247275114e-05 0 0.014975331523426496 -4.7248952684972935e-06 0 0.014991937850253064 -1.1175253247275114e-05 0 0.014989414200711594 -2.5941115229023434e-05 0 0.014991937850253064 -1.1175253247275114e-05 0 0.014999987185710677 -1.6665888792943351e-08 0 0.014989414200711594 -2.5941115229023434e-05 0 0.014999999594703481 6.011162059509157e-09 0 0.014991937850253064 -1.1175253247275114e-05 0 0.014999987185710677 -1.6665888792943351e-08 0 0.014999987185710677 -1.6665888792943351e-08 0 0.014989414200711594 -2.5941115229023434e-05 0 0.01498782001423978 -3.606154078333635e-05 0 0.014989414200711594 -2.5941115229023434e-05 0 0.014977131883113507 -2.5184264417734427e-05 0 0.014971431003374542 -7.4485298216061697e-05 0 0.014975331523426496 -4.7248952684972935e-06 0 0.014989414200711594 -2.5941115229023434e-05 0 0.0149771318831