<?xml version="1.0"?>
<VTKFile type="UnstructuredGrid" version="0.1" byte_order="LittleEndian">
<UnstructuredGrid>
<Piece NumberOfPoints="30881" NumberOfCells="10862">
<Points>
<DataArray type="Float64" NumberOfComponents="3" format="ascii">
-0.49999999999999828 -0.48677703703187492 0 -0.5 -0.5 0 -0.48129281494584059 -0.49338851851593718 0 -0.5 -0.5 0 -0.48129281494584059 -0.49338851851593718 0 -0.46258562989168328 -0.5 0 -0.49999999999999828 -0.48677703703187492 0 -0.48129281494584059 -0.49338851851593718 0 -0.49999999999999828 -0.48677703703187492 0 -0.4824545428279598 -0.47451624516148783 0 -0.48129281494584059 -0.49338851851593718 0 -0.49999999999999828 -0.48677703703187492 0 -0.4824545428279598 -0.47451624516148783 0 -0.5 -0.46599539173150673 0 -0.4824545428279598 -0.47451624516148783 0 -0.46853075243710779 -0.48354990242643758 0 -0.46411508256092049 -0.46598235294430129 0 -0.4824545428279598 -0.47451624516148783 0 -0.48129281494584059 -0.49338851851593718 0 -0.46853075243710779 -0.48354990242643758 0 -0.48129281494584059 -0.49338851851593718 0 -0.46258562989168328 -0.5 0 -0.48129281494584059 -0.49338851851593718 0 -0.46258562989168328 -0.5 0 -0.46853075243710779 -0.48354990242643758 0 -0.46258562989168328 -0.5 0 -0.46853075243710779 -0.48354990242643758 0 -0.45147378687733691 -0.48362213557840178 0 -0.46853075243710779 -0.48354990242643758 0 -0.45147378687733691 -0.48362213557840178 0 -0.46411508256092049 -0.46598235294430129 0 -0.4457251648104853 -0.47020164095208389 0 -0.45147378687733691 -0.48362213557840178 0 -0.46411508256092049 -0.46598235294430129 0 -0.4457251648104853 -0.47020164095208389 0 -0.45147378687733691 -0.48362213557840178 0 -0.43513446131126993 -0.48199891714758791 0 -0.45147378687733691 -0.48362213557840178 0 -0.43275163025255442 -0.5 0 -0.43513446131126993 -0.48199891714758791 0 -0.46258562989168328 -0.5 0 -0.45147378687733691 -0.48362213557840178 0 -0.43275163025255442 -0.5 0 -0.4467190029717853 -0.45478934699519452 0 -0.4422915115958943 -0.43555510214664611 0 -0.43246707723660932 -0.44794326854796312 0 -0.4457251648104853 -0.47020164095208389 0 -0.4467190029717853 -0.45478934699519452 0 -0.46411508256092049 -0.46598235294430129 0 -0.4457251648104853 -0.47020164095208389 0 -0.4467190029717853 -0.45478934699519452 0 -0.43016578207734568 -0.46313500011938619 0 -0.4467190029717853 -0.45478934699519452 0 -0.46411508256092049 -0.46598235294430129 0 -0.47114575579794699 -0.4403844242888923 0 -0.4467190029717853 -0.45478934699519452 0 -0.47114575579794699 -0.4403844242888923 0 -0.4422915115958943 -0.43555510214664611 0 -0.47114575579794699 -0.4403844242888923 0 -0.4422915115958943 -0.43555510214664611 0 -0.46411508256092049 -0.46598235294430129 0 -0.47114575579794699 -0.4403844242888923 0 -0.48354307623736548 -0.45841843211146538 0 -0.4824545428279598 -0.47451624516148783 0 -0.46411508256092049 -0.46598235294430129 0 -0.48354307623736548 -0.45841843211146538 0 -0.4824545428279598 -0.47451624516148783 0 -0.48354307623736548 -0.45841843211146538 0 -0.5 -0.46599539173150673 0 -0.48354307623736548 -0.45841843211146538 0 -0.5 -0.46599539173150673 0 -0.49999999999999972 -0.44521374643113848 0 -0.47114575579794699 -0.4403844242888923 0 -0.49999999999999972 -0.44521374643113848 0 -0.47114575579794699 -0.4403844242888923 0 -0.49999999999999972 -0.44521374643113848 0 -0.48704432221743971 -0.42935617662229603 0 -0.47114575579794699 -0.4403844242888923 0 -0.48354307623736548 -0.45841843211146538 0 -0.49999999999999972 -0.44521374643113848 0 -0.49999999999999972 -0.44521374643113848 0 -0.48704432221743971 -0.42935617662229603 0 -0.5 -0.41591957503128979 0 -0.48704432221743971 -0.42935617662229603 0 -0.5 -0.41591957503128979 0 -0.47703153307181151 -0.41590696073786332 0 -0.5 -0.41591957503128979 0 -0.47703153307181151 -0.41590696073786332 0 -0.48817838912021821 -0.4022119694541284 0 -0.47114575579794699 -0.4403844242888923 0 -0.48704432221743971 -0.42935617662229603 0 -0.47703153307181151 -0.41590696073786332 0 -0.5 -0.38662540363144121 0 -0.47568202340906118 -0.39039593841591919 0 -0.4947615751445838 -0.37332156409002909 0 -0.47568202340906118 -0.39039593841591919 0 -0.4947615751445838 -0.37332156409002909 0 -0.5 -0.38662540363144121 0 -0.48817838912021821 -0.4022119694541284 0 -0.47568202340906118 -0.39039593841591919 0 -0.5 -0.41591957503128979 0 -0.5 -0.38662540363144121 0 -0.48817838912021821 -0.4022119694541284 0 -0.47703153307181151 -0.41590696073786332 0 -0.48817838912021821 -0.4022119694541284 0 -0.47568202340906118 -0.39039593841591919 0 -0.47703153307181151 -0.41590696073786332 0 -0.47568202340906118 -0.39039593841591919 0 -0.45660247167353862 -0.40747031274180939 0 -0.47568202340906118 -0.39039593841591919 0 -0.48030931097003587 -0.37191064435083931 0 -0.46669490250066459 -0.37481721741951951 0 -0.47568202340906118 -0.39039593841591919 0 -0.4947615751445838 -0.37332156409002909 0 -0.48030931097003587 -0.37191064435083931 0 -0.45332061783919553 -0.38729481725706361 0 -0.46669490250066459 -0.37481721741951951 0 -0.45095991715087752 -0.36968037302039969 0 -0.47568202340906118 -0.39039593841591919 0 -0.45332061783919553 -0.38729481725706361 0 -0.46669490250066459 -0.37481721741951951 0 -0.47568202340906118 -0.39039593841591919 0 -0.45660247167353862 -0.40747031274180939 0 -0.47568202340906118 -0.39039593841591919 0 -0.45332061783919553 -0.38729481725706361 0 -0.45660247167353862 -0.40747031274180939 0 -0.44332653075004852 -0.401690115615219 0 -0.44646247228389868 -0.41654464256061052 0 -0.42870657106664078 -0.39987574649354879 0 -0.45332061783919553 -0.38729481725706361 0 -0.44332653075004852 -0.401690115615219 0 -0.43479631603355468 -0.39077639303142497 0 -0.45332061783919553 -0.38729481725706361 0 -0.44332653075004852 -0.401690115615219 0 -0.45660247167353862 -0.40747031274180939 0 -0.45332061783919553 -0.38729481725706361 0 -0.43421362475025049 -0.37527491429266319 0 -0.43479631603355468 -0.39077639303142497 0 -0.45332061783919553 -0.38729481725706361 0 -0.43421362475025049 -0.37527491429266319 0 -0.45095991715087752 -0.36968037302039969 0 -0.47114575579794699 -0.4403844242888923 0 -0.45663439814062529 -0.42533932462455271 0 -0.4422915115958943 -0.43555510214664611 0 -0.47114575579794699 -0.4403844242888923 0 -0.47703153307181151 -0.41590696073786332 0 -0.45663439814062529 -0.42533932462455271 0 -0.45663439814062529 -0.42533932462455271 0 -0.45660247167353862 -0.40747031274180939 0 -0.44646247228389868 -0.41654464256061052 0 -0.47703153307181151 -0.41590696073786332 0 -0.45663439814062529 -0.42533932462455271 0 -0.45660247167353862 -0.40747031274180939 0 -0.44332653075004852 -0.401690115615219 0 -0.45660247167353862 -0.40747031274180939 0 -0.44646247228389868 -0.41654464256061052 0 -0.45660247167353862 -0.40747031274180939 0 -0.44646247228389868 -0.41654464256061052 0 -0.44646247228389868 -0.41654464256061052 0 -0.4375229199380159 -0.42454468706769971 0 -0.45663439814062529 -0.42533932462455271 0 -0.4375229199380159 -0.42454468706769971 0 -0.4422915115958943 -0.43555510214664611 0 -0.45663439814062529 -0.42533932462455271 0 -0.44646247228389868 -0.41654464256061052 0 -0.4375229199380159 -0.42454468706769971 0 -0.4375229199380159 -0.42454468706769971 0 -0.4422915115958943 -0.43555510214664611 0 -0.43077617074680319 -0.43406335077952207 0 -0.43077617074680319 -0.43406335077952207 0 -0.42550232634077589 -0.42345940056268039 0 -0.41950844772475421 -0.43888456563633732 0 -0.4375229199380159 -0.42454468706769971 0 -0.43077617074680319 -0.43406335077952207 0 -0.42550232634077589 -0.42345940056268039 0 -0.44646247228389868 -0.41654464256061052 0 -0.41657232816672918 -0.41306671883907142 0 -0.42870657106664078 -0.39987574649354879 0 -0.44646247228389868 -0.41654464256061052 0 -0.4375229199380159 -0.42454468706769971 0 -0.42550232634077589 -0.42345940056268039 0 -0.44646247228389868 -0.41654464256061052 0 -0.42550232634077589 -0.42345940056268039 0 -0.41657232816672918 -0.41306671883907142 0 -0.44646247228389868 -0.41654464256061052 0 -0.41657232816672918 -0.41306671883907142 0 -0.42550232634077589 -0.42345940056268039 0 -0.41657232816672918 -0.41306671883907142 0 -0.41333489101611293 -0.42699700567040988 0 -0.41657232816672918 -0.41306671883907142 0 -0.41333489101611293 -0.42699700567040988 0 -0.39893236021425188 -0.42931692235905211 0 -0.41333489101611293 -0.42699700567040988 0 -0.39893236021425188 -0.42931692235905211 0 -0.41950844772475421 -0.43888456563633732 0 -0.42550232634077589 -0.42345940056268039 0 -0.41333489101611293 -0.42699700567040988 0 -0.41950844772475421 -0.43888456563633732 0 -0.43421362475025049 -0.37527491429266319 0 -0.42478231784314502 -0.38643128255249681 0 -0.41656514696884139 -0.37636588688318029 0 -0.43421362475025049 -0.37527491429266319 0 -0.42478231784314502 -0.38643128255249681 0 -0.43479631603355468 -0.39077639303142497 0 -0.42478231784314502 -0.38643128255249681 0 -0.43479631603355468 -0.39077639303142497 0 -0.42870657106664078 -0.39987574649354879 0 -0.44332653075004852 -0.401690115615219 0 -0.43479631603355468 -0.39077639303142497 0 -0.42870657106664078 -0.39987574649354879 0 -0.41657232816672918 -0.41306671883907142 0 -0.40962993039643741 -0.3898634720616666 0 -0.3946356370269814 -0.39577424904278191 0 -0.42478231784314502 -0.38643128255249681 0 -0.42870657106664078 -0.39987574649354879 0 -0.40962993039643741 -0.3898634720616666 0 -0.41657232816672918 -0.41306671883907142 0 -0.42870657106664078 -0.39987574649354879 0 -0.40962993039643741 -0.3898634720616666 0 -0.42478231784314502 -0.38643128255249681 0 -0.40962993039643741 -0.3898634720616666 0 -0.41656514696884139 -0.37636588688318029 0 -0.40962993039643741 -0.3898634720616666 0 -0.41656514696884139 -0.37636588688318029 0 -0.40465459864295228 -0.37650109000307358 0 -0.39431275766669582 -0.38061373190328529 0 -0.40465459864295228 -0.37650109000307358 0 -0.3968495855878465 -0.36923685638487008 0 -0.40962993039643741 -0.3898634720616666 0 -0.39431275766669582 -0.38061373190328529 0 -0.40465459864295228 -0.376501090003
[...]
<PointData Scalars="" Vectors="displacement," Tensors="">
<DataArray type="Float64" Name="displacement" NumberOfComponents="3" format="ascii">
0.014604662807035807 0.014999751404593092 0 0.014999210509707888 0.01499993988025353 0 0.015118462439996261 0.014504728633467709 0 0.014999210509707888 0.01499993988025353 0 0.015118462439996261 0.014504728633467709 0 0.01500022492769899 0.013877937954644756 0 0.014603926249575461 0.014998967842907534 0 0.014793276280917434 0.014427886475883557 0 0.014602104558492496 0.014999363830308175 0 0.014297550905957034 0.014517645934063773 0 0.014371331394872759 0.014319501715467744 0 0.014602104558492496 0.014999363830308175 0 0.014297550905957034 0.014517645934063773 0 0.013979996723585473 0.014999488900006377 0 0.014297550905957034 0.014517645934063773 0 0.014474077864676933 0.014047192802924189 0 0.014245387558880494 0.014032754524880732 0 0.014297550905957034 0.014517645934063773 0 0.014371331394872759 0.014319501715467744 0 0.014474077864676933 0.014047192802924189 0 0.014793276280917434 0.014427886475883557 0 0.014999337871275178 0.013878564944809201 0 0.014371331394872759 0.014319501715467744 0 0.014997958726902141 0.013877201952671742 0 0.014474077864676933 0.014047192802924189 0 0.014997958726902141 0.013877201952671742 0 0.014474077864676933 0.014047192802924189 0 0.014629670088957268 0.013682055653877997 0 0.014474077864676933 0.014047192802924189 0 0.014629670088957268 0.013682055653877997 0 0.014245387558880494 0.014032754524880732 0 0.014383949435752615 0.013661669198567842 0 0.014629670088957268 0.013682055653877997 0 0.014245387558880494 0.014032754524880732 0 0.014383949435752615 0.013661669198567842 0 0.014629670088957268 0.013682055653877997 0 0.014640860719285709 0.013304998146632241 0 0.014629670088957268 0.013682055653877997 0 0.014999711450187062 0.012983344084636172 0 0.014640860719285709 0.013304998146632241 0 0.014997958726902141 0.013877201952671742 0 0.014629670088957268 0.013682055653877997 0 0.014999711450187062 0.012983344084636172 0 0.014120896222439158 0.013815171231434572 0 0.013606344878098536 0.014028788171872556 0 0.013906681605031853 0.013731477626937411 0 0.014383949435752615 0.013661669198567842 0 0.014120896222439158 0.013815171231434572 0 0.014245387558880494 0.014032754524880732 0 0.014383949435752615 0.013661669198567842 0 0.014120896222439158 0.013815171231434572 0 0.014213820913557653 0.013506577332609543 0 0.014120896222439158 0.013815171231434572 0 0.014245387558880494 0.014032754524880732 0 0.014162021552752127 0.014182086558184263 0 0.014120896222439158 0.013815171231434572 0 0.014162021552752127 0.014182086558184263 0 0.013606344878098536 0.014028788171872556 0 0.013470711998057234 0.0146321156728665 0 0.013506672684896064 0.01449995506544491 0 0.014245387558880494 0.014032754524880732 0 0.014162021552752127 0.014182086558184263 0 0.013995063008242848 0.01460146200168908 0 0.014297550905957034 0.014517645934063773 0 0.014245387558880494 0.014032754524880732 0 0.013995063008242848 0.01460146200168908 0 0.014297550905957034 0.014517645934063773 0 0.013995063008242848 0.01460146200168908 0 0.013979996723585473 0.014999488900006377 0 0.013995063008242848 0.01460146200168908 0 0.013979996723585473 0.014999488900006377 0 0.013358343268781572 0.014999503376940343 0 0.013470711998057234 0.0146321156728665 0 0.013356613553489721 0.014999429137598386 0 0.012939096141909884 0.015079910579588804 0 0.013355536793756844 0.014999898315145258 0 0.012900018684256902 0.015103857531783735 0 0.014162021552752127 0.014182086558184263 0 0.013995063008242848 0.01460146200168908 0 0.013358343268781572 0.014999503376940343 0 0.013355536793756844 0.014999898315145258 0 0.012900018684256902 0.015103857531783735 0 0.012478184375476436 0.01499970506932422 0 0.012900018684256902 0.015103857531783735 0 0.012478184375476436 0.01499970506932422 0 0.012841495574600043 0.015104005065612451 0 0.012478184375476436 0.01499970506932422 0 0.012841495574600043 0.015104005065612451 0 0.012284321027342645 0.015102610925915815 0 0.012939096141909884 0.015079910579588804 0 0.012900018684256902 0.015103857531783735 0 0.012841495574600043 0.015104005065612451 0 0.011599302882787332 0.014999772204267632 0 0.012157719553663663 0.015282930335300123 0 0.01127324323346306 0.015123470793456925 0 0.012125660004744215 0.01501976108884605 0 0.011877670050633152 0.014942627188617023 0 0.011599302882787332 0.014999772204267632 0 0.012284321027342645 0.015102610925915815 0 0.012157719553663663 0.015282930335300123 0 0.012478184375476436 0.01499970506932422 0 0.011599302882787332 0.014999772204267632 0 0.012284321027342645 0.015102610925915815 0 0.012841495574600043 0.015104005065612451 0 0.012284321027342645 0.015102610925915815 0 0.012157719553663663 0.015282930335300123 0 0.012841495574600043 0.015104005065612451 0 0.012157719553663663 0.015282930335300123 0 0.013040482814963787 0.014937224271943739 0 0.011840709780461299 0.015624735529834354 0 0.011356223678648593 0.015483243231582275 0 0.011559176600305997 0.015759232433850971 0 0.011840709780461299 0.015624735529834354 0 0.01127324323346306 0.015123470793456925 0 0.011356223678648593 0.015483243231582275 0 0.01184601907043608 0.015936445158957112 0 0.011559176600305997 0.015759232433850971 0 0.011651314542512333 0.015932712679855916 0 0.011840709780461299 0.015624735529834354 0 0.01184601907043608 0.015936445158957112 0 0.011559176600305997 0.015759232433850971 0 0.012125660004744215 0.01501976108884605 0 0.012552591070863938 0.014975418534344403 0 0.011840709780461299 0.015624735529834354 0 0.01184601907043608 0.015936445158957112 0 0.011957273817014953 0.015932843084195701 0 0.011926219513647095 0.01597829272239305 0 0.0118625517112861 0.016001316886671571 0 0.011918016412494582 0.015907380075521844 0 0.01184601907043608 0.015936445158957112 0 0.011926219513647095 0.01597829272239305 0 0.011987291046103276 0.015969837507572762 0 0.01184601907043608 0.015936445158957112 0 0.011926219513647095 0.01597829272239305 0 0.011957273817014953 0.015932843084195701 0 0.01184601907043608 0.015936445158957112 0 0.012003296485584642 0.016011634311844686 0 0.011987291046103276 0.015969837507572762 0 0.01184601907043608 0.015936445158957112 0 0.012003296485584642 0.016011634311844686 0 0.011651314542512333 0.015932712679855916 0 0.012939096141909884 0.015079910579588804 0 0.013284443064729794 0.014675596583378808 0 0.013606344878098536 0.014028788171872556 0 0.012939096141909884 0.015079910579588804 0 0.012841495574600043 0.015104005065612451 0 0.013284443064729794 0.014675596583378808 0 0.013284443064729794 0.014675596583378808 0 0.013040482814963787 0.014937224271943739 0 0.01340342601425761 0.014497321246747026 0 0.012841495574600043 0.015104005065612451 0 0.013284443064729794 0.014675596583378808 0 0.013040482814963787 0.014937224271943739 0 0.011926219513647095 0.01597829272239305 0 0.011957273817014953 0.015932843084195701 0 0.0118625517112861 0.016001316886671571 0 0.012552591070863938 0.014975418534344403 0 0.012835350374141097 0.014899389350570289 0 0.012835350374141097 0.014899389350570289 0 0.012839771858507818 0.014812974529177075 0 0.013284443064729794 0.014675596583378808 0 0.013634640842307751 0.014030947670320981 0 0.013606344878098536 0.014028788171872556 0 0.013284443064729794 0.014675596583378808 0 0.01340342601425761 0.014497321246747026 0 0.013634640842307751 0.014030947670320981 0 0.013634640842307751 0.014030947670320981 0 0.013606344878098536 0.014028788171872556 0 0.013685992085392191 0.013817222686301428 0 0.013685992085392191 0.013817222686301428 0 0.013688085005861455 0.013753512107190308 0 0.013757933544974637 0.013614874777413662 0 0.013634640842307751 0.014030947670320981 0 0.013685992085392191 0.013817222686301428 0 0.013688085005861455 0.013753512107190308 0 0.0118625517112861 0.016001316886671571 0 0.011669170206644264 0.015717350784658971 0 0.011918016412494582 0.015907380075521844 0 0.013818047478074833 0.014193586054578253 0 0.013634640842307751 0.014030947670320981 0 0.013688085005861455 0.013753512107190308 0 0.013818047478074833 0.014193586054578253 0 0.013688085005861455 0.013753512107190308 0 0.013777014004335014 0.013585514656755738 0 0.012835350374141097 0.014899389350570289 0 0.012732250513232365 0.014614301842064002 0 0.013688085005861455 0.013753512107190308 0 0.013777014004335014 0.013585514656755738 0 0.013680751836777073 0.013583047948077742 0 0.013777014004335014 0.013585514656755738 0 0.013680751836777073 0.013583047948077742 0 0.013601936224136964 0.013470379223759365 0 0.013680751836777073 0.013583047948077742 0 0.013601936224136964 0.013470379223759365 0 0.013757933544974637 0.013614874777413662 0 0.013688085005861455 0.013753512107190308 0 0.013680751836777073 0.013583047948077742 0 0.013757933544974637 0.013614874777413662 0 0.012003296485584642 0.016011634311844686 0 0.012115975343098535 0.01589263109571569 0 0.012338263454085808 0.015852944200084249 0 0.012003296485584642 0.016011634311844686 0 0.012115975343098535 0.01589263109571569 0 0.011987291046103276 0.015969837507572762 0 0.012115975343098535 0.01589263109571569 0 0.011987291046103276 0.015969837507572762 0 0.011918016412494582 0.015907380075521844 0 0.011926219513647095 0.01597829272239305 0 0.011987291046103276 0.015969837507572762 0 0.011918016412494582 0.015907380075521844 0 0.011669170206644264 0.015717350784658971 0 0.012203955956103159 0.015548836921839934 0 0.012163481428007435 0.014934912718336267 0 0.012115975343098535 0.01589263109571569 0 0.011918016412494582 0.015907380075521844 0 0.012203955956103159 0.015548836921839934 0 0.011669170206644264 0.015717350784658971 0 0.011918016412494582 0.015907380075521844 0 0.012203955956103159 0.015548836921839934 0 0.012115975343098535 0.01589263109571569 0 0.012203955956103159 0.015548836921839934 0 0.012338263454085808 0.015852944200084249 0 0.012203955956103159 0.015548836921839934 0 0.012338263454085808 0.015852944200084249 0 0.01258866708829174 0.015453580010518995 0 0.012632860384596593 0.014960248861342874 0 0.01258866708829174 0.015453580010518995 0 0.013029744548542594 0.015118718489478062 0 0.012203955956103159 0.015548836921839934 0 0.012632860384596593 0.014960248861342874 0 0.01258866708829174 0.015453580010518995 0 0.012203955956103159 0.015548836921839934 0 0.012632860384596593 0.014960248861342874 0 0.012163481428007435 0.014934912718336267 0 0.012163481428007435 0.014934912718336267 0 0.011723773485976804 0.014564337763767471 0 0.012379308589243918 0.013995189480977456 0 0.012163481428007435 0.014934912718336267 0 0.01285197424247304 0.013997314208532577 0 0.012379308589243918 0.013995189480977456 0 0.012632860384596593 0.014960248861342874 0 0.012163481428007435 0.014934912718336267 0 0.01285197424247304 0.013997314208532577 0 0.012632860384596593 0.014960248861342874 0 0.01285197424247304 0.013997314208532577 0 0.013180048383358173 0.014520659872951527 0 0.013777014004335014 0.013585514656755738 0 0.013601936224136964 0.013470379223759365 0 0.013406748338351676 0.013401104361851901 0 0.011669170206644264 0.015717350784658971 0 0.012163481428007435 0.014934912718336267 0 0.011723773485976804 0.014564337763767471 0 0.012732250513232365 0.014614301842064002 0 0.012659182461466715 0.014238718587550846 0 0.013406748338351676 0.013401104361851901 0 0.013444318029952123 0.013453924736733836 0 0.013097446675791791 0.013473773919066489 0 0.013444318029952123 0.013453924736733836 0 0.013698126914555665 0.013507519922354811 0 0.013411135792457111 0.013529366808830807 0 0.013601936224136964 0.013470379223759365 0 0.013444318029952123 0.013453924736733836 0 0.013698126914555665 0.013507519922354811 0 0.013601936224136964 0.013470379223759365 0 0.013406748338351676 0.013401104361851901 0 0.013444318029952123 0.013453924736733836 0 0.013698126914555665 0.013507519922354811 0 0.013877696121086013 0.01346927301622399 0 0.014055111268193555 0.013511523266825264 0 0.013601936224136964 0.013470379223759365 0 0.013698126914555665 0.013507519922354811 0 0.013877696121086013 0.01346927301622399 0 0.013877696121086013 0.01346927301622399 0 0.014055111268193555 0.013511523266825264 0 0.014244977923428695 0.01336332254952393 0 0.013698126914555665 0.013507519922354811 0 0.014055111268193555 0.013511523266825264 0 0.013958010140188996 0.013655544859021509 0 0.014055111268193555 0.013511523266825264 0 0.0143159835545723 0.013641469517096322 0 0.013958010140188996 0.013655544859021509 0 0.0143159835545723 0.013641469517096322 0 0.014707587592217875 0.013507577551064453 0 0.014352914941150206 0.013452900158814698 0 0.014055111268193555 0.013511523266825264 0 0.0143159835545723 0.013641469517096322 0 0.014352914941150206 0.013452900158814698 0 0.014864201689073726 0.012211538132462589 0 0.014785260014150982 0.011474142556021831 0 0.015229856034008825 0.011741733114663745 0 0.014999536411474787 0.012088394877291431 0 0.015000269713692234 0.011192011563765349 0 0.015229856034008825 0.011741733114663745 0 0.015168766360915407 0.01111774041881341 0 0.015000269713692234 0.011192011563765349 0 0.0143159835545723 0.013641469517096322 0 0.014707587592217875 0.013507577551064453 0 0.014618295571755684 0.013806207979656263 0 0.014864201689073726 0.012211538132462589 0 0.014884397825551295 0.012357354567472232 0 0.014707587592217875 0.013507577551064453 0 0.014352914941150206 0.013452900158814698 0 0.014516917158902387 0.013214629308689456 0 0.015229856034008825 0.011741733114663745 0 0.014999536411474787 0.012088394877291431 0 0.014963465691629551 0.012711908749583075 0 0.014707587592217875 0.013507577551064453 0 0.014516917158902387 0.013214629308689456 0 0.014963465691629551 0.012711908749583075 0 0.014055111268193555 0.013511523266825264 0 0.014352914941150206 0.013452900158814698 0 0.014244977923428695 0.01336332254952393 0 0.014352914941150206 0.013452900158814698 0 0.014516917158902387 0.013214629308689456 0 0.014244977923428695 0.01336332254952393 0 0.014244977923428695 0.01336332254952393 0 0.014459304704360071 0.013175210646575569 0 0.014126338643407833 0.013395109283696688 0 0.014516917158902387 0.013214629308689456 0 0.014459304704360071 0.013175210646575569 0 0.014963465691629551 0.012711908749583075 0 0.014516917158902387 0.013214629308689456 0 0.014244977923428695 0.01336332254952393 0 0.014459304704360071 0.013175210646575569 0 0.014459304704360071 0.013175210646575569 0 0.014963465691629551 0.012711908749583075 0 0.014791377399121465 0.013032964666385363 0 0.014999536411474787 0.012088394877291431 0 0.014963465691629551 0.012711908749583075 0 0.014999711450187062 0.012983344084636172 0 0.014963465691629551 0.012711908749583075 0 0.014791377399121465 0.013032964666385363 0 0.014999711450187062 0.012983344084636172 0 0.014791377399121465 0.013032964666385363 0 0.014999711450187062 0.012983344084636172 0 0.014640860719285709 0.013304998146632241 0 0.014383949435752615 0.013661669198567842 0 0.014640860719285709 0.013304998146632241 0 0.014213820913557653 0.013506577332609543 0 0.014459304704360071 0.013175210646575569 0 0.014640860719285709 0.013304998146632241 0 0.014213820913557653 0.013506577332609543 0 0.014459304704360071 0.013175210646575569 0 0.014791377399121465 0.013032964666385363 0 0.014640860719285709 0.013304998146632241 0 0.014120896222439158 0.013815171231434572 0 0.014213820913557653 0.013506577332609543 0 0.013906681605031853 0.013731477626937411 0 0.014213820913557653 0.013506577332609543 0 0.013955632709807413 0.01353742086539297 0 0.014126338643407833 0.013395109283696688 0 0.014213820913557653 0.013506577332609543 0 0.013906681605031853 0.013731477626937411 0 0.013955632709807413 0.01353742086539297 0 0.013606344878098536 0.014028788171872556 0 0.013685992085392191 0.013817222686301428 0 0.013906681605031853 0.013731477626937411 0 0.013685992085392191 0.013817222686301428 0 0.013906681605031853 0.013731477626937411 0 0.013757933544974637 0.013614874777413662 0 0.013906681605031853 0.013731477626937411 0 0.013955632709807413 0.01353742086539297 0 0.013757933544974637 0.013614874777413662 0 0.013601936224136964 0.013470379223759365 0 0.013877696121086013 0.01346927301622399 0 0.013757933544974637 0.013614874777413662 0 0.013877696121086013 0.01346927301622399 0 0.013955632709807413 0.01353742086539297 0 0.013757933544974637 0.013614874777413662 0 0.013877696121086013 0.01346927301622399 0 0.013955632709807413 0.01353742086539297 0 0.014126338643407833 0.013395109283696688 0 0.013877696121086013 0.01346927301622399 0 0.014244977923428695 0.01336332254952393 0 0.014126338643407833 0.013395109283696688 0 0.014459304704360071 0.013175210646575569 0 0.014213820913557653 0.013506577332609543 0 0.014126338643407833 0.013395109283696688 0 0.0076508799601429775 0.016538747566214405 0 0.0078130271738234541 0.017200375554241715 0 0.0073372984535071432 0.017002311993143317 0 0.0076508799601429775 0.016538747566214405 0 0.0082371951493146103 0.016943706327111136 0 0.0078130271738234541 0.017200375554241715 0 0.0076508799601429775 0.016538747566214405 0 0.0073372984535071432 0.017002311993143317 0 0.0073282103851063981 0.016506936697666726 0 0.0076508799601429775 0.016538747566214405 0 0.0082371951493146103 0.016943706327111136 0 0.0081491593170942619 0.016140546131355012 0 0.0082371951493146103 0.016943706327111136 0 0.0081491593170942619 0.016140546131355012 0 0.0088481454961296252 0.01660364558619809 0 0.0081491593170942619 0.016140546131355012 0 0.0076175399324548039 0.015541905909508753 0 0.0073694595522694967 0.016128261225178648 0 0.0076508799601429775 0.016538747566214405 0 0.0081491593170942619 0.016140546131355012 0 0.0073694595522694967 0.016128261225178648 0 0.0076508799601429775 0.016538747566214405 0 0.0073694595522694967 0.016128261225178648 0 0.0073282103851063981 0.016506936697666726 0 0.0076175399324548039 0.015541905909508753 0 0.0080835070087028164 0.015000005374387806 0 0.0072043118968429078 0.014999810496018803 0 0.0076175399324548039 0.015541905909508753 0 0.0080835070087028164 0.015000005374387806 0 0.0084340859296044516 0.015495590794129795 0 0.0081491593170942619 0.016140546131355012 0 0.0076175399324548039 0.015541905909508753 0 0.0084340859296044516 0.015495590794129795 0 0.0081491593170942619 0.016140546131355012 0 0.0084340859296044516 0.015495590794129795 0 0.0090145785435133269 0.015871044354653877 0 0.0084340859296044516 0.015495590794129795 0 0.0089623412118285568 0.014999916595086257 0 0.0090145785435133269 0.015871044354653877 0 0.0080835070087028164 0.015000005374387806 0 0.0084340859296044516 0.015495590794129795 0 0.0089623412118285568 0.014999916595086257 0 0.0089623412118285568 0.014999916595086257 0 0.0090145785435133269 0.015871044354653877 0 0.0098284653661161979 0.0155999411059938 0 0.0090145785435133269 0.015871044354653877 0 0.0088481454961296252 0.01660364558619809 0 0.0098908427390352136 0.016489078247905735 0 0.0081491593170942619 0.016140546131355012 0 0.0090145785435133269 0.015871044354653877 0 0.0088481454961296252 0.01660364558619809 0 0.0082371951493146103 0.016943706327111136 0 0.0088481454961296252 0.01660364558619809 0 0.0087599749771342713 0.017120420231976935 0 0.0088481454961296252 0.01660364558619809 0 0.0098908427390352136 0.016489078247905735 0 0.0092717318144770605 0.017157604050286161 0 0.0091848764087260545 0.016232030305085098 0 0.0090520971639773771 0.016087759262912987 0 0.0098908427390352136 0.016489078247905735 0 0.010780721444733894 0.015951960327673008 0 0.010564607450300502 0.017078216485414185 0 0.011544818805577742 0.01610755685854523 0 0.011756966461206265 0.01615998079093494 0 0.0098908427390352136 0.016489078247905735 0 0.010780721444733894 0.015951960327673008 0 0.0098284653661161979 0.0155999411059938 0 0.0090145785435133269 0.015871044354653877 0 0.0098908427390352136 0.016489078247905735 0 0.0098284653661161979 0.0155999411059938 0 0.0089623412118285568 0.014999916595086257 0 0.0098284653661161979 0.0155999411059938 0 0.0098414216411290036 0.014999875248404871 0 0.0098284653661161979 0.015599941105993