<?xml version="1.0"?>
<VTKFile type="UnstructuredGrid" version="0.1" byte_order="LittleEndian">
<UnstructuredGrid>
<Piece NumberOfPoints="32039" NumberOfCells="11216">
<Points>
<DataArray type="Float64" NumberOfComponents="3" format="ascii">
-0.5 -0.5 0 -0.486893748991236 -0.47821317388190981 0 -0.46515074535418588 -0.48023853771296671 0 -0.49999999999999911 -0.49377427359101772 0 -0.5 -0.5 0 -0.486893748991236 -0.47821317388190981 0 -0.5 -0.5 0 -0.46515074535418588 -0.48023853771296671 0 -0.45188066559079798 -0.5 0 -0.49999999999999911 -0.49377427359101772 0 -0.486893748991236 -0.47821317388190981 0 -0.49999999999999911 -0.49377427359101772 0 -0.49999999999999972 -0.47535666171409469 0 -0.486893748991236 -0.47821317388190981 0 -0.49999999999999972 -0.47535666171409469 0 -0.486893748991236 -0.47821317388190981 0 -0.484090880466301 -0.45758541660239088 0 -0.486893748991236 -0.47821317388190981 0 -0.46515074535418588 -0.48023853771296671 0 -0.4665076984921569 -0.46846999681588292 0 -0.486893748991236 -0.47821317388190981 0 -0.4665076984921569 -0.46846999681588292 0 -0.47378749798247338 -0.4626520741728013 0 -0.486893748991236 -0.47821317388190981 0 -0.47378749798247338 -0.4626520741728013 0 -0.46515074535418588 -0.48023853771296671 0 -0.44968451421394151 -0.47702877896656881 0 -0.45188066559079798 -0.5 0 -0.46515074535418588 -0.48023853771296671 0 -0.44621303011820918 -0.45912892221977591 0 -0.4665076984921569 -0.46846999681588292 0 -0.46515074535418588 -0.48023853771296671 0 -0.44621303011820918 -0.45912892221977591 0 -0.46515074535418588 -0.48023853771296671 0 -0.44968451421394151 -0.47702877896656881 0 -0.44621303011820918 -0.45912892221977591 0 -0.44968451421394151 -0.47702877896656881 0 -0.43875909925509982 -0.46550143626853691 0 -0.43709723153975011 -0.48357950828405333 0 -0.44968451421394151 -0.47702877896656881 0 -0.43875909925509982 -0.46550143626853691 0 -0.44968451421394151 -0.47702877896656881 0 -0.45188066559079798 -0.5 0 -0.43709723153975011 -0.48357950828405333 0 -0.45188066559079798 -0.5 0 -0.43104097279763159 -0.49174081654069779 0 -0.43709723153975011 -0.48357950828405333 0 -0.44676016875958041 -0.43821810041227122 0 -0.44621303011820918 -0.45912892221977591 0 -0.46051765125662431 -0.44689961652311649 0 -0.44676016875958041 -0.43821810041227122 0 -0.44621303011820918 -0.45912892221977591 0 -0.43283835351854272 -0.44422035078723171 0 -0.44621303011820918 -0.45912892221977591 0 -0.43283835351854272 -0.44422035078723171 0 -0.44968451421394151 -0.47702877896656881 0 -0.43875909925509982 -0.46550143626853691 0 -0.44621303011820918 -0.45912892221977591 0 -0.43875909925509982 -0.46550143626853691 0 -0.44621303011820918 -0.45912892221977591 0 -0.43283835351854272 -0.44422035078723171 0 -0.43875909925509982 -0.46550143626853691 0 -0.44621303011820918 -0.45912892221977591 0 -0.4616524907941979 -0.45964457904847411 0 -0.46051765125662431 -0.44689961652311649 0 -0.47378749798247338 -0.4626520741728013 0 -0.44621303011820918 -0.45912892221977591 0 -0.4665076984921569 -0.46846999681588292 0 -0.4616524907941979 -0.45964457904847411 0 -0.46051765125662431 -0.44689961652311649 0 -0.47378749798247338 -0.4626520741728013 0 -0.44621303011820918 -0.45912892221977591 0 -0.4616524907941979 -0.45964457904847411 0 -0.46051765125662431 -0.44689961652311649 0 -0.4665076984921569 -0.46846999681588292 0 -0.4616524907941979 -0.45964457904847411 0 -0.47378749798247338 -0.4626520741728013 0 -0.44676016875958041 -0.43821810041227122 0 -0.46051765125662431 -0.44689961652311649 0 -0.46880549762337809 -0.4398141714906863 0 -0.46051765125662431 -0.44689961652311649 0 -0.46880549762337809 -0.4398141714906863 0 -0.47378749798247338 -0.4626520741728013 0 -0.44621303011820918 -0.45912892221977591 0 -0.46051765125662431 -0.44689961652311649 0 -0.46051765125662431 -0.44689961652311649 0 -0.46880549762337809 -0.4398141714906863 0 -0.46880549762337809 -0.4398141714906863 0 -0.484090880466301 -0.45758541660239088 0 -0.48522753666613982 -0.44114851169917491 0 -0.46880549762337809 -0.4398141714906863 0 -0.484090880466301 -0.45758541660239088 0 -0.46880549762337809 -0.4398141714906863 0 -0.484090880466301 -0.45758541660239088 0 -0.47378749798247338 -0.4626520741728013 0 -0.486893748991236 -0.47821317388190981 0 -0.484090880466301 -0.45758541660239088 0 -0.47378749798247338 -0.4626520741728013 0 -0.49999999999999972 -0.47535666171409469 0 -0.484090880466301 -0.45758541660239088 0 -0.5 -0.46381316851671073 0 -0.484090880466301 -0.45758541660239088 0 -0.5 -0.46381316851671073 0 -0.48522753666613982 -0.44114851169917491 0 -0.49999999999999972 -0.47535666171409469 0 -0.484090880466301 -0.45758541660239088 0 -0.5 -0.46381316851671073 0 -0.48522753666613982 -0.44114851169917491 0 -0.5 -0.43385206344240379 0 -0.48522753666613982 -0.44114851169917491 0 -0.48907906673978169 -0.42248189320887669 0 -0.5 -0.43385206344240379 0 -0.48907906673978169 -0.42248189320887669 0 -0.5 -0.43385206344240379 0 -0.5 -0.40389095836809691 0 -0.48907906673978169 -0.42248189320887669 0 -0.48067539996763747 -0.40762018898574409 0 -0.5 -0.40389095836809691 0 -0.47027346574068951 -0.42019542862901532 0 -0.48067539996763747 -0.40762018898574409 0 -0.46465781030251008 -0.40709786211266502 0 -0.48907906673978169 -0.42248189320887669 0 -0.47027346574068951 -0.42019542862901532 0 -0.48067539996763747 -0.40762018898574409 0 -0.46880549762337809 -0.4398141714906863 0 -0.48522753666613982 -0.44114851169917491 0 -0.48907906673978169 -0.42248189320887669 0 -0.46880549762337809 -0.4398141714906863 0 -0.48907906673978169 -0.42248189320887669 0 -0.46880549762337809 -0.4398141714906863 0 -0.48907906673978169 -0.42248189320887669 0 -0.47027346574068951 -0.42019542862901532 0 -0.5 -0.40389095836809691 0 -0.48595230640221382 -0.39136514091031382 0 -0.5 -0.37392985329378992 0 -0.48595230640221382 -0.39136514091031382 0 -0.47665739643672039 -0.37729482658913732 0 -0.5 -0.37392985329378992 0 -0.48067539996763747 -0.40762018898574409 0 -0.5 -0.40389095836809691 0 -0.48595230640221382 -0.39136514091031382 0 -0.48067539996763747 -0.40762018898574409 0 -0.4724287356067115 -0.39408987731480088 0 -0.46465781030251008 -0.40709786211266502 0 -0.48067539996763747 -0.40762018898574409 0 -0.48595230640221382 -0.39136514091031382 0 -0.4724287356067115 -0.39408987731480088 0 -0.48595230640221382 -0.39136514091031382 0 -0.4724287356067115 -0.39408987731480088 0 -0.47665739643672039 -0.37729482658913732 0 -0.4724287356067115 -0.39408987731480088 0 -0.47665739643672039 -0.37729482658913732 0 -0.45761769720875128 -0.37908824133018609 0 -0.4724287356067115 -0.39408987731480088 0 -0.45761769720875128 -0.37908824133018609 0 -0.45278069113892111 -0.39621486051812849 0 -0.4724287356067115 -0.39408987731480088 0 -0.45278069113892111 -0.39621486051812849 0 -0.46465781030251008 -0.40709786211266502 0 -0.4724287356067115 -0.39408987731480088 0 -0.45278069113892111 -0.39621486051812849 0 -0.45278069113892111 -0.39621486051812849 0 -0.43313264667113038 -0.39833984372145498 0 -0.45278069113892111 -0.39621486051812849 0 -0.45096907214725451 -0.41907700760607047 0 -0.43313264667113038 -0.39833984372145498 0 -0.45278069113892111 -0.39621486051812849 0 -0.44034619182871232 -0.38382449584687839 0 -0.43313264667113038 -0.39833984372145498 0 -0.45761769720875128 -0.37908824133018609 0 -0.44034619182871232 -0.38382449584687839 0 -0.44418013679453572 -0.37321616110191708 0 -0.45761769720875128 -0.37908824133018609 0 -0.45278069113892111 -0.39621486051812849 0 -0.44034619182871232 -0.38382449584687839 0 -0.44034619182871232 -0.38382449584687839 0 -0.44418013679453572 -0.37321616110191708 0 -0.43262218022933208 -0.36913794505780761 0 -0.46880549762337809 -0.4398141714906863 0 -0.47027346574068951 -0.42019542862901532 0 -0.45096907214725451 -0.41907700760607047 0 -0.46880549762337809 -0.4398141714906863 0 -0.45096907214725451 -0.41907700760607047 0 -0.44676016875958041 -0.43821810041227122 0 -0.46880549762337809 -0.4398141714906863 0 -0.45096907214725451 -0.41907700760607047 0 -0.45278069113892111 -0.39621486051812849 0 -0.46465781030251008 -0.40709786211266502 0 -0.45096907214725451 -0.41907700760607047 0 -0.47027346574068951 -0.42019542862901532 0 -0.46465781030251008 -0.40709786211266502 0 -0.45096907214725451 -0.41907700760607047 0 -0.45096907214725451 -0.41907700760607047 0 -0.43568255170014702 -0.42901710770720369 0 -0.43177826144270431 -0.41506017757389652 0 -0.45096907214725451 -0.41907700760607047 0 -0.43313264667113038 -0.39833984372145498 0 -0.45096907214725451 -0.41907700760607047 0 -0.43177826144270431 -0.41506017757389652 0 -0.43313264667113038 -0.39833984372145498 0 -0.44676016875958041 -0.43821810041227122 0 -0.45096907214725451 -0.41907700760607047 0 -0.43568255170014702 -0.42901710770720369 0 -0.44676016875958041 -0.43821810041227122 0 -0.43568255170014702 -0.42901710770720369 0 -0.43283835351854272 -0.44422035078723171 0 -0.43568255170014702 -0.42901710770720369 0 -0.43177826144270431 -0.41506017757389652 0 -0.41946367691887648 -0.42931177935468717 0 -0.43568255170014702 -0.42901710770720369 0 -0.41946367691887648 -0.42931177935468717 0 -0.43283835351854272 -0.44422035078723171 0 -0.41946367691887648 -0.42931177935468717 0 -0.43283835351854272 -0.44422035078723171 0 -0.43177826144270431 -0.41506017757389652 0 -0.41946367691887648 -0.42931177935468717 0 -0.42035102108574263 -0.39972220722967711 0 -0.41168271473166601 -0.41444742958105002 0 -0.41946367691887648 -0.42931177935468717 0 -0.42035102108574263 -0.39972220722967711 0 -0.41946367691887648 -0.42931177935468717 0 -0.42035102108574263 -0.39972220722967711 0 -0.41168271473166601 -0.41444742958105002 0 -0.4183898516446356 -0.39993431241541427 0 -0.41168271473166601 -0.41444742958105002 0 -0.41339632147757599 -0.42254858016035979 0 -0.39975156953410862 -0.42434481525310191 0 -0.41339632147757599 -0.42254858016035979 0 -0.41946367691887648 -0.42931177935468717 0 -0.39975156953410862 -0.42434481525310191 0 -0.41946367691887648 -0.42931177935468717 0 -0.39975156953410
[...]
<PointData Scalars="" Vectors="displacement," Tensors="">
<DataArray type="Float64" Name="displacement" NumberOfComponents="3" format="ascii">
-0.035001323892454007 5.0570254459300575e-07 0 -0.033300706246207096 8.6201039773954499e-05 0 -0.032422572426596026 -0.00012808272122375448 0 -0.034995229556036657 -1.256783110386739e-07 0 -0.035001323892454007 5.0570254459300575e-07 0 -0.033300706246207096 8.6201039773954499e-05 0 -0.035001323892454007 5.0570254459300575e-07 0 -0.032422572426596026 -0.00012808272122375448 0 -0.031631019906014163 -1.3946125558635451e-06 0 -0.034999515356822476 -3.7762775843359607e-08 0 -0.034131820672849748 -6.7294843404969192e-05 0 -0.03500013397628058 -2.1794424029649862e-08 0 -0.034999823304344459 2.1958832301696792e-08 0 -0.034998526101526026 -6.6274407738484465e-05 0 -0.034999823304344459 2.1958832301696792e-08 0 -0.034998526101526026 -6.6274407738484465e-05 0 -0.034795646384886941 -8.9014059315430428e-05 0 -0.033300706246207096 8.6201039773954499e-05 0 -0.032422572426596026 -0.00012808272122375448 0 -0.032574492882378007 -0.00013781168155844643 0 -0.033300706246207096 8.6201039773954499e-05 0 -0.032574492882378007 -0.00013781168155844643 0 -0.032573382189429442 -6.476218874389775e-05 0 -0.034131820672849748 -6.7294843404969192e-05 0 -0.033768585871117023 -0.00015710112389247686 0 -0.032422572426596026 -0.00012808272122375448 0 -0.031839789775395928 -0.00021143323427027871 0 -0.031631019906014163 -1.3946125558635451e-06 0 -0.032422572426596026 -0.00012808272122375448 0 -0.03262151375060824 2.3502580603329293e-05 0 -0.032574492882378007 -0.00013781168155844643 0 -0.032538246146838576 -0.00018030654670309255 0 -0.031410337375669603 0.00019370367997996018 0 -0.032422572426596026 -0.00012808272122375448 0 -0.031839789775395928 -0.00021143323427027871 0 -0.031383039694915398 -0.00023191464830165666 0 -0.031839789775395928 -0.00021143323427027871 0 -0.031885086970687031 -0.00010910616439234931 0 -0.031250657708039489 -0.00012130413071042048 0 -0.031873732413193377 -4.1939304207696617e-05 0 -0.030378879583313981 0.00038802726076795816 0 -0.031839789775395928 -0.00021143323427027871 0 -0.031631019906014163 -1.3946125558635451e-06 0 -0.031250657708039489 -0.00012130413071042048 0 -0.031631019906014163 -1.3946125558635451e-06 0 -0.030622799291487438 -5.5129283438521067e-05 0 -0.031250657708039489 -0.00012130413071042048 0 -0.031583494500886336 0.000413349587862031 0 -0.031857001692457046 0.00040332852711654491 0 -0.031706868819051014 0.00058951593060557522 0 -0.031583494500886336 0.000413349587862031 0 -0.031857001692457046 0.00040332852711654491 0 -0.031654543121412144 0.00022917850297469967 0 -0.031410337375669603 0.00019370367997996018 0 -0.030612964141738887 0.00039240151771732698 0 -0.031839789775395928 -0.00021143323427027871 0 -0.031540842421534938 -0.00042949284943631535 0 -0.031383039694915398 -0.00023191464830165666 0 -0.030155805212389634 0.0006598068636208172 0 -0.029947339165931106 0.000907289819013328 0 -0.029440958292609537 0.00046666179422015383 0 -0.030378879583313981 0.00038802726076795816 0 -0.031410337375669603 0.00019370367997996018 0 -0.032608612653424594 -8.6663774776560054e-05 0 -0.032659912983420893 -8.5362159049337855e-05 0 -0.032573382189429442 -6.476218874389775e-05 0 -0.03262151375060824 2.3502580603329293e-05 0 -0.032574492882378007 -0.00013781168155844643 0 -0.032608612653424594 -8.6663774776560054e-05 0 -0.033206632972396462 0.00016355945801792157 0 -0.033768585871117023 -0.00015710112389247686 0 -0.03262151375060824 2.3502580603329293e-05 0 -0.032608612653424594 -8.6663774776560054e-05 0 -0.032659912983420893 -8.5362159049337855e-05 0 -0.032574492882378007 -0.00013781168155844643 0 -0.032608612653424594 -8.6663774776560054e-05 0 -0.032573382189429442 -6.476218874389775e-05 0 -0.031583494500886336 0.000413349587862031 0 -0.031706868819051014 0.00058951593060557522 0 -0.031622967557572788 0.0006978361395832927 0 -0.034641140799254996 -0.00036200002025259926 0 -0.03455809403659417 -0.00026029204261007402 0 -0.03484396791294677 -0.00020296705799064627 0 -0.031410337375669603 0.00019370367997996018 0 -0.033206632972396462 0.00016355945801792157 0 -0.033206632972396462 0.00016355945801792157 0 -0.033940553059279517 2.9431868028549368e-05 0 -0.034990317548494097 -7.7484845114102518e-06 0 -0.034998526526549542 -2.467040234496346e-06 0 -0.034995719842794072 -2.4004780343323582e-06 0 -0.033940553059279517 2.9431868028549368e-05 0 -0.035023978775693312 -2.0263213708812751e-05 0 -0.03455809403659417 -0.00026029204261007402 0 -0.034795646384886941 -8.9014059315430428e-05 0 -0.03484396791294677 -0.00020296705799064627 0 -0.034998526101526026 -6.6274407738484465e-05 0 -0.034795646384886941 -8.9014059315430428e-05 0 -0.03484396791294677 -0.00020296705799064627 0 -0.035000002307845959 1.0748994169141177e-09 0 -0.034998526526549542 -2.467040234496346e-06 0 -0.03500000013570416 -1.5063880384546638e-09 0 -0.034998526526549542 -2.467040234496346e-06 0 -0.03500000013570416 -1.5063880384546638e-09 0 -0.034995719842794072 -2.4004780343323582e-06 0 -0.034944243980460844 -2.3683029846403293e-05 0 -0.035023978775693312 -2.0263213708812751e-05 0 -0.03500000013570416 -1.5063880384546638e-09 0 -0.034995719842794072 -2.4004780343323582e-06 0 -0.034999984514395538 -4.6084119862469793e-10 0 -0.034995719842794072 -2.4004780343323582e-06 0 -0.034988461238357554 -1.9127969813519402e-06 0 -0.034999984514395538 -4.6084119862469793e-10 0 -0.034988461238357554 -1.9127969813519402e-06 0 -0.034999984514395538 -4.6084119862469793e-10 0 -0.034999950740194907 2.214300996012709e-09 0 -0.034988461238357554 -1.9127969813519402e-06 0 -0.034973329326881866 -3.0923321262433012e-06 0 -0.034999950740194907 2.214300996012709e-09 0 -0.034969420232728907 -1.1255836035874795e-05 0 -0.034973329326881866 -3.0923321262433012e-06 0 -0.034955096396170018 -1.4748122750593978e-05 0 -0.034988461238357554 -1.9127969813519402e-06 0 -0.034969420232728907 -1.1255836035874795e-05 0 -0.034973329326881866 -3.0923321262433012e-06 0 -0.034990317548494097 -7.7484845114102518e-06 0 -0.034995719842794072 -2.4004780343323582e-06 0 -0.034988461238357554 -1.9127969813519402e-06 0 -0.033940553059279517 2.9431868028549368e-05 0 -0.035319567332302806 -0.00011141506500152413 0 -0.034969316773105413 -1.1863915806490336e-05 0 -0.034988461238357554 -1.9127969813519402e-06 0 -0.034969420232728907 -1.1255836035874795e-05 0 -0.034999950740194907 2.214300996012709e-09 0 -0.034973819806546499 -1.6848399895061509e-06 0 -0.034999942729729054 -5.7780466245208276e-09 0 -0.034973819806546499 -1.6848399895061509e-06 0 -0.034957896115208574 -2.8342659112822723e-06 0 -0.034999942729729054 -5.7780466245208276e-09 0 -0.034973329326881866 -3.0923321262433012e-06 0 -0.034999950740194907 2.214300996012709e-09 0 -0.034973819806546499 -1.6848399895061509e-06 0 -0.034973329326881866 -3.0923321262433012e-06 0 -0.034946407192628447 -4.8028338412221075e-06 0 -0.034955096396170018 -1.4748122750593978e-05 0 -0.034973329326881866 -3.0923321262433012e-06 0 -0.034973819806546499 -1.6848399895061509e-06 0 -0.034946407192628447 -4.8028338412221075e-06 0 -0.034973819806546499 -1.6848399895061509e-06 0 -0.034946407192628447 -4.8028338412221075e-06 0 -0.034957896115208574 -2.8342659112822723e-06 0 -0.034946407192628447 -4.8028338412221075e-06 0 -0.034957896115208574 -2.8342659112822723e-06 0 -0.034918752997231621 1.0693027553992637e-05 0 -0.034946407192628447 -4.8028338412221075e-06 0 -0.034918752997231621 1.0693027553992637e-05 0 -0.034884692660040954 1.8058090281500631e-05 0 -0.034946407192628447 -4.8028338412221075e-06 0 -0.034930927480585426 -2.7644371429570425e-05 0 -0.034955096396170018 -1.4748122750593978e-05 0 -0.034924753027640837 2.89908423824687e-05 0 -0.035003161128721684 -8.1825310269044408e-05 0 -0.035003161128721684 -8.1825310269044408e-05 0 -0.032815657782237877 0.00023115698263183031 0 -0.034930927480585426 -2.7644371429570425e-05 0 -0.034956045120820407 -2.7962620026542032e-05 0 -0.034913610339711638 -5.2638527092998134e-05 0 -0.034884692660040954 1.8058090281500631e-05 0 -0.034877965016893546 3.9445379801659895e-05 0 -0.034838416178270007 5.3047880871067734e-05 0 -0.034918752997231621 1.0693027553992637e-05 0 -0.034877965016893546 3.9445379801659895e-05 0 -0.034898889384832488 3.2505752413634694e-05 0 -0.034918752997231621 1.0693027553992637e-05 0 -0.034884692660040954 1.8058090281500631e-05 0 -0.034877965016893546 3.9445379801659895e-05 0 -0.034877965016893546 3.9445379801659895e-05 0 -0.034898889384832488 3.2505752413634694e-05 0 -0.034885287993565321 5.3143222113325449e-05 0 -0.034969316773105413 -1.1863915806490336e-05 0 -0.034969420232728907 -1.1255836035874795e-05 0 -0.034956045120820407 -2.7962620026542032e-05 0 -0.033940553059279517 2.9431868028549368e-05 0 -0.033064533616202096 0.00022898744237807907 0 -0.031583494500886336 0.000413349587862031 0 -0.031622967557572788 0.0006978361395832927 0 -0.031331157385672985 0.00047306807813320926 0 -0.034930927480585426 -2.7644371429570425e-05 0 -0.034955096396170018 -1.4748122750593978e-05 0 -0.034956045120820407 -2.7962620026542032e-05 0 -0.034969420232728907 -1.1255836035874795e-05 0 -0.034955096396170018 -1.4748122750593978e-05 0 -0.034956045120820407 -2.7962620026542032e-05 0 -0.031331157385672985 0.00047306807813320926 0 -0.031451381058416779 0.00026845375203203787 0 -0.031259831868712701 0.0002181987846705672 0 -0.033064533616202096 0.00022898744237807907 0 -0.032815657782237877 0.00023115698263183031 0 -0.031331157385672985 0.00047306807813320926 0 -0.031259831868712701 0.0002181987846705672 0 -0.031035367007257245 0.0002389557707740483 0 -0.031583494500886336 0.000413349587862031 0 -0.031331157385672985 0.00047306807813320926 0 -0.031451381058416779 0.00026845375203203787 0 -0.031583494500886336 0.000413349587862031 0 -0.031451381058416779 0.00026845375203203787 0 -0.031654543121412144 0.00022917850297469967 0 -0.031451381058416779 0.00026845375203203787 0 -0.031259831868712701 0.0002181987846705672 0 -0.031441538211884834 5.1525373103447252e-05 0 -0.031451381058416779 0.00026845375203203787 0 -0.031441538211884834 5.1525373103447252e-05 0 -0.031654543121412144 0.00022917850297469967 0 -0.029219275711992589 0.00038712574787442476 0 -0.030612964141738887 0.00039240151771732698 0 -0.031259831868712701 0.0002181987846705672 0 -0.031441538211884834 5.1525373103447252e-05 0 -0.031042143116864779 6.689913943202773e-05 0 -0.027244356793849213 0.00050881356735531767 0 -0.027418510811615851 0.00059481940402482869 0 -0.027097849241931093 0.00059716482121641482 0 -0.029219275711992589 0.00038712574787442476 0 -0.02881812508698758 0.00025474492648053004 0 -0.027049295604097735 0.00061466036635481362 0 -0.027751140881325072 0.00055226837227533325 0 -0.027244356793849213 0.00050881356735531767 0 -0.027339496598890081 0.00052667380967646039 0 -0.027357023861350981 0.00035307553433034684 0 -0.027339496598890081 0.00052667380967646039 0 -0.027425336581458654 0.00060417766300060495 0 -0.027357023861350981 0.00035307553433034684 0 -0.027425336581458654 0.00060417766300060495 0 -0.027357023861350981 0.00035307553433034684 0 -0.027612521754382186 0.00060186127636614891 0 -0.025431056018295147 0.0011238629062120984 0 -0.02707915689681583 0.00078912605395337879 0 -0.029219275711992589 0.00038712574787442476 0 -0.02707915689681583 0.00078912605395337879 0 -0.027244356793849213 0.00050881356735531767 0 -0.027339496598890081 0.00052667380967646039 0 -0.027418510811615851 0.00059481940402482869 0 -0.027761737164266505 5.1619427562728625e-05 0 -0.029219275711992589 0.00038712574787442476 0 -0.034877965016893546 3.9445379801659895e-05 0 -0.0348424577185312 7.2666468861929355e-05 0 -0.034838416178270007 5.3047880871067734e-05 0 -0.026701736823558357 0.00076889594465507152 0 -0.026429493643830165 0.00085771810146797729 0 -0.026487241795829713 0.00072667073669074531 0 -0.03037959879850248 0.0006031906894274281 0 -0.030566265996308177 0.00049911622616399169 0 -0.034877965016893546 3.9445379801659895e-05 0 -0.0348424577185312 7.2666468861929355e-05 0 -0.034885287993565321 5.3143222113325449e-05 0 -0.026701736823558357 0.00076889594465507152 0 -0.026642912892311632 0.00072006908341208241 0 -0.026487241795829713 0.00072667073669074531 0 -0.03037959879850248 0.0006031906894274281 0 -0.026689816369623181 -2.0120910065688469e-05 0 -0.031259831868712701 0.0002181987846705672 0 -0.031035367007257245 0.0002389557707740483 0 -0.031042143116864779 6.689913943202773e-05 0 -0.03037959879850248 0.0006031906894274281 0 -0.032815657782237877 0.00023115698263183031 0 -0.030291350949386307 0.0003360959938451769 0 -0.030432626961620461 0.00044947107724665916 0 -0.030384442839523053 0.00029238960755410132 0 -0.030432626961620461 0.00044947107724665916 0 -0.030437336847817097 0.00029101717173138716 0 -0.030384442839523053 0.00029238960755410132 0 -0.03037959879850248 0.0006031906894274281 0 -0.027981466997095628 0.00038018426147164635 0 -0.032815657782237877 0.00023115698263183031 0 -0.02881812508698758 0.00025474492648053004 0 -0.027751140881325072 0.00055226837227533325 0 -0.025765672786519665 2.098336405015641e-05 0 -0.024601314867736764 -0.00027116831550782399 0 -0.024633763827865425 -0.00020155669873366482 0 -0.024531748931391279 -8.3493309548961559e-05 0 -0.027244356793849213 0.00050881356735531767 0 -0.027034331585675354 0.00060729161122741854 0 -0.027052193861658844 0.00034194045530704559 0 -0.027244356793849213 0.00050881356735531767 0 -0.027097849241931093 0.00059716482121641482 0 -0.027100077480890914 0.00057730780806604278 0 -0.02881812508698758 0.00025474492648053004 0 -0.027751140881325072 0.00055226837227533325 0 -0.024601314867736764 -0.00027116831550782399 0 -0.024633763827865425 -0.00020155669873366482 0 -0.024643450619952732 -0.00028504531531032629 0 -0.024633763827865425 -0.00020155669873366482 0 -0.024643450619952732 -0.00028504531531032629 0 -0.024696688575200233 -0.00022175865078612869 0 -0.028265942445984227 0.00010130914893432124 0 -0.028277149455819509 -4.0834584672820621e-06 0 -0.028032499182712681 0.00010731758733310819 0 -0.027751140881325072 0.00055226837227533325 0 -0.027981466997095628 0.00038018426147164635 0 -0.02881812508698758 0.00025474492648053004 0 -0.027981466997095628 0.00038018426147164635 0 -0.02849926425827352 0.00034755455696093654 0 -0.028399626689776761 0.00039916048711821498 0 -0.028544500471402411 0.00038574071785478368 0 -0.024732714602574313 -0.00027512545919789605 0 -0.024696688575200233 -0.00022175865078612869 0 -0.02473700405527059 -0.00021577385106624059 0 -0.024643450619952732 -0.00028504531531032629 0 -0.024732714602574313 -0.00027512545919789605 0 -0.024696688575200233 -0.00022175865078612869 0 -0.027981466997095628 0.00038018426147164635 0 -0.026689816369623181 -2.0120910065688469e-05 0 -0.024696688575200233 -0.00022175865078612869 0 -0.024731781646985466 -0.00017495726233473277 0 -0.024685860703889499 -0.00013070411325308816 0 -0.024633763827865425 -0.00020155669873366482 0 -0.024696688575200233 -0.00022175865078612869 0 -0.024685860703889499 -0.00013070411325308816 0 -0.024696688575200233 -0.00022175865078612869 0 -0.024731781646985466 -0.00017495726233473277 0 -0.02473700405527059 -0.00021577385106624059 0 -0.024732714602574313 -0.00027512545919789605 0 -0.02473700405527059 -0.00021577385106624059 0 -0.024781943640020461 -0.00019092431501112667 0 -0.024731781646985466 -0.00017495726233473277 0 -0.02473700405527059 -0.00021577385106624059 0 -0.024781943640020461 -0.00019092431501112667 0 -0.026689816369623181 -2.0120910065688469e-05 0 -0.026511095080115135 0.00042284685559765154 0 -0.026616280565127898 0.00072283271756545982 0 -0.026487241795829713 0.00072667073669074531 0 -0.026407036262093425 0.00066430799036066169 0 -0.024748260084496942 -0.00012527236861842894 0 -0.024685860703889499 -0.00013070411325308816 0 -0.024726001973757492 3.746001867253653e-05 0 -0.024748260084496942 -0.00012527236861842894 0 -0.024726001973757492 3.746001867253653e-05 0 -0.024798161833148973 -9.1768105519299915e-05 0 -0.024781943640020461 -0.00019092431501112667 0 -0.024748260084496942 -0.00012527236861842894 0 -0.024798161833148973 -9.1768105519299915e-05 0 -0.024731781646985466 -0.00017495726233473277 0 -0.024781943640020461 -0.00019092431501112667 0 -0.024748260084496942 -0.00012527236861842894 0 -0.024731781646985466 -0.00017495726233473277 0 -0.024748260084496942 -0.00012527236861842894 0 -0.024685860703889499 -0.00013070411325308816 0 -0.027052193861658844 0.00034194045530704559 0 -0.027063583173366861 8.5626789945817224e-05 0 -0.027179088009069225 0.00032250017597271945 0 -0.024685860703889499 -0.00013070411325308816 0 -0.024531748931391279 -8.3493309548961559e-05 0 -0.024617676723524533 8.1272456472337011e-05 0 -0.024633763827865425 -0.00020155669873366482 0 -0.024685860703889499 -0.00013070411325308816 0 -0.024531748931391279 -8.3493309548961559e-05 0 -0.025765672786519665 2.098336405015641e-05 0 -0.025027348377532364 0.00048561141286244047 0 -0.024531748931391279 -8.3493309548961559e-05 0 -0.024474691530501833 0.00017737188537353659 0 -0.024617676723524533 8.1272456472337011e-05 0 -0.025027348377532364 0.00048561141286244047 0 -0.024809242303947158 0.00079647799554425887 0 -0.024474691530501833 0.00017737188537353659 0 -0.024637898832473089 0.000220573544280869 0 -0.024617676723524533 8.1272456472337011e-05 0 -0.022523312939843144 0.0008354225849339839 0 -0.025103192630233397 -0.00056617599485627812 0 -0.024685860703889499 -0.00013070411325308816 0 -0.024617676723524533 8.1272456472337011e-05 0 -0.024781212775583827 0.00021642955833855925 0 -0.025202787123436304 -0.00026450786976936865 0 -0.022523312939843144 0.0008354225849339839 0 -0.024637898832473089 0.000220573544280869 0 -0.024617676723524533 8.1272456472337011e-05 0 -0.024781212775583827 0.00021642955833855925 0 -0.02378776941898705 0.0017164755147717281 0 -0.02405696890021319 0.0014139609098364947 0 -0.024247029404873319 0.0017920706531281483 0 -0.027063583173366861 8.5626789945817224e-05 0 -0.027357023861350981 0.00035307553433034684 0 -0.027179088009069225 0.00032250017597271945 0 -0.027244356793849213 0.00050881356735531767 0 -0.027357023861350981 0.00035307553433034684 0 -0.027179088009069225 0.00032250017597271945 0 -0.027244356793849213 0.00050881356735531767 0 -0.027052193861658844 0.00034194045530704559 0 -0.027179088009069225 0.00032250017597271945 0 -0.023277143654680647 0.001273086715166566 0 -0.023496186646804265 0.0011720564788155396 0 -0.02368887856960826 0.0012705821879592056 0 -0.023277143654680647 0.001273086715166566 0 -0.02378776941898705 0.0017164755147717281 0 -0.02368887856960826 0.0012705821879592056 0 -0.025027348377532364 0.00048561141286244047 0 -0.025431056018295147 0.0011238629062120984 0 -0.023277143654680647 0.001273086715166566 0 -0.02328153768706874 0.0011933585026009978 0 -0.023496186646804265 0.0011720564788155396 0 -0.02328153768706874 0.0011933585026009978 0 -0.023496186646804265 0.0011720564788155396 0 -0.023377214124999657 0.0010911137784343997 0 -0.02378776941898705 0.0017164755147717281 0 -0.02368887856960826 0.0012705821879592056 0 -0.02405696890021319 0.0014139609098364947 0 -0.02368887856960826 0.0012705821879592056 0 -0.02405696890021319 0.0014139609098364947 0 -0.023957722795686698 0.0011076867751985582 0 -0.02405696890021319 0.0014139609098364947 0 -0.024306359164199216 0.0011040060373138844 0 -0.023957722795686698 0.0011076867751985582 0 -0.02405696890021319 0.0014139609098364947 0 -0.024614892906822013 0.0015336720782283453 0 -0.024306359164199216 0.0011040060373138844 0 -0.024247029404873319 0.0017920706531281483 0 -0.024614892906822013 0.0015336720782283453 0 -0.024486177965471756 0.0021415518589096212 0 -0.02405696890021319 0.0014139609098364947 0 -0.024247029404873319 0.0017920706531281483 0 -0.024614892906822013 0.0015336720782283453 0 -0.024797785083085524 0.0010039452027375418 0 -0.02573423740117043 0.0013063035373919725 0 -0.024614892906822013 0.0015336720782283453 0 -0.024772721652898962 0.0009