<?xml version="1.0"?>
<VTKFile type="UnstructuredGrid" version="0.1" byte_order="LittleEndian">
<UnstructuredGrid>
<Piece NumberOfPoints="32039" NumberOfCells="11216">
<Points>
<DataArray type="Float64" NumberOfComponents="3" format="ascii">
-0.5 -0.5 0 -0.486893748991236 -0.47821317388190981 0 -0.46515074535418588 -0.48023853771296671 0 -0.49999999999999911 -0.49377427359101772 0 -0.5 -0.5 0 -0.486893748991236 -0.47821317388190981 0 -0.5 -0.5 0 -0.46515074535418588 -0.48023853771296671 0 -0.45188066559079798 -0.5 0 -0.49999999999999911 -0.49377427359101772 0 -0.486893748991236 -0.47821317388190981 0 -0.49999999999999911 -0.49377427359101772 0 -0.49999999999999972 -0.47535666171409469 0 -0.486893748991236 -0.47821317388190981 0 -0.49999999999999972 -0.47535666171409469 0 -0.486893748991236 -0.47821317388190981 0 -0.484090880466301 -0.45758541660239088 0 -0.486893748991236 -0.47821317388190981 0 -0.46515074535418588 -0.48023853771296671 0 -0.4665076984921569 -0.46846999681588292 0 -0.486893748991236 -0.47821317388190981 0 -0.4665076984921569 -0.46846999681588292 0 -0.47378749798247338 -0.4626520741728013 0 -0.486893748991236 -0.47821317388190981 0 -0.47378749798247338 -0.4626520741728013 0 -0.46515074535418588 -0.48023853771296671 0 -0.44968451421394151 -0.47702877896656881 0 -0.45188066559079798 -0.5 0 -0.46515074535418588 -0.48023853771296671 0 -0.44621303011820918 -0.45912892221977591 0 -0.4665076984921569 -0.46846999681588292 0 -0.46515074535418588 -0.48023853771296671 0 -0.44621303011820918 -0.45912892221977591 0 -0.46515074535418588 -0.48023853771296671 0 -0.44968451421394151 -0.47702877896656881 0 -0.44621303011820918 -0.45912892221977591 0 -0.44968451421394151 -0.47702877896656881 0 -0.43875909925509982 -0.46550143626853691 0 -0.43709723153975011 -0.48357950828405333 0 -0.44968451421394151 -0.47702877896656881 0 -0.43875909925509982 -0.46550143626853691 0 -0.44968451421394151 -0.47702877896656881 0 -0.45188066559079798 -0.5 0 -0.43709723153975011 -0.48357950828405333 0 -0.45188066559079798 -0.5 0 -0.43104097279763159 -0.49174081654069779 0 -0.43709723153975011 -0.48357950828405333 0 -0.44676016875958041 -0.43821810041227122 0 -0.44621303011820918 -0.45912892221977591 0 -0.46051765125662431 -0.44689961652311649 0 -0.44676016875958041 -0.43821810041227122 0 -0.44621303011820918 -0.45912892221977591 0 -0.43283835351854272 -0.44422035078723171 0 -0.44621303011820918 -0.45912892221977591 0 -0.43283835351854272 -0.44422035078723171 0 -0.44968451421394151 -0.47702877896656881 0 -0.43875909925509982 -0.46550143626853691 0 -0.44621303011820918 -0.45912892221977591 0 -0.43875909925509982 -0.46550143626853691 0 -0.44621303011820918 -0.45912892221977591 0 -0.43283835351854272 -0.44422035078723171 0 -0.43875909925509982 -0.46550143626853691 0 -0.44621303011820918 -0.45912892221977591 0 -0.4616524907941979 -0.45964457904847411 0 -0.46051765125662431 -0.44689961652311649 0 -0.47378749798247338 -0.4626520741728013 0 -0.44621303011820918 -0.45912892221977591 0 -0.4665076984921569 -0.46846999681588292 0 -0.4616524907941979 -0.45964457904847411 0 -0.46051765125662431 -0.44689961652311649 0 -0.47378749798247338 -0.4626520741728013 0 -0.44621303011820918 -0.45912892221977591 0 -0.4616524907941979 -0.45964457904847411 0 -0.46051765125662431 -0.44689961652311649 0 -0.4665076984921569 -0.46846999681588292 0 -0.4616524907941979 -0.45964457904847411 0 -0.47378749798247338 -0.4626520741728013 0 -0.44676016875958041 -0.43821810041227122 0 -0.46051765125662431 -0.44689961652311649 0 -0.46880549762337809 -0.4398141714906863 0 -0.46051765125662431 -0.44689961652311649 0 -0.46880549762337809 -0.4398141714906863 0 -0.47378749798247338 -0.4626520741728013 0 -0.44621303011820918 -0.45912892221977591 0 -0.46051765125662431 -0.44689961652311649 0 -0.46051765125662431 -0.44689961652311649 0 -0.46880549762337809 -0.4398141714906863 0 -0.46880549762337809 -0.4398141714906863 0 -0.484090880466301 -0.45758541660239088 0 -0.48522753666613982 -0.44114851169917491 0 -0.46880549762337809 -0.4398141714906863 0 -0.484090880466301 -0.45758541660239088 0 -0.46880549762337809 -0.4398141714906863 0 -0.484090880466301 -0.45758541660239088 0 -0.47378749798247338 -0.4626520741728013 0 -0.486893748991236 -0.47821317388190981 0 -0.484090880466301 -0.45758541660239088 0 -0.47378749798247338 -0.4626520741728013 0 -0.49999999999999972 -0.47535666171409469 0 -0.484090880466301 -0.45758541660239088 0 -0.5 -0.46381316851671073 0 -0.484090880466301 -0.45758541660239088 0 -0.5 -0.46381316851671073 0 -0.48522753666613982 -0.44114851169917491 0 -0.49999999999999972 -0.47535666171409469 0 -0.484090880466301 -0.45758541660239088 0 -0.5 -0.46381316851671073 0 -0.48522753666613982 -0.44114851169917491 0 -0.5 -0.43385206344240379 0 -0.48522753666613982 -0.44114851169917491 0 -0.48907906673978169 -0.42248189320887669 0 -0.5 -0.43385206344240379 0 -0.48907906673978169 -0.42248189320887669 0 -0.5 -0.43385206344240379 0 -0.5 -0.40389095836809691 0 -0.48907906673978169 -0.42248189320887669 0 -0.48067539996763747 -0.40762018898574409 0 -0.5 -0.40389095836809691 0 -0.47027346574068951 -0.42019542862901532 0 -0.48067539996763747 -0.40762018898574409 0 -0.46465781030251008 -0.40709786211266502 0 -0.48907906673978169 -0.42248189320887669 0 -0.47027346574068951 -0.42019542862901532 0 -0.48067539996763747 -0.40762018898574409 0 -0.46880549762337809 -0.4398141714906863 0 -0.48522753666613982 -0.44114851169917491 0 -0.48907906673978169 -0.42248189320887669 0 -0.46880549762337809 -0.4398141714906863 0 -0.48907906673978169 -0.42248189320887669 0 -0.46880549762337809 -0.4398141714906863 0 -0.48907906673978169 -0.42248189320887669 0 -0.47027346574068951 -0.42019542862901532 0 -0.5 -0.40389095836809691 0 -0.48595230640221382 -0.39136514091031382 0 -0.5 -0.37392985329378992 0 -0.48595230640221382 -0.39136514091031382 0 -0.47665739643672039 -0.37729482658913732 0 -0.5 -0.37392985329378992 0 -0.48067539996763747 -0.40762018898574409 0 -0.5 -0.40389095836809691 0 -0.48595230640221382 -0.39136514091031382 0 -0.48067539996763747 -0.40762018898574409 0 -0.4724287356067115 -0.39408987731480088 0 -0.46465781030251008 -0.40709786211266502 0 -0.48067539996763747 -0.40762018898574409 0 -0.48595230640221382 -0.39136514091031382 0 -0.4724287356067115 -0.39408987731480088 0 -0.48595230640221382 -0.39136514091031382 0 -0.4724287356067115 -0.39408987731480088 0 -0.47665739643672039 -0.37729482658913732 0 -0.4724287356067115 -0.39408987731480088 0 -0.47665739643672039 -0.37729482658913732 0 -0.45761769720875128 -0.37908824133018609 0 -0.4724287356067115 -0.39408987731480088 0 -0.45761769720875128 -0.37908824133018609 0 -0.45278069113892111 -0.39621486051812849 0 -0.4724287356067115 -0.39408987731480088 0 -0.45278069113892111 -0.39621486051812849 0 -0.46465781030251008 -0.40709786211266502 0 -0.4724287356067115 -0.39408987731480088 0 -0.45278069113892111 -0.39621486051812849 0 -0.45278069113892111 -0.39621486051812849 0 -0.43313264667113038 -0.39833984372145498 0 -0.45278069113892111 -0.39621486051812849 0 -0.45096907214725451 -0.41907700760607047 0 -0.43313264667113038 -0.39833984372145498 0 -0.45278069113892111 -0.39621486051812849 0 -0.44034619182871232 -0.38382449584687839 0 -0.43313264667113038 -0.39833984372145498 0 -0.45761769720875128 -0.37908824133018609 0 -0.44034619182871232 -0.38382449584687839 0 -0.44418013679453572 -0.37321616110191708 0 -0.45761769720875128 -0.37908824133018609 0 -0.45278069113892111 -0.39621486051812849 0 -0.44034619182871232 -0.38382449584687839 0 -0.44034619182871232 -0.38382449584687839 0 -0.44418013679453572 -0.37321616110191708 0 -0.43262218022933208 -0.36913794505780761 0 -0.46880549762337809 -0.4398141714906863 0 -0.47027346574068951 -0.42019542862901532 0 -0.45096907214725451 -0.41907700760607047 0 -0.46880549762337809 -0.4398141714906863 0 -0.45096907214725451 -0.41907700760607047 0 -0.44676016875958041 -0.43821810041227122 0 -0.46880549762337809 -0.4398141714906863 0 -0.45096907214725451 -0.41907700760607047 0 -0.45278069113892111 -0.39621486051812849 0 -0.46465781030251008 -0.40709786211266502 0 -0.45096907214725451 -0.41907700760607047 0 -0.47027346574068951 -0.42019542862901532 0 -0.46465781030251008 -0.40709786211266502 0 -0.45096907214725451 -0.41907700760607047 0 -0.45096907214725451 -0.41907700760607047 0 -0.43568255170014702 -0.42901710770720369 0 -0.43177826144270431 -0.41506017757389652 0 -0.45096907214725451 -0.41907700760607047 0 -0.43313264667113038 -0.39833984372145498 0 -0.45096907214725451 -0.41907700760607047 0 -0.43177826144270431 -0.41506017757389652 0 -0.43313264667113038 -0.39833984372145498 0 -0.44676016875958041 -0.43821810041227122 0 -0.45096907214725451 -0.41907700760607047 0 -0.43568255170014702 -0.42901710770720369 0 -0.44676016875958041 -0.43821810041227122 0 -0.43568255170014702 -0.42901710770720369 0 -0.43283835351854272 -0.44422035078723171 0 -0.43568255170014702 -0.42901710770720369 0 -0.43177826144270431 -0.41506017757389652 0 -0.41946367691887648 -0.42931177935468717 0 -0.43568255170014702 -0.42901710770720369 0 -0.41946367691887648 -0.42931177935468717 0 -0.43283835351854272 -0.44422035078723171 0 -0.41946367691887648 -0.42931177935468717 0 -0.43283835351854272 -0.44422035078723171 0 -0.43177826144270431 -0.41506017757389652 0 -0.41946367691887648 -0.42931177935468717 0 -0.42035102108574263 -0.39972220722967711 0 -0.41168271473166601 -0.41444742958105002 0 -0.41946367691887648 -0.42931177935468717 0 -0.42035102108574263 -0.39972220722967711 0 -0.41946367691887648 -0.42931177935468717 0 -0.42035102108574263 -0.39972220722967711 0 -0.41168271473166601 -0.41444742958105002 0 -0.4183898516446356 -0.39993431241541427 0 -0.41168271473166601 -0.41444742958105002 0 -0.41339632147757599 -0.42254858016035979 0 -0.39975156953410862 -0.42434481525310191 0 -0.41339632147757599 -0.42254858016035979 0 -0.41946367691887648 -0.42931177935468717 0 -0.39975156953410862 -0.42434481525310191 0 -0.41946367691887648 -0.42931177935468717 0 -0.39975156953410
[...]
<PointData Scalars="" Vectors="displacement," Tensors="">
<DataArray type="Float64" Name="displacement" NumberOfComponents="3" format="ascii">
-0.034994183351991566 -0.035001392208688163 0 -0.035795320763318234 -0.034111761333799423 0 -0.036014751964305473 -0.0326904831226364 0 -0.034574085423771897 -0.034997127543628451 0 -0.034994183351991566 -0.035001392208688163 0 -0.035795320763318234 -0.034111761333799423 0 -0.034994183351991566 -0.035001392208688163 0 -0.036014751964305473 -0.0326904831226364 0 -0.035001178850692413 -0.031631560644156981 0 -0.034564272457319786 -0.03499991728612039 0 -0.03462874927328323 -0.034890485811656775 0 -0.034563790476562398 -0.034999978365711205 0 -0.033275429202103392 -0.034999960159495351 0 -0.03345505457815804 -0.03568300743570911 0 -0.033275429202103392 -0.034999960159495351 0 -0.03345505457815804 -0.03568300743570911 0 -0.03259534376730621 -0.035767481883220119 0 -0.035795320763318234 -0.034111761333799423 0 -0.036014751964305473 -0.0326904831226364 0 -0.036573693448854791 -0.032788985527144945 0 -0.035795320763318234 -0.034111761333799423 0 -0.036573693448854791 -0.032788985527144945 0 -0.036884473544964248 -0.033226079870232322 0 -0.03462874927328323 -0.034890485811656775 0 -0.034975066804354443 -0.034682501420813173 0 -0.036014751964305473 -0.0326904831226364 0 -0.036359492556340231 -0.03151941058542071 0 -0.035001178850692413 -0.031631560644156981 0 -0.036014751964305473 -0.0326904831226364 0 -0.037009233409710615 -0.031853927862377708 0 -0.036573693448854791 -0.032788985527144945 0 -0.036812704139346772 -0.032383045801248553 0 -0.035393428861857278 -0.031833794383990838 0 -0.036014751964305473 -0.0326904831226364 0 -0.036359492556340231 -0.03151941058542071 0 -0.03773311555839607 -0.031258450336066619 0 -0.036359492556340231 -0.03151941058542071 0 -0.037189501563585678 -0.030752441948864437 0 -0.036005712684459422 -0.030632854171430697 0 -0.036588126913433425 -0.031206463363747321 0 -0.035836007604294597 -0.030346746257616602 0 -0.036359492556340231 -0.03151941058542071 0 -0.035001178850692413 -0.031631560644156981 0 -0.036005712684459422 -0.030632854171430697 0 -0.035001178850692413 -0.031631560644156981 0 -0.035515054069376405 -0.030197801237625194 0 -0.036005712684459422 -0.030632854171430697 0 -0.03123170187864328 -0.033488739463528407 0 -0.032100761422370068 -0.033501549080471142 0 -0.03159041751738554 -0.032943913213597888 0 -0.03123170187864328 -0.033488739463528407 0 -0.032100761422370068 -0.033501549080471142 0 -0.031478825594142043 -0.034041604812613181 0 -0.035393428861857278 -0.031833794383990838 0 -0.032030808155970522 -0.032632160771060521 0 -0.036359492556340231 -0.03151941058542071 0 -0.037239667253388176 -0.030683432433826825 0 -0.03773311555839607 -0.031258450336066619 0 -0.034450647104467526 -0.030202704276328141 0 -0.034121365438543855 -0.029825327693505006 0 -0.033334346931072401 -0.030498451559500296 0 -0.035836007604294597 -0.030346746257616602 0 -0.035393428861857278 -0.031833794383990838 0 -0.03699429977547973 -0.03257596116118134 0 -0.037582266820372849 -0.032519872747928939 0 -0.036884473544964248 -0.033226079870232322 0 -0.037009233409710615 -0.031853927862377708 0 -0.036573693448854791 -0.032788985527144945 0 -0.03699429977547973 -0.03257596116118134 0 -0.033369875826735548 -0.033556177316636536 0 -0.034975066804354443 -0.034682501420813173 0 -0.037009233409710615 -0.031853927862377708 0 -0.03699429977547973 -0.03257596116118134 0 -0.037582266820372849 -0.032519872747928939 0 -0.036573693448854791 -0.032788985527144945 0 -0.03699429977547973 -0.03257596116118134 0 -0.036884473544964248 -0.033226079870232322 0 -0.03123170187864328 -0.033488739463528407 0 -0.03159041751738554 -0.032943913213597888 0 -0.031300404043136415 -0.032622352961075143 0 -0.032266922055371509 -0.036535445467695431 0 -0.03202590317305451 -0.036271813492412659 0 -0.032792887411098343 -0.036131108252643616 0 -0.035393428861857278 -0.031833794383990838 0 -0.033369875826735548 -0.033556177316636536 0 -0.033369875826735548 -0.033556177316636536 0 -0.031202695832970157 -0.035957748424536404 0 -0.0307880831190879 -0.037173933430634028 0 -0.032030252390666585 -0.036105608130696971 0 -0.030878834096878898 -0.036024955880160907 0 -0.031202695832970157 -0.035957748424536404 0 -0.032311251101324524 -0.036011638703096364 0 -0.03202590317305451 -0.036271813492412659 0 -0.03259534376730621 -0.035767481883220119 0 -0.032792887411098343 -0.036131108252643616 0 -0.03345505457815804 -0.03568300743570911 0 -0.03259534376730621 -0.035767481883220119 0 -0.032792887411098343 -0.036131108252643616 0 -0.033274954966274743 -0.035000001956313635 0 -0.032030252390666585 -0.036105608130696971 0 -0.032466932277959736 -0.034999997133865382 0 -0.032030252390666585 -0.036105608130696971 0 -0.032466932277959736 -0.034999997133865382 0 -0.030878834096878898 -0.036024955880160907 0 -0.033236731365628575 -0.03503627718231777 0 -0.032311251101324524 -0.036011638703096364 0 -0.032466932277959736 -0.034999997133865382 0 -0.030878834096878898 -0.036024955880160907 0 -0.030369605237397825 -0.034999976219786531 0 -0.030878834096878898 -0.036024955880160907 0 -0.029550029983754746 -0.035749164999171884 0 -0.030369605237397825 -0.034999976219786531 0 -0.029550029983754746 -0.035749164999171884 0 -0.030369605237397825 -0.034999976219786531 0 -0.028272320553268712 -0.034999970177322155 0 -0.029550029983754746 -0.035749164999171884 0 -0.028514756979682216 -0.036302118731632256 0 -0.028272320553268712 -0.034999970177322155 0 -0.029361452005559674 -0.036984424454291911 0 -0.028514756979682216 -0.036302118731632256 0 -0.028475468791657403 -0.037360339698433991 0 -0.029550029983754746 -0.035749164999171884 0 -0.029361452005559674 -0.036984424454291911 0 -0.028514756979682216 -0.036302118731632256 0 -0.0307880831190879 -0.037173933430634028 0 -0.030878834096878898 -0.036024955880160907 0 -0.029550029983754746 -0.035749164999171884 0 -0.031202695832970157 -0.035957748424536404 0 -0.029560832933971101 -0.036175394176594058 0 -0.030652913421436393 -0.037071134741882991 0 -0.029550029983754746 -0.035749164999171884 0 -0.029361452005559674 -0.036984424454291911 0 -0.028272320553268712 -0.034999970177322155 0 -0.027381083170956715 -0.035948569735679399 0 -0.026175078539687133 -0.034999968361941948 0 -0.027381083170956715 -0.035948569735679399 0 -0.026393030569545905 -0.03657789838985076 0 -0.026175078539687133 -0.034999968361941948 0 -0.028514756979682216 -0.036302118731632256 0 -0.028272320553268712 -0.034999970177322155 0 -0.027381083170956715 -0.035948569735679399 0 -0.028514756979682216 -0.036302118731632256 0 -0.027553103284066096 -0.036857539973477342 0 -0.028475468791657403 -0.037360339698433991 0 -0.028514756979682216 -0.036302118731632256 0 -0.027381083170956715 -0.035948569735679399 0 -0.027553103284066096 -0.036857539973477342 0 -0.027381083170956715 -0.035948569735679399 0 -0.027553103284066096 -0.036857539973477342 0 -0.026393030569545905 -0.03657789838985076 0 -0.027553103284066096 -0.036857539973477342 0 -0.026393030569545905 -0.03657789838985076 0 -0.02648161928091108 -0.037828689886666163 0 -0.027553103284066096 -0.036857539973477342 0 -0.02648161928091108 -0.037828689886666163 0 -0.027573124919912446 -0.038123834927976955 0 -0.027553103284066096 -0.036857539973477342 0 -0.027774695589023509 -0.038121479908629942 0 -0.028475468791657403 -0.037360339698433991 0 -0.027541495052445797 -0.036779044034943531 0 -0.027708798899701233 -0.03859164008509814 0 -0.027708798899701233 -0.03859164008509814 0 -0.027878893290592968 -0.036755568947242932 0 -0.027774695589023509 -0.038121479908629942 0 -0.029268381570978396 -0.038232577477775177 0 -0.027919974301627928 -0.039344140883141802 0 -0.027573124919912446 -0.038123834927976955 0 -0.026755599177960557 -0.038885614937253246 0 -0.027650821958718742 -0.03931178283649743 0 -0.02648161928091108 -0.037828689886666163 0 -0.026755599177960557 -0.038885614937253246 0 -0.026079340025681817 -0.038657606559543457 0 -0.02648161928091108 -0.037828689886666163 0 -0.027573124919912446 -0.038123834927976955 0 -0.026755599177960557 -0.038885614937253246 0 -0.026755599177960557 -0.038885614937253246 0 -0.026079340025681817 -0.038657606559543457 0 -0.025810264144722986 -0.039359616162864021 0 -0.030652913421436393 -0.037071134741882991 0 -0.029361452005559674 -0.036984424454291911 0 -0.029268381570978396 -0.038232577477775177 0 -0.031202695832970157 -0.035957748424536404 0 -0.030021943801329165 -0.035559217051576227 0 -0.03123170187864328 -0.033488739463528407 0 -0.031300404043136415 -0.032622352961075143 0 -0.030443734952208017 -0.033327282653756181 0 -0.027774695589023509 -0.038121479908629942 0 -0.028475468791657403 -0.037360339698433991 0 -0.029268381570978396 -0.038232577477775177 0 -0.029361452005559674 -0.036984424454291911 0 -0.028475468791657403 -0.037360339698433991 0 -0.029268381570978396 -0.038232577477775177 0 -0.030443734952208017 -0.033327282653756181 0 -0.030850541849871758 -0.033930642256187436 0 -0.030272152184459198 -0.034088656165050794 0 -0.030021943801329165 -0.035559217051576227 0 -0.027878893290592968 -0.036755568947242932 0 -0.030443734952208017 -0.033327282653756181 0 -0.030272152184459198 -0.034088656165050794 0 -0.029579350453206851 -0.03404040340922368 0 -0.03123170187864328 -0.033488739463528407 0 -0.030443734952208017 -0.033327282653756181 0 -0.030850541849871758 -0.033930642256187436 0 -0.03123170187864328 -0.033488739463528407 0 -0.030850541849871758 -0.033930642256187436 0 -0.031478825594142043 -0.034041604812613181 0 -0.030850541849871758 -0.033930642256187436 0 -0.030272152184459198 -0.034088656165050794 0 -0.030861015400186112 -0.034572807862193668 0 -0.030850541849871758 -0.033930642256187436 0 -0.030861015400186112 -0.034572807862193668 0 -0.031478825594142043 -0.034041604812613181 0 -0.031229584274542269 -0.030522874446743394 0 -0.032030808155970522 -0.032632160771060521 0 -0.030272152184459198 -0.034088656165050794 0 -0.030861015400186112 -0.034572807862193668 0 -0.029633977186836129 -0.034543109415648587 0 -0.030101054760005533 -0.028254237303343949 0 -0.030756073965627739 -0.02791516183084583 0 -0.029445627380733343 -0.027904713126339169 0 -0.031229584274542269 -0.030522874446743394 0 -0.02823401342638697 -0.031504203074770261 0 -0.030252303107459428 -0.028478878125132136 0 -0.027513467798893035 -0.029738117004690565 0 -0.030101054760005533 -0.028254237303343949 0 -0.030458576034828981 -0.028172709422278591 0 -0.030531434354633812 -0.028750772033166425 0 -0.030458576034828981 -0.028172709422278591 0 -0.030772632004034794 -0.027900851118814796 0 -0.030531434354633812 -0.028750772033166425 0 -0.030772632004034794 -0.027900851118814796 0 -0.030531434354633812 -0.028750772033166425 0 -0.031481411566793842 -0.027918145960593117 0 -0.031950979701744521 -0.025119155665514838 0 -0.033385173139946489 -0.02770706625632224 0 -0.031229584274542269 -0.030522874446743394 0 -0.033385173139946489 -0.02770706625632224 0 -0.030101054760005533 -0.028254237303343949 0 -0.030458576034828981 -0.028172709422278591 0 -0.030756073965627739 -0.02791516183084583 0 -0.031293071434905631 -0.028847898875597425 0 -0.031229584274542269 -0.030522874446743394 0 -0.026755599177960557 -0.038885614937253246 0 -0.026982676661899112 -0.039861305530609598 0 -0.027650821958718742 -0.03931178283649743 0 -0.019470276752477696 -0.032578712535879392 0 -0.020247227548170679 -0.032996634008700065 0 -0.020023783807154007 -0.03244868058197755 0 -0.024341706213929216 -0.033782450938653945 0 -0.022867053462700366 -0.036214592113347086 0 -0.026755599177960557 -0.038885614937253246 0 -0.026982676661899112 -0.039861305530609598 0 -0.025810264144722986 -0.039359616162864021 0 -0.019470276752477696 -0.032578712535879392 0 -0.019623142171463652 -0.03244330139219434 0 -0.020023783807154007 -0.03244868058197755 0 -0.024341706213929216 -0.033782450938653945 0 -0.021684053450330885 -0.032236213950346683 0 -0.030272152184459198 -0.034088656165050794 0 -0.029579350453206851 -0.03404040340922368 0 -0.029633977186836129 -0.034543109415648587 0 -0.024341706213929216 -0.033782450938653945 0 -0.027878893290592968 -0.036755568947242932 0 -0.02694490198046064 -0.033730132128348654 0 -0.026461921730611224 -0.034168118310970982 0 -0.026592516674945388 -0.033560036046909318 0 -0.026461921730611224 -0.034168118310970982 0 -0.026393168660375672 -0.033552338637003534 0 -0.026592516674945388 -0.033560036046909318 0 -0.024341706213929216 -0.033782450938653945 0 -0.025570676698917234 -0.031330483126281318 0 -0.027878893290592968 -0.036755568947242932 0 -0.02823401342638697 -0.031504203074770261 0 -0.027513467798893035 -0.029738117004690565 0 -0.025857793065633558 -0.029668377141231463 0 -0.022495747623106067 -0.02986429701624636 0 -0.022336741983256133 -0.030061495212483091 0 -0.022371087920647178 -0.0302802732009512 0 -0.030101054760005533 -0.028254237303343949 0 -0.029482658487530469 -0.027986831203137559 0 -0.029579364305378834 -0.028758744449110762 0 -0.030101054760005533 -0.028254237303343949 0 -0.029445627380733343 -0.027904713126339169 0 -0.029454944991024804 -0.027988871678666091 0 -0.02823401342638697 -0.031504203074770261 0 -0.027513467798893035 -0.029738117004690565 0 -0.022495747623106067 -0.02986429701624636 0 -0.022336741983256133 -0.030061495212483091 0 -0.022369406842417141 -0.029763373304094554 0 -0.022336741983256133 -0.030061495212483091 0 -0.022369406842417141 -0.029763373304094554 0 -0.022120028299805902 -0.029974074186072786 0 -0.028097086045500687 -0.030985370371536498 0 -0.028186494799663786 -0.031806317873471261 0 -0.026284063677967942 -0.030934468983662155 0 -0.027513467798893035 -0.029738117004690565 0 -0.025570676698917234 -0.031330483126281318 0 -0.02823401342638697 -0.031504203074770261 0 -0.025570676698917234 -0.031330483126281318 0 -0.02363515337290072 -0.031417521143967599 0 -0.025208731845328063 -0.032136316019324984 0 -0.022870121542306023 -0.0320737842049948 0 -0.021949953675152022 -0.02964809233149724 0 -0.022120028299805902 -0.029974074186072786 0 -0.021893820791191749 -0.030004413782467588 0 -0.022369406842417141 -0.029763373304094554 0 -0.021949953675152022 -0.02964809233149724 0 -0.022120028299805902 -0.029974074186072786 0 -0.025570676698917234 -0.031330483126281318 0 -0.021684053450330885 -0.032236213950346683 0 -0.022120028299805902 -0.029974074186072786 0 -0.021916082814646083 -0.030182291087992599 0 -0.022248218773434671 -0.030316142543678773 0 -0.022336741983256133 -0.030061495212483091 0 -0.022120028299805902 -0.029974074186072786 0 -0.022248218773434671 -0.030316142543678773 0 -0.022120028299805902 -0.029974074186072786 0 -0.021916082814646083 -0.030182291087992599 0 -0.021893820791191749 -0.030004413782467588 0 -0.021949953675152022 -0.02964809233149724 0 -0.021893820791191749 -0.030004413782467588 0 -0.02159130797127019 -0.03018040307747703 0 -0.021916082814646083 -0.030182291087992599 0 -0.021893820791191749 -0.030004413782467588 0 -0.02159130797127019 -0.03018040307747703 0 -0.021684053450330885 -0.032236213950346683 0 -0.019734003561027627 -0.03233328386343047 0 -0.019559512562643672 -0.032433650093558086 0 -0.020023783807154007 -0.03244868058197755 0 -0.020251014588677167 -0.032135260801446519 0 -0.021740262100876741 -0.030467989346819113 0 -0.022248218773434671 -0.030316142543678773 0 -0.02174782139214269 -0.031692754468830638 0 -0.021740262100876741 -0.030467989346819113 0 -0.02174782139214269 -0.031692754468830638 0 -0.021308594809054747 -0.030742015481372557 0 -0.02159130797127019 -0.03018040307747703 0 -0.021740262100876741 -0.030467989346819113 0 -0.021308594809054747 -0.030742015481372557 0 -0.021916082814646083 -0.030182291087992599 0 -0.02159130797127019 -0.03018040307747703 0 -0.021740262100876741 -0.030467989346819113 0 -0.021916082814646083 -0.030182291087992599 0 -0.021740262100876741 -0.030467989346819113 0 -0.022248218773434671 -0.030316142543678773 0 -0.029579364305378834 -0.028758744449110762 0 -0.029656917727643006 -0.029509786309131029 0 -0.029967190414315927 -0.028821791563329115 0 -0.022248218773434671 -0.030316142543678773 0 -0.022371087920647178 -0.0302802732009512 0 -0.0223673445164605 -0.030167760471568231 0 -0.022336741983256133 -0.030061495212483091 0 -0.022248218773434671 -0.030316142543678773 0 -0.022371087920647178 -0.0302802732009512 0 -0.025857793065633558 -0.029668377141231463 0 -0.028847628414687382 -0.027599865173506124 0 -0.022371087920647178 -0.0302802732009512 0 -0.022283347467691582 -0.030070788526291289 0 -0.0223673445164605 -0.030167760471568231 0 -0.028847628414687382 -0.027599865173506124 0 -0.029045231224314603 -0.026376493201839574 0 -0.022283347467691582 -0.030070788526291289 0 -0.022430898496246496 -0.030019463717704014 0 -0.0223673445164605 -0.030167760471568231 0 -0.022577799814130849 -0.030160294953645195 0 -0.021320889476154254 -0.03103180320942988 0 -0.022248218773434671 -0.030316142543678773 0 -0.0223673445164605 -0.030167760471568231 0 -0.02258660179412177 -0.030039743424536948 0 -0.02211652377969698 -0.030641776899583056 0 -0.022577799814130849 -0.030160294953645195 0 -0.022430898496246496 -0.030019463717704014 0 -0.0223673445164605 -0.030167760471568231 0 -0.02258660179412177 -0.030039743424536948 0 -0.032720256408434303 -0.022827403548512287 0 -0.033383066227470691 -0.023516261658969664 0 -0.03378280059225712 -0.022684318703742313 0 -0.029656917727643006 -0.029509786309131029 0 -0.030531434354633812 -0.028750772033166425 0 -0.029967190414315927 -0.028821791563329115 0 -0.030101054760005533 -0.028254237303343949 0 -0.030531434354633812 -0.028750772033166425 0 -0.029967190414315927 -0.028821791563329115 0 -0.030101054760005533 -0.028254237303343949 0 -0.029579364305378834 -0.028758744449110762 0 -0.029967190414315927 -0.028821791563329115 0 -0.031438694355750009 -0.023859777789664686 0 -0.032002188900600893 -0.024101976090602301 0 -0.032485853353518016 -0.023859784348590596 0 -0.031438694355750009 -0.023859777789664686 0 -0.032720256408434303 -0.022827403548512287 0 -0.032485853353518016 -0.023859784348590596 0 -0.028847628414687382 -0.027599865173506124 0 -0.031950979701744521 -0.025119155665514838 0 -0.031438694355750009 -0.023859777789664686 0 -0.031446493575091529 -0.02406207389826295 0 -0.032002188900600893 -0.024101976090602301 0 -0.031446493575091529 -0.02406207389826295 0 -0.032002188900600893 -0.024101976090602301 0 -0.031700521789324247 -0.024305796768664175 0 -0.032720256408434303 -0.022827403548512287 0 -0.032485853353518016 -0.023859784348590596 0 -0.033383066227470691 -0.023516261658969664 0 -0.032485853353518016 -0.023859784348590596 0 -0.033383066227470691 -0.023516261658969664 0 -0.033163805813756136 -0.024220612517031764 0 -0.033383066227470691 -0.023516261658969664 0 -0.034020139332205518 -0.024202767929800601 0 -0.033163805813756136 -0.024220612517031764 0 -0.033383066227470691 -0.023516261658969664 0 -0.034657216694939583 -0.023257695067469011 0 -0.034020139332205518 -0.024202767929800601 0 -0.03378280059225712 -0.022684318703742313 0 -0.034657216694939583 -0.023257695067469011 0 -0.034288303329013732 -0.021933250398770785 0 -0.033383066227470691 -0.023516261658969664 0 -0.03378280059225712 -0.022684318703742313 0 -0.034657216694939583 -0.023257695067469011 0 -0.035952203306299786 -0.024921213671666054 0 -0.035293113586670831 -0.026916908780401788 0 -0.034657216694939583 -0.023257695067469011 0 -0.035075350763494127 -0.024601701690193097 0 -0.034020139332205518 -0.024202767929800601 0 -0.035952203306299786 -0.024921213671666054 0 -0.035823818181679429 -0.02527429402777193 0 -0.037171548268612672 -0.027263293874861844 0 -0.036013623940222242 -0.026619958249759716 0 -0.036594850599845088 -0.025652542423931033 0 -0.036013623940222242 -0.026619958249759716 0 -0.034999857663822964 -0.027887396084905269 0 -0.034999898655950934 -0.02580090293780226 0 -0.036013623940222242 -0.026619958249759716 0 -0.034999857663822964 -0.027887396084905269 0 -0.035973095469305431 -0.027845052457033993 0 -0.034999857663822964