<?xml version="1.0"?>
<VTKFile type="UnstructuredGrid" version="0.1" byte_order="LittleEndian">
<UnstructuredGrid>
<Piece NumberOfPoints="32039" NumberOfCells="11216">
<Points>
<DataArray type="Float64" NumberOfComponents="3" format="ascii">
-0.5 -0.5 0 -0.486893748991236 -0.47821317388190981 0 -0.46515074535418588 -0.48023853771296671 0 -0.49999999999999911 -0.49377427359101772 0 -0.5 -0.5 0 -0.486893748991236 -0.47821317388190981 0 -0.5 -0.5 0 -0.46515074535418588 -0.48023853771296671 0 -0.45188066559079798 -0.5 0 -0.49999999999999911 -0.49377427359101772 0 -0.486893748991236 -0.47821317388190981 0 -0.49999999999999911 -0.49377427359101772 0 -0.49999999999999972 -0.47535666171409469 0 -0.486893748991236 -0.47821317388190981 0 -0.49999999999999972 -0.47535666171409469 0 -0.486893748991236 -0.47821317388190981 0 -0.484090880466301 -0.45758541660239088 0 -0.486893748991236 -0.47821317388190981 0 -0.46515074535418588 -0.48023853771296671 0 -0.4665076984921569 -0.46846999681588292 0 -0.486893748991236 -0.47821317388190981 0 -0.4665076984921569 -0.46846999681588292 0 -0.47378749798247338 -0.4626520741728013 0 -0.486893748991236 -0.47821317388190981 0 -0.47378749798247338 -0.4626520741728013 0 -0.46515074535418588 -0.48023853771296671 0 -0.44968451421394151 -0.47702877896656881 0 -0.45188066559079798 -0.5 0 -0.46515074535418588 -0.48023853771296671 0 -0.44621303011820918 -0.45912892221977591 0 -0.4665076984921569 -0.46846999681588292 0 -0.46515074535418588 -0.48023853771296671 0 -0.44621303011820918 -0.45912892221977591 0 -0.46515074535418588 -0.48023853771296671 0 -0.44968451421394151 -0.47702877896656881 0 -0.44621303011820918 -0.45912892221977591 0 -0.44968451421394151 -0.47702877896656881 0 -0.43875909925509982 -0.46550143626853691 0 -0.43709723153975011 -0.48357950828405333 0 -0.44968451421394151 -0.47702877896656881 0 -0.43875909925509982 -0.46550143626853691 0 -0.44968451421394151 -0.47702877896656881 0 -0.45188066559079798 -0.5 0 -0.43709723153975011 -0.48357950828405333 0 -0.45188066559079798 -0.5 0 -0.43104097279763159 -0.49174081654069779 0 -0.43709723153975011 -0.48357950828405333 0 -0.44676016875958041 -0.43821810041227122 0 -0.44621303011820918 -0.45912892221977591 0 -0.46051765125662431 -0.44689961652311649 0 -0.44676016875958041 -0.43821810041227122 0 -0.44621303011820918 -0.45912892221977591 0 -0.43283835351854272 -0.44422035078723171 0 -0.44621303011820918 -0.45912892221977591 0 -0.43283835351854272 -0.44422035078723171 0 -0.44968451421394151 -0.47702877896656881 0 -0.43875909925509982 -0.46550143626853691 0 -0.44621303011820918 -0.45912892221977591 0 -0.43875909925509982 -0.46550143626853691 0 -0.44621303011820918 -0.45912892221977591 0 -0.43283835351854272 -0.44422035078723171 0 -0.43875909925509982 -0.46550143626853691 0 -0.44621303011820918 -0.45912892221977591 0 -0.4616524907941979 -0.45964457904847411 0 -0.46051765125662431 -0.44689961652311649 0 -0.47378749798247338 -0.4626520741728013 0 -0.44621303011820918 -0.45912892221977591 0 -0.4665076984921569 -0.46846999681588292 0 -0.4616524907941979 -0.45964457904847411 0 -0.46051765125662431 -0.44689961652311649 0 -0.47378749798247338 -0.4626520741728013 0 -0.44621303011820918 -0.45912892221977591 0 -0.4616524907941979 -0.45964457904847411 0 -0.46051765125662431 -0.44689961652311649 0 -0.4665076984921569 -0.46846999681588292 0 -0.4616524907941979 -0.45964457904847411 0 -0.47378749798247338 -0.4626520741728013 0 -0.44676016875958041 -0.43821810041227122 0 -0.46051765125662431 -0.44689961652311649 0 -0.46880549762337809 -0.4398141714906863 0 -0.46051765125662431 -0.44689961652311649 0 -0.46880549762337809 -0.4398141714906863 0 -0.47378749798247338 -0.4626520741728013 0 -0.44621303011820918 -0.45912892221977591 0 -0.46051765125662431 -0.44689961652311649 0 -0.46051765125662431 -0.44689961652311649 0 -0.46880549762337809 -0.4398141714906863 0 -0.46880549762337809 -0.4398141714906863 0 -0.484090880466301 -0.45758541660239088 0 -0.48522753666613982 -0.44114851169917491 0 -0.46880549762337809 -0.4398141714906863 0 -0.484090880466301 -0.45758541660239088 0 -0.46880549762337809 -0.4398141714906863 0 -0.484090880466301 -0.45758541660239088 0 -0.47378749798247338 -0.4626520741728013 0 -0.486893748991236 -0.47821317388190981 0 -0.484090880466301 -0.45758541660239088 0 -0.47378749798247338 -0.4626520741728013 0 -0.49999999999999972 -0.47535666171409469 0 -0.484090880466301 -0.45758541660239088 0 -0.5 -0.46381316851671073 0 -0.484090880466301 -0.45758541660239088 0 -0.5 -0.46381316851671073 0 -0.48522753666613982 -0.44114851169917491 0 -0.49999999999999972 -0.47535666171409469 0 -0.484090880466301 -0.45758541660239088 0 -0.5 -0.46381316851671073 0 -0.48522753666613982 -0.44114851169917491 0 -0.5 -0.43385206344240379 0 -0.48522753666613982 -0.44114851169917491 0 -0.48907906673978169 -0.42248189320887669 0 -0.5 -0.43385206344240379 0 -0.48907906673978169 -0.42248189320887669 0 -0.5 -0.43385206344240379 0 -0.5 -0.40389095836809691 0 -0.48907906673978169 -0.42248189320887669 0 -0.48067539996763747 -0.40762018898574409 0 -0.5 -0.40389095836809691 0 -0.47027346574068951 -0.42019542862901532 0 -0.48067539996763747 -0.40762018898574409 0 -0.46465781030251008 -0.40709786211266502 0 -0.48907906673978169 -0.42248189320887669 0 -0.47027346574068951 -0.42019542862901532 0 -0.48067539996763747 -0.40762018898574409 0 -0.46880549762337809 -0.4398141714906863 0 -0.48522753666613982 -0.44114851169917491 0 -0.48907906673978169 -0.42248189320887669 0 -0.46880549762337809 -0.4398141714906863 0 -0.48907906673978169 -0.42248189320887669 0 -0.46880549762337809 -0.4398141714906863 0 -0.48907906673978169 -0.42248189320887669 0 -0.47027346574068951 -0.42019542862901532 0 -0.5 -0.40389095836809691 0 -0.48595230640221382 -0.39136514091031382 0 -0.5 -0.37392985329378992 0 -0.48595230640221382 -0.39136514091031382 0 -0.47665739643672039 -0.37729482658913732 0 -0.5 -0.37392985329378992 0 -0.48067539996763747 -0.40762018898574409 0 -0.5 -0.40389095836809691 0 -0.48595230640221382 -0.39136514091031382 0 -0.48067539996763747 -0.40762018898574409 0 -0.4724287356067115 -0.39408987731480088 0 -0.46465781030251008 -0.40709786211266502 0 -0.48067539996763747 -0.40762018898574409 0 -0.48595230640221382 -0.39136514091031382 0 -0.4724287356067115 -0.39408987731480088 0 -0.48595230640221382 -0.39136514091031382 0 -0.4724287356067115 -0.39408987731480088 0 -0.47665739643672039 -0.37729482658913732 0 -0.4724287356067115 -0.39408987731480088 0 -0.47665739643672039 -0.37729482658913732 0 -0.45761769720875128 -0.37908824133018609 0 -0.4724287356067115 -0.39408987731480088 0 -0.45761769720875128 -0.37908824133018609 0 -0.45278069113892111 -0.39621486051812849 0 -0.4724287356067115 -0.39408987731480088 0 -0.45278069113892111 -0.39621486051812849 0 -0.46465781030251008 -0.40709786211266502 0 -0.4724287356067115 -0.39408987731480088 0 -0.45278069113892111 -0.39621486051812849 0 -0.45278069113892111 -0.39621486051812849 0 -0.43313264667113038 -0.39833984372145498 0 -0.45278069113892111 -0.39621486051812849 0 -0.45096907214725451 -0.41907700760607047 0 -0.43313264667113038 -0.39833984372145498 0 -0.45278069113892111 -0.39621486051812849 0 -0.44034619182871232 -0.38382449584687839 0 -0.43313264667113038 -0.39833984372145498 0 -0.45761769720875128 -0.37908824133018609 0 -0.44034619182871232 -0.38382449584687839 0 -0.44418013679453572 -0.37321616110191708 0 -0.45761769720875128 -0.37908824133018609 0 -0.45278069113892111 -0.39621486051812849 0 -0.44034619182871232 -0.38382449584687839 0 -0.44034619182871232 -0.38382449584687839 0 -0.44418013679453572 -0.37321616110191708 0 -0.43262218022933208 -0.36913794505780761 0 -0.46880549762337809 -0.4398141714906863 0 -0.47027346574068951 -0.42019542862901532 0 -0.45096907214725451 -0.41907700760607047 0 -0.46880549762337809 -0.4398141714906863 0 -0.45096907214725451 -0.41907700760607047 0 -0.44676016875958041 -0.43821810041227122 0 -0.46880549762337809 -0.4398141714906863 0 -0.45096907214725451 -0.41907700760607047 0 -0.45278069113892111 -0.39621486051812849 0 -0.46465781030251008 -0.40709786211266502 0 -0.45096907214725451 -0.41907700760607047 0 -0.47027346574068951 -0.42019542862901532 0 -0.46465781030251008 -0.40709786211266502 0 -0.45096907214725451 -0.41907700760607047 0 -0.45096907214725451 -0.41907700760607047 0 -0.43568255170014702 -0.42901710770720369 0 -0.43177826144270431 -0.41506017757389652 0 -0.45096907214725451 -0.41907700760607047 0 -0.43313264667113038 -0.39833984372145498 0 -0.45096907214725451 -0.41907700760607047 0 -0.43177826144270431 -0.41506017757389652 0 -0.43313264667113038 -0.39833984372145498 0 -0.44676016875958041 -0.43821810041227122 0 -0.45096907214725451 -0.41907700760607047 0 -0.43568255170014702 -0.42901710770720369 0 -0.44676016875958041 -0.43821810041227122 0 -0.43568255170014702 -0.42901710770720369 0 -0.43283835351854272 -0.44422035078723171 0 -0.43568255170014702 -0.42901710770720369 0 -0.43177826144270431 -0.41506017757389652 0 -0.41946367691887648 -0.42931177935468717 0 -0.43568255170014702 -0.42901710770720369 0 -0.41946367691887648 -0.42931177935468717 0 -0.43283835351854272 -0.44422035078723171 0 -0.41946367691887648 -0.42931177935468717 0 -0.43283835351854272 -0.44422035078723171 0 -0.43177826144270431 -0.41506017757389652 0 -0.41946367691887648 -0.42931177935468717 0 -0.42035102108574263 -0.39972220722967711 0 -0.41168271473166601 -0.41444742958105002 0 -0.41946367691887648 -0.42931177935468717 0 -0.42035102108574263 -0.39972220722967711 0 -0.41946367691887648 -0.42931177935468717 0 -0.42035102108574263 -0.39972220722967711 0 -0.41168271473166601 -0.41444742958105002 0 -0.4183898516446356 -0.39993431241541427 0 -0.41168271473166601 -0.41444742958105002 0 -0.41339632147757599 -0.42254858016035979 0 -0.39975156953410862 -0.42434481525310191 0 -0.41339632147757599 -0.42254858016035979 0 -0.41946367691887648 -0.42931177935468717 0 -0.39975156953410862 -0.42434481525310191 0 -0.41946367691887648 -0.42931177935468717 0 -0.39975156953410
[...]
<PointData Scalars="" Vectors="displacement," Tensors="">
<DataArray type="Float64" Name="displacement" NumberOfComponents="3" format="ascii">
-9.8843408688736264e-07 -0.034997293194979663 0 2.6501379674157971e-05 -0.034848726632681529 0 1.5533981972913433e-05 -0.034932407099008522 0 1.5496703222511665e-06 -0.034568582238039491 0 -9.8843408688736264e-07 -0.034997293194979663 0 2.6501379674157971e-05 -0.034848726632681529 0 -9.8843408688736264e-07 -0.034997293194979663 0 1.5533981972913433e-05 -0.034932407099008522 0 2.8102515590879941e-07 -0.035000622404364481 0 -9.8805632813707091e-08 -0.034563879090064531 0 -5.9420542471562134e-05 -0.034106147895364543 0 1.5186841056033659e-07 -0.03456146249442793 0 -1.5057864238321985e-07 -0.033277669760375717 0 -5.8775038086427763e-06 -0.03337226100340384 0 -1.5057864238321985e-07 -0.033277669760375717 0 -5.8775038086427763e-06 -0.03337226100340384 0 6.1241612807023393e-05 -0.033351805810176806 0 2.6501379674157971e-05 -0.034848726632681529 0 1.5533981972913433e-05 -0.034932407099008522 0 4.4212016020942104e-05 -0.034911137825744856 0 2.6501379674157971e-05 -0.034848726632681529 0 4.4212016020942104e-05 -0.034911137825744856 0 5.6815908767196556e-05 -0.034890952929941536 0 -5.9420542471562134e-05 -0.034106147895364543 0 0.00010686653355008857 -0.034234142711646522 0 1.5533981972913433e-05 -0.034932407099008522 0 2.1143637926223911e-05 -0.034965859599934798 0 2.8102515590879941e-07 -0.035000622404364481 0 1.5533981972913433e-05 -0.034932407099008522 0 6.3055285171056161e-05 -0.034901504190450662 0 4.4212016020942104e-05 -0.034911137825744856 0 7.2552520712422636e-05 -0.035581303888309858 0 0.00037534237674877961 -0.032926171084868651 0 1.5533981972913433e-05 -0.034932407099008522 0 2.1143637926223911e-05 -0.034965859599934798 0 5.4532308109086447e-05 -0.034957326487192679 0 2.1143637926223911e-05 -0.034965859599934798 0 3.3515185854781299e-05 -0.034978951075226687 0 1.1311905187301463e-05 -0.03498773504765517 0 0.00022158416211445628 -0.035090098543454795 0 1.6286528599568674e-05 -0.033902062033805129 0 2.1143637926223911e-05 -0.034965859599934798 0 2.8102515590879941e-07 -0.035000622404364481 0 1.1311905187301463e-05 -0.03498773504765517 0 2.8102515590879941e-07 -0.035000622404364481 0 3.9342112393306107e-06 -0.034995904655012178 0 1.1311905187301463e-05 -0.03498773504765517 0 0.00023896706671929123 -0.029951179721285529 0 0.00082104779996550312 -0.029959194542993894 0 0.00047987918774333493 -0.030348107312061331 0 0.00023896706671929123 -0.029951179721285529 0 0.00082104779996550312 -0.029959194542993894 0 0.00040760333033659497 -0.029562104837770879 0 0.00037534237674877961 -0.032926171084868651 0 2.8230207658440325e-05 -0.030620320871422527 0 2.1143637926223911e-05 -0.034965859599934798 0 4.3234965787722975e-05 -0.034967190319401646 0 5.4532308109086447e-05 -0.034957326487192679 0 0.00076028763539284945 -0.032247885377999545 0 0.00048253516005321409 -0.032571258496569527 0 -0.00016512476293523878 -0.031973764358122825 0 1.6286528599568674e-05 -0.033902062033805129 0 0.00037534237674877961 -0.032926171084868651 0 5.7265841785022257e-05 -0.034902223848235582 0 6.6507572290539236e-05 -0.034893326568861391 0 5.6815908767196556e-05 -0.034890952929941536 0 6.3055285171056161e-05 -0.034901504190450662 0 4.4212016020942104e-05 -0.034911137825744856 0 5.7265841785022257e-05 -0.034902223848235582 0 0.00028070349591217199 -0.03297403140262551 0 0.00010686653355008857 -0.034234142711646522 0 6.3055285171056161e-05 -0.034901504190450662 0 5.7265841785022257e-05 -0.034902223848235582 0 6.6507572290539236e-05 -0.034893326568861391 0 4.4212016020942104e-05 -0.034911137825744856 0 5.7265841785022257e-05 -0.034902223848235582 0 5.6815908767196556e-05 -0.034890952929941536 0 0.00023896706671929123 -0.029951179721285529 0 0.00047987918774333493 -0.030348107312061331 0 0.00028324511769845873 -0.030575809857325404 0 4.6184630808820933e-05 -0.033309735542302252 0 3.8614311016054748e-05 -0.033315978123208079 0 5.7580159948318541e-05 -0.03335446771506307 0 0.00037534237674877961 -0.032926171084868651 0 0.00028070349591217199 -0.03297403140262551 0 0.00028070349591217199 -0.03297403140262551 0 0.00053576319896091401 -0.030245617869783303 0 -1.9489987258822863e-05 -0.030665911992232186 0 0.00010052119302976864 -0.030978567071996088 0 -4.0510051531640524e-05 -0.030395326923808707 0 0.00053576319896091401 -0.030245617869783303 0 1.6088052664406513e-05 -0.032447599066334383 0 3.8614311016054748e-05 -0.033315978123208079 0 6.1241612807023393e-05 -0.033351805810176806 0 5.7580159948318541e-05 -0.03335446771506307 0 -5.8775038086427763e-06 -0.03337226100340384 0 6.1241612807023393e-05 -0.033351805810176806 0 5.7580159948318541e-05 -0.03335446771506307 0 9.0065658981476341e-07 -0.033273854919436935 0 0.00010052119302976864 -0.030978567071996088 0 -3.4433329789070635e-07 -0.032466429148431654 0 0.00010052119302976864 -0.030978567071996088 0 -3.4433329789070635e-07 -0.032466429148431654 0 -4.0510051531640524e-05 -0.030395326923808707 0 -1.8024536812621771e-05 -0.032948867030497778 0 1.6088052664406513e-05 -0.032447599066334383 0 -3.4433329789070635e-07 -0.032466429148431654 0 -4.0510051531640524e-05 -0.030395326923808707 0 4.9230956254664689e-07 -0.030368987401851753 0 -4.0510051531640524e-05 -0.030395326923808707 0 0.00027223336247553909 -0.029173112001124057 0 4.9230956254664689e-07 -0.030368987401851753 0 0.00027223336247553909 -0.029173112001124057 0 4.9230956254664689e-07 -0.030368987401851753 0 9.1966580394621007e-08 -0.028271865348092843 0 0.00027223336247553909 -0.029173112001124057 0 7.4615594066045725e-06 -0.027615231451615402 0 9.1966580394621007e-08 -0.028271865348092843 0 0.00042455089625046777 -0.027334880682131534 0 7.4615594066045725e-06 -0.027615231451615402 0 2.881347453082452e-05 -0.026847230548576219 0 0.00027223336247553909 -0.029173112001124057 0 0.00042455089625046777 -0.027334880682131534 0 7.4615594066045725e-06 -0.027615231451615402 0 -1.9489987258822863e-05 -0.030665911992232186 0 -4.0510051531640524e-05 -0.030395326923808707 0 0.00027223336247553909 -0.029173112001124057 0 0.00053576319896091401 -0.030245617869783303 0 0.00052668278549168504 -0.028755143449632481 0 0.0017909726990051459 -0.027259238756525573 0 0.00027223336247553909 -0.029173112001124057 0 0.00042455089625046777 -0.027334880682131534 0 9.1966580394621007e-08 -0.028271865348092843 0 -5.9757267056823416e-05 -0.026912469739267992 0 -3.4136861019079272e-07 -0.026174880427075883 0 -5.9757267056823416e-05 -0.026912469739267992 0 -0.00016070541270743092 -0.025829836309821688 0 -3.4136861019079272e-07 -0.026174880427075883 0 7.4615594066045725e-06 -0.027615231451615402 0 9.1966580394621007e-08 -0.028271865348092843 0 -5.9757267056823416e-05 -0.026912469739267992 0 7.4615594066045725e-06 -0.027615231451615402 0 1.674881621511028e-05 -0.026541186929522974 0 2.881347453082452e-05 -0.026847230548576219 0 7.4615594066045725e-06 -0.027615231451615402 0 -5.9757267056823416e-05 -0.026912469739267992 0 1.674881621511028e-05 -0.026541186929522974 0 -5.9757267056823416e-05 -0.026912469739267992 0 1.674881621511028e-05 -0.026541186929522974 0 -0.00016070541270743092 -0.025829836309821688 0 1.674881621511028e-05 -0.026541186929522974 0 -0.00016070541270743092 -0.025829836309821688 0 -0.00021757819556787064 -0.025273378367437947 0 1.674881621511028e-05 -0.026541186929522974 0 -0.00021757819556787064 -0.025273378367437947 0 0.00031738053169723846 -0.025235001355772568 0 1.674881621511028e-05 -0.026541186929522974 0 -0.00011426085911319784 -0.026596699219934301 0 2.881347453082452e-05 -0.026847230548576219 0 2.1420241007947667e-05 -0.026550373944610118 0 0.00011674293803315286 -0.025676348949961916 0 0.00011674293803315286 -0.025676348949961916 0 6.3872759487941546e-05 -0.026748128657277145 0 -0.00011426085911319784 -0.026596699219934301 0 0.000374016540308021 -0.026434306662608865 0 -6.7729997492733122e-05 -0.026163953600010753 0 0.00031738053169723846 -0.025235001355772568 0 -3.7588183904206127e-05 -0.024904421597307304 0 0.00030339808801125743 -0.024762029071629676 0 -0.00021757819556787064 -0.025273378367437947 0 -3.7588183904206127e-05 -0.024904421597307304 0 -0.00024097330518729773 -0.024950683907827363 0 -0.00021757819556787064 -0.025273378367437947 0 0.00031738053169723846 -0.025235001355772568 0 -3.7588183904206127e-05 -0.024904421597307304 0 -3.7588183904206127e-05 -0.024904421597307304 0 -0.00024097330518729773 -0.024950683907827363 0 -0.00028651747194453144 -0.024823774480863953 0 0.0017909726990051459 -0.027259238756525573 0 0.00042455089625046777 -0.027334880682131534 0 0.000374016540308021 -0.026434306662608865 0 0.00053576319896091401 -0.030245617869783303 0 4.9882261799999005e-05 -0.028214186782736017 0 0.00023896706671929123 -0.029951179721285529 0 0.00028324511769845873 -0.030575809857325404 0 -0.00029636537589895973 -0.030050687316291076 0 -0.00011426085911319784 -0.026596699219934301 0 2.881347453082452e-05 -0.026847230548576219 0 0.000374016540308021 -0.026434306662608865 0 0.00042455089625046777 -0.027334880682131534 0 2.881347453082452e-05 -0.026847230548576219 0 0.000374016540308021 -0.026434306662608865 0 -0.00029636537589895973 -0.030050687316291076 0 -1.7211809835169107e-05 -0.029628625513281374 0 -0.00040464231040880042 -0.029505112645602429 0 4.9882261799999005e-05 -0.028214186782736017 0 6.3872759487941546e-05 -0.026748128657277145 0 -0.00029636537589895973 -0.030050687316291076 0 -0.00040464231040880042 -0.029505112645602429 0 -0.00086759709995061333 -0.029525389137700812 0 0.00023896706671929123 -0.029951179721285529 0 -0.00029636537589895973 -0.030050687316291076 0 -1.7211809835169107e-05 -0.029628625513281374 0 0.00023896706671929123 -0.029951179721285529 0 -1.7211809835169107e-05 -0.029628625513281374 0 0.00040760333033659497 -0.029562104837770879 0 -1.7211809835169107e-05 -0.029628625513281374 0 -0.00040464231040880042 -0.029505112645602429 0 -8.1734717358691594e-06 -0.029172852940527599 0 -1.7211809835169107e-05 -0.029628625513281374 0 -8.1734717358691594e-06 -0.029172852940527599 0 0.00040760333033659497 -0.029562104837770879 0 -0.00016144664099737645 -0.02999836545785135 0 2.8230207658440325e-05 -0.030620320871422527 0 -0.00040464231040880042 -0.029505112645602429 0 -8.1734717358691594e-06 -0.029172852940527599 0 -0.00082709062335245759 -0.029171624256864981 0 0.00014889741534953224 -0.029123261552245729 0 0.00012765893556781143 -0.029133311961255078 0 0.00016905599603674813 -0.029090751949864182 0 -0.00016144664099737645 -0.02999836545785135 0 -5.5675970790285675e-05 -0.027554175980882896 0 -0.00013103613686810239 -0.029132317589687342 0 0.00017510639650079274 -0.027041635093829834 0 0.00014889741534953224 -0.029123261552245729 0 0.00013776217182723618 -0.029135967720546961 0 0.00013743232512090445 -0.029145442257917775 0 0.00013776217182723618 -0.029135967720546961 0 0.00013716289671545983 -0.029150850397373151 0 0.00013743232512090445 -0.029145442257917775 0 0.00013716289671545983 -0.029150850397373151 0 0.00013743232512090445 -0.029145442257917775 0 0.00014015457026435841 -0.029171506154308254 0 -0.00011571679602496086 -0.031652966952262288 0 -0.00015075063661030137 -0.031823707546434168 0 -0.00016144664099737645 -0.02999836545785135 0 -0.00015075063661030137 -0.031823707546434168 0 0.00014889741534953224 -0.029123261552245729 0 0.00013776217182723618 -0.029135967720546961 0 0.00012765893556781143 -0.029133311961255078 0 -0.00013352676469940213 -0.029423208316854819 0 -0.00016144664099737645 -0.02999836545785135 0 -3.7588183904206127e-05 -0.024904421597307304 0 5.4611467767240364e-05 -0.024594194262865052 0 0.00030339808801125743 -0.024762029071629676 0 0.00041330843062606441 -0.023259365885247726 0 0.00024441540354800659 -0.02332890477463757 0 0.00029150063754563823 -0.023223326902371222 0 0.00028213621545027654 -0.024728518785672209 0 -2.4290304878038034e-05 -0.024043305400459267 0 -3.7588183904206127e-05 -0.024904421597307304 0 5.4611467767240364e-05 -0.024594194262865052 0 -0.00028651747194453144 -0.024823774480863953 0 0.00041330843062606441 -0.023259365885247726 0 0.00037989070636849866 -0.023228176695144157 0 0.00029150063754563823 -0.023223326902371222 0 0.00028213621545027654 -0.024728518785672209 0 0.00027115363991774558 -0.023970669207473157 0 -0.00040464231040880042 -0.029505112645602429 0 -0.00086759709995061333 -0.029525389137700812 0 -0.00082709062335245759 -0.029171624256864981 0 0.00028213621545027654 -0.024728518785672209 0 6.3872759487941546e-05 -0.026748128657277145 0 0.0001705925863031989 -0.026195034619023703 0 0.0002682324235763214 -0.026285128240672338 0 0.00024115623120565642 -0.026166327428737035 0 0.0002682324235763214 -0.026285128240672338 0 0.00028074607984997766 -0.026167235922564893 0 0.00024115623120565642 -0.026166327428737035 0 0.00028213621545027654 -0.024728518785672209 0 0.00030808409291358197 -0.026060727851906225 0 6.3872759487941546e-05 -0.026748128657277145 0 -5.5675970790285675e-05 -0.027554175980882896 0 0.00017510639650079274 -0.027041635093829834 0 0.00015485762143282298 -0.025813048618550313 0 0.00026871384845031349 -0.023209518439896916 0 0.00037131548702956549 -0.02338080265885091 0 3.4317292961431842e-06 -0.023725653082533563 0 0.00014889741534953224 -0.029123261552245729 0 0.00018607385972157356 -0.029080485888095205 0 0.00017492812406577778 -0.029130998229034453 0 0.00014889741534953224 -0.029123261552245729 0 0.00016905599603674813 -0.029090751949864182 0 0.00016909875020230074 -0.029094536713386181 0 -5.5675970790285675e-05 -0.027554175980882896 0 0.00017510639650079274 -0.027041635093829834 0 0.00026871384845031349 -0.023209518439896916 0 0.00037131548702956549 -0.02338080265885091 0 0.00037663288327706397 -0.023204362429651584 0 0.00037131548702956549 -0.02338080265885091 0 0.00037663288327706397 -0.023204362429651584 0 0.00052579976438390781 -0.023359351275138326 0 -0.00027106219886745975 -0.026664107022114976 0 -0.00030188613969556627 -0.02694859181032571 0 0.00035519962081018586 -0.026644041066598161 0 0.00017510639650079274 -0.027041635093829834 0 0.00030808409291358197 -0.026060727851906225 0 -5.5675970790285675e-05 -0.027554175980882896 0 0.00030808409291358197 -0.026060727851906225 0 0.00031027357129882364 -0.024960472138394418 0 0.000220016250922915 -0.025008044683646886 0 0.00035403729331712327 -0.024995704210243892 0 0.00059469877171188098 -0.023322551594405255 0 0.00052579976438390781 -0.023359351275138326 0 0.00057238891487482765 -0.023371435693567099 0 0.00037663288327706397 -0.023204362429651584 0 0.00059469877171188098 -0.023322551594405255 0 0.00052579976438390781 -0.023359351275138326 0 0.00030808409291358197 -0.026060727851906225 0 0.00027115363991774558 -0.023970669207473157 0 0.00052579976438390781 -0.023359351275138326 0 0.00058082172226207732 -0.02342070947210818 0 0.0005875293519354357 -0.023505690628245975 0 0.00037131548702956549 -0.02338080265885091 0 0.00052579976438390781 -0.023359351275138326 0 0.0005875293519354357 -0.023505690628245975 0 0.00052579976438390781 -0.023359351275138326 0 0.00058082172226207732 -0.02342070947210818 0 0.00057238891487482765 -0.023371435693567099 0 0.00059469877171188098 -0.023322551594405255 0 0.00057238891487482765 -0.023371435693567099 0 0.00056033923658503626 -0.023389041647301947 0 0.00058082172226207732 -0.02342070947210818 0 0.00057238891487482765 -0.023371435693567099 0 0.00056033923658503626 -0.023389041647301947 0 0.00027115363991774558 -0.023970669207473157 0 0.0003375208319682339 -0.023528211875430936 0 0.00039225039398853659 -0.023221776907527674 0 0.00029150063754563823 -0.023223326902371222 0 0.00024116363347999464 -0.023158779174871996 0 0.00058262977216303889 -0.023417198238187879 0 0.0005875293519354357 -0.023505690628245975 0 0.00060092143703103606 -0.023317329895665789 0 0.00058262977216303889 -0.023417198238187879 0 0.00060092143703103606 -0.023317329895665789 0 0.00059290649166047192 -0.023352494255821719 0 0.00056033923658503626 -0.023389041647301947 0 0.00058262977216303889 -0.023417198238187879 0 0.00059290649166047192 -0.023352494255821719 0 0.00058082172226207732 -0.02342070947210818 0 0.00056033923658503626 -0.023389041647301947 0 0.00058262977216303889 -0.023417198238187879 0 0.00058082172226207732 -0.02342070947210818 0 0.00058262977216303889 -0.023417198238187879 0 0.0005875293519354357 -0.023505690628245975 0 0.00017492812406577778 -0.029130998229034453 0 0.00016482420027673686 -0.029172620744537765 0 0.00015657324693460915 -0.029141640116505867 0 0.0005875293519354357 -0.023505690628245975 0 3.4317292961431842e-06 -0.023725653082533563 0 0.00039918438323701527 -0.024434765931875331 0 0.00037131548702956549 -0.02338080265885091 0 0.0005875293519354357 -0.023505690628245975 0 3.4317292961431842e-06 -0.023725653082533563 0 0.00015485762143282298 -0.025813048618550313 0 -0.00013518990307794234 -0.029736312987204205 0 3.4317292961431842e-06 -0.023725653082533563 0 -0.00024155054304577883 -0.024880999096694102 0 0.00039918438323701527 -0.024434765931875331 0 -0.00013518990307794234 -0.029736312987204205 0 -0.00028068362440851355 -0.031179534819268055 0 -0.00024155054304577883 -0.024880999096694102 0 0.00054566677910475054 -0.025068958403818731 0 0.00039918438323701527 -0.024434765931875331 0 -0.00012553385655414306 -0.024496061097407366 0 0.00084803161729900039 -0.022815673251460927 0 0.0005875293519354357 -0.023505690628245975 0 0.00039918438323701527 -0.024434765931875331 0 0.0012375340140404467 -0.025030019557258979 0 0.00085854940029889658 -0.023472979872618021 0 -0.00012553385655414306 -0.024496061097407366 0 0.00054566677910475054 -0.025068958403818731 0 0.00039918438323701527 -0.024434765931875331 0 0.0012375340140404467 -0.025030019557258979 0 -0.00046274305599556951 -0.033719179952461716 0 -0.0004796412821359814 -0.033755410562354066 0 -0.0004995067335346661 -0.033712533583482217 0 0.00016482420027673686 -0.029172620744537765 0 0.00013743232512090445 -0.029145442257917775 0 0.00015657324693460915 -0.029141640116505867 0 0.00014889741534953224 -0.029123261552245729 0 0.00013743232512090445 -0.029145442257917775 0 0.00015657324693460915 -0.029141640116505867 0 0.00014889741534953224 -0.029123261552245729 0 0.00017492812406577778 -0.029130998229034453 0 0.00015657324693460915 -0.029141640116505867 0 -0.00046866521522601686 -0.033729778002196689 0 -0.00047070299831860674 -0.033745191786174397 0 -0.00047007500930879785 -0.033749639181545513 0 -0.00046866521522601686 -0.033729778002196689 0 -0.00046274305599556951 -0.033719179952461716 0 -0.00047007500930879785 -0.033749639181545513 0 -0.00013518990307794234 -0.029736312987204205 0 -0.00011571679602496086 -0.031652966952262288 0 -0.00046866521522601686 -0.033729778002196689 0 -0.00047182785071888446 -0.033729479126955751 0 -0.00047070299831860674 -0.033745191786174397 0 -0.00047182785071888446 -0.033729479126955751 0 -0.00047070299831860674 -0.033745191786174397 0 -0.00047292548412421182 -0.033742120123158921 0 -0.00046274305599556951 -0.033719179952461716 0 -0.00047007500930879785 -0.033749639181545513 0 -0.0004796412821359814 -0.033755410562354066 0 -0.00047007500930879785 -0.033749639181545513 0 -0.0004796412821359814 -0.033755410562354066 0 -0.000477827634707896 -0.033780640278261019 0 -0.0004796412821359814 -0.033755410562354066 0 -0.0004921113627531584 -0.033808658128605777 0 -0.000477827634707896 -0.033780640278261019 0 -0.0004796412821359814 -0.033755410562354066 0 -0.00053798038891307695 -0.033750267854800148 0 -0.0004921113627531584 -0.033808658128605777 0 -0.0004995067335346661 -0.033712533583482217 0 -0.00053798038891307695 -0.033750267854800148 0 -0.00052527374402792156 -0.033669624406698045 0 -0.0004796412821359814 -0.033755410562354066 0 -0.0004995067335346661 -0.033712533583482217 0 -0.00053798038891307695 -0.033750267854800148 0 -0.00040517959118630329 -0.034480375143391181 0 -0.00021847492601412283 -0.034001866263791362 0 -0.00053798038891307695 -0.033750267854800148 0 -0.00053604152952