<?xml version="1.0"?>
<VTKFile type="UnstructuredGrid" version="0.1" byte_order="LittleEndian">
<UnstructuredGrid>
<Piece NumberOfPoints="30881" NumberOfCells="10862">
<Points>
<DataArray type="Float64" NumberOfComponents="3" format="ascii">
-0.49999999999999828 -0.48677703703187492 0 -0.5 -0.5 0 -0.48129281494584059 -0.49338851851593718 0 -0.5 -0.5 0 -0.48129281494584059 -0.49338851851593718 0 -0.46258562989168328 -0.5 0 -0.49999999999999828 -0.48677703703187492 0 -0.48129281494584059 -0.49338851851593718 0 -0.49999999999999828 -0.48677703703187492 0 -0.4824545428279598 -0.47451624516148783 0 -0.48129281494584059 -0.49338851851593718 0 -0.49999999999999828 -0.48677703703187492 0 -0.4824545428279598 -0.47451624516148783 0 -0.5 -0.46599539173150673 0 -0.4824545428279598 -0.47451624516148783 0 -0.46853075243710779 -0.48354990242643758 0 -0.46411508256092049 -0.46598235294430129 0 -0.4824545428279598 -0.47451624516148783 0 -0.48129281494584059 -0.49338851851593718 0 -0.46853075243710779 -0.48354990242643758 0 -0.48129281494584059 -0.49338851851593718 0 -0.46258562989168328 -0.5 0 -0.48129281494584059 -0.49338851851593718 0 -0.46258562989168328 -0.5 0 -0.46853075243710779 -0.48354990242643758 0 -0.46258562989168328 -0.5 0 -0.46853075243710779 -0.48354990242643758 0 -0.45147378687733691 -0.48362213557840178 0 -0.46853075243710779 -0.48354990242643758 0 -0.45147378687733691 -0.48362213557840178 0 -0.46411508256092049 -0.46598235294430129 0 -0.4457251648104853 -0.47020164095208389 0 -0.45147378687733691 -0.48362213557840178 0 -0.46411508256092049 -0.46598235294430129 0 -0.4457251648104853 -0.47020164095208389 0 -0.45147378687733691 -0.48362213557840178 0 -0.43513446131126993 -0.48199891714758791 0 -0.45147378687733691 -0.48362213557840178 0 -0.43275163025255442 -0.5 0 -0.43513446131126993 -0.48199891714758791 0 -0.46258562989168328 -0.5 0 -0.45147378687733691 -0.48362213557840178 0 -0.43275163025255442 -0.5 0 -0.4467190029717853 -0.45478934699519452 0 -0.4422915115958943 -0.43555510214664611 0 -0.43246707723660932 -0.44794326854796312 0 -0.4457251648104853 -0.47020164095208389 0 -0.4467190029717853 -0.45478934699519452 0 -0.46411508256092049 -0.46598235294430129 0 -0.4457251648104853 -0.47020164095208389 0 -0.4467190029717853 -0.45478934699519452 0 -0.43016578207734568 -0.46313500011938619 0 -0.4467190029717853 -0.45478934699519452 0 -0.46411508256092049 -0.46598235294430129 0 -0.47114575579794699 -0.4403844242888923 0 -0.4467190029717853 -0.45478934699519452 0 -0.47114575579794699 -0.4403844242888923 0 -0.4422915115958943 -0.43555510214664611 0 -0.47114575579794699 -0.4403844242888923 0 -0.4422915115958943 -0.43555510214664611 0 -0.46411508256092049 -0.46598235294430129 0 -0.47114575579794699 -0.4403844242888923 0 -0.48354307623736548 -0.45841843211146538 0 -0.4824545428279598 -0.47451624516148783 0 -0.46411508256092049 -0.46598235294430129 0 -0.48354307623736548 -0.45841843211146538 0 -0.4824545428279598 -0.47451624516148783 0 -0.48354307623736548 -0.45841843211146538 0 -0.5 -0.46599539173150673 0 -0.48354307623736548 -0.45841843211146538 0 -0.5 -0.46599539173150673 0 -0.49999999999999972 -0.44521374643113848 0 -0.47114575579794699 -0.4403844242888923 0 -0.49999999999999972 -0.44521374643113848 0 -0.47114575579794699 -0.4403844242888923 0 -0.49999999999999972 -0.44521374643113848 0 -0.48704432221743971 -0.42935617662229603 0 -0.47114575579794699 -0.4403844242888923 0 -0.48354307623736548 -0.45841843211146538 0 -0.49999999999999972 -0.44521374643113848 0 -0.49999999999999972 -0.44521374643113848 0 -0.48704432221743971 -0.42935617662229603 0 -0.5 -0.41591957503128979 0 -0.48704432221743971 -0.42935617662229603 0 -0.5 -0.41591957503128979 0 -0.47703153307181151 -0.41590696073786332 0 -0.5 -0.41591957503128979 0 -0.47703153307181151 -0.41590696073786332 0 -0.48817838912021821 -0.4022119694541284 0 -0.47114575579794699 -0.4403844242888923 0 -0.48704432221743971 -0.42935617662229603 0 -0.47703153307181151 -0.41590696073786332 0 -0.5 -0.38662540363144121 0 -0.47568202340906118 -0.39039593841591919 0 -0.4947615751445838 -0.37332156409002909 0 -0.47568202340906118 -0.39039593841591919 0 -0.4947615751445838 -0.37332156409002909 0 -0.5 -0.38662540363144121 0 -0.48817838912021821 -0.4022119694541284 0 -0.47568202340906118 -0.39039593841591919 0 -0.5 -0.41591957503128979 0 -0.5 -0.38662540363144121 0 -0.48817838912021821 -0.4022119694541284 0 -0.47703153307181151 -0.41590696073786332 0 -0.48817838912021821 -0.4022119694541284 0 -0.47568202340906118 -0.39039593841591919 0 -0.47703153307181151 -0.41590696073786332 0 -0.47568202340906118 -0.39039593841591919 0 -0.45660247167353862 -0.40747031274180939 0 -0.47568202340906118 -0.39039593841591919 0 -0.48030931097003587 -0.37191064435083931 0 -0.46669490250066459 -0.37481721741951951 0 -0.47568202340906118 -0.39039593841591919 0 -0.4947615751445838 -0.37332156409002909 0 -0.48030931097003587 -0.37191064435083931 0 -0.45332061783919553 -0.38729481725706361 0 -0.46669490250066459 -0.37481721741951951 0 -0.45095991715087752 -0.36968037302039969 0 -0.47568202340906118 -0.39039593841591919 0 -0.45332061783919553 -0.38729481725706361 0 -0.46669490250066459 -0.37481721741951951 0 -0.47568202340906118 -0.39039593841591919 0 -0.45660247167353862 -0.40747031274180939 0 -0.47568202340906118 -0.39039593841591919 0 -0.45332061783919553 -0.38729481725706361 0 -0.45660247167353862 -0.40747031274180939 0 -0.44332653075004852 -0.401690115615219 0 -0.44646247228389868 -0.41654464256061052 0 -0.42870657106664078 -0.39987574649354879 0 -0.45332061783919553 -0.38729481725706361 0 -0.44332653075004852 -0.401690115615219 0 -0.43479631603355468 -0.39077639303142497 0 -0.45332061783919553 -0.38729481725706361 0 -0.44332653075004852 -0.401690115615219 0 -0.45660247167353862 -0.40747031274180939 0 -0.45332061783919553 -0.38729481725706361 0 -0.43421362475025049 -0.37527491429266319 0 -0.43479631603355468 -0.39077639303142497 0 -0.45332061783919553 -0.38729481725706361 0 -0.43421362475025049 -0.37527491429266319 0 -0.45095991715087752 -0.36968037302039969 0 -0.47114575579794699 -0.4403844242888923 0 -0.45663439814062529 -0.42533932462455271 0 -0.4422915115958943 -0.43555510214664611 0 -0.47114575579794699 -0.4403844242888923 0 -0.47703153307181151 -0.41590696073786332 0 -0.45663439814062529 -0.42533932462455271 0 -0.45663439814062529 -0.42533932462455271 0 -0.45660247167353862 -0.40747031274180939 0 -0.44646247228389868 -0.41654464256061052 0 -0.47703153307181151 -0.41590696073786332 0 -0.45663439814062529 -0.42533932462455271 0 -0.45660247167353862 -0.40747031274180939 0 -0.44332653075004852 -0.401690115615219 0 -0.45660247167353862 -0.40747031274180939 0 -0.44646247228389868 -0.41654464256061052 0 -0.45660247167353862 -0.40747031274180939 0 -0.44646247228389868 -0.41654464256061052 0 -0.44646247228389868 -0.41654464256061052 0 -0.4375229199380159 -0.42454468706769971 0 -0.45663439814062529 -0.42533932462455271 0 -0.4375229199380159 -0.42454468706769971 0 -0.4422915115958943 -0.43555510214664611 0 -0.45663439814062529 -0.42533932462455271 0 -0.44646247228389868 -0.41654464256061052 0 -0.4375229199380159 -0.42454468706769971 0 -0.4375229199380159 -0.42454468706769971 0 -0.4422915115958943 -0.43555510214664611 0 -0.43077617074680319 -0.43406335077952207 0 -0.43077617074680319 -0.43406335077952207 0 -0.42550232634077589 -0.42345940056268039 0 -0.41950844772475421 -0.43888456563633732 0 -0.4375229199380159 -0.42454468706769971 0 -0.43077617074680319 -0.43406335077952207 0 -0.42550232634077589 -0.42345940056268039 0 -0.44646247228389868 -0.41654464256061052 0 -0.41657232816672918 -0.41306671883907142 0 -0.42870657106664078 -0.39987574649354879 0 -0.44646247228389868 -0.41654464256061052 0 -0.4375229199380159 -0.42454468706769971 0 -0.42550232634077589 -0.42345940056268039 0 -0.44646247228389868 -0.41654464256061052 0 -0.42550232634077589 -0.42345940056268039 0 -0.41657232816672918 -0.41306671883907142 0 -0.44646247228389868 -0.41654464256061052 0 -0.41657232816672918 -0.41306671883907142 0 -0.42550232634077589 -0.42345940056268039 0 -0.41657232816672918 -0.41306671883907142 0 -0.41333489101611293 -0.42699700567040988 0 -0.41657232816672918 -0.41306671883907142 0 -0.41333489101611293 -0.42699700567040988 0 -0.39893236021425188 -0.42931692235905211 0 -0.41333489101611293 -0.42699700567040988 0 -0.39893236021425188 -0.42931692235905211 0 -0.41950844772475421 -0.43888456563633732 0 -0.42550232634077589 -0.42345940056268039 0 -0.41333489101611293 -0.42699700567040988 0 -0.41950844772475421 -0.43888456563633732 0 -0.43421362475025049 -0.37527491429266319 0 -0.42478231784314502 -0.38643128255249681 0 -0.41656514696884139 -0.37636588688318029 0 -0.43421362475025049 -0.37527491429266319 0 -0.42478231784314502 -0.38643128255249681 0 -0.43479631603355468 -0.39077639303142497 0 -0.42478231784314502 -0.38643128255249681 0 -0.43479631603355468 -0.39077639303142497 0 -0.42870657106664078 -0.39987574649354879 0 -0.44332653075004852 -0.401690115615219 0 -0.43479631603355468 -0.39077639303142497 0 -0.42870657106664078 -0.39987574649354879 0 -0.41657232816672918 -0.41306671883907142 0 -0.40962993039643741 -0.3898634720616666 0 -0.3946356370269814 -0.39577424904278191 0 -0.42478231784314502 -0.38643128255249681 0 -0.42870657106664078 -0.39987574649354879 0 -0.40962993039643741 -0.3898634720616666 0 -0.41657232816672918 -0.41306671883907142 0 -0.42870657106664078 -0.39987574649354879 0 -0.40962993039643741 -0.3898634720616666 0 -0.42478231784314502 -0.38643128255249681 0 -0.40962993039643741 -0.3898634720616666 0 -0.41656514696884139 -0.37636588688318029 0 -0.40962993039643741 -0.3898634720616666 0 -0.41656514696884139 -0.37636588688318029 0 -0.40465459864295228 -0.37650109000307358 0 -0.39431275766669582 -0.38061373190328529 0 -0.40465459864295228 -0.37650109000307358 0 -0.3968495855878465 -0.36923685638487008 0 -0.40962993039643741 -0.3898634720616666 0 -0.39431275766669582 -0.38061373190328529 0 -0.40465459864295228 -0.376501090003
[...]
<PointData Scalars="" Vectors="displacement," Tensors="">
<DataArray type="Float64" Name="displacement" NumberOfComponents="3" format="ascii">
0.073023314034590892 0.074998757022872592 0 0.07499605254844241 0.074999699401197745 0 0.075592312106323306 0.072523643038275978 0 0.07499605254844241 0.074999699401197745 0 0.075592312106323306 0.072523643038275978 0 0.075001124638779379 0.069389689772295218 0 0.073019630720192186 0.074994838315277312 0 0.073966199827343315 0.0721390759831846 0 0.073010518139369388 0.074996817449370326 0 0.071485973067794834 0.072586598432201554 0 0.071854728283509653 0.071595350217384099 0 0.073010518139369388 0.074996817449370326 0 0.071485973067794834 0.072586598432201554 0 0.06989998191641679 0.074997443790271484 0 0.071485973067794834 0.072586598432201554 0 0.072367496706341045 0.070233750537566322 0 0.071223080772197953 0.070160339400249738 0 0.071485973067794834 0.072586598432201554 0 0.071854728283509653 0.071595350217384099 0 0.072367496706341045 0.070233750537566322 0 0.073966199827343315 0.0721390759831846 0 0.074996689011921289 0.06939282434194903 0 0.071854728283509653 0.071595350217384099 0 0.074989790716102442 0.069386003213615211 0 0.072367496706341045 0.070233750537566322 0 0.074989790716102442 0.069386003213615211 0 0.072367496706341045 0.070233750537566322 0 0.073144117159125097 0.068407072338338176 0 0.072367496706341045 0.070233750537566322 0 0.073144117159125097 0.068407072338338176 0 0.071223080772197953 0.070160339400249738 0 0.071913816360312813 0.068302836936350614 0 0.073144117159125097 0.068407072338338176 0 0.071223080772197953 0.070160339400249738 0 0.071913816360312813 0.068302836936350614 0 0.073144117159125097 0.068407072338338176 0 0.073197854386980121 0.066520181650853924 0 0.073144117159125097 0.068407072338338176 0 0.074998546129056931 0.064916705370127087 0 0.073197854386980121 0.066520181650853924 0 0.074989790716102442 0.069386003213615211 0 0.073144117159125097 0.068407072338338176 0 0.074998546129056931 0.064916705370127087 0 0.070599238376490445 0.069068958916159592 0 0.068028636001366147 0.070135226589230576 0 0.06952697445108931 0.068645346373862201 0 0.071913816360312813 0.068302836936350614 0 0.070599238376490445 0.069068958916159592 0 0.071223080772197953 0.070160339400249738 0 0.071913816360312813 0.068302836936350614 0 0.070599238376490445 0.069068958916159592 0 0.071060843817044458 0.067522281259516204 0 0.070599238376490445 0.069068958916159592 0 0.071223080772197953 0.070160339400249738 0 0.070808949278471589 0.070907678184098877 0 0.070599238376490445 0.069068958916159592 0 0.070808949278471589 0.070907678184098877 0 0.068028636001366147 0.070135226589230576 0 0.067352709671205796 0.07315783133387134 0 0.067532246147537736 0.072494611785877558 0 0.071223080772197953 0.070160339400249738 0 0.070808949278471589 0.070907678184098877 0 0.069973906784461984 0.073005907265732278 0 0.071485973067794834 0.072586598432201554 0 0.071223080772197953 0.070160339400249738 0 0.069973906784461984 0.073005907265732278 0 0.071485973067794834 0.072586598432201554 0 0.069973906784461984 0.073005907265732278 0 0.06989998191641679 0.074997443790271484 0 0.069973906784461984 0.073005907265732278 0 0.06989998191641679 0.074997443790271484 0 0.066791716406999324 0.074997516318021262 0 0.067352709671205796 0.07315783133387134 0 0.066783065805665009 0.074997143179084541 0 0.064693253679205143 0.075397886610529527 0 0.066777679543751897 0.074999491624627393 0 0.064499629783668341 0.075518842160890887 0 0.070808949278471589 0.070907678184098877 0 0.069973906784461984 0.073005907265732278 0 0.066791716406999324 0.074997516318021262 0 0.066777679543751897 0.074999491624627393 0 0.064499629783668341 0.075518842160890887 0 0.06239092533856655 0.074998525248518799 0 0.064499629783668341 0.075518842160890887 0 0.06239092533856655 0.074998525248518799 0 0.064207828539529457 0.075519042020699131 0 0.06239092533856655 0.074998525248518799 0 0.064207828539529457 0.075519042020699131 0 0.061422063608783911 0.075512926875034858 0 0.064693253679205143 0.075397886610529527 0 0.064499629783668341 0.075518842160890887 0 0.064207828539529457 0.075519042020699131 0 0.057996506330695863 0.074998861125412777 0 0.06078962642392069 0.076414867505195522 0 0.056361442816745794 0.07561874015737971 0 0.060605353961516326 0.075082393038449408 0 0.059369790961618943 0.074702313945188781 0 0.057996506330695863 0.074998861125412777 0 0.061422063608783911 0.075512926875034858 0 0.06078962642392069 0.076414867505195522 0 0.06239092533856655 0.074998525248518799 0 0.057996506330695863 0.074998861125412777 0 0.061422063608783911 0.075512926875034858 0 0.064207828539529457 0.075519042020699131 0 0.061422063608783911 0.075512926875034858 0 0.06078962642392069 0.076414867505195522 0 0.064207828539529457 0.075519042020699131 0 0.06078962642392069 0.076414867505195522 0 0.065204090267751161 0.074682262855253492 0 0.059152533095003228 0.078114600853393598 0 0.056763068640163158 0.077409185039460954 0 0.057765623893647387 0.078775084475052812 0 0.059152533095003228 0.078114600853393598 0 0.056361442816745794 0.07561874015737971 0 0.056763068640163158 0.077409185039460954 0 0.059176075720093202 0.079641656565792321 0 0.057765623893647387 0.078775084475052812 0 0.058224312189465527 0.079623377802573045 0 0.059152533095003228 0.078114600853393598 0 0.059176075720093202 0.079641656565792321 0 0.057765623893647387 0.078775084475052812 0 0.060605353961516326 0.075082393038449408 0 0.062735400568396299 0.074848043969658593 0 0.059152533095003228 0.078114600853393598 0 0.059176075720093202 0.079641656565792321 0 0.059702544343077597 0.079627539079290946 0 0.059554176225853038 0.079835362294912518 0 0.059216115523152445 0.079954297050174608 0 0.059514374718268259 0.079460651688427336 0 0.059176075720093202 0.079641656565792321 0 0.059554176225853038 0.079835362294912518 0 0.059871646412734486 0.079781881999243368 0 0.059176075720093202 0.079641656565792321 0 0.059554176225853038 0.079835362294912518 0 0.059702544343077597 0.079627539079290946 0 0.059176075720093202 0.079641656565792321 0 0.059969193803842136 0.079992139116879343 0 0.059871646412734486 0.079781881999243368 0 0.059176075720093202 0.079641656565792321 0 0.059969193803842136 0.079992139116879343 0 0.058224312189465527 0.079623377802573045 0 0.064693253679205143 0.075397886610529527 0 0.066421676508295946 0.073373407596095022 0 0.068028636001366147 0.070135226589230576 0 0.064693253679205143 0.075397886610529527 0 0.064207828539529457 0.075519042020699131 0 0.066421676508295946 0.073373407596095022 0 0.066421676508295946 0.073373407596095022 0 0.065204090267751161 0.074682262855253492 0 0.067018324171471896 0.072479476890098829 0 0.064207828539529457 0.075519042020699131 0 0.066421676508295946 0.073373407596095022 0 0.065204090267751161 0.074682262855253492 0 0.059554176225853038 0.079835362294912518 0 0.059702544343077597 0.079627539079290946 0 0.059216115523152445 0.079954297050174608 0 0.062735400568396299 0.074848043969658593 0 0.064150705094070559 0.074460785260659981 0 0.064150705094070559 0.074460785260659981 0 0.064177886822750399 0.074034222911573591 0 0.066421676508295946 0.073373407596095022 0 0.068172954823117374 0.070144257980273086 0 0.068028636001366147 0.070135226589230576 0 0.066421676508295946 0.073373407596095022 0 0.067018324171471896 0.072479476890098829 0 0.068172954823117374 0.070144257980273086 0 0.068172954823117374 0.070144257980273086 0 0.068028636001366147 0.070135226589230576 0 0.068426295987757485 0.06907214370673645 0 0.068426295987757485 0.06907214370673645 0 0.068440242656583813 0.068749742797480862 0 0.068783164158798038 0.068054202716303844 0 0.068172954823117374 0.070144257980273086 0 0.068426295987757485 0.06907214370673645 0 0.068440242656583813 0.068749742797480862 0 0.059216115523152445 0.079954297050174608 0 0.05825718119475172 0.078495063595992023 0 0.059514374718268259 0.079460651688427336 0 0.069094867499574955 0.070962889377633342 0 0.068172954823117374 0.070144257980273086 0 0.068440242656583813 0.068749742797480862 0 0.069094867499574955 0.070962889377633342 0 0.068440242656583813 0.068749742797480862 0 0.068890298694002608 0.067903653155399188 0 0.064150705094070559 0.074460785260659981 0 0.063626276485961281 0.073018835627254655 0 0.068440242656583813 0.068749742797480862 0 0.068890298694002608 0.067903653155399188 0 0.068400215834998238 0.067889341647971016 0 0.068890298694002608 0.067903653155399188 0 0.068400215834998238 0.067889341647971016 0 0.068001192027820151 0.067314358248282108 0 0.068400215834998238 0.067889341647971016 0 0.068001192027820151 0.067314358248282108 0 0.068783164158798038 0.068054202716303844 0 0.068440242656583813 0.068749742797480862 0 0.068400215834998238 0.067889341647971016 0 0.068783164158798038 0.068054202716303844 0 0.059969193803842136 0.079992139116879343 0 0.060516473210112214 0.079382566783113478 0 0.06163333537292482 0.079173594235777731 0 0.059969193803842136 0.079992139116879343 0 0.060516473210112214 0.079382566783113478 0 0.059871646412734486 0.079781881999243368 0 0.060516473210112214 0.079382566783113478 0 0.059871646412734486 0.079781881999243368 0 0.059514374718268259 0.079460651688427336 0 0.059554176225853038 0.079835362294912518 0 0.059871646412734486 0.079781881999243368 0 0.059514374718268259 0.079460651688427336 0 0.05825718119475172 0.078495063595992023 0 0.060950271013404618 0.07764605115333785 0 0.06074447778061666 0.074565133711737203 0 0.060516473210112214 0.079382566783113478 0 0.059514374718268259 0.079460651688427336 0 0.060950271013404618 0.07764605115333785 0 0.05825718119475172 0.078495063595992023 0 0.059514374718268259 0.079460651688427336 0 0.060950271013404618 0.07764605115333785 0 0.060516473210112214 0.079382566783113478 0 0.060950271013404618 0.07764605115333785 0 0.06163333537292482 0.079173594235777731 0 0.060950271013404618 0.07764605115333785 0 0.06163333537292482 0.079173594235777731 0 0.062878222302708675 0.077165991145289131 0 0.063091769226764557 0.074694202792586192 0 0.062878222302708675 0.077165991145289131 0 0.065080004141445602 0.075489318784637591 0 0.060950271013404618 0.07764605115333785 0 0.063091769226764557 0.074694202792586192 0 0.062878222302708675 0.077165991145289131 0 0.060950271013404618 0.07764605115333785 0 0.063091769226764557 0.074694202792586192 0 0.06074447778061666 0.074565133711737203 0 0.06074447778061666 0.074565133711737203 0 0.058545117599535547 0.072707513152531753 0 0.061823436985559047 0.069866881760408728 0 0.06074447778061666 0.074565133711737203 0 0.064175330219560137 0.069875380130156067 0 0.061823436985559047 0.069866881760408728 0 0.063091769226764557 0.074694202792586192 0 0.06074447778061666 0.074565133711737203 0 0.064175330219560137 0.069875380130156067 0 0.063091769226764557 0.074694202792586192 0 0.064175330219560137 0.069875380130156067 0 0.065822034642462293 0.072496735913838775 0 0.068890298694002608 0.067903653155399188 0 0.068001192027820151 0.067314358248282108 0 0.067030660163127379 0.066954752423827174 0 0.05825718119475172 0.078495063595992023 0 0.06074447778061666 0.074565133711737203 0 0.058545117599535547 0.072707513152531753 0 0.063626276485961281 0.073018835627254655 0 0.063258091608026326 0.071127691048856717 0 0.067030660163127379 0.066954752423827174 0 0.06720753854984314 0.06721608005576768 0 0.065461413935888391 0.06729719593500956 0 0.06720753854984314 0.06721608005576768 0 0.068476297413563994 0.0674907753393479 0 0.067037071199193263 0.067584454720601261 0 0.068001192027820151 0.067314358248282108 0 0.06720753854984314 0.06721608005576768 0 0.068476297413563994 0.0674907753393479 0 0.068001192027820151 0.067314358248282108 0 0.067030660163127379 0.066954752423827174 0 0.06720753854984314 0.06721608005576768 0 0.068476297413563994 0.0674907753393479 0 0.069377400611869006 0.06731811438138928 0 0.070261133164328929 0.067521514992975554 0 0.068001192027820151 0.067314358248282108 0 0.068476297413563994 0.0674907753393479 0 0.069377400611869006 0.06731811438138928 0 0.069377400611869006 0.06731811438138928 0 0.070261133164328929 0.067521514992975554 0 0.071211896040942857 0.066793211871257974 0 0.068476297413563994 0.0674907753393479 0 0.070261133164328929 0.067521514992975554 0 0.069774120241923476 0.068230145182535507 0 0.070261133164328929 0.067521514992975554 0 0.071560909868737491 0.068166990562855509 0 0.069774120241923476 0.068230145182535507 0 0.071560909868737491 0.068166990562855509 0 0.073511574796502777 0.067507582809842565 0 0.071748528219256799 0.067235007332328345 0 0.070261133164328929 0.067521514992975554 0 0.071560909868737491 0.068166990562855509 0 0.071748528219256799 0.067235007332328345 0 0.074312587070230751 0.061041031888947127 0 0.073920103001483897 0.057356909591170888 0 0.076148916339286873 0.058709607012282436 0 0.074997673471224005 0.060441968447996382 0 0.075001352130443247 0.055960063364014233 0 0.076148916339286873 0.058709607012282436 0 0.075844063378807253 0.055588598799633133 0 0.075001352130443247 0.055960063364014233 0 0.071560909868737491 0.068166990562855509 0 0.073511574796502777 0.067507582809842565 0 0.073062634592076708 0.068985400568279481 0 0.074312587070230751 0.061041031888947127 0 0.074413256791751467 0.061770793387520312 0 0.073511574796502777 0.067507582809842565 0 0.071748528219256799 0.067235007332328345 0 0.072570830252288457 0.066054875598481749 0 0.076148916339286873 0.058709607012282436 0 0.074997673471224005 0.060441968447996382 0 0.074808882352011788 0.063554677527834169 0 0.073511574796502777 0.067507582809842565 0 0.072570830252288457 0.066054875598481749 0 0.074808882352011788 0.063554677527834169 0 0.070261133164328929 0.067521514992975554 0 0.071748528219256799 0.067235007332328345 0 0.071211896040942857 0.066793211871257974 0 0.071748528219256799 0.067235007332328345 0 0.072570830252288457 0.066054875598481749 0 0.071211896040942857 0.066793211871257974 0 0.071211896040942857 0.066793211871257974 0 0.072286213732961027 0.065864667908805755 0 0.070621370664109895 0.066957825355679887 0 0.072570830252288457 0.066054875598481749 0 0.072286213732961027 0.065864667908805755 0 0.074808882352011788 0.063554677527834169 0 0.072570830252288457 0.066054875598481749 0 0.071211896040942857 0.066793211871257974 0 0.072286213732961027 0.065864667908805755 0 0.072286213732961027 0.065864667908805755 0 0.074808882352011788 0.063554677527834169 0 0.073950104558952734 0.065159746192739273 0 0.074997673471224005 0.060441968447996382 0 0.074808882352011788 0.063554677527834169 0 0.074998546129056931 0.064916705370127087 0 0.074808882352011788 0.063554677527834169 0 0.073950104558952734 0.065159746192739273 0 0.074998546129056931 0.064916705370127087 0 0.073950104558952734 0.065159746192739273 0 0.074998546129056931 0.064916705370127087 0 0.073197854386980121 0.066520181650853924 0 0.071913816360312813 0.068302836936350614 0 0.073197854386980121 0.066520181650853924 0 0.071060843817044458 0.067522281259516204 0 0.072286213732961027 0.065864667908805755 0 0.073197854386980121 0.066520181650853924 0 0.071060843817044458 0.067522281259516204 0 0.072286213732961027 0.065864667908805755 0 0.073950104558952734 0.065159746192739273 0 0.073197854386980121 0.066520181650853924 0 0.070599238376490445 0.069068958916159592 0 0.071060843817044458 0.067522281259516204 0 0.06952697445108931 0.068645346373862201 0 0.071060843817044458 0.067522281259516204 0 0.069769530530050902 0.067669781723644712 0 0.070621370664109895 0.066957825355679887 0 0.071060843817044458 0.067522281259516204 0 0.06952697445108931 0.068645346373862201 0 0.069769530530050902 0.067669781723644712 0 0.068028636001366147 0.070135226589230576 0 0.068426295987757485 0.06907214370673645 0 0.06952697445108931 0.068645346373862201 0 0.068426295987757485 0.06907214370673645 0 0.06952697445108931 0.068645346373862201 0 0.068783164158798038 0.068054202716303844 0 0.06952697445108931 0.068645346373862201 0 0.069769530530050902 0.067669781723644712 0 0.068783164158798038 0.068054202716303844 0 0.068001192027820151 0.067314358248282108 0 0.069377400611869006 0.06731811438138928 0 0.068783164158798038 0.068054202716303844 0 0.069377400611869006 0.06731811438138928 0 0.069769530530050902 0.067669781723644712 0 0.068783164158798038 0.068054202716303844 0 0.069377400611869006 0.06731811438138928 0 0.069769530530050902 0.067669781723644712 0 0.070621370664109895 0.066957825355679887 0 0.069377400611869006 0.06731811438138928 0 0.071211896040942857 0.066793211871257974 0 0.070621370664109895 0.066957825355679887 0 0.072286213732961027 0.065864667908805755 0 0.071060843817044458 0.067522281259516204 0 0.070621370664109895 0.066957825355679887 0 0.038262317676422186 0.082683322068384094 0 0.039072462336835527 0.085989217356574069 0 0.036696057096515869 0.084999191087971548 0 0.038262317676422186 0.082683322068384094 0 0.041191072941308964 0.084707109226992316 0 0.039072462336835527 0.085989217356574069 0 0.038262317676422186 0.082683322068384094 0 0.036696057096515869 0.084999191087971548 0 0.036651412123427325 0.082523629966684386 0 0.038262317676422186 0.082683322068384094 0 0.041191072941308964 0.084707109226992316 0 0.040749756773841593 0.080695588602989074 0 0.041191072941308964 0.084707109226992316 0 0.040749756773841593 0.080695588602989074 0 0.044243042322089851 0.083008583757505597 0 0.040749756773841593 0.080695588602989074 0 0.038092868722679231 0.077708139858352329 0 0.036856775063890505 0.080633314295645617 0 0.038262317676422186 0.082683322068384094 0 0.040749756773841593 0.080695588602989074 0 0.036856775063890505 0.080633314295645617 0 0.038262317676422186 0.082683322068384094 0 0.036856775063890505 0.080633314295645617 0 0.036651412123427325 0.082523629966684386 0 0.038092868722679231 0.077708139858352329 0 0.040417536513201707 0.075000023033070254 0 0.03602158345315154 0.074999064178857489 0 0.038092868722679231 0.077708139858352329 0 0.040417536513201707 0.075000023033070254 0 0.042172030741735776 0.077475257961420102 0 0.040749756773841593 0.080695588602989074 0 0.038092868722679231 0.077708139858352329 0 0.042172030741735776 0.077475257961420102 0 0.040749756773841593 0.080695588602989074 0 0.042172030741735776 0.077475257961420102 0 0.045074188108824589 0.079349024056348083 0 0.042172030741735776 0.077475257961420102 0 0.044811708191230225 0.074999581006320343 0 0.045074188108824589 0.079349024056348083 0 0.040417536513201707 0.075000023033070254 0 0.042172030741735776 0.077475257961420102 0 0.044811708191230225 0.074999581006320343 0 0.044811708191230225 0.074999581006320343 0 0.045074188108824589 0.079349024056348083 0 0.049143678752354904 0.077992857272654148 0 0.045074188108824589 0.079349024056348083 0 0.044243042322089851 0.083008583757505597 0 0.049454539379485782 0.082434833326748724 0 0.040749756773841593 0.080695588602989074 0 0.045074188108824589 0.079349024056348083 0 0.044243042322089851 0.083008583757505597 0 0.041191072941308964 0.084707109226992316 0 0.044243042322089851 0.083008583757505597 0 0.043803036743768009 0.085590358574874487 0 0.044243042322089851 0.083008583757505597 0 0.049454539379485782 0.082434833326748724 0 0.046360105456930263 0.085776452463097924 0 0.046021418378661166 0.081236698570871319 0 0.045385137572903855 0.080538772683426366 0 0.049454539379485782 0.082434833326748724 0 0.053905769489438191 0.079743887052470971 0 0.052827366183425734 0.085384328781628882 0 0.057759422113431658 0.080528787431092277 0 0.058828369948992425 0.080807505889662068 0 0.049454539379485782 0.082434833326748724 0 0.053905769489438191 0.079743887052470971 0 0.049143678752354904 0.077992857272654148 0 0.045074188108824589 0.079349024056348083 0 0.049454539379485782 0.082434833326748724 0 0.049143678752354904 0.077992857272654148 0 0.044811708191230225 0.074999581006320343 0 0.049143678752354904 0.077992857272654148 0 0.049207112943287015 0.074999370995807446 0 0.049143678752354904 0.077992857272654148 0 0.049207112943287015 0.074999370995807446 0 0.052