<?xml version="1.0"?>
<VTKFile type="UnstructuredGrid" version="0.1" byte_order="LittleEndian">
<UnstructuredGrid>
<Piece NumberOfPoints="30881" NumberOfCells="10862">
<Points>
<DataArray type="Float64" NumberOfComponents="3" format="ascii">
-0.49999999999999828 -0.48677703703187492 0 -0.5 -0.5 0 -0.48129281494584059 -0.49338851851593718 0 -0.5 -0.5 0 -0.48129281494584059 -0.49338851851593718 0 -0.46258562989168328 -0.5 0 -0.49999999999999828 -0.48677703703187492 0 -0.48129281494584059 -0.49338851851593718 0 -0.49999999999999828 -0.48677703703187492 0 -0.4824545428279598 -0.47451624516148783 0 -0.48129281494584059 -0.49338851851593718 0 -0.49999999999999828 -0.48677703703187492 0 -0.4824545428279598 -0.47451624516148783 0 -0.5 -0.46599539173150673 0 -0.4824545428279598 -0.47451624516148783 0 -0.46853075243710779 -0.48354990242643758 0 -0.46411508256092049 -0.46598235294430129 0 -0.4824545428279598 -0.47451624516148783 0 -0.48129281494584059 -0.49338851851593718 0 -0.46853075243710779 -0.48354990242643758 0 -0.48129281494584059 -0.49338851851593718 0 -0.46258562989168328 -0.5 0 -0.48129281494584059 -0.49338851851593718 0 -0.46258562989168328 -0.5 0 -0.46853075243710779 -0.48354990242643758 0 -0.46258562989168328 -0.5 0 -0.46853075243710779 -0.48354990242643758 0 -0.45147378687733691 -0.48362213557840178 0 -0.46853075243710779 -0.48354990242643758 0 -0.45147378687733691 -0.48362213557840178 0 -0.46411508256092049 -0.46598235294430129 0 -0.4457251648104853 -0.47020164095208389 0 -0.45147378687733691 -0.48362213557840178 0 -0.46411508256092049 -0.46598235294430129 0 -0.4457251648104853 -0.47020164095208389 0 -0.45147378687733691 -0.48362213557840178 0 -0.43513446131126993 -0.48199891714758791 0 -0.45147378687733691 -0.48362213557840178 0 -0.43275163025255442 -0.5 0 -0.43513446131126993 -0.48199891714758791 0 -0.46258562989168328 -0.5 0 -0.45147378687733691 -0.48362213557840178 0 -0.43275163025255442 -0.5 0 -0.4467190029717853 -0.45478934699519452 0 -0.4422915115958943 -0.43555510214664611 0 -0.43246707723660932 -0.44794326854796312 0 -0.4457251648104853 -0.47020164095208389 0 -0.4467190029717853 -0.45478934699519452 0 -0.46411508256092049 -0.46598235294430129 0 -0.4457251648104853 -0.47020164095208389 0 -0.4467190029717853 -0.45478934699519452 0 -0.43016578207734568 -0.46313500011938619 0 -0.4467190029717853 -0.45478934699519452 0 -0.46411508256092049 -0.46598235294430129 0 -0.47114575579794699 -0.4403844242888923 0 -0.4467190029717853 -0.45478934699519452 0 -0.47114575579794699 -0.4403844242888923 0 -0.4422915115958943 -0.43555510214664611 0 -0.47114575579794699 -0.4403844242888923 0 -0.4422915115958943 -0.43555510214664611 0 -0.46411508256092049 -0.46598235294430129 0 -0.47114575579794699 -0.4403844242888923 0 -0.48354307623736548 -0.45841843211146538 0 -0.4824545428279598 -0.47451624516148783 0 -0.46411508256092049 -0.46598235294430129 0 -0.48354307623736548 -0.45841843211146538 0 -0.4824545428279598 -0.47451624516148783 0 -0.48354307623736548 -0.45841843211146538 0 -0.5 -0.46599539173150673 0 -0.48354307623736548 -0.45841843211146538 0 -0.5 -0.46599539173150673 0 -0.49999999999999972 -0.44521374643113848 0 -0.47114575579794699 -0.4403844242888923 0 -0.49999999999999972 -0.44521374643113848 0 -0.47114575579794699 -0.4403844242888923 0 -0.49999999999999972 -0.44521374643113848 0 -0.48704432221743971 -0.42935617662229603 0 -0.47114575579794699 -0.4403844242888923 0 -0.48354307623736548 -0.45841843211146538 0 -0.49999999999999972 -0.44521374643113848 0 -0.49999999999999972 -0.44521374643113848 0 -0.48704432221743971 -0.42935617662229603 0 -0.5 -0.41591957503128979 0 -0.48704432221743971 -0.42935617662229603 0 -0.5 -0.41591957503128979 0 -0.47703153307181151 -0.41590696073786332 0 -0.5 -0.41591957503128979 0 -0.47703153307181151 -0.41590696073786332 0 -0.48817838912021821 -0.4022119694541284 0 -0.47114575579794699 -0.4403844242888923 0 -0.48704432221743971 -0.42935617662229603 0 -0.47703153307181151 -0.41590696073786332 0 -0.5 -0.38662540363144121 0 -0.47568202340906118 -0.39039593841591919 0 -0.4947615751445838 -0.37332156409002909 0 -0.47568202340906118 -0.39039593841591919 0 -0.4947615751445838 -0.37332156409002909 0 -0.5 -0.38662540363144121 0 -0.48817838912021821 -0.4022119694541284 0 -0.47568202340906118 -0.39039593841591919 0 -0.5 -0.41591957503128979 0 -0.5 -0.38662540363144121 0 -0.48817838912021821 -0.4022119694541284 0 -0.47703153307181151 -0.41590696073786332 0 -0.48817838912021821 -0.4022119694541284 0 -0.47568202340906118 -0.39039593841591919 0 -0.47703153307181151 -0.41590696073786332 0 -0.47568202340906118 -0.39039593841591919 0 -0.45660247167353862 -0.40747031274180939 0 -0.47568202340906118 -0.39039593841591919 0 -0.48030931097003587 -0.37191064435083931 0 -0.46669490250066459 -0.37481721741951951 0 -0.47568202340906118 -0.39039593841591919 0 -0.4947615751445838 -0.37332156409002909 0 -0.48030931097003587 -0.37191064435083931 0 -0.45332061783919553 -0.38729481725706361 0 -0.46669490250066459 -0.37481721741951951 0 -0.45095991715087752 -0.36968037302039969 0 -0.47568202340906118 -0.39039593841591919 0 -0.45332061783919553 -0.38729481725706361 0 -0.46669490250066459 -0.37481721741951951 0 -0.47568202340906118 -0.39039593841591919 0 -0.45660247167353862 -0.40747031274180939 0 -0.47568202340906118 -0.39039593841591919 0 -0.45332061783919553 -0.38729481725706361 0 -0.45660247167353862 -0.40747031274180939 0 -0.44332653075004852 -0.401690115615219 0 -0.44646247228389868 -0.41654464256061052 0 -0.42870657106664078 -0.39987574649354879 0 -0.45332061783919553 -0.38729481725706361 0 -0.44332653075004852 -0.401690115615219 0 -0.43479631603355468 -0.39077639303142497 0 -0.45332061783919553 -0.38729481725706361 0 -0.44332653075004852 -0.401690115615219 0 -0.45660247167353862 -0.40747031274180939 0 -0.45332061783919553 -0.38729481725706361 0 -0.43421362475025049 -0.37527491429266319 0 -0.43479631603355468 -0.39077639303142497 0 -0.45332061783919553 -0.38729481725706361 0 -0.43421362475025049 -0.37527491429266319 0 -0.45095991715087752 -0.36968037302039969 0 -0.47114575579794699 -0.4403844242888923 0 -0.45663439814062529 -0.42533932462455271 0 -0.4422915115958943 -0.43555510214664611 0 -0.47114575579794699 -0.4403844242888923 0 -0.47703153307181151 -0.41590696073786332 0 -0.45663439814062529 -0.42533932462455271 0 -0.45663439814062529 -0.42533932462455271 0 -0.45660247167353862 -0.40747031274180939 0 -0.44646247228389868 -0.41654464256061052 0 -0.47703153307181151 -0.41590696073786332 0 -0.45663439814062529 -0.42533932462455271 0 -0.45660247167353862 -0.40747031274180939 0 -0.44332653075004852 -0.401690115615219 0 -0.45660247167353862 -0.40747031274180939 0 -0.44646247228389868 -0.41654464256061052 0 -0.45660247167353862 -0.40747031274180939 0 -0.44646247228389868 -0.41654464256061052 0 -0.44646247228389868 -0.41654464256061052 0 -0.4375229199380159 -0.42454468706769971 0 -0.45663439814062529 -0.42533932462455271 0 -0.4375229199380159 -0.42454468706769971 0 -0.4422915115958943 -0.43555510214664611 0 -0.45663439814062529 -0.42533932462455271 0 -0.44646247228389868 -0.41654464256061052 0 -0.4375229199380159 -0.42454468706769971 0 -0.4375229199380159 -0.42454468706769971 0 -0.4422915115958943 -0.43555510214664611 0 -0.43077617074680319 -0.43406335077952207 0 -0.43077617074680319 -0.43406335077952207 0 -0.42550232634077589 -0.42345940056268039 0 -0.41950844772475421 -0.43888456563633732 0 -0.4375229199380159 -0.42454468706769971 0 -0.43077617074680319 -0.43406335077952207 0 -0.42550232634077589 -0.42345940056268039 0 -0.44646247228389868 -0.41654464256061052 0 -0.41657232816672918 -0.41306671883907142 0 -0.42870657106664078 -0.39987574649354879 0 -0.44646247228389868 -0.41654464256061052 0 -0.4375229199380159 -0.42454468706769971 0 -0.42550232634077589 -0.42345940056268039 0 -0.44646247228389868 -0.41654464256061052 0 -0.42550232634077589 -0.42345940056268039 0 -0.41657232816672918 -0.41306671883907142 0 -0.44646247228389868 -0.41654464256061052 0 -0.41657232816672918 -0.41306671883907142 0 -0.42550232634077589 -0.42345940056268039 0 -0.41657232816672918 -0.41306671883907142 0 -0.41333489101611293 -0.42699700567040988 0 -0.41657232816672918 -0.41306671883907142 0 -0.41333489101611293 -0.42699700567040988 0 -0.39893236021425188 -0.42931692235905211 0 -0.41333489101611293 -0.42699700567040988 0 -0.39893236021425188 -0.42931692235905211 0 -0.41950844772475421 -0.43888456563633732 0 -0.42550232634077589 -0.42345940056268039 0 -0.41333489101611293 -0.42699700567040988 0 -0.41950844772475421 -0.43888456563633732 0 -0.43421362475025049 -0.37527491429266319 0 -0.42478231784314502 -0.38643128255249681 0 -0.41656514696884139 -0.37636588688318029 0 -0.43421362475025049 -0.37527491429266319 0 -0.42478231784314502 -0.38643128255249681 0 -0.43479631603355468 -0.39077639303142497 0 -0.42478231784314502 -0.38643128255249681 0 -0.43479631603355468 -0.39077639303142497 0 -0.42870657106664078 -0.39987574649354879 0 -0.44332653075004852 -0.401690115615219 0 -0.43479631603355468 -0.39077639303142497 0 -0.42870657106664078 -0.39987574649354879 0 -0.41657232816672918 -0.41306671883907142 0 -0.40962993039643741 -0.3898634720616666 0 -0.3946356370269814 -0.39577424904278191 0 -0.42478231784314502 -0.38643128255249681 0 -0.42870657106664078 -0.39987574649354879 0 -0.40962993039643741 -0.3898634720616666 0 -0.41657232816672918 -0.41306671883907142 0 -0.42870657106664078 -0.39987574649354879 0 -0.40962993039643741 -0.3898634720616666 0 -0.42478231784314502 -0.38643128255249681 0 -0.40962993039643741 -0.3898634720616666 0 -0.41656514696884139 -0.37636588688318029 0 -0.40962993039643741 -0.3898634720616666 0 -0.41656514696884139 -0.37636588688318029 0 -0.40465459864295228 -0.37650109000307358 0 -0.39431275766669582 -0.38061373190328529 0 -0.40465459864295228 -0.37650109000307358 0 -0.3968495855878465 -0.36923685638487008 0 -0.40962993039643741 -0.3898634720616666 0 -0.39431275766669582 -0.38061373190328529 0 -0.40465459864295228 -0.376501090003
[...]
<PointData Scalars="" Vectors="displacement," Tensors="">
<DataArray type="Float64" Name="displacement" NumberOfComponents="3" format="ascii">
-1.0431348696280264e-06 0.073023079770607596 0 6.9564241993813027e-07 0.074995814183064238 0 -3.3945259176896225e-07 0.074940384505387397 0 6.9564241993813027e-07 0.074995814183064238 0 -3.3945259176896225e-07 0.074940384505387397 0 -3.4510867115402743e-07 0.075001843210171074 0 -2.4118276758200917e-07 0.07301809273031537 0 6.8137793141219431e-06 0.073954982606718997 0 2.7104725471286751e-07 0.073011959163830853 0 0.0003929157201763589 0.071877237343954112 0 0.00037040677775791009 0.07260175712031329 0 2.7104725471286751e-07 0.073011959163830853 0 0.0003929157201763589 0.071877237343954112 0 2.1907215420993587e-06 0.069900035440239899 0 0.0003929157201763589 0.071877237343954112 0 0.0002279630766183331 0.073362875196824912 0 0.00031745679058080929 0.072833815998225443 0 0.0003929157201763589 0.071877237343954112 0 0.00037040677775791009 0.07260175712031329 0 0.0002279630766183331 0.073362875196824912 0 6.8137793141219431e-06 0.073954982606718997 0 3.5268661471511732e-07 0.074998231296753662 0 0.00037040677775791009 0.07260175712031329 0 2.551559771308083e-06 0.07499489350101253 0 0.0002279630766183331 0.073362875196824912 0 2.551559771308083e-06 0.07499489350101253 0 0.0002279630766183331 0.073362875196824912 0 0.00021949098560912058 0.074026121559274474 0 0.0002279630766183331 0.073362875196824912 0 0.00021949098560912058 0.074026121559274474 0 0.00031745679058080929 0.072833815998225443 0 0.0003455187640011944 0.073437677800570228 0 0.00021949098560912058 0.074026121559274474 0 0.00031745679058080929 0.072833815998225443 0 0.0003455187640011944 0.073437677800570228 0 0.00021949098560912058 0.074026121559274474 0 0.00015300997139692911 0.074057123782587941 0 0.00021949098560912058 0.074026121559274474 0 -7.1713128150547364e-07 0.074998852377845787 0 0.00015300997139692911 0.074057123782587941 0 2.551559771308083e-06 0.07499489350101253 0 0.00021949098560912058 0.074026121559274474 0 -7.1713128150547364e-07 0.074998852377845787 0 0.0004444199521839764 0.072729885345166057 0 0.0015014439267954497 0.071484804791890483 0 0.0009898822916398957 0.072432416308639766 0 0.0003455187640011944 0.073437677800570228 0 0.0004444199521839764 0.072729885345166057 0 0.00031745679058080929 0.072833815998225443 0 0.0003455187640011944 0.073437677800570228 0 0.0004444199521839764 0.072729885345166057 0 0.00055081981061938349 0.073144531865134602 0 0.0004444199521839764 0.072729885345166057 0 0.00031745679058080929 0.072833815998225443 0 -0.00056568888289010874 0.072333833793210844 0 0.0004444199521839764 0.072729885345166057 0 -0.00056568888289010874 0.072333833793210844 0 0.0015014439267954497 0.071484804791890483 0 0.00031798283230909102 0.068551911535959964 0 0.00046187580485782399 0.069702334138668373 0 0.00031745679058080929 0.072833815998225443 0 -0.00056568888289010874 0.072333833793210844 0 0.00036508607211453546 0.070791428525578654 0 0.0003929157201763589 0.071877237343954112 0 0.00031745679058080929 0.072833815998225443 0 0.00036508607211453546 0.070791428525578654 0 0.0003929157201763589 0.071877237343954112 0 0.00036508607211453546 0.070791428525578654 0 2.1907215420993587e-06 0.069900035440239899 0 0.00036508607211453546 0.070791428525578654 0 2.1907215420993587e-06 0.069900035440239899 0 -4.1528866481402021e-06 0.06678919995818916 0 0.00031798283230909102 0.068551911535959964 0 7.9377955588230497e-07 0.066783890403915858 0 0.001757249224841265 0.06470489251546449 0 4.7298512424684663e-07 0.066774796069143785 0 0.00072100689550244027 0.064377713202546843 0 -0.00056568888289010874 0.072333833793210844 0 0.00036508607211453546 0.070791428525578654 0 -4.1528866481402021e-06 0.06678919995818916 0 4.7298512424684663e-07 0.066774796069143785 0 0.00072100689550244027 0.064377713202546843 0 1.891483204400866e-06 0.062390537368629158 0 0.00072100689550244027 0.064377713202546843 0 1.891483204400866e-06 0.062390537368629158 0 7.2026518874380478e-05 0.063884302188283504 0 1.891483204400866e-06 0.062390537368629158 0 7.2026518874380478e-05 0.063884302188283504 0 -0.00017270708572296114 0.06156650657150893 0 0.001757249224841265 0.06470489251546449 0 0.00072100689550244027 0.064377713202546843 0 7.2026518874380478e-05 0.063884302188283504 0 -3.3319667805825967e-06 0.057993542843291376 0 -0.00139915282609561 0.06248564855955728 0 -0.00053491093524316718 0.05568257701718049 0 -5.4773013230152643e-05 0.058904061876433565 0 -6.9289499169611672e-05 0.058414963226794285 0 -3.3319667805825967e-06 0.057993542843291376 0 -0.00017270708572296114 0.06156650657150893 0 -0.00139915282609561 0.06248564855955728 0 1.891483204400866e-06 0.062390537368629158 0 -3.3319667805825967e-06 0.057993542843291376 0 -0.00017270708572296114 0.06156650657150893 0 7.2026518874380478e-05 0.063884302188283504 0 -0.00017270708572296114 0.06156650657150893 0 -0.00139915282609561 0.06248564855955728 0 7.2026518874380478e-05 0.063884302188283504 0 -0.00139915282609561 0.06248564855955728 0 -0.0013554072712848374 0.066781189734234178 0 -0.00080500242218208224 0.051010268807759496 0 -0.00037006705192478714 0.052153130476655943 0 -0.00053878043086031378 0.051123082636607295 0 -0.00080500242218208224 0.051010268807759496 0 -0.00053491093524316718 0.05568257701718049 0 -0.00037006705192478714 0.052153130476655943 0 0.00012405414319904275 0.051635871691495791 0 -0.00053878043086031378 0.051123082636607295 0 -0.00069780882054171136 0.051588493440620005 0 -0.00080500242218208224 0.051010268807759496 0 0.00012405414319904275 0.051635871691495791 0 -0.00053878043086031378 0.051123082636607295 0 -5.4773013230152643e-05 0.058904061876433565 0 0.00044706525345479666 0.060591548244756759 0 -0.00080500242218208224 0.051010268807759496 0 0.00012405414319904275 0.051635871691495791 0 0.0019347566465891153 0.051400297997094162 0 0.0017572957648057756 0.052572068774123147 0 0.0033611530591021793 0.052232311233306586 0 0.0019753354883494394 0.054181844239241252 0 0.00012405414319904275 0.051635871691495791 0 0.0017572957648057756 0.052572068774123147 0 0.00076732651478450282 0.05337817464378234 0 0.00012405414319904275 0.051635871691495791 0 0.0017572957648057756 0.052572068774123147 0 0.0019347566465891153 0.051400297997094162 0 0.00012405414319904275 0.051635871691495791 0 -0.00065326858173272366 0.053177668115581479 0 0.00076732651478450282 0.05337817464378234 0 0.00012405414319904275 0.051635871691495791 0 -0.00065326858173272366 0.053177668115581479 0 -0.00069780882054171136 0.051588493440620005 0 0.001757249224841265 0.06470489251546449 0 0.00030268582807266693 0.067551643441226619 0 0.0015014439267954497 0.071484804791890483 0 0.001757249224841265 0.06470489251546449 0 7.2026518874380478e-05 0.063884302188283504 0 0.00030268582807266693 0.067551643441226619 0 0.00030268582807266693 0.067551643441226619 0 -0.0013554072712848374 0.066781189734234178 0 -0.0008379891295615205 0.069336964053983513 0 7.2026518874380478e-05 0.063884302188283504 0 0.00030268582807266693 0.067551643441226619 0 -0.0013554072712848374 0.066781189734234178 0 0.0017572957648057756 0.052572068774123147 0 0.0019347566465891153 0.051400297997094162 0 0.0033611530591021793 0.052232311233306586 0 0.00044706525345479666 0.060591548244756759 0 0.00077311297052106342 0.061828241010260208 0 0.00077311297052106342 0.061828241010260208 0 0.0014512792351997583 0.063136693815693742 0 0.00030268582807266693 0.067551643441226619 0 0.00069843759592120279 0.071782559111880279 0 0.0015014439267954497 0.071484804791890483 0 0.00030268582807266693 0.067551643441226619 0 -0.0008379891295615205 0.069336964053983513 0 0.00069843759592120279 0.071782559111880279 0 0.00069843759592120279 0.071782559111880279 0 0.0015014439267954497 0.071484804791890483 0 0.001209602943990674 0.072147887814725961 0 0.001209602943990674 0.072147887814725961 0 0.0011708421011643177 0.072092287281297018 0 0.0012080427903945622 0.072352186294033533 0 0.00069843759592120279 0.071782559111880279 0 0.001209602943990674 0.072147887814725961 0 0.0011708421011643177 0.072092287281297018 0 0.0033611530591021793 0.052232311233306586 0 0.0040927078749287884 0.055834409475245886 0 0.0019753354883494394 0.054181844239241252 0 0.00052872173634029972 0.07168976688784276 0 0.00069843759592120279 0.071782559111880279 0 0.0011708421011643177 0.072092287281297018 0 0.00052872173634029972 0.07168976688784276 0 0.0011708421011643177 0.072092287281297018 0 0.0015859758360430875 0.072196310542757838 0 0.00077311297052106342 0.061828241010260208 0 0.0020556873830753775 0.063961940149283428 0 0.0011708421011643177 0.072092287281297018 0 0.0015859758360430875 0.072196310542757838 0 0.0014226774975225705 0.072111149765667987 0 0.0015859758360430875 0.072196310542757838 0 0.0014226774975225705 0.072111149765667987 0 0.0016366096017167999 0.071734246309754571 0 0.0014226774975225705 0.072111149765667987 0 0.0016366096017167999 0.071734246309754571 0 0.0012080427903945622 0.072352186294033533 0 0.0011708421011643177 0.072092287281297018 0 0.0014226774975225705 0.072111149765667987 0 0.0012080427903945622 0.072352186294033533 0 -0.00065326858173272366 0.053177668115581479 0 0.00035869018620306989 0.054579825687011072 0 -0.00088926332362194115 0.055571220434489088 0 -0.00065326858173272366 0.053177668115581479 0 0.00035869018620306989 0.054579825687011072 0 0.00076732651478450282 0.05337817464378234 0 0.00035869018620306989 0.054579825687011072 0 0.00076732651478450282 0.05337817464378234 0 0.0019753354883494394 0.054181844239241252 0 0.0017572957648057756 0.052572068774123147 0 0.00076732651478450282 0.05337817464378234 0 0.0019753354883494394 0.054181844239241252 0 0.0040927078749287884 0.055834409475245886 0 0.00083963775369140731 0.056947391041384091 0 0.0018126520543545444 0.059783313133099945 0 0.00035869018620306989 0.054579825687011072 0 0.0019753354883494394 0.054181844239241252 0 0.00083963775369140731 0.056947391041384091 0 0.0040927078749287884 0.055834409475245886 0 0.0019753354883494394 0.054181844239241252 0 0.00083963775369140731 0.056947391041384091 0 0.00035869018620306989 0.054579825687011072 0 0.00083963775369140731 0.056947391041384091 0 -0.00088926332362194115 0.055571220434489088 0 0.00083963775369140731 0.056947391041384091 0 -0.00088926332362194115 0.055571220434489088 0 -0.0011742849744524164 0.057784546105245665 0 -0.00071198149254478272 0.059859561111026763 0 -0.0011742849744524164 0.057784546105245665 0 -0.0026046002839082926 0.059371389624352872 0 0.00083963775369140731 0.056947391041384091 0 -0.00071198149254478272 0.059859561111026763 0 -0.0011742849744524164 0.057784546105245665 0 0.00083963775369140731 0.056947391041384091 0 -0.00071198149254478272 0.059859561111026763 0 0.0018126520543545444 0.059783313133099945 0 0.0018126520543545444 0.059783313133099945 0 0.0045007941226648815 0.061307102652690196 0 0.0017327585334152517 0.064096185018955934 0 0.0018126520543545444 0.059783313133099945 0 -0.00098358887168367086 0.063837264985377576 0 0.0017327585334152517 0.064096185018955934 0 -0.00071198149254478272 0.059859561111026763 0 0.0018126520543545444 0.059783313133099945 0 -0.00098358887168367086 0.063837264985377576 0 -0.00071198149254478272 0.059859561111026763 0 -0.00098358887168367086 0.063837264985377576 0 -0.002621339422106338 0.061692305801994023 0 0.0015859758360430875 0.072196310542757838 0 0.0016366096017167999 0.071734246309754571 0 0.0028100225217032354 0.071127210800477778 0 0.0040927078749287884 0.055834409475245886 0 0.0018126520543545444 0.059783313133099945 0 0.0045007941226648815 0.061307102652690196 0 0.0020556873830753775 0.063961940149283428 0 0.0027220717498178167 0.065874802845033498 0 0.0028100225217032354 0.071127210800477778 0 0.0019675456107069718 0.070723808803609498 0 0.0024922363325431533 0.069255530757747513 0 0.0019675456107069718 0.070723808803609498 0 0.0012734422599567847 0.071021875465872894 0 0.0018865607024242381 0.069853621191613174 0 0.0016366096017167999 0.071734246309754571 0 0.0019675456107069718 0.070723808803609498 0 0.0012734422599567847 0.071021875465872894 0 0.0016366096017167999 0.071734246309754571 0 0.0028100225217032354 0.071127210800477778 0 0.0019675456107069718 0.070723808803609498 0 0.0012734422599567847 0.071021875465872894 0 0.00099826557597840768 0.072198844298018872 0 0.00056364277342207676 0.071609325607260479 0 0.0016366096017167999 0.071734246309754571 0 0.0012734422599567847 0.071021875465872894 0 0.00099826557597840768 0.072198844298018872 0 0.00099826557597840768 0.072198844298018872 0 0.00056364277342207676 0.071609325607260479 0 0.00035258646964032598 0.072571623408235836 0 0.0012734422599567847 0.071021875465872894 0 0.00056364277342207676 0.071609325607260479 0 0.00065432732200108748 0.070593998968683541 0 0.00056364277342207676 0.071609325607260479 0 -0.00014399380275746781 0.071092358116459559 0 0.00065432732200108748 0.070593998968683541 0 -0.00014399380275746781 0.071092358116459559 0 -0.0011223155137668076 0.071936505412671284 0 1.9124359840559518e-06 0.072059717858760516 0 0.00056364277342207676 0.071609325607260479 0 -0.00014399380275746781 0.071092358116459559 0 1.9124359840559518e-06 0.072059717858760516 0 -7.0536871256728835e-05 0.073707737916810651 0 0.0001968749078077147 0.074324576899816114 0 -4.5362194533493843e-05 0.075077071165593659 0 -4.4987617456670176e-08 0.074998654661546926 0 -5.9424178157982451e-08 0.075000900233760034 0 -4.5362194533493843e-05 0.075077071165593659 0 1.7969693707581715e-05 0.074992820839574106 0 -5.9424178157982451e-08 0.075000900233760034 0 -0.00014399380275746781 0.071092358116459559 0 -0.0011223155137668076 0.071936505412671284 0 -0.0012305129411490684 0.070490007850340819 0 -7.0536871256728835e-05 0.073707737916810651 0 -0.0001225102041377527 0.073766062303087104 0 -0.0011223155137668076 0.071936505412671284 0 1.9124359840559518e-06 0.072059717858760516 0 -7.6798309775380253e-05 0.07303236705276249 0 -4.5362194533493843e-05 0.075077071165593659 0 -4.4987617456670176e-08 0.074998654661546926 0 -0.00028604745982876794 0.074399825500211972 0 -0.0011223155137668076 0.071936505412671284 0 -7.6798309775380253e-05 0.07303236705276249 0 -0.00028604745982876794 0.074399825500211972 0 0.00056364277342207676 0.071609325607260479 0 1.9124359840559518e-06 0.072059717858760516 0 0.00035258646964032598 0.072571623408235836 0 1.9124359840559518e-06 0.072059717858760516 0 -7.6798309775380253e-05 0.07303236705276249 0 0.00035258646964032598 0.072571623408235836 0 0.00035258646964032598 0.072571623408235836 0 0.00022947412903962007 0.073568898362827165 0 0.00064521884461213547 0.072872586656119981 0 -7.6798309775380253e-05 0.07303236705276249 0 0.00022947412903962007 0.073568898362827165 0 -0.00028604745982876794 0.074399825500211972 0 -7.6798309775380253e-05 0.07303236705276249 0 0.00035258646964032598 0.072571623408235836 0 0.00022947412903962007 0.073568898362827165 0 0.00022947412903962007 0.073568898362827165 0 -0.00028604745982876794 0.074399825500211972 0 -7.6403420523081709e-06 0.074279813610853271 0 -4.4987617456670176e-08 0.074998654661546926 0 -0.00028604745982876794 0.074399825500211972 0 -7.1713128150547364e-07 0.074998852377845787 0 -0.00028604745982876794 0.074399825500211972 0 -7.6403420523081709e-06 0.074279813610853271 0 -7.1713128150547364e-07 0.074998852377845787 0 -7.6403420523081709e-06 0.074279813610853271 0 -7.1713128150547364e-07 0.074998852377845787 0 0.00015300997139692911 0.074057123782587941 0 0.0003455187640011944 0.073437677800570228 0 0.00015300997139692911 0.074057123782587941 0 0.00055081981061938349 0.073144531865134602 0 0.00022947412903962007 0.073568898362827165 0 0.00015300997139692911 0.074057123782587941 0 0.00055081981061938349 0.073144531865134602 0 0.00022947412903962007 0.073568898362827165 0 -7.6403420523081709e-06 0.074279813610853271 0 0.00015300997139692911 0.074057123782587941 0 0.0004444199521839764 0.072729885345166057 0 0.00055081981061938349 0.073144531865134602 0 0.0009898822916398957 0.072432416308639766 0 0.00055081981061938349 0.073144531865134602 0 0.00092316199919677429 0.072638281198206658 0 0.00064521884461213547 0.072872586656119981 0 0.00055081981061938349 0.073144531865134602 0 0.0009898822916398957 0.072432416308639766 0 0.00092316199919677429 0.072638281198206658 0 0.0015014439267954497 0.071484804791890483 0 0.001209602943990674 0.072147887814725961 0 0.0009898822916398957 0.072432416308639766 0 0.001209602943990674 0.072147887814725961 0 0.0009898822916398957 0.072432416308639766 0 0.0012080427903945622 0.072352186294033533 0 0.0009898822916398957 0.072432416308639766 0 0.00092316199919677429 0.072638281198206658 0 0.0012080427903945622 0.072352186294033533 0 0.0016366096017167999 0.071734246309754571 0 0.00099826557597840768 0.072198844298018872 0 0.0012080427903945622 0.072352186294033533 0 0.00099826557597840768 0.072198844298018872 0 0.00092316199919677429 0.072638281198206658 0 0.0012080427903945622 0.072352186294033533 0 0.00099826557597840768 0.072198844298018872 0 0.00092316199919677429 0.072638281198206658 0 0.00064521884461213547 0.072872586656119981 0 0.00099826557597840768 0.072198844298018872 0 0.00035258646964032598 0.072571623408235836 0 0.00064521884461213547 0.072872586656119981 0 0.00022947412903962007 0.073568898362827165 0 0.00055081981061938349 0.073144531865134602 0 0.00064521884461213547 0.072872586656119981 0 0.00030206202135039473 0.042881646995547806 0 0.00040058229422922759 0.044089872902187993 0 -0.00028273670597872531 0.043795239099851176 0 0.00030206202135039473 0.042881646995547806 0 0.00077432641759221166 0.043965689129021893 0 0.00040058229422922759 0.044089872902187993 0 0.00030206202135039473 0.042881646995547806 0 -0.00028273670597872531 0.043795239099851176 0 -0.00032340600439105137 0.042513333936423946 0 0.00030206202135039473 0.042881646995547806 0 0.00077432641759221166 0.043965689129021893 0 0.00077503060407880641 0.042913342750886069 0 0.00077432641759221166 0.043965689129021893 0 0.00077503060407880641 0.042913342750886069 0 0.00093462727175004331 0.044463662339944574 0 0.00077503060407880641 0.042913342750886069 0 0.00027154984562245037 0.039911570329040538 0 -4.0317649927790799e-05 0.041261258209510897 0 0.00030206202135039473 0.042881646995547806 0 0.00077503060407880641 0.042913342750886069 0 -4.0317649927790799e-05 0.041261258209510897 0 0.00030206202135039473 0.042881646995547806 0 -4.0317649927790799e-05 0.041261258209510897 0 -0.00032340600439105137 0.042513333936423946 0 0.00027154984562245037 0.039911570329040538 0 7.9699968473669597e-07 0.040418445751304724 0 7.813905693832384e-07 0.036022762242098529 0 0.00027154984562245037 0.039911570329040538 0 7.9699968473669597e-07 0.040418445751304724 0 0.00051406930523222158 0.042772043453685828 0 0.00077503060407880641 0.042913342750886069 0 0.00027154984562245037 0.039911570329040538 0 0.00051406930523222158 0.042772043453685828 0 0.00077503060407880641 0.042913342750886069 0 0.00051406930523222158 0.042772043453685828 0 0.0007104310469944478 0.044997744078845971 0 0.00051406930523222158 0.042772043453685828 0 1.2146719682456778e-06 0.044811874659910669 0 0.0007104310469944478 0.044997744078845971 0 7.9699968473669597e-07 0.040418445751304724 0 0.00051406930523222158 0.042772043453685828 0 1.2146719682456778e-06 0.044811874659910669 0 1.2146719682456778e-06 0.044811874659910669 0 0.0007104310469944478 0.044997744078845971 0 0.00016566438074927298 0.047778845979579911 0 0.0007104310469944478 0.044997744078845971 0 0.00093462727175004331 0.044463662339944574 0 0.00029686948742347301 0.046274165791475572 0 0.00077503060407880641 0.042913342750886069 0 0.0007104310469944478 0.044997744078845971 0 0.00093462727175004331 0.044463662339944574 0 0.00077432641759221166 0.043965689129021893 0 0.00093462727175004331 0.044463662339944574 0 0.00087802717190027361 0.044259265219382796 0 0.00093462727175004331 0.044463662339944574 0 0.00029686948742347301 0.04627416579