<?xml version="1.0"?>
<VTKFile type="UnstructuredGrid" version="0.1" byte_order="LittleEndian">
<UnstructuredGrid>
<Piece NumberOfPoints="30881" NumberOfCells="10862">
<Points>
<DataArray type="Float64" NumberOfComponents="3" format="ascii">
-0.49999999999999828 -0.48677703703187492 0 -0.5 -0.5 0 -0.48129281494584059 -0.49338851851593718 0 -0.5 -0.5 0 -0.48129281494584059 -0.49338851851593718 0 -0.46258562989168328 -0.5 0 -0.49999999999999828 -0.48677703703187492 0 -0.48129281494584059 -0.49338851851593718 0 -0.49999999999999828 -0.48677703703187492 0 -0.4824545428279598 -0.47451624516148783 0 -0.48129281494584059 -0.49338851851593718 0 -0.49999999999999828 -0.48677703703187492 0 -0.4824545428279598 -0.47451624516148783 0 -0.5 -0.46599539173150673 0 -0.4824545428279598 -0.47451624516148783 0 -0.46853075243710779 -0.48354990242643758 0 -0.46411508256092049 -0.46598235294430129 0 -0.4824545428279598 -0.47451624516148783 0 -0.48129281494584059 -0.49338851851593718 0 -0.46853075243710779 -0.48354990242643758 0 -0.48129281494584059 -0.49338851851593718 0 -0.46258562989168328 -0.5 0 -0.48129281494584059 -0.49338851851593718 0 -0.46258562989168328 -0.5 0 -0.46853075243710779 -0.48354990242643758 0 -0.46258562989168328 -0.5 0 -0.46853075243710779 -0.48354990242643758 0 -0.45147378687733691 -0.48362213557840178 0 -0.46853075243710779 -0.48354990242643758 0 -0.45147378687733691 -0.48362213557840178 0 -0.46411508256092049 -0.46598235294430129 0 -0.4457251648104853 -0.47020164095208389 0 -0.45147378687733691 -0.48362213557840178 0 -0.46411508256092049 -0.46598235294430129 0 -0.4457251648104853 -0.47020164095208389 0 -0.45147378687733691 -0.48362213557840178 0 -0.43513446131126993 -0.48199891714758791 0 -0.45147378687733691 -0.48362213557840178 0 -0.43275163025255442 -0.5 0 -0.43513446131126993 -0.48199891714758791 0 -0.46258562989168328 -0.5 0 -0.45147378687733691 -0.48362213557840178 0 -0.43275163025255442 -0.5 0 -0.4467190029717853 -0.45478934699519452 0 -0.4422915115958943 -0.43555510214664611 0 -0.43246707723660932 -0.44794326854796312 0 -0.4457251648104853 -0.47020164095208389 0 -0.4467190029717853 -0.45478934699519452 0 -0.46411508256092049 -0.46598235294430129 0 -0.4457251648104853 -0.47020164095208389 0 -0.4467190029717853 -0.45478934699519452 0 -0.43016578207734568 -0.46313500011938619 0 -0.4467190029717853 -0.45478934699519452 0 -0.46411508256092049 -0.46598235294430129 0 -0.47114575579794699 -0.4403844242888923 0 -0.4467190029717853 -0.45478934699519452 0 -0.47114575579794699 -0.4403844242888923 0 -0.4422915115958943 -0.43555510214664611 0 -0.47114575579794699 -0.4403844242888923 0 -0.4422915115958943 -0.43555510214664611 0 -0.46411508256092049 -0.46598235294430129 0 -0.47114575579794699 -0.4403844242888923 0 -0.48354307623736548 -0.45841843211146538 0 -0.4824545428279598 -0.47451624516148783 0 -0.46411508256092049 -0.46598235294430129 0 -0.48354307623736548 -0.45841843211146538 0 -0.4824545428279598 -0.47451624516148783 0 -0.48354307623736548 -0.45841843211146538 0 -0.5 -0.46599539173150673 0 -0.48354307623736548 -0.45841843211146538 0 -0.5 -0.46599539173150673 0 -0.49999999999999972 -0.44521374643113848 0 -0.47114575579794699 -0.4403844242888923 0 -0.49999999999999972 -0.44521374643113848 0 -0.47114575579794699 -0.4403844242888923 0 -0.49999999999999972 -0.44521374643113848 0 -0.48704432221743971 -0.42935617662229603 0 -0.47114575579794699 -0.4403844242888923 0 -0.48354307623736548 -0.45841843211146538 0 -0.49999999999999972 -0.44521374643113848 0 -0.49999999999999972 -0.44521374643113848 0 -0.48704432221743971 -0.42935617662229603 0 -0.5 -0.41591957503128979 0 -0.48704432221743971 -0.42935617662229603 0 -0.5 -0.41591957503128979 0 -0.47703153307181151 -0.41590696073786332 0 -0.5 -0.41591957503128979 0 -0.47703153307181151 -0.41590696073786332 0 -0.48817838912021821 -0.4022119694541284 0 -0.47114575579794699 -0.4403844242888923 0 -0.48704432221743971 -0.42935617662229603 0 -0.47703153307181151 -0.41590696073786332 0 -0.5 -0.38662540363144121 0 -0.47568202340906118 -0.39039593841591919 0 -0.4947615751445838 -0.37332156409002909 0 -0.47568202340906118 -0.39039593841591919 0 -0.4947615751445838 -0.37332156409002909 0 -0.5 -0.38662540363144121 0 -0.48817838912021821 -0.4022119694541284 0 -0.47568202340906118 -0.39039593841591919 0 -0.5 -0.41591957503128979 0 -0.5 -0.38662540363144121 0 -0.48817838912021821 -0.4022119694541284 0 -0.47703153307181151 -0.41590696073786332 0 -0.48817838912021821 -0.4022119694541284 0 -0.47568202340906118 -0.39039593841591919 0 -0.47703153307181151 -0.41590696073786332 0 -0.47568202340906118 -0.39039593841591919 0 -0.45660247167353862 -0.40747031274180939 0 -0.47568202340906118 -0.39039593841591919 0 -0.48030931097003587 -0.37191064435083931 0 -0.46669490250066459 -0.37481721741951951 0 -0.47568202340906118 -0.39039593841591919 0 -0.4947615751445838 -0.37332156409002909 0 -0.48030931097003587 -0.37191064435083931 0 -0.45332061783919553 -0.38729481725706361 0 -0.46669490250066459 -0.37481721741951951 0 -0.45095991715087752 -0.36968037302039969 0 -0.47568202340906118 -0.39039593841591919 0 -0.45332061783919553 -0.38729481725706361 0 -0.46669490250066459 -0.37481721741951951 0 -0.47568202340906118 -0.39039593841591919 0 -0.45660247167353862 -0.40747031274180939 0 -0.47568202340906118 -0.39039593841591919 0 -0.45332061783919553 -0.38729481725706361 0 -0.45660247167353862 -0.40747031274180939 0 -0.44332653075004852 -0.401690115615219 0 -0.44646247228389868 -0.41654464256061052 0 -0.42870657106664078 -0.39987574649354879 0 -0.45332061783919553 -0.38729481725706361 0 -0.44332653075004852 -0.401690115615219 0 -0.43479631603355468 -0.39077639303142497 0 -0.45332061783919553 -0.38729481725706361 0 -0.44332653075004852 -0.401690115615219 0 -0.45660247167353862 -0.40747031274180939 0 -0.45332061783919553 -0.38729481725706361 0 -0.43421362475025049 -0.37527491429266319 0 -0.43479631603355468 -0.39077639303142497 0 -0.45332061783919553 -0.38729481725706361 0 -0.43421362475025049 -0.37527491429266319 0 -0.45095991715087752 -0.36968037302039969 0 -0.47114575579794699 -0.4403844242888923 0 -0.45663439814062529 -0.42533932462455271 0 -0.4422915115958943 -0.43555510214664611 0 -0.47114575579794699 -0.4403844242888923 0 -0.47703153307181151 -0.41590696073786332 0 -0.45663439814062529 -0.42533932462455271 0 -0.45663439814062529 -0.42533932462455271 0 -0.45660247167353862 -0.40747031274180939 0 -0.44646247228389868 -0.41654464256061052 0 -0.47703153307181151 -0.41590696073786332 0 -0.45663439814062529 -0.42533932462455271 0 -0.45660247167353862 -0.40747031274180939 0 -0.44332653075004852 -0.401690115615219 0 -0.45660247167353862 -0.40747031274180939 0 -0.44646247228389868 -0.41654464256061052 0 -0.45660247167353862 -0.40747031274180939 0 -0.44646247228389868 -0.41654464256061052 0 -0.44646247228389868 -0.41654464256061052 0 -0.4375229199380159 -0.42454468706769971 0 -0.45663439814062529 -0.42533932462455271 0 -0.4375229199380159 -0.42454468706769971 0 -0.4422915115958943 -0.43555510214664611 0 -0.45663439814062529 -0.42533932462455271 0 -0.44646247228389868 -0.41654464256061052 0 -0.4375229199380159 -0.42454468706769971 0 -0.4375229199380159 -0.42454468706769971 0 -0.4422915115958943 -0.43555510214664611 0 -0.43077617074680319 -0.43406335077952207 0 -0.43077617074680319 -0.43406335077952207 0 -0.42550232634077589 -0.42345940056268039 0 -0.41950844772475421 -0.43888456563633732 0 -0.4375229199380159 -0.42454468706769971 0 -0.43077617074680319 -0.43406335077952207 0 -0.42550232634077589 -0.42345940056268039 0 -0.44646247228389868 -0.41654464256061052 0 -0.41657232816672918 -0.41306671883907142 0 -0.42870657106664078 -0.39987574649354879 0 -0.44646247228389868 -0.41654464256061052 0 -0.4375229199380159 -0.42454468706769971 0 -0.42550232634077589 -0.42345940056268039 0 -0.44646247228389868 -0.41654464256061052 0 -0.42550232634077589 -0.42345940056268039 0 -0.41657232816672918 -0.41306671883907142 0 -0.44646247228389868 -0.41654464256061052 0 -0.41657232816672918 -0.41306671883907142 0 -0.42550232634077589 -0.42345940056268039 0 -0.41657232816672918 -0.41306671883907142 0 -0.41333489101611293 -0.42699700567040988 0 -0.41657232816672918 -0.41306671883907142 0 -0.41333489101611293 -0.42699700567040988 0 -0.39893236021425188 -0.42931692235905211 0 -0.41333489101611293 -0.42699700567040988 0 -0.39893236021425188 -0.42931692235905211 0 -0.41950844772475421 -0.43888456563633732 0 -0.42550232634077589 -0.42345940056268039 0 -0.41333489101611293 -0.42699700567040988 0 -0.41950844772475421 -0.43888456563633732 0 -0.43421362475025049 -0.37527491429266319 0 -0.42478231784314502 -0.38643128255249681 0 -0.41656514696884139 -0.37636588688318029 0 -0.43421362475025049 -0.37527491429266319 0 -0.42478231784314502 -0.38643128255249681 0 -0.43479631603355468 -0.39077639303142497 0 -0.42478231784314502 -0.38643128255249681 0 -0.43479631603355468 -0.39077639303142497 0 -0.42870657106664078 -0.39987574649354879 0 -0.44332653075004852 -0.401690115615219 0 -0.43479631603355468 -0.39077639303142497 0 -0.42870657106664078 -0.39987574649354879 0 -0.41657232816672918 -0.41306671883907142 0 -0.40962993039643741 -0.3898634720616666 0 -0.3946356370269814 -0.39577424904278191 0 -0.42478231784314502 -0.38643128255249681 0 -0.42870657106664078 -0.39987574649354879 0 -0.40962993039643741 -0.3898634720616666 0 -0.41657232816672918 -0.41306671883907142 0 -0.42870657106664078 -0.39987574649354879 0 -0.40962993039643741 -0.3898634720616666 0 -0.42478231784314502 -0.38643128255249681 0 -0.40962993039643741 -0.3898634720616666 0 -0.41656514696884139 -0.37636588688318029 0 -0.40962993039643741 -0.3898634720616666 0 -0.41656514696884139 -0.37636588688318029 0 -0.40465459864295228 -0.37650109000307358 0 -0.39431275766669582 -0.38061373190328529 0 -0.40465459864295228 -0.37650109000307358 0 -0.3968495855878465 -0.36923685638487008 0 -0.40962993039643741 -0.3898634720616666 0 -0.39431275766669582 -0.38061373190328529 0 -0.40465459864295228 -0.376501090003
[...]
<PointData Scalars="" Vectors="displacement," Tensors="">
<DataArray type="Float64" Name="displacement" NumberOfComponents="3" format="ascii">
0.074999550386945668 -2.0708810583262179e-07 0 0.074998515122645937 4.1836065434753919e-07 0 0.072754863949955145 -7.0308598592914535e-08 0 0.074998515122645937 4.1836065434753919e-07 0 0.072754863949955145 -7.0308598592914535e-08 0 0.069391259467666319 -6.283439524797032e-07 0 0.074993364700170012 1.0832577065223525e-06 0 0.072238485728874979 0.00010038680600873802 0 0.07499572876745933 1.3111435924198952e-06 0 0.073151811600300598 0.00053869232684091752 0 0.072049688468779155 0.00063740043480179623 0 0.07499572876745933 1.3111435924198952e-06 0 0.073151811600300598 0.00053869232684091752 0 0.074998890949601313 9.5694785466615878e-08 0 0.073151811600300598 0.00053869232684091752 0 0.071245700139118226 0.0004540365557100961 0 0.071858591305180769 0.00062031860978050833 0 0.073151811600300598 0.00053869232684091752 0 0.072049688468779155 0.00063740043480179623 0 0.071245700139118226 0.0004540365557100961 0 0.072238485728874979 0.00010038680600873802 0 0.069394678174471494 -7.1454979084290841e-07 0 0.072049688468779155 0.00063740043480179623 0 0.069386852185703632 2.3961816443947232e-06 0 0.071245700139118226 0.0004540365557100961 0 0.069386852185703632 2.3961816443947232e-06 0 0.071245700139118226 0.0004540365557100961 0 0.069405613973382393 0.00040353026058567525 0 0.071245700139118226 0.0004540365557100961 0 0.069405613973382393 0.00040353026058567525 0 0.071858591305180769 0.00062031860978050833 0 0.070124633394054892 0.00034193350349334109 0 0.069405613973382393 0.00040353026058567525 0 0.071858591305180769 0.00062031860978050833 0 0.070124633394054892 0.00034193350349334109 0 0.069405613973382393 0.00040353026058567525 0 0.067995988535861099 0.00013904725931964204 0 0.069405613973382393 0.00040353026058567525 0 0.064916339595357614 5.0332100254299266e-07 0 0.067995988535861099 0.00013904725931964204 0 0.069386852185703632 2.3961816443947232e-06 0 0.069405613973382393 0.00040353026058567525 0 0.064916339595357614 5.0332100254299266e-07 0 0.071347044491686426 0.00030041351076841348 0 0.072380611094049488 -4.9311920487790715e-05 0 0.071272450612990312 -0.00028524757643131905 0 0.070124633394054892 0.00034193350349334109 0 0.071347044491686426 0.00030041351076841348 0 0.071858591305180769 0.00062031860978050833 0 0.070124633394054892 0.00034193350349334109 0 0.071347044491686426 0.00030041351076841348 0 0.069992325774169584 -0.00022005452194227257 0 0.071347044491686426 0.00030041351076841348 0 0.071858591305180769 0.00062031860978050833 0 0.072811131880455085 0.00072953934520850021 0 0.071347044491686426 0.00030041351076841348 0 0.072811131880455085 0.00072953934520850021 0 0.072380611094049488 -4.9311920487790715e-05 0 0.074121505990784112 0.00027817850859419819 0 0.073764376693633157 7.8393796442855155e-05 0 0.071858591305180769 0.00062031860978050833 0 0.072811131880455085 0.00072953934520850021 0 0.073597941111518683 0.00045326615067442353 0 0.073151811600300598 0.00053869232684091752 0 0.071858591305180769 0.00062031860978050833 0 0.073597941111518683 0.00045326615067442353 0 0.073151811600300598 0.00053869232684091752 0 0.073597941111518683 0.00045326615067442353 0 0.074998890949601313 9.5694785466615878e-08 0 0.073597941111518683 0.00045326615067442353 0 0.074998890949601313 9.5694785466615878e-08 0 0.074996830952301086 6.2581631852070568e-07 0 0.074121505990784112 0.00027817850859419819 0 0.074998375386879951 5.1326026914056258e-07 0 0.074148526311823268 0.00017921077802795344 0 0.074999463518590631 7.647432960995171e-08 0 0.074644625168734227 9.7216481418549582e-05 0 0.072811131880455085 0.00072953934520850021 0 0.073597941111518683 0.00045326615067442353 0 0.074996830952301086 6.2581631852070568e-07 0 0.074999463518590631 7.647432960995171e-08 0 0.074644625168734227 9.7216481418549582e-05 0 0.074999317321734732 1.8859902588491739e-07 0 0.074644625168734227 9.7216481418549582e-05 0 0.074999317321734732 1.8859902588491739e-07 0 0.074427975349284636 0.00016537043755254199 0 0.074999317321734732 1.8859902588491739e-07 0 0.074427975349284636 0.00016537043755254199 0 0.074817619380817699 0.00011128334663079347 0 0.074148526311823268 0.00017921077802795344 0 0.074644625168734227 9.7216481418549582e-05 0 0.074427975349284636 0.00016537043755254199 0 0.074999354181945158 1.490125012201657e-07 0 0.074824733784152275 0.00012705555440667104 0 0.074708846591058364 9.8247771228207324e-05 0 0.073338471346505119 -0.00039620986782135082 0 0.073645999113936336 -0.0002000170730809617 0 0.074999354181945158 1.490125012201657e-07 0 0.074817619380817699 0.00011128334663079347 0 0.074824733784152275 0.00012705555440667104 0 0.074999317321734732 1.8859902588491739e-07 0 0.074999354181945158 1.490125012201657e-07 0 0.074817619380817699 0.00011128334663079347 0 0.074427975349284636 0.00016537043755254199 0 0.074817619380817699 0.00011128334663079347 0 0.074824733784152275 0.00012705555440667104 0 0.074427975349284636 0.00016537043755254199 0 0.074824733784152275 0.00012705555440667104 0 0.074249205037189958 -3.1396776215244377e-06 0 0.072218906452467244 -0.00032593219349148702 0 0.073897746398606842 -0.00023633574386781506 0 0.073156112097168116 -0.00084611422766605574 0 0.072218906452467244 -0.00032593219349148702 0 0.074708846591058364 9.8247771228207324e-05 0 0.073897746398606842 -0.00023633574386781506 0 0.071960203373907072 -0.0016876343931292177 0 0.073156112097168116 -0.00084611422766605574 0 0.072845191352084018 -0.001609209638520391 0 0.072218906452467244 -0.00032593219349148702 0 0.071960203373907072 -0.0016876343931292177 0 0.073156112097168116 -0.00084611422766605574 0 0.073338471346505119 -0.00039620986782135082 0 0.072779186633221929 -0.00086104491358671696 0 0.072218906452467244 -0.00032593219349148702 0 0.071960203373907072 -0.0016876343931292177 0 0.070777988602736652 -0.0015589767712009864 0 0.07101997270553681 -0.0022957749471819175 0 0.070396560831716595 -0.0021908863353926164 0 0.071033166645942919 -0.0029337583559147745 0 0.071960203373907072 -0.0016876343931292177 0 0.07101997270553681 -0.0022957749471819175 0 0.071345575135313158 -0.0026745971924654957 0 0.071960203373907072 -0.0016876343931292177 0 0.07101997270553681 -0.0022957749471819175 0 0.070777988602736652 -0.0015589767712009864 0 0.071960203373907072 -0.0016876343931292177 0 0.071899065822150207 -0.002639453143794171 0 0.071345575135313158 -0.0026745971924654957 0 0.071960203373907072 -0.0016876343931292177 0 0.071899065822150207 -0.002639453143794171 0 0.072845191352084018 -0.001609209638520391 0 0.074148526311823268 0.00017921077802795344 0 0.07357609740863201 0.00011565313558992065 0 0.072380611094049488 -4.9311920487790715e-05 0 0.074148526311823268 0.00017921077802795344 0 0.074427975349284636 0.00016537043755254199 0 0.07357609740863201 0.00011565313558992065 0 0.07357609740863201 0.00011565313558992065 0 0.074249205037189958 -3.1396776215244377e-06 0 0.073646898966144486 -0.00018163547755047991 0 0.074427975349284636 0.00016537043755254199 0 0.07357609740863201 0.00011565313558992065 0 0.074249205037189958 -3.1396776215244377e-06 0 0.07101997270553681 -0.0022957749471819175 0 0.070777988602736652 -0.0015589767712009864 0 0.070396560831716595 -0.0021908863353926164 0 0.072779186633221929 -0.00086104491358671696 0 0.072489738925780353 -0.0011697626553309071 0 0.072489738925780353 -0.0011697626553309071 0 0.072640066000708062 -0.00097472214191847754 0 0.07357609740863201 0.00011565313558992065 0 0.072645007665674208 -0.00035100733988182361 0 0.072380611094049488 -4.9311920487790715e-05 0 0.07357609740863201 0.00011565313558992065 0 0.073646898966144486 -0.00018163547755047991 0 0.072645007665674208 -0.00035100733988182361 0 0.072645007665674208 -0.00035100733988182361 0 0.072380611094049488 -4.9311920487790715e-05 0 0.072027533691371146 -0.00046827100420902086 0 0.072027533691371146 -0.00046827100420902086 0 0.072288423765721574 -0.00067678091239772701 0 0.071438215402626445 -0.00086296764075480302 0 0.072645007665674208 -0.00035100733988182361 0 0.072027533691371146 -0.00046827100420902086 0 0.072288423765721574 -0.00067678091239772701 0 0.070396560831716595 -0.0021908863353926164 0 0.070844739061407272 -0.0032681573536001837 0 0.071033166645942919 -0.0029337583559147745 0 0.072847818187516011 -0.00011715350461335572 0 0.072645007665674208 -0.00035100733988182361 0 0.072288423765721574 -0.00067678091239772701 0 0.072847818187516011 -0.00011715350461335572 0 0.072288423765721574 -0.00067678091239772701 0 0.072331645033363479 -0.00098707015100224938 0 0.072489738925780353 -0.0011697626553309071 0 0.071908797933584942 -0.0016854176114044774 0 0.072288423765721574 -0.00067678091239772701 0 0.072331645033363479 -0.00098707015100224938 0 0.071824620927056007 -0.001118593289674914 0 0.072331645033363479 -0.00098707015100224938 0 0.071824620927056007 -0.001118593289674914 0 0.071443825134207189 -0.0016685616113043412 0 0.071824620927056007 -0.001118593289674914 0 0.071443825134207189 -0.0016685616113043412 0 0.071438215402626445 -0.00086296764075480302 0 0.072288423765721574 -0.00067678091239772701 0 0.071824620927056007 -0.001118593289674914 0 0.071438215402626445 -0.00086296764075480302 0 0.071899065822150207 -0.002639453143794171 0 0.071211409568167724 -0.0030794004271969817 0 0.071101442673792106 -0.0034439196965983894 0 0.071899065822150207 -0.002639453143794171 0 0.071211409568167724 -0.0030794004271969817 0 0.071345575135313158 -0.0026745971924654957 0 0.071211409568167724 -0.0030794004271969817 0 0.071345575135313158 -0.0026745971924654957 0 0.071033166645942919 -0.0029337583559147745 0 0.07101997270553681 -0.0022957749471819175 0 0.071345575135313158 -0.0026745971924654957 0 0.071033166645942919 -0.0029337583559147745 0 0.070844739061407272 -0.0032681573536001837 0 0.07089507028572993 -0.0033421321077174919 0 0.070851114368474327 -0.0030066756720566437 0 0.071211409568167724 -0.0030794004271969817 0 0.071033166645942919 -0.0029337583559147745 0 0.07089507028572993 -0.0033421321077174919 0 0.070844739061407272 -0.0032681573536001837 0 0.071033166645942919 -0.0029337583559147745 0 0.07089507028572993 -0.0033421321077174919 0 0.071211409568167724 -0.0030794004271969817 0 0.07089507028572993 -0.0033421321077174919 0 0.071101442673792106 -0.0034439196965983894 0 0.07089507028572993 -0.0033421321077174919 0 0.071101442673792106 -0.0034439196965983894 0 0.070569743488668249 -0.0034538039077596861 0 0.07032365383254667 -0.0030363781044510313 0 0.070569743488668249 -0.0034538039077596861 0 0.069876705151834223 -0.003225029060856077 0 0.07089507028572993 -0.0033421321077174919 0 0.07032365383254667 -0.0030363781044510313 0 0.070569743488668249 -0.0034538039077596861 0 0.07089507028572993 -0.0033421321077174919 0 0.07032365383254667 -0.0030363781044510313 0 0.070851114368474327 -0.0030066756720566437 0 0.070851114368474327 -0.0030066756720566437 0 0.071200116162269872 -0.0026977747546567351 0 0.070707348928324198 -0.0020694130870629432 0 0.070851114368474327 -0.0030066756720566437 0 0.06984393899979506 -0.0019723323864201119 0 0.070707348928324198 -0.0020694130870629432 0 0.07032365383254667 -0.0030363781044510313 0 0.070851114368474327 -0.0030066756720566437 0 0.06984393899979506 -0.0019723323864201119 0 0.07032365383254667 -0.0030363781044510313 0 0.06984393899979506 -0.0019723323864201119 0 0.06941421828966883 -0.0025214125594465037 0 0.072331645033363479 -0.00098707015100224938 0 0.071443825134207189 -0.0016685616113043412 0 0.071626808806713904 -0.0020356068336235171 0 0.070844739061407272 -0.0032681573536001837 0 0.070851114368474327 -0.0030066756720566437 0 0.071200116162269872 -0.0026977747546567351 0 0.071908797933584942 -0.0016854176114044774 0 0.071615971872494494 -0.0019055833123294797 0 0.071626808806713904 -0.0020356068336235171 0 0.071280967810099682 -0.0020977462266216882 0 0.071233649078959793 -0.0019283595748969598 0 0.071280967810099682 -0.0020977462266216882 0 0.070618085538257852 -0.0022537034311959801 0 0.071025663108963286 -0.0022572340556432334 0 0.071443825134207189 -0.0016685616113043412 0 0.071280967810099682 -0.0020977462266216882 0 0.070618085538257852 -0.0022537034311959801 0 0.071443825134207189 -0.0016685616113043412 0 0.071626808806713904 -0.0020356068336235171 0 0.071280967810099682 -0.0020977462266216882 0 0.070618085538257852 -0.0022537034311959801 0 0.070398331993606206 -0.0015207858797121074 0 0.069263199925391455 -0.0023068033454631699 0 0.071443825134207189 -0.0016685616113043412 0 0.070618085538257852 -0.0022537034311959801 0 0.070398331993606206 -0.0015207858797121074 0 0.070398331993606206 -0.0015207858797121074 0 0.069263199925391455 -0.0023068033454631699 0 0.068588968507880238 -0.0017019982213461874 0 0.070618085538257852 -0.0022537034311959801 0 0.069263199925391455 -0.0023068033454631699 0 0.069604691439414487 -0.0027868071352128952 0 0.069263199925391455 -0.0023068033454631699 0 0.068127303964655606 -0.0028819782619328889 0 0.069604691439414487 -0.0027868071352128952 0 0.068127303964655606 -0.0028819782619328889 0 0.066540007155923786 -0.0025661328445309639 0 0.067867487826162906 -0.0023009691266809274 0 0.069263199925391455 -0.0023068033454631699 0 0.068127303964655606 -0.0028819782619328889 0 0.067867487826162906 -0.0023009691266809274 0 0.058703202922560843 0.00022195767493759244 0 0.056173350734466866 -0.0011788961633054545 0 0.058895467970803056 -2.5139997540595677e-05 0 0.060439626179492438 -2.0980321761946642e-06 0 0.055964426424564354 4.7888575556827607e-07 0 0.058895467970803056 -2.5139997540595677e-05 0 0.056189515609099773 -0.00010307978151697422 0 0.055964426424564354 4.7888575556827607e-07 0 0.068127303964655606 -0.0028819782619328889 0 0.066540007155923786 -0.0025661328445309639 0 0.067028148134541721 -0.0034851927603793782 0 0.058703202922560843 0.00022195767493759244 0 0.059570110453891732 0.0009810241549971226 0 0.066540007155923786 -0.0025661328445309639 0 0.067867487826162906 -0.0023009691266809274 0 0.066931463937756952 -0.0017034341680896669 0 0.058895467970803056 -2.5139997540595677e-05 0 0.060439626179492438 -2.0980321761946642e-06 0 0.064184163037546108 -0.0003703049029066634 0 0.066540007155923786 -0.0025661328445309639 0 0.066931463937756952 -0.0017034341680896669 0 0.064184163037546108 -0.0003703049029066634 0 0.069263199925391455 -0.0023068033454631699 0 0.067867487826162906 -0.0023009691266809274 0 0.068588968507880238 -0.0017019982213461874 0 0.067867487826162906 -0.0023009691266809274 0 0.066931463937756952 -0.0017034341680896669 0 0.068588968507880238 -0.0017019982213461874 0 0.068588968507880238 -0.0017019982213461874 0 0.06801893074461586 -0.00057232245309116853 0 0.069618585998119445 -0.00094132329190088095 0 0.066931463937756952 -0.0017034341680896669 0 0.06801893074461586 -0.00057232245309116853 0 0.064184163037546108 -0.0003703049029066634 0 0.066931463937756952 -0.0017034341680896669 0 0.068588968507880238 -0.0017019982213461874 0 0.06801893074461586 -0.00057232245309116853 0 0.06801893074461586 -0.00057232245309116853 0 0.064184163037546108 -0.0003703049029066634 0 0.066172527326804939 -0.00014246225448920956 0 0.060439626179492438 -2.0980321761946642e-06 0 0.064184163037546108 -0.0003703049029066634 0 0.064916339595357614 5.0332100254299266e-07 0 0.064184163037546108 -0.0003703049029066634 0 0.066172527326804939 -0.00014246225448920956 0 0.064916339595357614 5.0332100254299266e-07 0 0.066172527326804939 -0.00014246225448920956 0 0.064916339595357614 5.0332100254299266e-07 0 0.067995988535861099 0.00013904725931964204 0 0.070124633394054892 0.00034193350349334109 0 0.067995988535861099 0.00013904725931964204 0 0.069992325774169584 -0.00022005452194227257 0 0.06801893074461586 -0.00057232245309116853 0 0.067995988535861099 0.00013904725931964204 0 0.069992325774169584 -0.00022005452194227257 0 0.06801893074461586 -0.00057232245309116853 0 0.066172527326804939 -0.00014246225448920956 0 0.067995988535861099 0.00013904725931964204 0 0.071347044491686426 0.00030041351076841348 0 0.069992325774169584 -0.00022005452194227257 0 0.071272450612990312 -0.00028524757643131905 0 0.069992325774169584 -0.00022005452194227257 0 0.070617317247931188 -0.00075484642406142572 0 0.069618585998119445 -0.00094132329190088095 0 0.069992325774169584 -0.00022005452194227257 0 0.071272450612990312 -0.00028524757643131905 0 0.070617317247931188 -0.00075484642406142572 0 0.072380611094049488 -4.9311920487790715e-05 0 0.072027533691371146 -0.00046827100420902086 0 0.071272450612990312 -0.00028524757643131905 0 0.072027533691371146 -0.00046827100420902086 0 0.071272450612990312 -0.00028524757643131905 0 0.071438215402626445 -0.00086296764075480302 0 0.071272450612990312 -0.00028524757643131905 0 0.070617317247931188 -0.00075484642406142572 0 0.071438215402626445 -0.00086296764075480302 0 0.071443825134207189 -0.0016685616113043412 0 0.070398331993606206 -0.0015207858797121074 0 0.071438215402626445 -0.00086296764075480302 0 0.070398331993606206 -0.0015207858797121074 0 0.070617317247931188 -0.00075484642406142572 0 0.071438215402626445 -0.00086296764075480302 0 0.070398331993606206 -0.0015207858797121074 0 0.070617317247931188 -0.00075484642406142572 0 0.069618585998119445 -0.00094132329190088095 0 0.070398331993606206 -0.0015207858797121074 0 0.068588968507880238 -0.0017019982213461874 0 0.069618585998119445 -0.00094132329190088095 0 0.06801893074461586 -0.00057232245309116853 0 0.069992325774169584 -0.00022005452194227257 0 0.069618585998119445 -0.00094132329190088095 0 0.074761805890636912 6.9372591219996028e-05 0 0.074776020787053116 1.5769706644907588e-05 0 0.074756656524644818 5.2258034348082382e-05 0 0.074761805890636912 6.9372591219996028e-05 0 0.07481625127095215 -1.9845233315056102e-05 0 0.074776020787053116 1.5769706644907588e-05 0 0.074761805890636912 6.9372591219996028e-05 0 0.074756656524644818 5.2258034348082382e-05 0 0.074705706142064107 0.00012272595274943345 0 0.074761805890636912 6.9372591219996028e-05 0 0.07481625127095215 -1.9845233315056102e-05 0 0.074876123884502474 -2.3128682459210244e-05 0 0.07481625127095215 -1.9845233315056102e-05 0 0.074876123884502474 -2.3128682459210244e-05 0 0.074885392726414646 -0.00012532605630392603 0 0.074876123884502474 -2.3128682459210244e-05 0 0.074846735308376031 -4.6617138683835023e-05 0 0.074713246547945089 9.7349082395954269e-05 0 0.074761805890636912 6.9372591219996028e-05 0 0.074876123884502474 -2.3128682459210244e-05 0 0.074713246547945089 9.7349082395954269e-05 0 0.074761805890636912 6.9372591219996028e-05 0 0.074713246547945089 9.7349082395954269e-05 0 0.074705706142064107 0.00012272595274943345 0 0.074846735308376031 -4.6617138683835023e-05 0 0.074999997977169053 3.0422710249911758e-08 0 0.074999252644717795 -4.4562062992015073e-07 0 0.074846735308376031 -4.6617138683835023e-05 0 0.074999997977169053 3.0422710249911758e-08 0 0.074959513992241406 -5.5829818467844806e-05 0 0.074876123884502474 -2.3128682459210244e-05 0 0.074846735308376031 -4.6617138683835023e-05 0 0.074959513992241406 -5.5829818467844806e-05 0 0.074876123884502474 -2.3128682459210244e-05 0 0.074959513992241406 -5.5829818467844806e-05 0 0.074946989637508399 -0.0001295205937974026 0 0.074959513992241406 -5.5829818467844806e-05 0 0.074999935715433078 -8.3467128461540712e-08 0 0.074946989637508399 -0.0001295205937974026 0 0.074999997977169053 3.0422710249911758e-08 0 0.074959513992241406 -5.5829818467844806e-05 0 0.074999935715433078 -8.3467128461540712e-08 0 0.074999935715433078 -8.3467128461540712e-08 0 0.074946989637508399 -0.0001295205937974026 0 0.074939147983018595 -0.0001802439808465372 0 0.074946989637508399 -0.0001295205937974026 0 0.074885392726414646 -0.00012532605630392603 0 0.074857269326685433 -0.00037222294043396032 0 0.074876123884502474 -2.3128682459210244e-05 0 0.074946989637508399 -0.0001295205937974026 0 0.074885392726414646 -0.00012532605630392603 0 0.07481625127095215 -1.9845233315056102e-05 0 0.0748853927