<?xml version="1.0"?>
<VTKFile type="UnstructuredGrid" version="0.1" byte_order="LittleEndian">
<UnstructuredGrid>
<Piece NumberOfPoints="31898" NumberOfCells="11152">
<Points>
<DataArray type="Float64" NumberOfComponents="3" format="ascii">
-0.5 -0.5 0 -0.47620991077874902 -0.44978878706170539 0 -0.49999999999999473 -0.42132396840504388 0 -0.5 -0.5 0 -0.47160970827802529 -0.4793630013852106 0 -0.47620991077874902 -0.44978878706170539 0 -0.5 -0.5 0 -0.47160970827802529 -0.4793630013852106 0 -0.44860394795025399 -0.5 0 -0.47160970827802529 -0.4793630013852106 0 -0.44860394795025399 -0.5 0 -0.4490820238307246 -0.45820516232899983 0 -0.44860394795025399 -0.5 0 -0.4490820238307246 -0.45820516232899983 0 -0.42881687682924802 -0.47781464288736519 0 -0.4490820238307246 -0.45820516232899983 0 -0.45555437223955858 -0.42914059360647611 0 -0.4490820238307246 -0.45820516232899983 0 -0.45555437223955858 -0.42914059360647611 0 -0.43867285131603428 -0.4271457417558665 0 -0.4490820238307246 -0.45820516232899983 0 -0.43867285131603428 -0.4271457417558665 0 -0.4263356171060747 -0.44269880333887462 0 -0.47160970827802529 -0.4793630013852106 0 -0.4490820238307246 -0.45820516232899983 0 -0.47620991077874902 -0.44978878706170539 0 -0.4490820238307246 -0.45820516232899983 0 -0.47620991077874902 -0.44978878706170539 0 -0.45555437223955858 -0.42914059360647611 0 -0.47620991077874902 -0.44978878706170539 0 -0.48101336032419229 -0.41069999664450008 0 -0.45555437223955858 -0.42914059360647611 0 -0.47620991077874902 -0.44978878706170539 0 -0.49999999999999473 -0.42132396840504388 0 -0.48101336032419229 -0.41069999664450008 0 -0.49999999999999473 -0.42132396840504388 0 -0.48101336032419229 -0.41069999664450008 0 -0.5 -0.393886241813306 0 -0.49999999999999473 -0.42132396840504388 0 -0.48101336032419229 -0.41069999664450008 0 -0.5 -0.393886241813306 0 -0.47854472220918332 -0.38978458738689759 0 -0.48422759779560409 -0.37130120630367158 0 -0.5 -0.393886241813306 0 -0.5 -0.36644851522156802 0 -0.48422759779560409 -0.37130120630367158 0 -0.48101336032419229 -0.41069999664450008 0 -0.5 -0.393886241813306 0 -0.47854472220918332 -0.38978458738689759 0 -0.48101336032419229 -0.41069999664450008 0 -0.47854472220918332 -0.38978458738689759 0 -0.46202672064839212 -0.40007602488395211 0 -0.48101336032419229 -0.41069999664450008 0 -0.46202672064839212 -0.40007602488395211 0 -0.47854472220918332 -0.38978458738689759 0 -0.46725442735267431 -0.37660061361585562 0 -0.46202672064839212 -0.40007602488395211 0 -0.47854472220918332 -0.38978458738689759 0 -0.46725442735267431 -0.37660061361585562 0 -0.48422759779560409 -0.37130120630367158 0 -0.46725442735267431 -0.37660061361585562 0 -0.46202672064839212 -0.40007602488395211 0 -0.46725442735267431 -0.37660061361585562 0 -0.45645674801697989 -0.38644133236760531 0 -0.46202672064839212 -0.40007602488395211 0 -0.46725442735267431 -0.37660061361585562 0 -0.45645674801697989 -0.38644133236760531 0 -0.4540003998136638 -0.37455519391687309 0 -0.45645674801697989 -0.38644133236760531 0 -0.46202672064839212 -0.40007602488395211 0 -0.44257020456291563 -0.38918913383950271 0 -0.46202672064839212 -0.40007602488395211 0 -0.44257020456291563 -0.38918913383950271 0 -0.44727608925983742 -0.41095911152778891 0 -0.46202672064839212 -0.40007602488395211 0 -0.44257020456291563 -0.38918913383950271 0 -0.44257020456291563 -0.38918913383950271 0 -0.44727608925983742 -0.41095911152778891 0 -0.43479358559901082 -0.4041454901736512 0 -0.44257020456291563 -0.38918913383950271 0 -0.4540003998136638 -0.37455519391687309 0 -0.44172858264042247 -0.37082207246888088 0 -0.45645674801697989 -0.38644133236760531 0 -0.44257020456291563 -0.38918913383950271 0 -0.4540003998136638 -0.37455519391687309 0 -0.46202672064839212 -0.40007602488395211 0 -0.45555437223955858 -0.42914059360647611 0 -0.44727608925983742 -0.41095911152778891 0 -0.46202672064839212 -0.40007602488395211 0 -0.45555437223955858 -0.42914059360647611 0 -0.48101336032419229 -0.41069999664450008 0 -0.46202672064839212 -0.40007602488395211 0 -0.45555437223955858 -0.42914059360647611 0 -0.44727608925983742 -0.41095911152778891 0 -0.43867285131603428 -0.4271457417558665 0 -0.43676601469929588 -0.41441201227470881 0 -0.44727608925983742 -0.41095911152778891 0 -0.43676601469929588 -0.41441201227470881 0 -0.43479358559901082 -0.4041454901736512 0 -0.45555437223955858 -0.42914059360647611 0 -0.44727608925983742 -0.41095911152778891 0 -0.43867285131603428 -0.4271457417558665 0 -0.43867285131603428 -0.4271457417558665 0 -0.42681803064840879 -0.42717069814352421 0 -0.4263356171060747 -0.44269880333887462 0 -0.42681803064840879 -0.42717069814352421 0 -0.41531815884496182 -0.42985383783075998 0 -0.4263356171060747 -0.44269880333887462 0 -0.42681803064840879 -0.42717069814352421 0 -0.42624289495594048 -0.42089725947505818 0 -0.42083332353326591 -0.42146747131641099 0 -0.42681803064840879 -0.42717069814352421 0 -0.43096994786351572 -0.41951492446283251 0 -0.42624289495594048 -0.42089725947505818 0 -0.43867285131603428 -0.4271457417558665 0 -0.42681803064840879 -0.42717069814352421 0 -0.43096994786351572 -0.41951492446283251 0 -0.43867285131603428 -0.4271457417558665 0 -0.43676601469929588 -0.41441201227470881 0 -0.43096994786351572 -0.41951492446283251 0 -0.43676601469929588 -0.41441201227470881 0 -0.43096994786351572 -0.41951492446283251 0 -0.42907264086257813 -0.41311715872526122 0 -0.43676601469929588 -0.41441201227470881 0 -0.42907264086257813 -0.41311715872526122 0 -0.43479358559901082 -0.4041454901736512 0 -0.42907264086257813 -0.41311715872526122 0 -0.43479358559901082 -0.4041454901736512 0 -0.42460885511582858 -0.40417321677700252 0 -0.42907264086257813 -0.41311715872526122 0 -0.41997834854398469 -0.41180534796019508 0 -0.42907264086257813 -0.41311715872526122 0 -0.42635027777857132 -0.41543594397746519 0 -0.41997834854398469 -0.41180534796019508 0 -0.42907264086257813 -0.41311715872526122 0 -0.41997834854398469 -0.41180534796019508 0 -0.42460885511582858 -0.40417321677700252 0 -0.42635027777857132 -0.41543594397746519 0 -0.41997834854398469 -0.41180534796019508 0 -0.42635027777857132 -0.41543594397746519 0 -0.42083332353326591 -0.42146747131641099 0 -0.41997834854398469 -0.41180534796019508 0 -0.43096994786351572 -0.41951492446283251 0 -0.42624289495594048 -0.42089725947505818 0 -0.42635027777857132 -0.41543594397746519 0 -0.43096994786351572 -0.41951492446283251 0 -0.42907264086257813 -0.41311715872526122 0 -0.42635027777857132 -0.41543594397746519 0 -0.42624289495594048 -0.42089725947505818 0 -0.42635027777857132 -0.41543594397746519 0 -0.42083332353326591 -0.42146747131641099 0 -0.42083332353326591 -0.42146747131641099 0 -0.41997834854398469 -0.41180534796019508 0 -0.40992282953163789 -0.42011435591993562 0 -0.41997834854398469 -0.41180534796019508 0 -0.39756877647335259 -0.40857286797681719 0 -0.41997834854398469 -0.41180534796019508 0 -0.40992282953163789 -0.42011435591993562 0 -0.39756877647335259 -0.40857286797681719 0 -0.40992282953163789 -0.42011435591993562 0 -0.41531815884496182 -0.42985383783075998 0 -0.39591554026262499 -0.42887225451549271 0 -0.41531815884496182 -0.42985383783075998 0 -0.39591554026262499 -0.42887225451549271 0 -0.41160927495564159 -0.44339431233754628 0 -0.42083332353326591 -0.42146747131641099 0 -0.40992282953163789 -0.42011435591993562 0 -0.41531815884496182 -0.42985383783075998 0 -0.42681803064840879 -0.42717069814352421 0 -0.42083332353326591 -0.42146747131641099 0 -0.41531815884496182 -0.42985383783075998 0 -0.44257020456291563 -0.38918913383950271 0 -0.42311368847744002 -0.37830224279505142 0 -0.42594061475171041 -0.39368797999533162 0 -0.44257020456291563 -0.38918913383950271 0 -0.42311368847744002 -0.37830224279505142 0 -0.44172858264042247 -0.37082207246888088 0 -0.44257020456291563 -0.38918913383950271 0 -0.42311368847744002 -0.37830224279505142 0 -0.42311368847744002 -0.37830224279505142 0 -0.42594061475171041 -0.39368797999533162 0 -0.416587075656149 -0.38785930376960043 0 -0.44257020456291563 -0.38918913383950271 0 -0.42594061475171041 -0.39368797999533162 0 -0.43479358559901082 -0.4041454901736512 0 -0.42594061475171041 -0.39368797999533162 0 -0.43479358559901082 -0.4041454901736512 0 -0.42460885511582858 -0.40417321677700252 0 -0.41997834854398469 -0.41180534796019508 0 -0.41325908582185972 -0.39811010703057192 0 -0.39770572831670092 -0.39911486077581648 0 -0.41997834854398469 -0.41180534796019508 0 -0.39770572831670092 -0.39911486077581648 0 -0.42594061475171041 -0.39368797999533162 0 -0.42460885511582858 -0.40417321677700252 0 -0.41325908582185972 -0.39811010703057192 0 -0.41997834854398469 -0.41180534796019508 0 -0.42460885511582858 -0.40417321677700252 0 -0.41325908582185972 -0.39811010703057192 0 -0.42594061475171041 -0.39368797999533162 0 -0.41325908582185972 -0.39811010703057192 0 -0.416587075656149 -0.38785930376960043 0 -0.41325908582185972 -0.39811010703057192 0 -0.416587075656149 -0.38785930376960043 0 -0.40403491357358612 -0.38133688525744702 0 -0.42311368847744002 -0.37830224279505142 0 -0.40403491357358612 -0.38133688525744702 0 -0.40365717239196519 -0.36741535175059892 0 -0.42311368847744002 -0.37830224279505142 0 -0.416587075656149 -0.38785930376960043 0 -0.40403491357358612 -0.38133688525744702 0 -0.40403491357358612 -0.38133688525744702 0 -0.39190790742475001 -0.38540387676521748 0 -0.39770572831670092 -0.39911486077581648 0 -0.40403491357358612 -0.38133688525744702 0 -0.39190790742475001 -0.38540387676521748 0 -0.3904578797192948 -0.37473938743617019 0 -0.41325908582185972 -0.39811010703057192 0 -0.40403491357358612 -0.38133688525744702 0 -0.39770572831670092 -0.39911486077581648 0 -0.39770572831670092 -0.39911486077581648 0 -0.37543310808941849 -0.38642437359143528 0 -0.39770572831670092 -0.39911486077581648 0 -0.37515920440272033 -0.40534038799344108 0 -0.37543310808941849 -0.38642437359143528 0 -0.39770572831670092 -0.39911486077581648 0 -0.37515920440272033 -0.40534038799344108 0 -0.39756877647335259 -0.40857286797681719
[...]
<PointData Scalars="" Vectors="displacement," Tensors="">
<DataArray type="Float64" Name="displacement" NumberOfComponents="3" format="ascii">
-1.6971739326829581e-06 -0.034996800066609025 0 -0.00017041138328621549 -0.032721035397213875 0 3.5904342341200371e-06 -0.02950083351105064 0 -1.6971739326829581e-06 -0.034996800066609025 0 -0.000156831716979835 -0.034200182097792506 0 -0.00017041138328621549 -0.032721035397213875 0 -1.6971739326829581e-06 -0.034996800066609025 0 -0.000156831716979835 -0.034200182097792506 0 6.276232234046997e-09 -0.034999141871108676 0 -0.000156831716979835 -0.034200182097792506 0 6.276232234046997e-09 -0.034999141871108676 0 -8.6723270973257656e-05 -0.034198766604612699 0 6.276232234046997e-09 -0.034999141871108676 0 -8.6723270973257656e-05 -0.034198766604612699 0 -6.8280597909855229e-05 -0.03476268345295315 0 -0.0002294823272309394 -0.032817514758375861 0 6.9952530742649073e-05 -0.031857173843614986 0 -8.6723270973257656e-05 -0.034198766604612699 0 0.00038863254222312906 -0.034169159294232428 0 0.00041880083750037904 -0.03435608597062853 0 -8.6723270973257656e-05 -0.034198766604612699 0 0.00041880083750037904 -0.03435608597062853 0 0.00020470505010275166 -0.034577090400976944 0 -0.000156831716979835 -0.034200182097792506 0 -8.6723270973257656e-05 -0.034198766604612699 0 -0.00017041138328621549 -0.032721035397213875 0 -8.6723270973257656e-05 -0.034198766604612699 0 -0.00017041138328621549 -0.032721035397213875 0 0.00062172497733767936 -0.033375183273948832 0 -0.00017041138328621549 -0.032721035397213875 0 0.001321913140985074 -0.031622424891939192 0 0.00062172497733767936 -0.033375183273948832 0 -0.00017041138328621549 -0.032721035397213875 0 3.5904342341200371e-06 -0.02950083351105064 0 0.001321913140985074 -0.031622424891939192 0 1.9798645902231034e-06 -0.029489654422606346 0 0.00030155114392682331 -0.027194997038863401 0 -8.346056593606353e-07 -0.027572047447187904 0 9.8539914512098859e-07 -0.02949185555796727 0 0.00056093888108744148 -0.029101324108302854 0 -8.346056593606353e-07 -0.027572047447187904 0 -7.8939186457314985e-05 -0.026489193976765264 0 -0.00016724612968676566 -0.025781411051866564 0 -8.346056593606353e-07 -0.027572047447187904 0 -2.541488953353063e-07 -0.025651173488176148 0 -0.00016724612968676566 -0.025781411051866564 0 0.00030155114392682331 -0.027194997038863401 0 -8.346056593606353e-07 -0.027572047447187904 0 -7.8939186457314985e-05 -0.026489193976765264 0 0.00030155114392682331 -0.027194997038863401 0 -7.8939186457314985e-05 -0.026489193976765264 0 0.00013274768575164154 -0.026231838330317322 0 0.00056093888108744148 -0.029101324108302854 0 0.00075625672723737608 -0.028026290038079125 0 -7.8939186457314985e-05 -0.026489193976765264 0 -0.00020565512696607124 -0.026003082464718226 0 0.00013274768575164154 -0.026231838330317322 0 -7.8939186457314985e-05 -0.026489193976765264 0 -0.00020565512696607124 -0.026003082464718226 0 -0.00016724612968676566 -0.025781411051866564 0 0.00045192859662622226 -0.025003906150299935 0 0.00075625672723737608 -0.028026290038079125 0 0.0005994125188909259 -0.020427804949489037 0 0.00026020576284762302 -0.020775624924838185 0 -0.00018320539403985761 -0.020605831615131246 0 0.0005994125188909259 -0.020427804949489037 0 0.00026020576284762302 -0.020775624924838185 0 0.00062703073728370446 -0.020835186630964755 0 0.00026020576284762302 -0.020775624924838185 0 -0.00018320539403985761 -0.020605831615131246 0 0.00015934470346668701 -0.02122567663322858 0 0.00053403546422696089 -0.034250552605631028 0 0.00045158939542264825 -0.034321090941774483 0 0.00051560735794297535 -0.034286208431144903 0 0.00075625672723737608 -0.028026290038079125 0 0.00047869449799629106 -0.027744113106379129 0 0.00045158939542264825 -0.034321090941774483 0 0.00051560735794297535 -0.034286208431144903 0 0.00052029470030766497 -0.034308374623617154 0 0.00015934470346668701 -0.02122567663322858 0 0.00062703073728370446 -0.020835186630964755 0 0.0007388828950844142 -0.021241921441397759 0 0.00026020576284762302 -0.020775624924838185 0 0.00015934470346668701 -0.02122567663322858 0 0.00062703073728370446 -0.020835186630964755 0 0.00053403546422696089 -0.034250552605631028 0 0.00038863254222312906 -0.034169159294232428 0 0.00051560735794297535 -0.034286208431144903 0 0.00075625672723737608 -0.028026290038079125 0 6.9952530742649073e-05 -0.031857173843614986 0 0.001321913140985074 -0.031622424891939192 0 0.0020394673098403757 -0.03279201956609118 0 0.00062172497733767936 -0.033375183273948832 0 0.00051560735794297535 -0.034286208431144903 0 0.00041880083750037904 -0.03435608597062853 0 0.00052456911945700409 -0.034337144740710666 0 0.00051560735794297535 -0.034286208431144903 0 0.00052456911945700409 -0.034337144740710666 0 0.00052029470030766497 -0.034308374623617154 0 0.00038863254222312906 -0.034169159294232428 0 0.00051560735794297535 -0.034286208431144903 0 0.00041880083750037904 -0.03435608597062853 0 0.00041880083750037904 -0.03435608597062853 0 0.00039959718188012149 -0.034503561181302017 0 0.00020470505010275166 -0.034577090400976944 0 0.00039959718188012149 -0.034503561181302017 0 0.00036007779904342896 -0.034674173492224521 0 0.00020470505010275166 -0.034577090400976944 0 0.00039959718188012149 -0.034503561181302017 0 0.00047450448372447746 -0.034480592791292487 0 0.00046452585909816416 -0.034573394256348956 0 0.00039959718188012149 -0.034503561181302017 0 0.00049216291739496521 -0.034400858361371009 0 0.00047450448372447746 -0.034480592791292487 0 0.00041880083750037904 -0.03435608597062853 0 0.00039959718188012149 -0.034503561181302017 0 0.00049216291739496521 -0.034400858361371009 0 0.00041880083750037904 -0.03435608597062853 0 0.00052456911945700409 -0.034337144740710666 0 0.00049216291739496521 -0.034400858361371009 0 0.00052456911945700409 -0.034337144740710666 0 0.00049216291739496521 -0.034400858361371009 0 0.00058521397027228592 -0.034352102497317828 0 0.00052456911945700409 -0.034337144740710666 0 0.00058521397027228592 -0.034352102497317828 0 0.00052029470030766497 -0.034308374623617154 0 0.00058521397027228592 -0.034352102497317828 0 0.00052029470030766497 -0.034308374623617154 0 0.00052984115159660362 -0.034222409626465389 0 0.0010972645349650435 -0.033926010047904805 0 0.0011153930986288769 -0.033845613081879826 0 0.00058521397027228592 -0.034352102497317828 0 0.0005437221379604193 -0.034447226726316997 0 0.00066067123955507059 -0.034635537046743749 0 0.00058521397027228592 -0.034352102497317828 0 0.00064333545822531325 -0.034159257313156284 0 0.00052984115159660362 -0.034222409626465389 0 0.001110241582625199 -0.033889379261682215 0 0.0011153930986288769 -0.033845613081879826 0 0.0005437221379604193 -0.034447226726316997 0 0.00046452585909816416 -0.034573394256348956 0 0.00060702888148222349 -0.034582824169992636 0 0.00049216291739496521 -0.034400858361371009 0 0.00047450448372447746 -0.034480592791292487 0 0.0005437221379604193 -0.034447226726316997 0 0.00049216291739496521 -0.034400858361371009 0 0.00058521397027228592 -0.034352102497317828 0 0.0005437221379604193 -0.034447226726316997 0 0.00047450448372447746 -0.034480592791292487 0 0.0005437221379604193 -0.034447226726316997 0 0.00046452585909816416 -0.034573394256348956 0 0.00046452585909816416 -0.034573394256348956 0 0.00060702888148222349 -0.034582824169992636 0 0.00048441734367136145 -0.034731428311750689 0 0.0011153930986288769 -0.033845613081879826 0 0.00097113999557218479 -0.033701349407618597 0 0.00060702888148222349 -0.034582824169992636 0 0.00048441734367136145 -0.034731428311750689 0 0.00062890801687967568 -0.034889304723407601 0 0.00048441734367136145 -0.034731428311750689 0 0.00036007779904342896 -0.034674173492224521 0 0.00037466157796616916 -0.03491221121029383 0 0.00036007779904342896 -0.034674173492224521 0 0.00037466157796616916 -0.03491221121029383 0 0.00019940695467622523 -0.03474893732215055 0 0.00046452585909816416 -0.034573394256348956 0 0.00048441734367136145 -0.034731428311750689 0 0.00036007779904342896 -0.034674173492224521 0 0.00039959718188012149 -0.034503561181302017 0 0.00046452585909816416 -0.034573394256348956 0 0.00036007779904342896 -0.034674173492224521 0 0.00045158939542264825 -0.034321090941774483 0 0.00020828547145436792 -0.034155739296165444 0 0.00042716252294917965 -0.034206200581383281 0 0.00015934470346668701 -0.02122567663322858 0 0.00049143322586478759 -0.021869667495461376 0 0.0007388828950844142 -0.021241921441397759 0 0.00047869449799629106 -0.027744113106379129 0 0.00052091047292169711 -0.027793103684972096 0 0.00020828547145436792 -0.034155739296165444 0 0.00042716252294917965 -0.034206200581383281 0 0.00033438775403820461 -0.034059999205690264 0 0.00045158939542264825 -0.034321090941774483 0 0.00042716252294917965 -0.034206200581383281 0 0.00052029470030766497 -0.034308374623617154 0 0.00042716252294917965 -0.034206200581383281 0 0.00052029470030766497 -0.034308374623617154 0 0.00052984115159660362 -0.034222409626465389 0 0.00064333545822531325 -0.034159257313156284 0 0.00047907224830126338 -0.034022838571632304 0 0.00052720676851260198 -0.033737094802828285 0 0.0011153930986288769 -0.033845613081879826 0 0.0011843069217725094 -0.032879983720904678 0 0.00042716252294917965 -0.034206200581383281 0 0.00052984115159660362 -0.034222409626465389 0 0.00047907224830126338 -0.034022838571632304 0 0.00064333545822531325 -0.034159257313156284 0 0.00052984115159660362 -0.034222409626465389 0 0.00047907224830126338 -0.034022838571632304 0 0.00042716252294917965 -0.034206200581383281 0 0.00047907224830126338 -0.034022838571632304 0 0.00033438775403820461 -0.034059999205690264 0 0.00047907224830126338 -0.034022838571632304 0 0.00033438775403820461 -0.034059999205690264 0 0.00021765454674793435 -0.033844744751296535 0 0.00020828547145436792 -0.034155739296165444 0 0.00021765454674793435 -0.033844744751296535 0 -5.2453384036121465e-06 -0.033826796374791981 0 0.00020828547145436792 -0.034155739296165444 0 0.00033438775403820461 -0.034059999205690264 0 0.00021765454674793435 -0.033844744751296535 0 0.00021765454674793435 -0.033844744751296535 0 0.00028297079676747991 -0.033602140541114441 0 0.00052720676851260198 -0.033737094802828285 0 0.00021765454674793435 -0.033844744751296535 0 0.00028297079676747991 -0.033602140541114441 0 7.0427842629102488e-05 -0.033560689210827228 0 0.00047907224830126338 -0.034022838571632304 0 0.00021765454674793435 -0.033844744751296535 0 0.00052720676851260198 -0.033737094802828285 0 0.0011843069217725094 -0.032879983720904678 0 0.0011462504885822291 -0.030727950872409447 0 0.0011178146731829408 -0.032832173574320375 0 0.001345762067504789 -0.032004044731430988 0 0.00065346724033944249 -0.032011484921771763 0 0.0011178146731829408 -0.032832173574320375 0 0.001345762067504789 -0.032004044731430988 0 0.0014646046108223109 -0.032827972539010639 0 0.00068630594294941908 -0.032852746759563983 0 0.0011462504885822291 -0.030727950872409447 0 0.00031093270198605472 -0.033256323323712048 0 7.0427842629102488e-05 -0.033560689210827228 0 -4.4598063635335813e-05 -0.033243939669151214 0 0.00028297079676747991 -0.033602140541114441 0 0.00031093270198605472 -0.033256323323712048 0 7.0427842629102488e-05 -0.033560689210827228 0 0.0011462504885822291 -0.030727950872409447 0 0.00072483107046342958 -0.028919635424682188 0 0.00028297079676747991 -0.033602140541114441 0 0.00052720676851260198 -0.033737094802828285 0 0.00031093270198605472 -0.033256323323712048 0 0.0015823738919581375 -0.033652967108504656 0 0.0011178146731829408 -0.032832173574320375 0 0.0014646046108223109 -0.032827972539010639 0 0.00048441734367136145 -0.034731428311750689 0 0.00037466157796616916 -0.03491221121029383 0 0.00062890801687967568 -0.034889304723407601 0 0.00066301046787957483 -0.035154698114002 0 0.00037466157796616916 -0.03491221121029383 0 0.00062890801687967568 -0.034889304723407601 0 0.00068630594294941908 -0.032852746759563983 0 0.00097113999557218479 -0.033701349407618597 0 0.00066301046787957483 -0.035154698114002 0 0.00037466157796616916 -0.03491221121029383 0 0.00029827280554409294 -0.035158839787996041 0 0.00037466157796616916 -0.03491221121029383 0 0.00017042354287340783 -0.034949003650186834 0 0.00029827280554409294 -0.035158839787996041 0 0.00017042354287340783 -0.034949003650186834 0 -4.3543312215849277e-05 -0.03516017668720451 0 0.00029827280554409294 -0.035158839787996041 0 0.00037466157796616916 -0.03491221121029383 0 0.00017042354287340783 -0.034949003650186834 0 0.00019940695467622523 -0.03474893732215055 0 0.00017042354287340783 -0.034949003650186834 0 4.8990541137992635e-05 -0.034830055501460865 0 0.00019940695467622523 -0.03474893732215055 0 4.6383775512365798e-05 -0.034864007814363288 0 -2.2007855745333821e-05 -0.034950117337394906 0 -2.2956334298393453e-05 -0.03483431488140102 0 4.0479872514669477e-06 -0.034995419858087469 0 3.2320997714527853e-06 -0.034997962111575825 0 6.3031140249352024e-07 -0.034998000336192339 0 6.4906620177233304e-05 -0.034907483488279802 0 2.1972359040688875e-07 -0.034970623760061985 0 6.4906620177233304e-05 -0.034907483488279802 0 6.5050124936194198e-05 -0.034906506003683169 0 6.4906620177233304e-05 -0.034907483488279802 0 5.7654586767910804e-05 -0.034919380419818499 0 0.00017042354287340783 -0.034949003650186834 0 4.8990541137992635e-05 -0.034830055501460865 0 2.5807527828817612e-06 -0.034993161139697457 0 0.00017042354287340783 -0.034949003650186834 0 2.5807527828817612e-06 -0.034993161139697457 0 -4.3543312215849277e-05 -0.03516017668720451 0 5.7654586767910804e-05 -0.034919380419818499 0 9.4363452756675918e-05 -0.034808224172379422 0 3.2320997714527853e-06 -0.034997962111575825 0 1.5726619317814604e-06 -0.034998735760726353 0 2.5194314956430543e-06 -0.034999848641182482 0 1.5726619317814604e-06 -0.034998735760726353 0 6.3031140249352024e-07 -0.034998000336192339 0 4.6995243625083525e-07 -0.034999765943166235 0 6.3031140249352024e-07 -0.034998000336192339 0 2.4450592424581679e-07 -0.034999810953399865 0 4.6995243625083525e-07 -0.034999765943166235 0 1.5726619317814604e-06 -0.034998735760726353 0 4.6995243625083525e-07 -0.034999765943166235 0 2.5194314956430543e-06 -0.034999848641182482 0 3.2320997714527853e-06 -0.034997962111575825 0 1.5726619317814604e-06 -0.034998735760726353 0 6.3031140249352024e-07 -0.034998000336192339 0 -2.5695458515003251e-08 -0.034999965082434463 0 2.1972359040688875e-07 -0.034970623760061985 0 -1.3743865956144185e-09 -0.034999998377238953 0 6.3031140249352024e-07 -0.034998000336192339 0 2.4450592424581679e-07 -0.034999810953399865 0 5.6847616111461288e-08 -0.034999983609900524 0 -2.2007855745333821e-05 -0.034950117337394906 0 -1.4141611136253043e-07 -0.034999876363283722 0 -2.2007855745333821e-05 -0.034950117337394906 0 -2.2956334298393453e-05 -0.03483431488140102 0 -1.4141611136253043e-07 -0.034999876363283722 0 -2.2956334298393453e-05 -0.03483431488140102 0 -1.4141611136253043e-07 -0.034999876363283722 0 -6.8280597909855229e-05 -0.03476268345295315 0 6.276232234046997e-09 -0.034999141871108676 0 -1.4141611136253043e-07 -0.034999876363283722 0 -6.8280597909855229e-05 -0.03476268345295315 0 -2.2956334298393453e-05 -0.03483431488140102 0 -6.8280597909855229e-05 -0.03476268345295315 0 8.2062856745167047e-07 -0.034648896809222396 0 -8.6723270973257656e-05 -0.034198766604612699 0 -6.8280597909855229e-05 -0.03476268345295315 0 8.2062856745167047e-07 -0.034648896809222396 0 -8.6723270973257656e-05 -0.034198766604612699 0 8.2062856745167047e-07 -0.034648896809222396 0 0.00020470505010275166 -0.034577090400976944 0 8.2062856745167047e-07 -0.034648896809222396 0 0.00020470505010275166 -0.034577090400976944 0 7.8135640030302123e-05 -0.034733112793476684 0 0.00020470505010275166 -0.034577090400976944 0 0.00019940695467622523 -0.03474893732215055 0 7.8135640030302123e-05 -0.034733112793476684 0 0.00036007779904342896 -0.034674173492224521 0 0.00020470505010275166 -0.034577090400976944 0 0.00019940695467622523 -0.03474893732215055 0 4.7146020150171217e-05 -0.034877131089039878 0 0.00019940695467622523 -0.03474893732215055 0 5.388334259623598e-05 -0.034843508185454015 0 0.00019940695467622523 -0.03474893732215055 0 5.388334259623598e-05 -0.034843508185454015 0 7.8135640030302123e-05 -0.034733112793476684 0 6.4906620177233304e-05 -0.034907483488279802 0 0.00010779818842733832 -0.034872878824338441 0 -2.2956334298393453e-05 -0.03483431488140102 0 5.388334259623598e-05 -0.034843508185454015 0 7.8135640030302123e-05 -0.034733112793476684 0 4.6383775512365798e-05 -0.034864007814363288 0 -2.2956334298393453e-05 -0.03483431488140102 0 5.388334259623598e-05 -0.034843508185454015 0 -2.2956334298393453e-05 -0.03483431488140102 0 8.2062856745167047e-07 -0.034648896809222396 0 7.8135640030302123e-05 -0.034733112793476684 0 0.00098694905298643641 -0.018155832690836142 0 0.0015957386456420413 -0.017088740298028645 0 0.0005152437937418681 -0.017544620375588994 0 0.00060903447480100759 -0.016981009289190521 0 0.00034290388759283471 -0.017358207842675083 0 -0.00011622942490831093 -0.019600304764549718 0 0.00015521946012755892 -0.019555428985064179 0 8.7175132241590648e-05 -0.019686352591943408 0 -0.00011622942490831093 -0.019600304764549718 0 -6.5549982501066499e-05 -0.019634015818063132 0 8.7175132241590648e-05 -0.019686352591943408 0 -0.00011622942490831093 -0.019600304764549718 0 -6.7148811226793221e-05 -0.019538511200951673 0 -6.5549982501066499e-05 -0.019634015818063132 0 -0.00011622942490831093 -0.019600304764549718 0 -0.00010687776908981747 -0.019321043589139539 0 -0.00017804477352053571 -0.019665140685332108 0 -0.00011622942490831093 -0.019600304764549718 0 -0.00010687776908981747 -0.019321043589139539 0 0.00015521946012755892 -0.019555428985064179 0 0.00098694905298643641 -0.018155832690836142 0 0.00079196451156288866 -0.018295931791978547 0 -0.00010687776908981747 -0.019321043589139539 0 0.00015521946012755892 -0.019555428985064179 0 0.00014924548856485605 -0.018503671861441317 0 0.0005152437937418681 -0.017544620375588994 0 0.00014924548856485605 -0.018503671861441317 0 5.7354163149914104e-05 -0.017808774925167557 0 0.00014924548856485605 -0.018503671861441317 0 -3.9776449158424243e-07 -0.017968590420913366 0 -0.00011969370421042678 -0.019266450206174984 0 0.00014924548856485605 -0.018503671861441317 0 -3.9776449158424243e-07 -0.017968590420913366 0 -1.9642330710256712e-05 -0.017563300694262103 0 -3.9776449158424243e-07 -0.017968590420913366 0 -0.00011969370421042678 -0.019266450206174984 0 -3.5959189332758797e-07 -0.019889472400948287 0 -0.00010687776908981747 -0.019321043589139539 0 0.00014924548856485605 -0.018503671861441317 0 -0.00011969370421042678 -0.019266450206174984 0 -0.00010687776908981747 -0.019321043589139539 0 -0.00011969370421042678 -0.019266450206174984 0 -0.00017804477352053571 -0.019665140685332108 0 -0.00017804477352053571 -0.019665140685332108 0 -7.4832196662206503e-05 -0.020272291658332914 0 -2.1426241657093236e-05 -0.020155367015457181 0 -0.00011969370421042678 -0.019266450206174984 0 -0.00017804477352053571 -0.019665140685332108 0 -7.4832196662206503e-05 -0.020272291658332914 0 -3.5959189332758797e-07 -0.019889472400948287 0 -7.4832196662206503e-05 -0.020272291658332914 0 4.5865147719328805e-07 -0.021809982314713972 0 -0.00011969370421042678 -0.019266450206174984 0 -3.5959189332758797e-07 -0.019889472400948287 0 -7.4832196662206503e-05 -0.020272291658332914 0 -7.4832196662206503e-05 -0.020272291658332914 0 4.5865147719328805e-07 -0.021809982314713972 0 0.00014868654281192074 -0.021049904967947779 0 0.00014868654281192074 -0.021049904967947779 0 -2.1426241657093236e-05 -0.020155367015457181 0 0.00054909495694385128 -0.020395917790428077 0 -7.4832196662206503e-05 -0.020272291658332914 0 0.00014868654281192074 -0.021049904967947779 0 -2.1426241657093236e-05 -0.020155367015457181 0 -2.1426241657093236e-05 -0.020155367015457181 0 0.00025792126082156903 -0.019929800464217978 0 0.00054909495694385128 -0.020395917790428077 0 0.00025792126082156903 -0.019929800464217978 0 0.00018408123027688656 -0.01960