<?xml version="1.0"?>
<VTKFile type="UnstructuredGrid" version="0.1" byte_order="LittleEndian">
<UnstructuredGrid>
<Piece NumberOfPoints="31898" NumberOfCells="11152">
<Points>
<DataArray type="Float64" NumberOfComponents="3" format="ascii">
-0.5 -0.5 0 -0.47620991077874902 -0.44978878706170539 0 -0.49999999999999473 -0.42132396840504388 0 -0.5 -0.5 0 -0.47160970827802529 -0.4793630013852106 0 -0.47620991077874902 -0.44978878706170539 0 -0.5 -0.5 0 -0.47160970827802529 -0.4793630013852106 0 -0.44860394795025399 -0.5 0 -0.47160970827802529 -0.4793630013852106 0 -0.44860394795025399 -0.5 0 -0.4490820238307246 -0.45820516232899983 0 -0.44860394795025399 -0.5 0 -0.4490820238307246 -0.45820516232899983 0 -0.42881687682924802 -0.47781464288736519 0 -0.4490820238307246 -0.45820516232899983 0 -0.45555437223955858 -0.42914059360647611 0 -0.4490820238307246 -0.45820516232899983 0 -0.45555437223955858 -0.42914059360647611 0 -0.43867285131603428 -0.4271457417558665 0 -0.4490820238307246 -0.45820516232899983 0 -0.43867285131603428 -0.4271457417558665 0 -0.4263356171060747 -0.44269880333887462 0 -0.47160970827802529 -0.4793630013852106 0 -0.4490820238307246 -0.45820516232899983 0 -0.47620991077874902 -0.44978878706170539 0 -0.4490820238307246 -0.45820516232899983 0 -0.47620991077874902 -0.44978878706170539 0 -0.45555437223955858 -0.42914059360647611 0 -0.47620991077874902 -0.44978878706170539 0 -0.48101336032419229 -0.41069999664450008 0 -0.45555437223955858 -0.42914059360647611 0 -0.47620991077874902 -0.44978878706170539 0 -0.49999999999999473 -0.42132396840504388 0 -0.48101336032419229 -0.41069999664450008 0 -0.49999999999999473 -0.42132396840504388 0 -0.48101336032419229 -0.41069999664450008 0 -0.5 -0.393886241813306 0 -0.49999999999999473 -0.42132396840504388 0 -0.48101336032419229 -0.41069999664450008 0 -0.5 -0.393886241813306 0 -0.47854472220918332 -0.38978458738689759 0 -0.48422759779560409 -0.37130120630367158 0 -0.5 -0.393886241813306 0 -0.5 -0.36644851522156802 0 -0.48422759779560409 -0.37130120630367158 0 -0.48101336032419229 -0.41069999664450008 0 -0.5 -0.393886241813306 0 -0.47854472220918332 -0.38978458738689759 0 -0.48101336032419229 -0.41069999664450008 0 -0.47854472220918332 -0.38978458738689759 0 -0.46202672064839212 -0.40007602488395211 0 -0.48101336032419229 -0.41069999664450008 0 -0.46202672064839212 -0.40007602488395211 0 -0.47854472220918332 -0.38978458738689759 0 -0.46725442735267431 -0.37660061361585562 0 -0.46202672064839212 -0.40007602488395211 0 -0.47854472220918332 -0.38978458738689759 0 -0.46725442735267431 -0.37660061361585562 0 -0.48422759779560409 -0.37130120630367158 0 -0.46725442735267431 -0.37660061361585562 0 -0.46202672064839212 -0.40007602488395211 0 -0.46725442735267431 -0.37660061361585562 0 -0.45645674801697989 -0.38644133236760531 0 -0.46202672064839212 -0.40007602488395211 0 -0.46725442735267431 -0.37660061361585562 0 -0.45645674801697989 -0.38644133236760531 0 -0.4540003998136638 -0.37455519391687309 0 -0.45645674801697989 -0.38644133236760531 0 -0.46202672064839212 -0.40007602488395211 0 -0.44257020456291563 -0.38918913383950271 0 -0.46202672064839212 -0.40007602488395211 0 -0.44257020456291563 -0.38918913383950271 0 -0.44727608925983742 -0.41095911152778891 0 -0.46202672064839212 -0.40007602488395211 0 -0.44257020456291563 -0.38918913383950271 0 -0.44257020456291563 -0.38918913383950271 0 -0.44727608925983742 -0.41095911152778891 0 -0.43479358559901082 -0.4041454901736512 0 -0.44257020456291563 -0.38918913383950271 0 -0.4540003998136638 -0.37455519391687309 0 -0.44172858264042247 -0.37082207246888088 0 -0.45645674801697989 -0.38644133236760531 0 -0.44257020456291563 -0.38918913383950271 0 -0.4540003998136638 -0.37455519391687309 0 -0.46202672064839212 -0.40007602488395211 0 -0.45555437223955858 -0.42914059360647611 0 -0.44727608925983742 -0.41095911152778891 0 -0.46202672064839212 -0.40007602488395211 0 -0.45555437223955858 -0.42914059360647611 0 -0.48101336032419229 -0.41069999664450008 0 -0.46202672064839212 -0.40007602488395211 0 -0.45555437223955858 -0.42914059360647611 0 -0.44727608925983742 -0.41095911152778891 0 -0.43867285131603428 -0.4271457417558665 0 -0.43676601469929588 -0.41441201227470881 0 -0.44727608925983742 -0.41095911152778891 0 -0.43676601469929588 -0.41441201227470881 0 -0.43479358559901082 -0.4041454901736512 0 -0.45555437223955858 -0.42914059360647611 0 -0.44727608925983742 -0.41095911152778891 0 -0.43867285131603428 -0.4271457417558665 0 -0.43867285131603428 -0.4271457417558665 0 -0.42681803064840879 -0.42717069814352421 0 -0.4263356171060747 -0.44269880333887462 0 -0.42681803064840879 -0.42717069814352421 0 -0.41531815884496182 -0.42985383783075998 0 -0.4263356171060747 -0.44269880333887462 0 -0.42681803064840879 -0.42717069814352421 0 -0.42624289495594048 -0.42089725947505818 0 -0.42083332353326591 -0.42146747131641099 0 -0.42681803064840879 -0.42717069814352421 0 -0.43096994786351572 -0.41951492446283251 0 -0.42624289495594048 -0.42089725947505818 0 -0.43867285131603428 -0.4271457417558665 0 -0.42681803064840879 -0.42717069814352421 0 -0.43096994786351572 -0.41951492446283251 0 -0.43867285131603428 -0.4271457417558665 0 -0.43676601469929588 -0.41441201227470881 0 -0.43096994786351572 -0.41951492446283251 0 -0.43676601469929588 -0.41441201227470881 0 -0.43096994786351572 -0.41951492446283251 0 -0.42907264086257813 -0.41311715872526122 0 -0.43676601469929588 -0.41441201227470881 0 -0.42907264086257813 -0.41311715872526122 0 -0.43479358559901082 -0.4041454901736512 0 -0.42907264086257813 -0.41311715872526122 0 -0.43479358559901082 -0.4041454901736512 0 -0.42460885511582858 -0.40417321677700252 0 -0.42907264086257813 -0.41311715872526122 0 -0.41997834854398469 -0.41180534796019508 0 -0.42907264086257813 -0.41311715872526122 0 -0.42635027777857132 -0.41543594397746519 0 -0.41997834854398469 -0.41180534796019508 0 -0.42907264086257813 -0.41311715872526122 0 -0.41997834854398469 -0.41180534796019508 0 -0.42460885511582858 -0.40417321677700252 0 -0.42635027777857132 -0.41543594397746519 0 -0.41997834854398469 -0.41180534796019508 0 -0.42635027777857132 -0.41543594397746519 0 -0.42083332353326591 -0.42146747131641099 0 -0.41997834854398469 -0.41180534796019508 0 -0.43096994786351572 -0.41951492446283251 0 -0.42624289495594048 -0.42089725947505818 0 -0.42635027777857132 -0.41543594397746519 0 -0.43096994786351572 -0.41951492446283251 0 -0.42907264086257813 -0.41311715872526122 0 -0.42635027777857132 -0.41543594397746519 0 -0.42624289495594048 -0.42089725947505818 0 -0.42635027777857132 -0.41543594397746519 0 -0.42083332353326591 -0.42146747131641099 0 -0.42083332353326591 -0.42146747131641099 0 -0.41997834854398469 -0.41180534796019508 0 -0.40992282953163789 -0.42011435591993562 0 -0.41997834854398469 -0.41180534796019508 0 -0.39756877647335259 -0.40857286797681719 0 -0.41997834854398469 -0.41180534796019508 0 -0.40992282953163789 -0.42011435591993562 0 -0.39756877647335259 -0.40857286797681719 0 -0.40992282953163789 -0.42011435591993562 0 -0.41531815884496182 -0.42985383783075998 0 -0.39591554026262499 -0.42887225451549271 0 -0.41531815884496182 -0.42985383783075998 0 -0.39591554026262499 -0.42887225451549271 0 -0.41160927495564159 -0.44339431233754628 0 -0.42083332353326591 -0.42146747131641099 0 -0.40992282953163789 -0.42011435591993562 0 -0.41531815884496182 -0.42985383783075998 0 -0.42681803064840879 -0.42717069814352421 0 -0.42083332353326591 -0.42146747131641099 0 -0.41531815884496182 -0.42985383783075998 0 -0.44257020456291563 -0.38918913383950271 0 -0.42311368847744002 -0.37830224279505142 0 -0.42594061475171041 -0.39368797999533162 0 -0.44257020456291563 -0.38918913383950271 0 -0.42311368847744002 -0.37830224279505142 0 -0.44172858264042247 -0.37082207246888088 0 -0.44257020456291563 -0.38918913383950271 0 -0.42311368847744002 -0.37830224279505142 0 -0.42311368847744002 -0.37830224279505142 0 -0.42594061475171041 -0.39368797999533162 0 -0.416587075656149 -0.38785930376960043 0 -0.44257020456291563 -0.38918913383950271 0 -0.42594061475171041 -0.39368797999533162 0 -0.43479358559901082 -0.4041454901736512 0 -0.42594061475171041 -0.39368797999533162 0 -0.43479358559901082 -0.4041454901736512 0 -0.42460885511582858 -0.40417321677700252 0 -0.41997834854398469 -0.41180534796019508 0 -0.41325908582185972 -0.39811010703057192 0 -0.39770572831670092 -0.39911486077581648 0 -0.41997834854398469 -0.41180534796019508 0 -0.39770572831670092 -0.39911486077581648 0 -0.42594061475171041 -0.39368797999533162 0 -0.42460885511582858 -0.40417321677700252 0 -0.41325908582185972 -0.39811010703057192 0 -0.41997834854398469 -0.41180534796019508 0 -0.42460885511582858 -0.40417321677700252 0 -0.41325908582185972 -0.39811010703057192 0 -0.42594061475171041 -0.39368797999533162 0 -0.41325908582185972 -0.39811010703057192 0 -0.416587075656149 -0.38785930376960043 0 -0.41325908582185972 -0.39811010703057192 0 -0.416587075656149 -0.38785930376960043 0 -0.40403491357358612 -0.38133688525744702 0 -0.42311368847744002 -0.37830224279505142 0 -0.40403491357358612 -0.38133688525744702 0 -0.40365717239196519 -0.36741535175059892 0 -0.42311368847744002 -0.37830224279505142 0 -0.416587075656149 -0.38785930376960043 0 -0.40403491357358612 -0.38133688525744702 0 -0.40403491357358612 -0.38133688525744702 0 -0.39190790742475001 -0.38540387676521748 0 -0.39770572831670092 -0.39911486077581648 0 -0.40403491357358612 -0.38133688525744702 0 -0.39190790742475001 -0.38540387676521748 0 -0.3904578797192948 -0.37473938743617019 0 -0.41325908582185972 -0.39811010703057192 0 -0.40403491357358612 -0.38133688525744702 0 -0.39770572831670092 -0.39911486077581648 0 -0.39770572831670092 -0.39911486077581648 0 -0.37543310808941849 -0.38642437359143528 0 -0.39770572831670092 -0.39911486077581648 0 -0.37515920440272033 -0.40534038799344108 0 -0.37543310808941849 -0.38642437359143528 0 -0.39770572831670092 -0.39911486077581648 0 -0.37515920440272033 -0.40534038799344108 0 -0.39756877647335259 -0.40857286797681719
[...]
<PointData Scalars="" Vectors="displacement," Tensors="">
<DataArray type="Float64" Name="displacement" NumberOfComponents="3" format="ascii">
-0.034997465025128703 -0.034998026008308571 0 -0.032628097248338983 -0.03437285292252408 0 -0.029503286731167776 -0.034995334562408109 0 -0.034997465025128703 -0.034998026008308571 0 -0.034438648900316365 -0.033720269713519088 0 -0.032628097248338983 -0.03437285292252408 0 -0.034997465025128703 -0.034998026008308571 0 -0.034438648900316365 -0.033720269713519088 0 -0.034998039896825824 -0.031405287742942593 0 -0.034438648900316365 -0.033720269713519088 0 -0.034998039896825824 -0.031405287742942593 0 -0.034646010564554193 -0.033222404459086849 0 -0.034998039896825824 -0.031405287742942593 0 -0.034646010564554193 -0.033222404459086849 0 -0.035108010587691696 -0.030762152401042488 0 -0.034120329562547062 -0.034010642083086524 0 -0.034175063838973896 -0.034414160527860699 0 -0.034646010564554193 -0.033222404459086849 0 -0.037578441239956281 -0.033482013414876888 0 -0.037809500616094775 -0.032033514659683841 0 -0.034646010564554193 -0.033222404459086849 0 -0.037809500616094775 -0.032033514659683841 0 -0.03658887623777031 -0.030906047771314421 0 -0.034438648900316365 -0.033720269713519088 0 -0.034646010564554193 -0.033222404459086849 0 -0.032628097248338983 -0.03437285292252408 0 -0.034646010564554193 -0.033222404459086849 0 -0.032628097248338983 -0.03437285292252408 0 -0.031848403105544487 -0.034970204447564157 0 -0.032628097248338983 -0.03437285292252408 0 -0.030372176195894877 -0.034623181573763109 0 -0.031848403105544487 -0.034970204447564157 0 -0.032628097248338983 -0.03437285292252408 0 -0.029503286731167776 -0.034995334562408109 0 -0.030372176195894877 -0.034623181573763109 0 -0.029492667526501429 -0.034999995368304788 0 -0.028748374334486983 -0.036319224124300525 0 -0.027572042881896758 -0.034999993679620527 0 -0.029493526447390991 -0.035000515776065583 0 -0.029943504107770889 -0.035357120174729084 0 -0.027572042881896758 -0.034999993679620527 0 -0.027288198261784434 -0.036490543801028633 0 -0.025993496129493258 -0.036096101493717656 0 -0.027572042881896758 -0.034999993679620527 0 -0.025651399214651587 -0.034999992565334002 0 -0.025993496129493258 -0.036096101493717656 0 -0.028748374334486983 -0.036319224124300525 0 -0.027572042881896758 -0.034999993679620527 0 -0.027288198261784434 -0.036490543801028633 0 -0.028748374334486983 -0.036319224124300525 0 -0.027288198261784434 -0.036490543801028633 0 -0.028010804618883538 -0.037635012085285767 0 -0.029943504107770889 -0.035357120174729084 0 -0.03116838478600404 -0.034753787353702797 0 -0.027288198261784434 -0.036490543801028633 0 -0.02636681500749901 -0.037276677273650437 0 -0.028010804618883538 -0.037635012085285767 0 -0.027288198261784434 -0.036490543801028633 0 -0.02636681500749901 -0.037276677273650437 0 -0.025993496129493258 -0.036096101493717656 0 -0.026310719467668255 -0.035771672623832927 0 -0.03116838478600404 -0.034753787353702797 0 -0.024712957382556043 -0.03699889453617556 0 -0.024668701587608935 -0.037006051267732029 0 -0.024658826590016752 -0.037013524548648945 0 -0.024712957382556043 -0.03699889453617556 0 -0.024668701587608935 -0.037006051267732029 0 -0.024645501195857029 -0.037027973075178196 0 -0.024668701587608935 -0.037006051267732029 0 -0.024658826590016752 -0.037013524548648945 0 -0.024638166327071626 -0.036982596581453288 0 -0.039574205720331927 -0.033611340277879639 0 -0.040120506382166521 -0.03228253303870661 0 -0.038887789694922473 -0.032669027733880189 0 -0.03116838478600404 -0.034753787353702797 0 -0.031664167669105327 -0.034259922086587777 0 -0.040120506382166521 -0.03228253303870661 0 -0.038887789694922473 -0.032669027733880189 0 -0.039288025367200448 -0.031816963307915794 0 -0.024638166327071626 -0.036982596581453288 0 -0.024645501195857029 -0.037027973075178196 0 -0.024638082521743244 -0.036981814417171528 0 -0.024668701587608935 -0.037006051267732029 0 -0.024638166327071626 -0.036982596581453288 0 -0.024645501195857029 -0.037027973075178196 0 -0.039574205720331927 -0.033611340277879639 0 -0.037578441239956281 -0.033482013414876888 0 -0.038887789694922473 -0.032669027733880189 0 -0.03116838478600404 -0.034753787353702797 0 -0.034175063838973896 -0.034414160527860699 0 -0.030372176195894877 -0.034623181573763109 0 -0.0302238000273682 -0.03514216687758194 0 -0.031848403105544487 -0.034970204447564157 0 -0.038887789694922473 -0.032669027733880189 0 -0.037809500616094775 -0.032033514659683841 0 -0.038685199048116743 -0.031922370743440953 0 -0.038887789694922473 -0.032669027733880189 0 -0.038685199048116743 -0.031922370743440953 0 -0.039288025367200448 -0.031816963307915794 0 -0.037578441239956281 -0.033482013414876888 0 -0.038887789694922473 -0.032669027733880189 0 -0.037809500616094775 -0.032033514659683841 0 -0.037809500616094775 -0.032033514659683841 0 -0.037775840477984761 -0.031077499750317882 0 -0.03658887623777031 -0.030906047771314421 0 -0.037775840477984761 -0.031077499750317882 0 -0.037568742328510374 -0.030174665723901772 0 -0.03658887623777031 -0.030906047771314421 0 -0.037775840477984761 -0.031077499750317882 0 -0.038238925408980697 -0.031078771108535661 0 -0.038192310489949581 -0.030634602935719138 0 -0.037775840477984761 -0.031077499750317882 0 -0.038344691940511245 -0.031474709031426816 0 -0.038238925408980697 -0.031078771108535661 0 -0.037809500616094775 -0.032033514659683841 0 -0.037775840477984761 -0.031077499750317882 0 -0.038344691940511245 -0.031474709031426816 0 -0.037809500616094775 -0.032033514659683841 0 -0.038685199048116743 -0.031922370743440953 0 -0.038344691940511245 -0.031474709031426816 0 -0.038685199048116743 -0.031922370743440953 0 -0.038344691940511245 -0.031474709031426816 0 -0.038822389068400437 -0.031406224998070296 0 -0.038685199048116743 -0.031922370743440953 0 -0.038822389068400437 -0.031406224998070296 0 -0.039288025367200448 -0.031816963307915794 0 -0.038822389068400437 -0.031406224998070296 0 -0.039288025367200448 -0.031816963307915794 0 -0.039278099077853242 -0.03126457520022656 0 -0.038016015651739024 -0.029895578230698772 0 -0.037999232047423628 -0.029623712512104394 0 -0.038822389068400437 -0.031406224998070296 0 -0.038643657352048638 -0.031128550027362124 0 -0.038998335974756979 -0.030522167456102835 0 -0.038822389068400437 -0.031406224998070296 0 -0.038936039559850436 -0.031044204557342813 0 -0.039278099077853242 -0.03126457520022656 0 -0.037988570648023842 -0.029728967383233412 0 -0.037999232047423628 -0.029623712512104394 0 -0.038643657352048638 -0.031128550027362124 0 -0.038192310489949581 -0.030634602935719138 0 -0.038941056316673876 -0.030569254828841673 0 -0.038344691940511245 -0.031474709031426816 0 -0.038238925408980697 -0.031078771108535661 0 -0.038643657352048638 -0.031128550027362124 0 -0.038344691940511245 -0.031474709031426816 0 -0.038822389068400437 -0.031406224998070296 0 -0.038643657352048638 -0.031128550027362124 0 -0.038238925408980697 -0.031078771108535661 0 -0.038643657352048638 -0.031128550027362124 0 -0.038192310489949581 -0.030634602935719138 0 -0.038192310489949581 -0.030634602935719138 0 -0.038941056316673876 -0.030569254828841673 0 -0.038297933704195347 -0.029788348817450589 0 -0.037999232047423628 -0.029623712512104394 0 -0.038221326011901584 -0.028174079069869323 0 -0.038941056316673876 -0.030569254828841673 0 -0.038297933704195347 -0.029788348817450589 0 -0.039152099464744169 -0.028863485408206185 0 -0.038297933704195347 -0.029788348817450589 0 -0.037568742328510374 -0.030174665723901772 0 -0.037656446944808214 -0.028745704912417857 0 -0.037568742328510374 -0.030174665723901772 0 -0.037656446944808214 -0.028745704912417857 0 -0.036607534674050493 -0.029876585260782993 0 -0.038192310489949581 -0.030634602935719138 0 -0.038297933704195347 -0.029788348817450589 0 -0.037568742328510374 -0.030174665723901772 0 -0.037775840477984761 -0.031077499750317882 0 -0.038192310489949581 -0.030634602935719138 0 -0.037568742328510374 -0.030174665723901772 0 -0.040120506382166521 -0.03228253303870661 0 -0.040450739144611461 -0.031218415575094308 0 -0.03978924657862519 -0.031357179322648011 0 -0.024638166327071626 -0.036982596581453288 0 -0.024617802446180868 -0.036887784504760428 0 -0.024638082521743244 -0.036981814417171528 0 -0.031664167669105327 -0.034259922086587777 0 -0.031746768579566917 -0.033370960979250901 0 -0.040450739144611461 -0.031218415575094308 0 -0.03978924657862519 -0.031357179322648011 0 -0.040009685438061576 -0.030924368202956867 0 -0.040120506382166521 -0.03228253303870661 0 -0.03978924657862519 -0.031357179322648011 0 -0.039288025367200448 -0.031816963307915794 0 -0.03978924657862519 -0.031357179322648011 0 -0.039288025367200448 -0.031816963307915794 0 -0.039278099077853242 -0.03126457520022656 0 -0.038936039559850436 -0.031044204557342813 0 -0.039564379692164961 -0.030768481809290621 0 -0.039545643858515028 -0.030132847808570822 0 -0.037999232047423628 -0.029623712512104394 0 -0.037885048619617431 -0.028371655389429911 0 -0.03978924657862519 -0.031357179322648011 0 -0.039278099077853242 -0.03126457520022656 0 -0.039564379692164961 -0.030768481809290621 0 -0.038936039559850436 -0.031044204557342813 0 -0.039278099077853242 -0.03126457520022656 0 -0.039564379692164961 -0.030768481809290621 0 -0.03978924657862519 -0.031357179322648011 0 -0.039564379692164961 -0.030768481809290621 0 -0.040009685438061576 -0.030924368202956867 0 -0.039564379692164961 -0.030768481809290621 0 -0.040009685438061576 -0.030924368202956867 0 -0.040229325248763222 -0.030369596382178711 0 -0.040450739144611461 -0.031218415575094308 0 -0.040229325248763222 -0.030369596382178711 0 -0.040829754292910851 -0.030356638171944884 0 -0.040450739144611461 -0.031218415575094308 0 -0.040009685438061576 -0.030924368202956867 0 -0.040229325248763222 -0.030369596382178711 0 -0.040229325248763222 -0.030369596382178711 0 -0.040046695205095198 -0.029949443773107123 0 -0.039545643858515028 -0.030132847808570822 0 -0.040229325248763222 -0.030369596382178711 0 -0.040046695205095198 -0.029949443773107123 0 -0.040386776145811043 -0.029908333189106205 0 -0.039564379692164961 -0.030768481809290621 0 -0.040229325248763222 -0.030369596382178711 0 -0.039545643858515028 -0.030132847808570822 0 -0.037885048619617431 -0.028371655389429911 0 -0.037147888644799579 -0.026068355573791585 0 -0.038118405758665062 -0.027803340848569696 0 -0.037781834591739984 -0.0265844235952538 0 -0.038797616038247912 -0.026598299405666222 0 -0.038118405758665062 -0.027803340848569696 0 -0.037781834591739984 -0.0265844235952538 0 -0.037608287481599334 -0.027796693678122403 0 -0.038404522007551012 -0.026079421711173823 0 -0.037147888644799579 -0.026068355573791585 0 -0.040011976211149658 -0.029410982639112369 0 -0.040386776145811043 -0.029908333189106205 0 -0.040540671802026224 -0.029446997883957854 0 -0.040046695205095198 -0.029949443773107123 0 -0.040011976211149658 -0.029410982639112369 0 -0.040386776145811043 -0.029908333189106205 0 -0.037147888644799579 -0.026068355573791585 0 -0.035540079896955325 -0.02665762583241283 0 -0.040046695205095198 -0.029949443773107123 0 -0.039545643858515028 -0.030132847808570822 0 -0.040011976211149658 -0.029410982639112369 0 -0.037436927734167021 -0.029014879202195008 0 -0.038118405758665062 -0.027803340848569696 0 -0.037608287481599334 -0.027796693678122403 0 -0.038297933704195347 -0.029788348817450589 0 -0.037656446944808214 -0.028745704912417857 0 -0.039152099464744169 -0.028863485408206185 0 -0.039381093109718816 -0.027223344571771765 0 -0.037656446944808214 -0.028745704912417857 0 -0.039152099464744169 -0.028863485408206185 0 -0.038404522007551012 -0.026079421711173823 0 -0.038221326011901584 -0.028174079069869323 0 -0.039381093109718816 -0.027223344571771765 0 -0.037656446944808214 -0.028745704912417857 0 -0.037181884321626349 -0.027203668391304493 0 -0.037656446944808214 -0.028745704912417857 0 -0.036381219021406327 -0.028530889769731886 0 -0.037181884321626349 -0.027203668391304493 0 -0.036381219021406327 -0.028530889769731886 0 -0.035013538362182517 -0.027176627074893368 0 -0.037181884321626349 -0.027203668391304493 0 -0.037656446944808214 -0.028745704912417857 0 -0.036381219021406327 -0.028530889769731886 0 -0.036607534674050493 -0.029876585260782993 0 -0.036381219021406327 -0.028530889769731886 0 -0.035590955448478373 -0.029319742644652171 0 -0.036607534674050493 -0.029876585260782993 0 -0.036019459460856079 -0.029350398500262821 0 -0.035594776498531676 -0.028182853055793943 0 -0.035569165178919435 -0.02964164341035791 0 -0.037895487744231793 -0.028208874852879991 0 -0.037626545817254116 -0.027209745357347801 0 -0.03646418804737684 -0.027438939779796209 0 -0.036685380453896972 -0.02809308019662609 0 -0.035898652533941991 -0.027501179419258288 0 -0.036685380453896972 -0.02809308019662609 0 -0.036685920871286602 -0.028111661316275776 0 -0.036685380453896972 -0.02809308019662609 0 -0.036667246765252265 -0.027435680844188667 0 -0.036381219021406327 -0.028530889769731886 0 -0.035590955448478373 -0.029319742644652171 0 -0.035302438299563643 -0.028248102055239713 0 -0.036381219021406327 -0.028530889769731886 0 -0.035302438299563643 -0.028248102055239713 0 -0.035013538362182517 -0.027176627074893368 0 -0.036667246765252265 -0.027435680844188667 0 -0.036642519713907723 -0.026430914886541656 0 -0.037626545817254116 -0.027209745357347801 0 -0.03694989970875371 -0.026847290624186185 0 -0.037357093475989984 -0.026202924735581737 0 -0.03694989970875371 -0.026847290624186185 0 -0.03646418804737684 -0.027438939779796209 0 -0.036563202721828371 -0.026186234645920146 0 -0.03646418804737684 -0.027438939779796209 0 -0.03570899051207941 -0.026067455073677966 0 -0.036563202721828371 -0.026186234645920146 0 -0.03694989970875371 -0.026847290624186185 0 -0.036563202721828371 -0.026186234645920146 0 -0.037357093475989984 -0.026202924735581737 0 -0.037626545817254116 -0.027209745357347801 0 -0.03694989970875371 -0.026847290624186185 0 -0.03646418804737684 -0.027438939779796209 0 -0.035000460427057997 -0.026667170344538429 0 -0.035898652533941991 -0.027501179419258288 0 -0.035000002814948354 -0.026666256874430687 0 -0.03646418804737684 -0.027438939779796209 0 -0.03570899051207941 -0.026067455073677966 0 -0.034999881749151057 -0.026667502671094894 0 -0.035594776498531676 -0.028182853055793943 0 -0.034999130446869239 -0.028699098869941025 0 -0.035594776498531676 -0.028182853055793943 0 -0.035569165178919435 -0.02964164341035791 0 -0.034999130446869239 -0.028699098869941025 0 -0.035569165178919435 -0.02964164341035791 0 -0.034999130446869239 -0.028699098869941025 0 -0.035108010587691696 -0.030762152401042488 0 -0.034998039896825824 -0.031405287742942593 0 -0.034999130446869239 -0.028699098869941025 0 -0.035108010587691696 -0.030762152401042488 0 -0.035569165178919435 -0.02964164341035791 0 -0.035108010587691696 -0.030762152401042488 0 -0.035498267686747943 -0.030848612258055779 0 -0.034646010564554193 -0.033222404459086849 0 -0.035108010587691696 -0.030762152401042488 0 -0.035498267686747943 -0.030848612258055779 0 -0.034646010564554193 -0.033222404459086849 0 -0.035498267686747943 -0.030848612258055779 0 -0.03658887623777031 -0.030906047771314421 0 -0.035498267686747943 -0.030848612258055779 0 -0.03658887623777031 -0.030906047771314421 0 -0.036018549438317678 -0.030128941794978849 0 -0.03658887623777031 -0.030906047771314421 0 -0.036607534674050493 -0.029876585260782993 0 -0.036018549438317678 -0.030128941794978849 0 -0.037568742328510374 -0.030174665723901772 0 -0.03658887623777031 -0.030906047771314421 0 -0.036607534674050493 -0.029876585260782993 0 -0.035982511973068121 -0.029359453245247566 0 -0.036607534674050493 -0.029876585260782993 0 -0.036010170665458661 -0.029496547017585566 0 -0.036607534674050493 -0.029876585260782993 0 -0.036010170665458661 -0.029496547017585566 0 -0.036018549438317678 -0.030128941794978849 0 -0.036685380453896972 -0.02809308019662609 0 -0.036737742131456759 -0.028382671771695494 0 -0.035569165178919435 -0.02964164341035791 0 -0.036010170665458661 -0.029496547017585566 0 -0.036018549438317678 -0.030128941794978849 0 -0.036019459460856079 -0.029350398500262821 0 -0.035569165178919435 -0.02964164341035791 0 -0.036010170665458661 -0.029496547017585566 0 -0.035569165178919435 -0.02964164341035791 0 -0.035498267686747943 -0.030848612258055779 0 -0.036018549438317678 -0.030128941794978849 0 -0.015367621652361014 -0.037125753717654739 0 -0.013201877282641885 -0.035284281861722867 0 -0.017583512432334233 -0.037737473776557666 0 -0.017486288235715259 -0.039829593766386492 0 -0.01637584515030353 -0.038227865159029713 0 -0.019225008748007144 -0.038297501465147279 0 -0.017888130629248624 -0.037853323735282531 0 -0.01777133836130974 -0.039361478354258718 0 -0.019225008748007144 -0.038297501465147279 0 -0.019150873086058149 -0.03960945437674121 0 -0.01777133836130974 -0.039361478354258718 0 -0.019225008748007144 -0.038297501465147279 0 -0.020442449514139115 -0.038867823577306219 0 -0.019150873086058149 -0.03960945437674121 0 -0.019225008748007144 -0.038297501465147279 0 -0.018719698038725929 -0.037132688862311157 0 -0.019775705979749206 -0.037001703212714676 0 -0.019225008748007144 -0.038297501465147279 0 -0.018719698038725929 -0.037132688862311157 0 -0.017888130629248624 -0.037853323735282531 0 -0.015367621652361014 -0.037125753717654739 0 -0.016029608657017528 -0.036760092870589539 0 -0.018719698038725929 -0.037132688862311157 0 -0.017888130629248624 -0.037853323735282531 0 -0.017928477575338646 -0.036270738524993143 0 -0.017583512432334233 -0.037737473776557666 0 -0.017928477575338646 -0.036270738524993143 0 -0.016149635179199623 -0.036622253322971407 0 -0.017928477575338646 -0.036270738524993143 0 -0.017968638450327763 -0.034999680262587957 0 -0.019145046143658823 -0.036016402412744092 0 -0.017928477575338646 -0.036270738524993143 0 -0.017968638450327763 -0.034999680262587957 0 -0.016791377871723818 -0.0356699399220652 0 -0.017968638450327763 -0.034999680262587957 0 -0.019145046143658823 -0.036016402412744092 0 -0.01988942430922376 -0.034999949806368204 0 -0.018719698038725929 -0.037132688862311157 0 -0.017928477575338646 -0.036270738524993143 0 -0.019145046143658823 -0.036016402412744092 0 -0.018719698038725929 -0.037132688862311157 0 -0.019145046143658823 -0.036016402412744092 0 -0.019775705979749206 -0.037001703212714676 0 -0.019775705979749206 -0.037001703212714676 0 -0.020409120878240272 -0.035910869079215167 0 -0.020857895361544795 -0.036835467493386065 0 -0.019145046143658823 -0.036016402412744092 0 -0.019775705979749206 -0.037001703212714676 0 -0.020409120878240272 -0.035910869079215167 0 -0.01988942430922376 -0.034999949806368204 0 -0.020409120878240272 -0.035910869079215167 0 -0.021810044734643232 -0.034999938230975608 0 -0.019145046143658823 -0.036016402412744092 0 -0.01988942430922376 -0.034999949806368204 0 -0.020409120878240272 -0.035910869079215167 0 -0.020409120878240272 -0.035910869079215167 0 -0.021810044734643232 -0.034999938230975608 0 -0.021398212227973022 -0.036115211252078672 0 -0.021398212227973022 -0.036115211252078672 0 -0.020857895361544795 -0.036835467493386065 0 -0.021987166955547994 -0.036789159835890178 0 -0.020409120878240272 -0.035910869079215167 0 -0.021398212227973022 -0.036115211252078672 0 -0.020857895361544795 -0.036835467493386065 0 -0.020857895361544795 -0.036835467493386065 0 -0.021415583203593325 -0.037525620689846932 0 -0.021987166955547994 -0.036789159835890178 0 -0.021415583203593325 -0.037525620689846932 0 -0.021195682063592576 -0.03844492258286903 0 -0.02191616867936217 -0.038092281385642211 0 -0.021415583203593325 -0.037525620689846932 0 -0.020462889868778329 -0.037821879552706272 0 -0.021195682063592576 -0.03844492258286903 0 -0.020857895361544795 -0.036835467493386065 0 -0.021415583203593325 -0.037525620689846932 0 -0.020462889868778329 -0.037821879552706272 0 -0.019225008748007144 -0.038297501465147279 0 -0.019775705979749206 -0.037001703212714676 0 -0.020462889868778329 -0.037821879552706272 0 -0.019775705979749