<?xml version="1.0"?>
<VTKFile type="UnstructuredGrid" version="0.1" byte_order="LittleEndian">
<UnstructuredGrid>
<Piece NumberOfPoints="31898" NumberOfCells="11152">
<Points>
<DataArray type="Float64" NumberOfComponents="3" format="ascii">
-0.5 -0.5 0 -0.47620991077874902 -0.44978878706170539 0 -0.49999999999999473 -0.42132396840504388 0 -0.5 -0.5 0 -0.47160970827802529 -0.4793630013852106 0 -0.47620991077874902 -0.44978878706170539 0 -0.5 -0.5 0 -0.47160970827802529 -0.4793630013852106 0 -0.44860394795025399 -0.5 0 -0.47160970827802529 -0.4793630013852106 0 -0.44860394795025399 -0.5 0 -0.4490820238307246 -0.45820516232899983 0 -0.44860394795025399 -0.5 0 -0.4490820238307246 -0.45820516232899983 0 -0.42881687682924802 -0.47781464288736519 0 -0.4490820238307246 -0.45820516232899983 0 -0.45555437223955858 -0.42914059360647611 0 -0.4490820238307246 -0.45820516232899983 0 -0.45555437223955858 -0.42914059360647611 0 -0.43867285131603428 -0.4271457417558665 0 -0.4490820238307246 -0.45820516232899983 0 -0.43867285131603428 -0.4271457417558665 0 -0.4263356171060747 -0.44269880333887462 0 -0.47160970827802529 -0.4793630013852106 0 -0.4490820238307246 -0.45820516232899983 0 -0.47620991077874902 -0.44978878706170539 0 -0.4490820238307246 -0.45820516232899983 0 -0.47620991077874902 -0.44978878706170539 0 -0.45555437223955858 -0.42914059360647611 0 -0.47620991077874902 -0.44978878706170539 0 -0.48101336032419229 -0.41069999664450008 0 -0.45555437223955858 -0.42914059360647611 0 -0.47620991077874902 -0.44978878706170539 0 -0.49999999999999473 -0.42132396840504388 0 -0.48101336032419229 -0.41069999664450008 0 -0.49999999999999473 -0.42132396840504388 0 -0.48101336032419229 -0.41069999664450008 0 -0.5 -0.393886241813306 0 -0.49999999999999473 -0.42132396840504388 0 -0.48101336032419229 -0.41069999664450008 0 -0.5 -0.393886241813306 0 -0.47854472220918332 -0.38978458738689759 0 -0.48422759779560409 -0.37130120630367158 0 -0.5 -0.393886241813306 0 -0.5 -0.36644851522156802 0 -0.48422759779560409 -0.37130120630367158 0 -0.48101336032419229 -0.41069999664450008 0 -0.5 -0.393886241813306 0 -0.47854472220918332 -0.38978458738689759 0 -0.48101336032419229 -0.41069999664450008 0 -0.47854472220918332 -0.38978458738689759 0 -0.46202672064839212 -0.40007602488395211 0 -0.48101336032419229 -0.41069999664450008 0 -0.46202672064839212 -0.40007602488395211 0 -0.47854472220918332 -0.38978458738689759 0 -0.46725442735267431 -0.37660061361585562 0 -0.46202672064839212 -0.40007602488395211 0 -0.47854472220918332 -0.38978458738689759 0 -0.46725442735267431 -0.37660061361585562 0 -0.48422759779560409 -0.37130120630367158 0 -0.46725442735267431 -0.37660061361585562 0 -0.46202672064839212 -0.40007602488395211 0 -0.46725442735267431 -0.37660061361585562 0 -0.45645674801697989 -0.38644133236760531 0 -0.46202672064839212 -0.40007602488395211 0 -0.46725442735267431 -0.37660061361585562 0 -0.45645674801697989 -0.38644133236760531 0 -0.4540003998136638 -0.37455519391687309 0 -0.45645674801697989 -0.38644133236760531 0 -0.46202672064839212 -0.40007602488395211 0 -0.44257020456291563 -0.38918913383950271 0 -0.46202672064839212 -0.40007602488395211 0 -0.44257020456291563 -0.38918913383950271 0 -0.44727608925983742 -0.41095911152778891 0 -0.46202672064839212 -0.40007602488395211 0 -0.44257020456291563 -0.38918913383950271 0 -0.44257020456291563 -0.38918913383950271 0 -0.44727608925983742 -0.41095911152778891 0 -0.43479358559901082 -0.4041454901736512 0 -0.44257020456291563 -0.38918913383950271 0 -0.4540003998136638 -0.37455519391687309 0 -0.44172858264042247 -0.37082207246888088 0 -0.45645674801697989 -0.38644133236760531 0 -0.44257020456291563 -0.38918913383950271 0 -0.4540003998136638 -0.37455519391687309 0 -0.46202672064839212 -0.40007602488395211 0 -0.45555437223955858 -0.42914059360647611 0 -0.44727608925983742 -0.41095911152778891 0 -0.46202672064839212 -0.40007602488395211 0 -0.45555437223955858 -0.42914059360647611 0 -0.48101336032419229 -0.41069999664450008 0 -0.46202672064839212 -0.40007602488395211 0 -0.45555437223955858 -0.42914059360647611 0 -0.44727608925983742 -0.41095911152778891 0 -0.43867285131603428 -0.4271457417558665 0 -0.43676601469929588 -0.41441201227470881 0 -0.44727608925983742 -0.41095911152778891 0 -0.43676601469929588 -0.41441201227470881 0 -0.43479358559901082 -0.4041454901736512 0 -0.45555437223955858 -0.42914059360647611 0 -0.44727608925983742 -0.41095911152778891 0 -0.43867285131603428 -0.4271457417558665 0 -0.43867285131603428 -0.4271457417558665 0 -0.42681803064840879 -0.42717069814352421 0 -0.4263356171060747 -0.44269880333887462 0 -0.42681803064840879 -0.42717069814352421 0 -0.41531815884496182 -0.42985383783075998 0 -0.4263356171060747 -0.44269880333887462 0 -0.42681803064840879 -0.42717069814352421 0 -0.42624289495594048 -0.42089725947505818 0 -0.42083332353326591 -0.42146747131641099 0 -0.42681803064840879 -0.42717069814352421 0 -0.43096994786351572 -0.41951492446283251 0 -0.42624289495594048 -0.42089725947505818 0 -0.43867285131603428 -0.4271457417558665 0 -0.42681803064840879 -0.42717069814352421 0 -0.43096994786351572 -0.41951492446283251 0 -0.43867285131603428 -0.4271457417558665 0 -0.43676601469929588 -0.41441201227470881 0 -0.43096994786351572 -0.41951492446283251 0 -0.43676601469929588 -0.41441201227470881 0 -0.43096994786351572 -0.41951492446283251 0 -0.42907264086257813 -0.41311715872526122 0 -0.43676601469929588 -0.41441201227470881 0 -0.42907264086257813 -0.41311715872526122 0 -0.43479358559901082 -0.4041454901736512 0 -0.42907264086257813 -0.41311715872526122 0 -0.43479358559901082 -0.4041454901736512 0 -0.42460885511582858 -0.40417321677700252 0 -0.42907264086257813 -0.41311715872526122 0 -0.41997834854398469 -0.41180534796019508 0 -0.42907264086257813 -0.41311715872526122 0 -0.42635027777857132 -0.41543594397746519 0 -0.41997834854398469 -0.41180534796019508 0 -0.42907264086257813 -0.41311715872526122 0 -0.41997834854398469 -0.41180534796019508 0 -0.42460885511582858 -0.40417321677700252 0 -0.42635027777857132 -0.41543594397746519 0 -0.41997834854398469 -0.41180534796019508 0 -0.42635027777857132 -0.41543594397746519 0 -0.42083332353326591 -0.42146747131641099 0 -0.41997834854398469 -0.41180534796019508 0 -0.43096994786351572 -0.41951492446283251 0 -0.42624289495594048 -0.42089725947505818 0 -0.42635027777857132 -0.41543594397746519 0 -0.43096994786351572 -0.41951492446283251 0 -0.42907264086257813 -0.41311715872526122 0 -0.42635027777857132 -0.41543594397746519 0 -0.42624289495594048 -0.42089725947505818 0 -0.42635027777857132 -0.41543594397746519 0 -0.42083332353326591 -0.42146747131641099 0 -0.42083332353326591 -0.42146747131641099 0 -0.41997834854398469 -0.41180534796019508 0 -0.40992282953163789 -0.42011435591993562 0 -0.41997834854398469 -0.41180534796019508 0 -0.39756877647335259 -0.40857286797681719 0 -0.41997834854398469 -0.41180534796019508 0 -0.40992282953163789 -0.42011435591993562 0 -0.39756877647335259 -0.40857286797681719 0 -0.40992282953163789 -0.42011435591993562 0 -0.41531815884496182 -0.42985383783075998 0 -0.39591554026262499 -0.42887225451549271 0 -0.41531815884496182 -0.42985383783075998 0 -0.39591554026262499 -0.42887225451549271 0 -0.41160927495564159 -0.44339431233754628 0 -0.42083332353326591 -0.42146747131641099 0 -0.40992282953163789 -0.42011435591993562 0 -0.41531815884496182 -0.42985383783075998 0 -0.42681803064840879 -0.42717069814352421 0 -0.42083332353326591 -0.42146747131641099 0 -0.41531815884496182 -0.42985383783075998 0 -0.44257020456291563 -0.38918913383950271 0 -0.42311368847744002 -0.37830224279505142 0 -0.42594061475171041 -0.39368797999533162 0 -0.44257020456291563 -0.38918913383950271 0 -0.42311368847744002 -0.37830224279505142 0 -0.44172858264042247 -0.37082207246888088 0 -0.44257020456291563 -0.38918913383950271 0 -0.42311368847744002 -0.37830224279505142 0 -0.42311368847744002 -0.37830224279505142 0 -0.42594061475171041 -0.39368797999533162 0 -0.416587075656149 -0.38785930376960043 0 -0.44257020456291563 -0.38918913383950271 0 -0.42594061475171041 -0.39368797999533162 0 -0.43479358559901082 -0.4041454901736512 0 -0.42594061475171041 -0.39368797999533162 0 -0.43479358559901082 -0.4041454901736512 0 -0.42460885511582858 -0.40417321677700252 0 -0.41997834854398469 -0.41180534796019508 0 -0.41325908582185972 -0.39811010703057192 0 -0.39770572831670092 -0.39911486077581648 0 -0.41997834854398469 -0.41180534796019508 0 -0.39770572831670092 -0.39911486077581648 0 -0.42594061475171041 -0.39368797999533162 0 -0.42460885511582858 -0.40417321677700252 0 -0.41325908582185972 -0.39811010703057192 0 -0.41997834854398469 -0.41180534796019508 0 -0.42460885511582858 -0.40417321677700252 0 -0.41325908582185972 -0.39811010703057192 0 -0.42594061475171041 -0.39368797999533162 0 -0.41325908582185972 -0.39811010703057192 0 -0.416587075656149 -0.38785930376960043 0 -0.41325908582185972 -0.39811010703057192 0 -0.416587075656149 -0.38785930376960043 0 -0.40403491357358612 -0.38133688525744702 0 -0.42311368847744002 -0.37830224279505142 0 -0.40403491357358612 -0.38133688525744702 0 -0.40365717239196519 -0.36741535175059892 0 -0.42311368847744002 -0.37830224279505142 0 -0.416587075656149 -0.38785930376960043 0 -0.40403491357358612 -0.38133688525744702 0 -0.40403491357358612 -0.38133688525744702 0 -0.39190790742475001 -0.38540387676521748 0 -0.39770572831670092 -0.39911486077581648 0 -0.40403491357358612 -0.38133688525744702 0 -0.39190790742475001 -0.38540387676521748 0 -0.3904578797192948 -0.37473938743617019 0 -0.41325908582185972 -0.39811010703057192 0 -0.40403491357358612 -0.38133688525744702 0 -0.39770572831670092 -0.39911486077581648 0 -0.39770572831670092 -0.39911486077581648 0 -0.37543310808941849 -0.38642437359143528 0 -0.39770572831670092 -0.39911486077581648 0 -0.37515920440272033 -0.40534038799344108 0 -0.37543310808941849 -0.38642437359143528 0 -0.39770572831670092 -0.39911486077581648 0 -0.37515920440272033 -0.40534038799344108 0 -0.39756877647335259 -0.40857286797681719
[...]
<PointData Scalars="" Vectors="displacement," Tensors="">
<DataArray type="Float64" Name="displacement" NumberOfComponents="3" format="ascii">
-0.034997116963300913 -2.6620455913028802e-07 0 -0.034112521799410662 -0.00017621246929607428 0 -0.034997651700642562 -7.3895606444219652e-07 0 -0.034997116963300913 -2.6620455913028802e-07 0 -0.033465921765227183 -0.00011603296062071128 0 -0.034112521799410662 -0.00017621246929607428 0 -0.034997116963300913 -2.6620455913028802e-07 0 -0.033465921765227183 -0.00011603296062071128 0 -0.031404208101300568 -2.5324068104161964e-07 0 -0.033465921765227183 -0.00011603296062071128 0 -0.031404208101300568 -2.5324068104161964e-07 0 -0.032837644094659536 8.8362133037050823e-05 0 -0.031404208101300568 -2.5324068104161964e-07 0 -0.032837644094659536 8.8362133037050823e-05 0 -0.031204987333609789 -6.7237365365666792e-05 0 -0.033104089066527044 0.00022146094206621918 0 -0.033304452341017782 0.00023035724376289959 0 -0.032837644094659536 8.8362133037050823e-05 0 -0.032208742813275133 0.00036684432416371319 0 -0.032151658731220251 0.00011829183411140185 0 -0.032837644094659536 8.8362133037050823e-05 0 -0.032151658731220251 0.00011829183411140185 0 -0.032216254164487847 9.6854814697165698e-06 0 -0.033465921765227183 -0.00011603296062071128 0 -0.032837644094659536 8.8362133037050823e-05 0 -0.034112521799410662 -0.00017621246929607428 0 -0.032837644094659536 8.8362133037050823e-05 0 -0.034112521799410662 -0.00017621246929607428 0 -0.034442304548183499 0.00027479094482428735 0 -0.034112521799410662 -0.00017621246929607428 0 -0.034884924862346831 -2.7022000515898413e-05 0 -0.034442304548183499 0.00027479094482428735 0 -0.034112521799410662 -0.00017621246929607428 0 -0.034997651700642562 -7.3895606444219652e-07 0 -0.034884924862346831 -2.7022000515898413e-05 0 -0.034999998680730546 1.1455116341698177e-10 0 -0.034998220235765563 -3.7237078254705117e-07 0 -0.034999997639642566 -5.1449131141142541e-10 0 -0.03499926026916976 3.0520829190300045e-07 0 -0.034534336580036788 0.00014155930005450612 0 -0.034999997639642566 -5.1449131141142541e-10 0 -0.034997888667697027 -7.2164020043762617e-07 0 -0.034999070871831871 -1.2503526867555233e-06 0 -0.034999997639642566 -5.1449131141142541e-10 0 -0.034999996731400092 -1.9364125008659476e-09 0 -0.034999070871831871 -1.2503526867555233e-06 0 -0.034998220235765563 -3.7237078254705117e-07 0 -0.034999997639642566 -5.1449131141142541e-10 0 -0.034997888667697027 -7.2164020043762617e-07 0 -0.034998220235765563 -3.7237078254705117e-07 0 -0.034997888667697027 -7.2164020043762617e-07 0 -0.03499557588144428 -4.6218236739369317e-07 0 -0.034534336580036788 0.00014155930005450612 0 -0.033662685303521643 0.00014220060516677933 0 -0.034997888667697027 -7.2164020043762617e-07 0 -0.034997400433071514 -6.7973772762793822e-07 0 -0.03499557588144428 -4.6218236739369317e-07 0 -0.034997888667697027 -7.2164020043762617e-07 0 -0.034997400433071514 -6.7973772762793822e-07 0 -0.034999070871831871 -1.2503526867555233e-06 0 -0.034219687718043866 5.4218571372220697e-05 0 -0.033662685303521643 0.00014220060516677933 0 -0.033512926161817003 0.00014339349234077352 0 -0.03334643369498376 0.00034298243920183509 0 -0.033108060515978609 0.00024622043098966638 0 -0.033512926161817003 0.00014339349234077352 0 -0.03334643369498376 0.00034298243920183509 0 -0.033561221935621187 0.0003919278464574905 0 -0.03334643369498376 0.00034298243920183509 0 -0.033108060515978609 0.00024622043098966638 0 -0.033303215176815552 0.00058713212308902332 0 -0.031872650757999534 0.00043302199031865327 0 -0.031742783065490741 0.00022075184984879251 0 -0.031996864085175748 0.00025979397476113934 0 -0.033662685303521643 0.00014220060516677933 0 -0.032786581928528589 0.00031499058182416449 0 -0.031742783065490741 0.00022075184984879251 0 -0.031996864085175748 0.00025979397476113934 0 -0.031923717397638718 0.00012934172126139067 0 -0.033303215176815552 0.00058713212308902332 0 -0.033561221935621187 0.0003919278464574905 0 -0.033625862843110629 0.00060301973935953637 0 -0.03334643369498376 0.00034298243920183509 0 -0.033303215176815552 0.00058713212308902332 0 -0.033561221935621187 0.0003919278464574905 0 -0.031872650757999534 0.00043302199031865327 0 -0.032208742813275133 0.00036684432416371319 0 -0.031996864085175748 0.00025979397476113934 0 -0.033662685303521643 0.00014220060516677933 0 -0.033304452341017782 0.00023035724376289959 0 -0.034884924862346831 -2.7022000515898413e-05 0 -0.035007352824698398 0.00024438616248079675 0 -0.034442304548183499 0.00027479094482428735 0 -0.031996864085175748 0.00025979397476113934 0 -0.032151658731220251 0.00011829183411140185 0 -0.032047631675908607 0.0001409432442894841 0 -0.031996864085175748 0.00025979397476113934 0 -0.032047631675908607 0.0001409432442894841 0 -0.031923717397638718 0.00012934172126139067 0 -0.032208742813275133 0.00036684432416371319 0 -0.031996864085175748 0.00025979397476113934 0 -0.032151658731220251 0.00011829183411140185 0 -0.032151658731220251 0.00011829183411140185 0 -0.03215001658344345 6.6672384476125404e-05 0 -0.032216254164487847 9.6854814697165698e-06 0 -0.03215001658344345 6.6672384476125404e-05 0 -0.03215638783903401 0.00010441849235634637 0 -0.032216254164487847 9.6854814697165698e-06 0 -0.03215001658344345 6.6672384476125404e-05 0 -0.032120194426324314 7.1163063743695228e-05 0 -0.03212990936481562 8.017278062064838e-05 0 -0.03215001658344345 6.6672384476125404e-05 0 -0.032105727428662911 8.832632085753929e-05 0 -0.032120194426324314 7.1163063743695228e-05 0 -0.032151658731220251 0.00011829183411140185 0 -0.03215001658344345 6.6672384476125404e-05 0 -0.032105727428662911 8.832632085753929e-05 0 -0.032151658731220251 0.00011829183411140185 0 -0.032047631675908607 0.0001409432442894841 0 -0.032105727428662911 8.832632085753929e-05 0 -0.032047631675908607 0.0001409432442894841 0 -0.032105727428662911 8.832632085753929e-05 0 -0.032052427365219467 7.4342924422036546e-05 0 -0.032047631675908607 0.0001409432442894841 0 -0.032052427365219467 7.4342924422036546e-05 0 -0.031923717397638718 0.00012934172126139067 0 -0.032052427365219467 7.4342924422036546e-05 0 -0.031923717397638718 0.00012934172126139067 0 -0.031922333419174116 7.3964288271437903e-06 0 -0.029583511468424875 0.00063672538126185801 0 -0.029456511614217997 0.00070626669996074062 0 -0.032052427365219467 7.4342924422036546e-05 0 -0.032093134231373152 5.8812052475566785e-05 0 -0.032058792713457254 -6.0244151668352264e-07 0 -0.032052427365219467 7.4342924422036546e-05 0 -0.032024152603531378 -5.2390269923623727e-05 0 -0.031922333419174116 7.3964288271437903e-06 0 -0.029577234239191279 0.00074448141490023674 0 -0.029456511614217997 0.00070626669996074062 0 -0.032093134231373152 5.8812052475566785e-05 0 -0.03212990936481562 8.017278062064838e-05 0 -0.032132796492679777 8.4457421436633957e-05 0 -0.032105727428662911 8.832632085753929e-05 0 -0.032120194426324314 7.1163063743695228e-05 0 -0.032093134231373152 5.8812052475566785e-05 0 -0.032105727428662911 8.832632085753929e-05 0 -0.032052427365219467 7.4342924422036546e-05 0 -0.032093134231373152 5.8812052475566785e-05 0 -0.032120194426324314 7.1163063743695228e-05 0 -0.032093134231373152 5.8812052475566785e-05 0 -0.03212990936481562 8.017278062064838e-05 0 -0.03212990936481562 8.017278062064838e-05 0 -0.032132796492679777 8.4457421436633957e-05 0 -0.032136110494182114 0.00010768793145649031 0 -0.029456511614217997 0.00070626669996074062 0 -0.028574552736985528 0.0005658858942707909 0 -0.032132796492679777 8.4457421436633957e-05 0 -0.032136110494182114 0.00010768793145649031 0 -0.032142445660319652 0.00013400236465704925 0 -0.032136110494182114 0.00010768793145649031 0 -0.03215638783903401 0.00010441849235634637 0 -0.032126052889769857 0.00014255336995131913 0 -0.03215638783903401 0.00010441849235634637 0 -0.032126052889769857 0.00014255336995131913 0 -0.032141769274082313 0.00017084010740440645 0 -0.03212990936481562 8.017278062064838e-05 0 -0.032136110494182114 0.00010768793145649031 0 -0.03215638783903401 0.00010441849235634637 0 -0.03215001658344345 6.6672384476125404e-05 0 -0.03212990936481562 8.017278062064838e-05 0 -0.03215638783903401 0.00010441849235634637 0 -0.031742783065490741 0.00022075184984879251 0 -0.031581844474582399 -1.105565407977302e-05 0 -0.031785994205075732 2.2976271482810575e-05 0 -0.033303215176815552 0.00058713212308902332 0 -0.033496078314387619 0.00091250167478833548 0 -0.033625862843110629 0.00060301973935953637 0 -0.032786581928528589 0.00031499058182416449 0 -0.032202088409709534 0.00061935142886559199 0 -0.031581844474582399 -1.105565407977302e-05 0 -0.031785994205075732 2.2976271482810575e-05 0 -0.031701977827756619 -9.4181274566325742e-05 0 -0.031742783065490741 0.00022075184984879251 0 -0.031785994205075732 2.2976271482810575e-05 0 -0.031923717397638718 0.00012934172126139067 0 -0.031785994205075732 2.2976271482810575e-05 0 -0.031923717397638718 0.00012934172126139067 0 -0.031922333419174116 7.3964288271437903e-06 0 -0.032024152603531378 -5.2390269923623727e-05 0 -0.031837890813378962 -0.00013830412354418208 0 -0.031847239919681747 -0.00034466098906757485 0 -0.029456511614217997 0.00070626669996074062 0 -0.028671226679303004 0.00076007094882258013 0 -0.031785994205075732 2.2976271482810575e-05 0 -0.031922333419174116 7.3964288271437903e-06 0 -0.031837890813378962 -0.00013830412354418208 0 -0.032024152603531378 -5.2390269923623727e-05 0 -0.031922333419174116 7.3964288271437903e-06 0 -0.031837890813378962 -0.00013830412354418208 0 -0.031785994205075732 2.2976271482810575e-05 0 -0.031837890813378962 -0.00013830412354418208 0 -0.031701977827756619 -9.4181274566325742e-05 0 -0.031837890813378962 -0.00013830412354418208 0 -0.031701977827756619 -9.4181274566325742e-05 0 -0.031603017379698818 -0.00025193682228981872 0 -0.031581844474582399 -1.105565407977302e-05 0 -0.031603017379698818 -0.00025193682228981872 0 -0.031432030381337656 -0.0002541163580638889 0 -0.031581844474582399 -1.105565407977302e-05 0 -0.031701977827756619 -9.4181274566325742e-05 0 -0.031603017379698818 -0.00025193682228981872 0 -0.031603017379698818 -0.00025193682228981872 0 -0.031649424164139142 -0.00043063029129292705 0 -0.031847239919681747 -0.00034466098906757485 0 -0.031603017379698818 -0.00025193682228981872 0 -0.031649424164139142 -0.00043063029129292705 0 -0.031487575362429472 -0.00045277886321349665 0 -0.031837890813378962 -0.00013830412354418208 0 -0.031603017379698818 -0.00025193682228981872 0 -0.031847239919681747 -0.00034466098906757485 0 -0.028671226679303004 0.00076007094882258013 0 -0.026512907354672034 0.00092603435138972499 0 -0.027856326498004499 0.00071246142386160733 0 -0.027974365681942757 0.00026939442147520885 0 -0.027601725698792864 0.00027528559963893893 0 -0.027856326498004499 0.00071246142386160733 0 -0.027974365681942757 0.00026939442147520885 0 -0.02804279838223471 0.00070951330583893398 0 -0.02656641116335284 0.00026508090355780817 0 -0.026512907354672034 0.00092603435138972499 0 -0.03165698236575297 -0.00067633700462114326 0 -0.031487575362429472 -0.00045277886321349665 0 -0.031394571333869935 -0.00067773315020633145 0 -0.031649424164139142 -0.00043063029129292705 0 -0.03165698236575297 -0.00067633700462114326 0 -0.031487575362429472 -0.00045277886321349665 0 -0.026512907354672034 0.00092603435138972499 0 -0.028067349277972754 0.00077108236624970925 0 -0.031649424164139142 -0.00043063029129292705 0 -0.031847239919681747 -0.00034466098906757485 0 -0.03165698236575297 -0.00067633700462114326 0 -0.028113457027131604 0.001147995376382446 0 -0.027856326498004499 0.00071246142386160733 0 -0.02804279838223471 0.00070951330583893398 0 -0.032136110494182114 0.00010768793145649031 0 -0.032126052889769857 0.00014255336995131913 0 -0.032142445660319652 0.00013400236465704925 0 -0.032129765256682395 0.00015732793350182493 0 -0.032126052889769857 0.00014255336995131913 0 -0.032142445660319652 0.00013400236465704925 0 -0.02656641116335284 0.00026508090355780817 0 -0.028574552736985528 0.0005658858942707909 0 -0.032129765256682395 0.00015732793350182493 0 -0.032126052889769857 0.00014255336995131913 0 -0.032114076170396577 0.00016118566806234318 0 -0.032126052889769857 0.00014255336995131913 0 -0.032118941950844242 0.0001541990201530386 0 -0.032114076170396577 0.00016118566806234318 0 -0.032118941950844242 0.0001541990201530386 0 -0.032089379142460628 0.00016941475904632306 0 -0.032114076170396577 0.00016118566806234318 0 -0.032126052889769857 0.00014255336995131913 0 -0.032118941950844242 0.0001541990201530386 0 -0.032141769274082313 0.00017084010740440645 0 -0.032118941950844242 0.0001541990201530386 0 -0.032116864123523853 0.00015735158243206725 0 -0.032141769274082313 0.00017084010740440645 0 -0.031672183910989998 0.00061185517748091485 0 -0.029698549655632771 0.00073043327653051588 0 -0.031059714161937018 0.00020931660075852919 0 -0.023810282121216258 0.0016188959309375809 0 -0.024013428585876247 0.00083747628623548679 0 -0.02493430450508502 0.0010322940998851444 0 -0.028533361870233476 -0.00047519214993997492 0 -0.027398325946896892 0.00011768501060417995 0 -0.028533361870233476 -0.00047519214993997492 0 -0.028546921721452231 -0.00047035870722082312 0 -0.028533361870233476 -0.00047519214993997492 0 -0.027614352796943364 0.00023966634855774433 0 -0.032118941950844242 0.0001541990201530386 0 -0.032116864123523853 0.00015735158243206725 0 -0.032101668181158942 0.0001583886268484179 0 -0.032118941950844242 0.0001541990201530386 0 -0.032101668181158942 0.0001583886268484179 0 -0.032089379142460628 0.00016941475904632306 0 -0.027614352796943364 0.00023966634855774433 0 -0.026597679473672031 0.00072656345499039351 0 -0.024013428585876247 0.00083747628623548679 0 -0.024545108603891214 0.00054814956432050661 0 -0.024219641423336626 3.0493743835583274e-05 0 -0.024545108603891214 0.00054814956432050661 0 -0.02493430450508502 0.0010322940998851444 0 -0.024849353884402282 7.7702512228585393e-06 0 -0.02493430450508502 0.0010322940998851444 0 -0.025533671254735362 -0.0001262444043786883 0 -0.024849353884402282 7.7702512228585393e-06 0 -0.024545108603891214 0.00054814956432050661 0 -0.024849353884402282 7.7702512228585393e-06 0 -0.024219641423336626 3.0493743835583274e-05 0 -0.024013428585876247 0.00083747628623548679 0 -0.024545108603891214 0.00054814956432050661 0 -0.02493430450508502 0.0010322940998851444 0 -0.026667427305426109 3.8315337819602969e-07 0 -0.027398325946896892 0.00011768501060417995 0 -0.026663342355174046 1.7753862216128843e-06 0 -0.02493430450508502 0.0010322940998851444 0 -0.025533671254735362 -0.0001262444043786883 0 -0.026669734781728009 2.8233715238937926e-06 0 -0.029698549655632771 0.00073043327653051588 0 -0.028698736253494912 -5.1090366355750618e-07 0 -0.029698549655632771 0.00073043327653051588 0 -0.031059714161937018 0.00020931660075852919 0 -0.028698736253494912 -5.1090366355750618e-07 0 -0.031059714161937018 0.00020931660075852919 0 -0.028698736253494912 -5.1090366355750618e-07 0 -0.031204987333609789 -6.7237365365666792e-05 0 -0.031404208101300568 -2.5324068104161964e-07 0 -0.028698736253494912 -5.1090366355750618e-07 0 -0.031204987333609789 -6.7237365365666792e-05 0 -0.031059714161937018 0.00020931660075852919 0 -0.031204987333609789 -6.7237365365666792e-05 0 -0.031925054727735637 2.444444977475506e-05 0 -0.032837644094659536 8.8362133037050823e-05 0 -0.031204987333609789 -6.7237365365666792e-05 0 -0.031925054727735637 2.444444977475506e-05 0 -0.032837644094659536 8.8362133037050823e-05 0 -0.031925054727735637 2.444444977475506e-05 0 -0.032216254164487847 9.6854814697165698e-06 0 -0.031925054727735637 2.444444977475506e-05 0 -0.032216254164487847 9.6854814697165698e-06 0 -0.031926903438806546 0.00013709396097476273 0 -0.032216254164487847 9.6854814697165698e-06 0 -0.032141769274082313 0.00017084010740440645 0 -0.031926903438806546 0.00013709396097476273 0 -0.03215638783903401 0.00010441849235634637 0 -0.032216254164487847 9.6854814697165698e-06 0 -0.032141769274082313 0.00017084010740440645 0 -0.031712978869978981 0.00058052408378379578 0 -0.032141769274082313 0.00017084010740440645 0 -0.031731984778066206 0.00047976084575804793 0 -0.032141769274082313 0.00017084010740440645 0 -0.031731984778066206 0.00047976084575804793 0 -0.031926903438806546 0.00013709396097476273 0 -0.028533361870233476 -0.00047519214993997492 0 -0.029768353509680465 -0.0007620149380625869 0 -0.031059714161937018 0.00020931660075852919 0 -0.031731984778066206 0.00047976084575804793 0 -0.031926903438806546 0.00013709396097476273 0 -0.031672183910989998 0.00061185517748091485 0 -0.031059714161937018 0.00020931660075852919 0 -0.031731984778066206 0.00047976084575804793 0 -0.031059714161937018 0.00020931660075852919 0 -0.031925054727735637 2.444444977475506e-05 0 -0.031926903438806546 0.00013709396097476273 0 -0.032772153797892153 0.0001655490735271636 0 -0.030842011424787496 0.0011029255480045602 0 -0.034764750344252075 -0.00034596592489445995 0 -0.034814099583606602 -0.0015160070010180539 0 -0.034190075198563333 -0.00056981292841587461 0 -0.034929906722965635 0.00010225466373423335 0 -0.034949011297723064 7.8418696266081066e-05 0 -0.034952509490096408 0.0001320824101895085 0 -0.034929906722965635 0.00010225466373423335 0 -0.034922764016742117 0.00014728845546266393 0 -0.034952509490096408 0.0001320824101895085 0 -0.034929906722965635 0.00010225466373423335 0 -0.034900595385738011 0.00014531696016527947 0 -0.034922764016742117 0.00014728845546266393 0 -0.034929906722965635 0.00010225466373423335 0 -0.034934414272409398 5.7405748720418269e-05 0 -0.034941390374945147 5.3141906364889403e-05 0 -0.034929906722965635 0.00010225466373423335 0 -0.034934414272409398 5.7405748720418269e-05 0 -0.034949011297723064 7.8418696266081066e-05 0 -0.032772153797892153 0.0001655490735271636 0 -0.033313124352184989 0.00014380052731580032 0 -0.034934414272409398 5.7405748720418269e-05 0 -0.034949011297723064 7.8418696266081066e-05 0 -0.0348862425421139 5.8905268208510163e-05 0 -0.034764750344252075 -0.00034596592489445995 0 -0.0348862425421139 5.8905268208510163e-05 0 -0.034262190969234226 5.3670030817413684e-05 0 -0.0348862425421139 5.8905268208510163e-05 0 -0.034999893375775554 1.1769600474587537e-07 0 -0.034956088501262132 3.6797933666083209e-05 0 -0.0348862425421139 5.8905268208510163e-05 0 -0.034999893375775554 1.1769600474587537e-07 0 -0.034715512148991615 7.1642688772007693e-05 0 -0.034999893375775554 1.1769600474587537e-07 0 -0.034956088501262132 3.6797933666083209e-05 0 -0.034999927530252564 -3.8130519891933502e-09 0 -0.034934414272409398 5.7405748720418269e-05 0 -0.0348862425421139 5.8905268208510163e-05 0 -0.034956088501262132 3.6797933666083209e-05 0 -0.034934414272409398 5.7405748720418269e-05 0 -0.034956088501262132 3.6797933666083209e-05 0 -0.034941390374945147 5.3141906364889403e-05 0 -0.034941390374945147 5.3141906364889403e-05 0 -0.034962665378680716 1.0447689463386065e-05 0 -0.034928809041274635 3.9541913232616441e-05 0 -0.034956088501262132 3.6797933666083209e-05 0 -0.034941390374945147 5.3141906364889403e-05 0 -0.034962665378680716 1.0447689463386065e-05 0 -0.034999927530252564 -3.8130519891933502e-09 0 -0.034962665378680716 1.0447689463386065e-05 0 -0.034999925792985276 9.7937888221896944e-09 0 -0.034956088501262132 3.6797933666083209e-05 0 -0.034999927530252564 -3.8130519891933502e-09 0 -0.034962665378680716 1.0447689463386065e-05 0 -0.034962665378680716 1.0447689463386065e-05 0 -0.034999925792985276 9.7937888221896944e-09 0 -0.034946179144056386 -9.8952820068018633e-06 0 -0.034946179144056386 -9.8952820068018633e-06 0 -0.034928809041274635 3.9541913232616441e-05 0 -0.034844012622909704 3.236625596792201e-05 0 -0.034962665378680716 1.0447689463386065e-05 0 -0.034946179144056386 -9.8952820068018633e-06 0 -0.034928809041274635 3.9541913232616441e-05 0 -0.034928809041274635 3.9541913232616441e-05 0 -0.034868607427767616 9.1401780374464635e-05 0 -0.034844012622909704 3.236625596792201e-05 0 -0.034868607427767616 9.1401780374464635e-05 0 -0.03486307009506112