<?xml version="1.0"?>
<VTKFile type="UnstructuredGrid" version="0.1" byte_order="LittleEndian">
<UnstructuredGrid>
<Piece NumberOfPoints="30713" NumberOfCells="10774">
<Points>
<DataArray type="Float64" NumberOfComponents="3" format="ascii">
-0.5 -0.5 0 -0.4796025021615643 -0.46577812904961879 0 -0.5 -0.44221410203244482 0 -0.5 -0.5 0 -0.4796025021615643 -0.46577812904961879 0 -0.4296306360314639 -0.5 0 -0.44795875673434038 -0.45041287517128459 0 -0.4796025021615643 -0.46577812904961879 0 -0.4296306360314639 -0.5 0 -0.44795875673434038 -0.45041287517128459 0 -0.47664897719421812 -0.43902784418536489 0 -0.4796025021615643 -0.46577812904961879 0 -0.44795875673434038 -0.45041287517128459 0 -0.47664897719421812 -0.43902784418536489 0 -0.46223310917408972 -0.42688402049767871 0 -0.47664897719421812 -0.43902784418536489 0 -0.4796025021615643 -0.46577812904961879 0 -0.47664897719421812 -0.43902784418536489 0 -0.4796025021615643 -0.46577812904961879 0 -0.5 -0.44221410203244482 0 -0.47664897719421812 -0.43902784418536489 0 -0.5 -0.44221410203244482 0 -0.4836380270115111 -0.41856072433257541 0 -0.5 -0.44221410203244482 0 -0.4836380270115111 -0.41856072433257541 0 -0.49999999999999889 -0.36826803302627609 0 -0.4836380270115111 -0.41856072433257541 0 -0.47369545222687248 -0.41227755932111099 0 -0.47144222327388652 -0.39186990506962149 0 -0.4836380270115111 -0.41856072433257541 0 -0.47369545222687248 -0.41227755932111099 0 -0.47664897719421812 -0.43902784418536489 0 -0.4836380270115111 -0.41856072433257541 0 -0.47369545222687248 -0.41227755932111099 0 -0.47664897719421812 -0.43902784418536489 0 -0.47369545222687248 -0.41227755932111099 0 -0.46223310917408972 -0.42688402049767871 0 -0.47664897719421812 -0.43902784418536489 0 -0.47369545222687248 -0.41227755932111099 0 -0.4836380270115111 -0.41856072433257541 0 -0.48056068800344581 -0.3793781299487724 0 -0.49999999999999889 -0.36826803302627609 0 -0.4836380270115111 -0.41856072433257541 0 -0.47144222327388652 -0.39186990506962149 0 -0.48056068800344581 -0.3793781299487724 0 -0.47369545222687248 -0.41227755932111099 0 -0.47144222327388652 -0.39186990506962149 0 -0.47369545222687248 -0.41227755932111099 0 -0.47144222327388652 -0.39186990506962149 0 -0.46195930817469222 -0.40486095635100999 0 -0.47144222327388652 -0.39186990506962149 0 -0.47092109800804749 -0.38715003661911701 0 -0.48056068800344581 -0.3793781299487724 0 -0.47144222327388652 -0.39186990506962149 0 -0.48056068800344581 -0.3793781299487724 0 -0.47144222327388652 -0.39186990506962149 0 -0.47092109800804749 -0.38715003661911701 0 -0.47144222327388652 -0.39186990506962149 0 -0.47092109800804749 -0.38715003661911701 0 -0.4650025884817458 -0.39019220821080691 0 -0.47092109800804749 -0.38715003661911701 0 -0.47100499257762229 -0.37891364744392297 0 -0.48056068800344581 -0.3793781299487724 0 -0.45359641667340878 -0.37751742946319078 0 -0.46407784612286601 -0.37624863758214971 0 -0.46336279109416512 -0.38378345268581149 0 -0.47100499257762229 -0.37891364744392297 0 -0.46407784612286601 -0.37624863758214971 0 -0.46336279109416512 -0.38378345268581149 0 -0.47092109800804749 -0.38715003661911701 0 -0.47100499257762229 -0.37891364744392297 0 -0.46336279109416512 -0.38378345268581149 0 -0.47092109800804749 -0.38715003661911701 0 -0.46336279109416512 -0.38378345268581149 0 -0.4650025884817458 -0.39019220821080691 0 -0.46336279109416512 -0.38378345268581149 0 -0.4650025884817458 -0.39019220821080691 0 -0.45803607684490738 -0.39096138753577919 0 -0.45359641667340878 -0.37751742946319078 0 -0.46336279109416512 -0.38378345268581149 0 -0.45803607684490738 -0.39096138753577919 0 -0.45359641667340878 -0.37751742946319078 0 -0.45803607684490738 -0.39096138753577919 0 -0.44856245441100723 -0.38554969188081728 0 -0.45803607684490738 -0.39096138753577919 0 -0.46195930817469222 -0.40486095635100999 0 -0.44017972070311129 -0.39109744489349407 0 -0.47144222327388652 -0.39186990506962149 0 -0.46195930817469222 -0.40486095635100999 0 -0.47144222327388652 -0.39186990506962149 0 -0.4650025884817458 -0.39019220821080691 0 -0.46195930817469222 -0.40486095635100999 0 -0.4650025884817458 -0.39019220821080691 0 -0.45803607684490738 -0.39096138753577919 0 -0.46195930817469222 -0.40486095635100999 0 -0.46195930817469222 -0.40486095635100999 0 -0.44017972070311129 -0.39109744489349407 0 -0.46195930817469222 -0.40486095635100999 0 -0.44017972070311129 -0.39109744489349407 0 -0.44187303809623463 -0.41042716763586079 0 -0.45803607684490738 -0.39096138753577919 0 -0.44017972070311129 -0.39109744489349407 0 -0.44856245441100723 -0.38554969188081728 0 -0.44017972070311129 -0.39109744489349407 0 -0.44856245441100723 -0.38554969188081728 0 -0.44097683473770349 -0.3832729449940232 0 -0.45359641667340878 -0.37751742946319078 0 -0.44097683473770349 -0.3832729449940232 0 -0.43806423624155388 -0.37321122993703859 0 -0.45359641667340878 -0.37751742946319078 0 -0.44856245441100723 -0.38554969188081728 0 -0.44097683473770349 -0.3832729449940232 0 -0.46195930817469222 -0.40486095635100999 0 -0.46223310917408972 -0.42688402049767871 0 -0.4454355997108892 -0.42749749182207158 0 -0.47369545222687248 -0.41227755932111099 0 -0.46195930817469222 -0.40486095635100999 0 -0.46223310917408972 -0.42688402049767871 0 -0.46195930817469222 -0.40486095635100999 0 -0.4454355997108892 -0.42749749182207158 0 -0.47369545222687248 -0.41227755932111099 0 -0.46195930817469222 -0.40486095635100999 0 -0.46195930817469222 -0.40486095635100999 0 -0.44187303809623463 -0.41042716763586079 0 -0.4454355997108892 -0.42749749182207158 0 -0.44795875673434038 -0.45041287517128459 0 -0.4454355997108892 -0.42749749182207158 0 -0.42273666922531011 -0.43149097083211352 0 -0.44795875673434038 -0.45041287517128459 0 -0.46223310917408972 -0.42688402049767871 0 -0.4454355997108892 -0.42749749182207158 0 -0.44187303809623463 -0.41042716763586079 0 -0.4454355997108892 -0.42749749182207158 0 -0.42273666922531011 -0.43149097083211352 0 -0.44187303809623463 -0.41042716763586079 0 -0.42273666922531011 -0.43149097083211352 0 -0.42025936247602952 -0.40857695173762038 0 -0.42025936247602952 -0.40857695173762038 0 -0.40033900424894708 -0.42605645858174612 0 -0.42273666922531011 -0.43149097083211352 0 -0.42025936247602952 -0.40857695173762038 0 -0.40033900424894708 -0.42605645858174612 0 -0.42273666922531011 -0.43149097083211352 0 -0.40033900424894708 -0.42605645858174612 0 -0.39855622360383719 -0.44977165092666882 0 -0.44097683473770349 -0.3832729449940232 0 -0.42493645186783829 -0.38146453033356231 0 -0.43806423624155388 -0.37321122993703859 0 -0.44017972070311129 -0.39109744489349407 0 -0.44097683473770349 -0.3832729449940232 0 -0.42493645186783829 -0.38146453033356231 0 -0.44017972070311129 -0.39109744489349407 0 -0.42493645186783829 -0.38146453033356231 0 -0.44017972070311129 -0.39109744489349407 0 -0.42025936247602952 -0.40857695173762038 0 -0.44017972070311129 -0.39109744489349407 0 -0.42025936247602952 -0.40857695173762038 0 -0.42493645186783829 -0.38146453033356231 0 -0.44017972070311129 -0.39109744489349407 0 -0.44187303809623463 -0.41042716763586079 0 -0.42025936247602952 -0.40857695173762038 0 -0.42025936247602952 -0.40857695173762038 0 -0.40782776772219592 -0.39017550812413121 0 -0.39773422813715242 -0.40794786661445559 0 -0.42025936247602952 -0.40857695173762038 0 -0.42493645186783829 -0.38146453033356231 0 -0.40782776772219592 -0.39017550812413121 0 -0.42493645186783829 -0.38146453033356231 0 -0.40782776772219592 -0.39017550812413121 0 -0.40969318303256508 -0.37183161577363072 0 -0.42493645186783829 -0.38146453033356231 0 -0.40969318303256508 -0.37183161577363072 0 -0.40782776772219592 -0.39017550812413121 0 -0.38651561309739402 -0.38105657616138727 0 -0.40969318303256508 -0.37183161577363072 0 -0.40782776772219592 -0.39017550812413121 0 -0.38651561309739402 -0.38105657616138727 0 -0.39773422813715242 -0.40794786661445559 0 -0.38016542019472988 -0.40284463733166881 0 -0.38651561309739402 -0.38105657616138727 0 -0.38016542019472988 -0.40284463733166881 0 -0.38651561309739402 -0.38105657616138727 0 -0.39773422813715242 -0.40794786661445559 0 -0.38016542019472988 -0.40284463733166881 0 -0.38651561309739402 -0.38105657616138727 0 -0.36209188078544141 -0.38151430749239162 0 -0.42025936247602952 -0.40857695173762038 0 -0.40033900424894708 -0.42605645858174612 0 -0.39773422813715242 -0.40794786661445559 0 -0.40033900424894708 -0.42605645858174612 0 -0.39773422813715242 -0.40794786661445559 0 -0.37381522729206579 -0.42463269850195018 0 -0.38016542019472988 -0.40284463733166881 0 -0.37381522729206579 -0.42463269850195018 0 -0.38016542019472988 -0.40284463733166881 0 -0.39773422813715242 -0.40794786661445559 0 -0.37381522729206579 -0.42463269850195018 0 -0.38041864602186448 -0.44353596542587193 0 -0.3771800029154922 -0.44258213213812081 0 -0.37381522729206579 -0.42463269850195018 0 -0.40033900424894708 -0.42605645858174612 0 -0.38041864602186448 -0.44353596542587193 0 -0.37381522729206579 -0.42463269850195018 0 -0.40033900424894708 -0.42605645858174612 0 -0.38041864602186448 -0.44353596542587193 0 -0.38041864602186448 -0.44353596542587193 0 -0.39855622360383719 -0.44977165092666882 0 -0.38580912934990641 -0.45629036053451683 0 -0.38041864602186448 -0.44353596542587193 0 -0.3780650829032246 -0.44922802270579798 0 -0.38580912934990641 -0.45629036053451683 0 -0.40033900424894708 -0.42605645858174612 0 -0.38041864602186448 -0.44353596542587193 0 -0.39855622360383719 -0.44977165092666882 0 -0.39855622360383719 -0.44977165092666882 0 -0.38580912934990641 -0.45629036053451683 0 -0.39027431341256302 -0.47078249965800539 0 -0.39855622360383719 -0.44977165092666882 0 -0.39027431341256302 -0.47078249965800539 0 -0.41828475117838199 -0.46214013322098879 0 -0.38580912934990641 -0.45629036053451683 0 -0.37668774397240717 -0.46871399163092892 0 -0.39027431341256302 -0.47078249965800539 0 -0.3780650829032246 -0.44922802270579798 0 -0.38580912934990641 -0.45629036053451683 0 -0.37361521456007563 -0.46198031558937991 0 -0.3858091293
[...]
<PointData Scalars="" Vectors="displacement," Tensors="">
<DataArray type="Float64" Name="displacement" NumberOfComponents="3" format="ascii">
-0.0049995698946503379 7.2306088155435735e-08 0 -0.0048027620853350632 9.6349090849386135e-06 0 -0.0049997686985263799 -5.9442434416702481e-08 0 -0.0049995698946503379 7.2306088155435735e-08 0 -0.0048027620853350632 9.6349090849386135e-06 0 -0.0042965511073007976 -1.8176636096318001e-07 0 -0.0045045275805040887 -6.6174079871454848e-05 0 -0.0048027620853350632 9.6349090849386135e-06 0 -0.0042965511073007976 -1.8176636096318001e-07 0 -0.0045045275805040887 -6.6174079871454848e-05 0 -0.0045127753390324064 4.3438487879711504e-05 0 -0.0048027620853350632 9.6349090849386135e-06 0 -0.0045045275805040887 -6.6174079871454848e-05 0 -0.0045127753390324064 4.3438487879711504e-05 0 -0.0044485723593566274 -1.2359978684668661e-05 0 -0.0047284299178802953 4.2014643397077425e-05 0 -0.0048031794380166363 1.6227102424398307e-05 0 -0.0049779909783897467 4.2320092465228353e-05 0 -0.0048027620853350632 9.6349090849386135e-06 0 -0.0049997686985263799 -5.9442434416702481e-08 0 -0.0049779909783897467 4.2320092465228353e-05 0 -0.0049997686985263799 -5.9442434416702481e-08 0 -0.0050010544324533548 1.1614734563866188e-05 0 -0.0049997686985263799 -5.9442434416702481e-08 0 -0.0050010544324533548 1.1614734563866188e-05 0 -0.005000124757971877 4.7850449570309556e-08 0 -0.0050010544324533548 1.1614734563866188e-05 0 -0.0050002917039351624 9.0744888433818386e-06 0 -0.0049993507252059878 6.2743971158557941e-06 0 -0.0049744054854714472 6.1398260591228091e-05 0 -0.0047757286248618558 -1.6619426241265199e-05 0 -0.0049779909783897467 4.2320092465228353e-05 0 -0.0050010544324533548 1.1614734563866188e-05 0 -0.0050075920942167489 2.2526912623364206e-05 0 -0.0045127753390324064 4.3438487879711504e-05 0 -0.0043978551015300188 3.035921589703067e-05 0 -0.0044485723593566274 -1.2359978684668661e-05 0 -0.0047284299178802953 4.2014643397077425e-05 0 -0.0047757286248618558 -1.6619426241265199e-05 0 -0.0050010544324533548 1.1614734563866188e-05 0 -0.0049996337047648704 4.5955055068438055e-06 0 -0.005000124757971877 4.7850449570309556e-08 0 -0.0050010544324533548 1.1614734563866188e-05 0 -0.0049993507252059878 6.2743971158557941e-06 0 -0.0049996337047648704 4.5955055068438055e-06 0 -0.0047757286248618558 -1.6619426241265199e-05 0 -0.0048656545812566726 -9.1029024321895801e-05 0 -0.0047076453885467676 -7.2265649584713629e-05 0 -0.0047829987797464888 -6.4533655936143197e-05 0 -0.0047345178767599604 -2.9392151749073992e-05 0 -0.0047682298474484046 -0.00014035149042705803 0 -0.0047752452494711226 -0.00013972255429458297 0 -0.0047873750687600948 -0.00015468428942590491 0 -0.0048656545812566726 -9.1029024321895801e-05 0 -0.004894186664524439 -7.6002149195395277e-05 0 -0.0048656545812566726 -9.1029024321895801e-05 0 -0.0048119314629145324 -0.00010452919195882687 0 -0.0047684349615814614 -0.00014001794642182693 0 -0.0047752452494711226 -0.00013972255429458297 0 -0.0047707276617532449 -0.00013085692988850755 0 -0.0047752452494711226 -0.00013972255429458297 0 -0.0047873066775284499 -0.00014048783090613774 0 -0.0047873750687600948 -0.00015468428942590491 0 -0.0047860236742463397 -0.00011457217251631138 0 -0.0047904955214079217 -0.00013034773349382447 0 -0.0047793623854539037 -0.00012870103992754901 0 -0.0047873066775284499 -0.00014048783090613774 0 -0.0047904955214079217 -0.00013034773349382447 0 -0.0047793623854539037 -0.00012870103992754901 0 -0.0047752452494711226 -0.00013972255429458297 0 -0.0047873066775284499 -0.00014048783090613774 0 -0.0047793623854539037 -0.00012870103992754901 0 -0.0047752452494711226 -0.00013972255429458297 0 -0.0047793623854539037 -0.00012870103992754901 0 -0.0047707276617532449 -0.00013085692988850755 0 -0.0047793623854539037 -0.00012870103992754901 0 -0.0047707276617532449 -0.00013085692988850755 0 -0.0047696604053391678 -0.00012102437342621004 0 -0.0047860236742463397 -0.00011457217251631138 0 -0.0047793623854539037 -0.00012870103992754901 0 -0.0047696604053391678 -0.00012102437342621004 0 -0.0047860236742463397 -0.00011457217251631138 0 -0.0047696604053391678 -0.00012102437342621004 0 -0.0047762206560006924 -0.00010919538685964382 0 -0.0047696604053391678 -0.00012102437342621004 0 -0.004750201353243241 -0.00012577428218526107 0 -0.004772508352161072 -0.00010036896148995081 0 -0.0048656545812566726 -9.1029024321895801e-05 0 -0.0045684709378648403 -5.5421944104755017e-05 0 -0.0047684349615814614 -0.00014001794642182693 0 -0.0047707276617532449 -0.00013085692988850755 0 -0.004750201353243241 -0.00012577428218526107 0 -0.0047707276617532449 -0.00013085692988850755 0 -0.0047696604053391678 -0.00012102437342621004 0 -0.004750201353243241 -0.00012577428218526107 0 -0.0045684709378648403 -5.5421944104755017e-05 0 -0.004585263882531514 -0.00016289437634422007 0 -0.0044325435087980893 -6.7553024616887964e-05 0 -0.0044342996310446827 -7.01064477372734e-05 0 -0.0044321130069320726 -6.9862257955603631e-05 0 -0.0047696604053391678 -0.00012102437342621004 0 -0.004772508352161072 -0.00010036896148995081 0 -0.0047762206560006924 -0.00010919538685964382 0 -0.004772508352161072 -0.00010036896148995081 0 -0.0047762206560006924 -0.00010919538685964382 0 -0.0047769587516065127 -0.00010084127108691507 0 -0.0047860236742463397 -0.00011457217251631138 0 -0.0047769587516065127 -0.00010084127108691507 0 -0.0047854708666318965 -9.563497504319332e-05 0 -0.0047860236742463397 -0.00011457217251631138 0 -0.0047762206560006924 -0.00010919538685964382 0 -0.0047769587516065127 -0.00010084127108691507 0 -0.004375162024167707 -1.1984118751011853e-05 0 -0.0044485723593566274 -1.2359978684668661e-05 0 -0.004437911539320479 -6.4363841332029876e-05 0 -0.0043978551015300188 3.035921589703067e-05 0 -0.004375162024167707 -1.1984118751011853e-05 0 -0.0044485723593566274 -1.2359978684668661e-05 0 -0.0045684709378648403 -5.5421944104755017e-05 0 -0.0043744269476886253 -4.5183220699390842e-05 0 -0.0047757286248618558 -1.6619426241265199e-05 0 -0.0045684709378648403 -5.5421944104755017e-05 0 -0.0044325435087980893 -6.7553024616887964e-05 0 -0.0044321130069320726 -6.9862257955603631e-05 0 -0.004437911539320479 -6.4363841332029876e-05 0 -0.0045045275805040887 -6.6174079871454848e-05 0 -0.004437911539320479 -6.4363841332029876e-05 0 -0.004407042210406528 -7.310746734639382e-05 0 -0.0045045275805040887 -6.6174079871454848e-05 0 -0.0044485723593566274 -1.2359978684668661e-05 0 -0.004437911539320479 -6.4363841332029876e-05 0 -0.0044321130069320726 -6.9862257955603631e-05 0 -0.004437911539320479 -6.4363841332029876e-05 0 -0.004407042210406528 -7.310746734639382e-05 0 -0.0044321130069320726 -6.9862257955603631e-05 0 -0.004407042210406528 -7.310746734639382e-05 0 -0.0044304517010716801 -6.5843049471047037e-05 0 -0.0043956126650753977 -0.0001912064845362076 0 -0.0043074909801901337 -9.717209703503086e-05 0 -0.004407042210406528 -7.310746734639382e-05 0 -0.0044304517010716801 -6.5843049471047037e-05 0 -0.0043943711664858713 -3.2292185330318768e-05 0 -0.004407042210406528 -7.310746734639382e-05 0 -0.0043943711664858713 -3.2292185330318768e-05 0 -0.0042865507400868157 -3.5253265633736249e-05 0 -0.0047769587516065127 -0.00010084127108691507 0 -0.0047727242284174333 -0.00010727165904385887 0 -0.0047854708666318965 -9.563497504319332e-05 0 -0.004772508352161072 -0.00010036896148995081 0 -0.0047769587516065127 -0.00010084127108691507 0 -0.0047727242284174333 -0.00010727165904385887 0 -0.004585263882531514 -0.00016289437634422007 0 -0.0046858366178784139 -0.00022092768145492953 0 -0.004585263882531514 -0.00016289437634422007 0 -0.0043956126650753977 -0.0001912064845362076 0 -0.0045342787888469696 -0.00044641244139249231 0 -0.0043869808268038454 -0.00029391758914059784 0 -0.0046142165222156657 -0.00032078508294341204 0 -0.0044342996310446827 -7.01064477372734e-05 0 -0.0044321130069320726 -6.9862257955603631e-05 0 -0.0044304517010716801 -6.5843049471047037e-05 0 -0.0043869808268038454 -0.00029391758914059784 0 -0.0045410819139574373 -0.00018341679185221552 0 -0.0043868997224209309 -0.00013038310822336121 0 -0.0043869808268038454 -0.00029391758914059784 0 -0.0046142165222156657 -0.00032078508294341204 0 -0.0045410819139574373 -0.00018341679185221552 0 -0.0046142165222156657 -0.00032078508294341204 0 -0.0045410819139574373 -0.00018341679185221552 0 -0.0047016720340213652 -0.00015520897091831739 0 -0.0046858366178784139 -0.00022092768145492953 0 -0.0047080991713688031 -0.00015964719396233308 0 -0.0045410819139574373 -0.00018341679185221552 0 -0.0046164905363051097 -5.5144555512457248e-05 0 -0.0047016720340213652 -0.00015520897091831739 0 -0.0045410819139574373 -0.00018341679185221552 0 -0.0046164905363051097 -5.5144555512457248e-05 0 -0.0043868997224209309 -0.00013038310822336121 0 -0.0043149310607030929 -7.3107804407556858e-05 0 -0.0045051612725936704 -0.00011482000418706651 0 -0.0044249445393937199 6.6663682497467245e-06 0 -0.0046164905363051097 -5.5144555512457248e-05 0 -0.0043868997224209309 -0.00013038310822336121 0 -0.0042016250429500624 -0.00015485332340430726 0 -0.004404710616148313 -0.00018316109241794912 0 -0.0043722262409356004 -3.5057713846086043e-05 0 -0.0043869808268038454 -0.00029391758914059784 0 -0.0042275714687314142 -0.00016254351109744997 0 -0.0043868997224209309 -0.00013038310822336121 0 -0.0042275714687314142 -0.00016254351109744997 0 -0.0043868997224209309 -0.00013038310822336121 0 -0.0042176161213198374 3.8388890736590483e-05 0 -0.0043149310607030929 -7.3107804407556858e-05 0 -0.004141343363379452 -2.3494703227905818e-05 0 -0.0044249445393937199 6.6663682497467245e-06 0 -0.0043868997224209309 -0.00013038310822336121 0 -0.0042176161213198374 3.8388890736590483e-05 0 -0.0040519013300637377 -3.4791745778113208e-05 0 -0.0040575753848934061 -1.5202271474323686e-05 0 -0.0042176161213198374 3.8388890736590483e-05 0 -0.0042275714687314142 -0.00016254351109744997 0 -0.0040519013300637377 -3.4791745778113208e-05 0 -0.0042176161213198374 3.8388890736590483e-05 0 -0.0043074909801901337 -9.717209703503086e-05 0 -0.0041888782034582746 1.3391415735144824e-05 0 -0.0042920127850938107 3.342344979761713e-05 0 -0.0042865507400868157 -3.5253265633736249e-05 0 -0.004205209619455059 2.7219832760396135e-06 0 -0.0042920127850938107 3.342344979761713e-05 0 -0.0042474841133142158 4.8220381805141515e-05 0 -0.004205209619455059 2.7219832760396135e-06 0 -0.0043943711664858713 -3.2292185330318768e-05 0 -0.0042920127850938107 3.342344979761713e-05 0 -0.0042865507400868157 -3.5253265633736249e-05 0 -0.0042865507400868157 -3.5253265633736249e-05 0 -0.004205209619455059 2.7219832760396135e-06 0 -0.0041102110657130417 -2.7571190358194161e-05 0 -0.0042865507400868157 -3.5253265633736249e-05 0 -0.0041102110657130417 -2.7571190358194161e-05 0 -0.0043187655251750662 -4.6888686710382612e-05 0 -0.004205209619455059 2.7219832760396135e-06 0 -0.0040657928204417089 2.5489502483194498e-05 0 -0.0041102110657130417 -2.7571190358194161e-05 0 -0.0042474841133142158 4.8220381805141515e-05 0 -0.004205209619455059 2.7219832760396135e-06 0 -0.0041199664128721697 5.312762750908695e-05 0 -0.004205209619455059 2.7219832760396135e-06 0 -0.0040657928204417089 2.5489502483194498e-05 0 -0.0041199664128721697 5.312762750908695e-05 0 -0.0041102110657130417 -2.7571190358194161e-05 0 -0.0037957656823292378 -7.924398270734822e-08 0 -0.0038991300854871809 2.266169827099999e-05 0 -0.0040657928204417089 2.5489502483194498e-05 0 -0.0041102110657130417 -2.7571190358194161e-05 0 -0.0038991300854871809 2.266169827099999e-05 0 -0.0041102110657130417 -2.7571190358194161e-05 0 -0.0037957656823292378 -7.924398270734822e-08 0 -0.0042965511073007976 -1.8176636096318001e-07 0 -0.0041102110657130417 -2.7571190358194161e-05 0 -0.0042965511073007976 -1.8176636096318001e-07 0 -0.0043187655251750662 -4.6888686710382612e-05 0 -0.0045045275805040887 -6.6174079871454848e-05 0 -0.0042965511073007976 -1.8176636096318001e-07 0 -0.0043187655251750662 -4.6888686710382612e-05 0 -0.0045045275805040887 -6.6174079871454848e-05 0 -0.004407042210406528 -7.310746734639382e-05 0 -0.0043187655251750662 -4.6888686710382612e-05 0 -0.004407042210406528 -7.310746734639382e-05 0 -0.0042865507400868157 -3.5253265633736249e-05 0 -0.0043187655251750662 -4.6888686710382612e-05 0 -0.0048250861356765535 -2.906450247509318e-06 0 -0.0048114545112507272 -1.8567643297274313e-05 0 -0.0047953234280768836 -7.889391269689615e-06 0 -0.0048250861356765535 -2.906450247509318e-06 0 -0.0047986146649791799 1.2236924601731625e-05 0 -0.0047953234280768836 -7.889391269689615e-06 0 -0.0049410193633179075 -2.0836787958082275e-05 0 -0.0049537846309132853 -2.8652346276541559e-05 0 -0.0049198169014448775 -3.7483392899740025e-05 0 -0.0049537846309132853 -2.8652346276541559e-05 0 -0.0049535431927749188 -3.0122103214786856e-05 0 -0.0049198169014448775 -3.7483392899740025e-05 0 -0.0049537846309132853 -2.8652346276541559e-05 0 -0.0049694050099414319 -1.7997891600635435e-05 0 -0.0049644349360097673 -2.5641578778023748e-05 0 -0.0048823502972487132 -1.4683116921479676e-05 0 -0.0048859852068190426 -4.1261481360230828e-06 0 -0.0049410193633179075 -2.0836787958082275e-05 0 -0.0049537846309132853 -2.8652346276541559e-05 0 -0.0049694050099414319 -1.7997891600635435e-05 0 -0.0049644349360097673 -2.5641578778023748e-05 0 -0.0049587039525801953 -2.7491552309228685e-05 0 -0.0049837144583889173 -2.1483455988175869e-05 0 -0.0049537846309132853 -2.8652346276541559e-05 0 -0.0049644349360097673 -2.5641578778023748e-05 0 -0.0049614920153429635 -2.8857063402175747e-05 0 -0.0049644349360097673 -2.5641578778023748e-05 0 -0.0049587039525801953 -2.7491552309228685e-05 0 -0.0049614920153429635 -2.8857063402175747e-05 0 -0.0050020664559115927 -5.7707101191375256e-06 0 -0.0050000103502751631 -3.7232425521072791e-09 0 -0.0049999995875985382 1.0641078120384294e-09 0 -0.0050020664559115927 -5.7707101191375256e-06 0 -0.0050000103502751631 -3.7232425521072791e-09 0 -0.0049943813824518063 -7.0655480386769906e-06 0 -0.0049587039525801953 -2.7491552309228685e-05 0 -0.0049998875915220481 -2.7600218447969844e-08 0 -0.0049729244349836724 -2.2358977318383873e-05 0 -0.0049813550251755602 -1.668423549205937e-05 0 -0.0049999930073704769 -5.7166054192881131e-09 0 -0.0049998875915220481 -2.7600218447969844e-08 0 -0.0049729244349836724 -2.2358977318383873e-05 0 -0.004978693492555023 -1.5890245019683052e-05 0 -0.0049587039525801953 -2.7491552309228685e-05 0 -0.0049729244349836724 -2.2358977318383873e-05 0 -0.0049614920153429635 -2.8857063402175747e-05 0 -0.0049729244349836724 -2.2358977318383873e-05 0 -0.0049535431927749188 -3.0122103214786856e-05 0 -0.004978693492555023 -1.5890245019683052e-05 0 -0.0049729244349836724 -2.2358977318383873e-05 0 -0.0049614920153429635 -2.8857063402175747e-05 0 -0.0049535431927749188 -3.0122103214786856e-05 0 -0.0049537846309132853 -2.8652346276541559e-05 0 -0.0049614920153429635 -2.8857063402175747e-05 0 -0.0049535431927749188 -3.0122103214786856e-05 0 -0.0049535431927749188 -3.0122103214786856e-05 0 -0.0049466588085478177 -3.002768068688132e-05 0 -0.0049198169014448775 -3.7483392899740025e-05 0 -0.0049535431927749188 -3.0122103214786856e-05 0 -0.004978693492555023 -1.5890245019683052e-05 0 -0.0049466588085478177 -3.002768068688132e-05 0 -0.0049998875915220481 -2.7600218447969844e-08 0 -0.004978693492555023 -1.5890245019683052e-05 0 -0.0049999695497953481 -1.475131356931795e-08 0 -0.0049999695497953481 -1.475131356931795e-08 0 -0.0049466588085478177 -3.002768068688132e-05 0 -0.0049999335944498156 -1.9435251347331239e-08 0 -0.004978693492555023 -1.5890245019683052e-05 0 -0.0049999695497953481 -1.475131356931795e-08 0 -0.0049466588085478177 -3.002768068688132e-05 0 -0.0049466588085478177 -3.002768068688132e-05 0 -0.0048938842352458907 -4.5537501968907122e-05 0 -0.004898261808363614 -4.9707975569169797e-05 0 -0.0049466588085478177 -3.002768068688132e-05 0 -0.0048938842352458907 -4.5537501968907122e-05 0 -0.0049198169014448775 -3.7483392899740025e-05 0 -0.0048823502972487132 -1.4683116921479676e-05 0 -0.0048723004478205423 -3.215275578225562e-05 0 -0.0049410193633179075 -2.0836787958082275e-05 0 -0.0049198169014448775 -3.7483392899740025e-05 0 -0.0048669706412150047 -3.7032264738728776e-05 0 -0.0048938842352458907 -4.5537501968907122e-05 0 -0.0049198169014448775 -3.7483392899740025e-05 0 -0.0048669706412150047 -3.7032264738728776e-05 0 -0.0048938842352458907 -4.5537501968907122e-05 0 -0.0048669706412150047 -3.7032264738728776e-05 0 -0.0048425715915304613 -6.761448080683176e-05 0 -0.0048938842352458907 -4.5537501968907122e-05 0 -0.0048425715915304613 -6.761448080683176e-05 0 -0.004898261808363614 -4.9707975569169797e-05 0 -0.0048425715915304613 -6.761448080683176e-05 0 -0.0048809062218768354 -6.4045488894074015e-05 0 -0.0048189679204511228 -8.5965916258388817e-05 0 -0.0048425715915304613 -6.761448080683176e-05 0 -0.0048809062218768354 -6.4045488894074015e-05 0 -0.004898261808363614 -4.9707975569169797e-05 0 -0.0048809062218768354 -6.4045488894074015e-05 0 -0.004898261808363614 -4.9707975569169797e-05 0 -0.004947502563841172 -2.6951769429378081e-05 0 -0.0049466588085478177 -3.002768068688132e-05 0 -0.004898261808363614 -4.9707975569169797e-05 0 -0.004947502563841172 -2.6951769429378081e-05 0 -0.0049466588085478177 -3.002768068688132e-05 0 -0.0049999335944498156 -1.9435251347331239e-08 0 -0.004947502563841172 -2.6951769429378081e-05 0 -0.004947502563841172 -2.6951769429378081e-05 0 -0.0049485557643265511 -2.7471896031384342e-05 0 -0.0049999353291155365 -1.267717019880572e-08 0 -0.0049999335944498156 -1.9435251347331239e-08 0 -0.004947502563841172 -2.6951769429378081e-05 0 -0.0049999353291155365 -1.267717019880572e-08 0 -0.0048809062218768354 -6.4045488894074015e-05 0 -0.004947502563841172 -2.6951769429378081e-05 0 -0.0049485557643265511 -2.7471896031384342e-05 0 -0.0049485557643265511 -2.7471896031384342e-05 0 -0.0049671542870192943 -2.2443590686006311e-05 0 -0.0049288450713553074 -5.1159833522331894e-05 0 -0.0049485557643265511 -2.7471896031384342e-05 0 -0.0049999353291155365 -1.267717019880572e-08 0 -0.0049812099134150462 -1.0250062278505016e-05 0 -0.0049999353291155365 -1.267717019880572e-08 0 -0.0049812099134150462 -1.0250062278505016e-05 0 -0.0049999913290087209 -5.5610627706337311e-09 0 -0.0049485557643265511 -2.7471896031384342e-05 0 -0.0049812099134150462 -1.0250062278505016e-05 0 -0.0049671542870192943 -2.2443590686006311e-05 0 -0.0049996337047648704 4.5955055068438055e-06 0 -0.005000124757971877 4.7850449570309556e-08 0 -0.0050006970578464708 2.132214697138511e-06 0 -0.0049999500995898723 2.1142699744439128e-08 0 -0.0049076216592975428 -6.3459566407368575e-05 0 -0.0049812099134150462 -1.0250062278505016e-05 0 -0.0049999913290087209 -5.5610627706337311e-09 0 -0.0049897540822387955 -1.2538164402769814e-05 0 -0.0049812099134150462 -1.0250062278505016e-05 0 -0.0049897540822387955 -1.2538164402769814e-05 0 -0.0049671542870192943 -2.2443590686006311e-05 0 -0.004894186664524439 -7.6002149195395277e-05 0 -0.0049076216592975428 -6.3459566407368575e-05 0 -0.0049897540822387955 -1.2538164402769814e-05 0 -0.0049671542870192943 -2.2443590686006311e-05 0 -0.0049288450713553074 -5.1159833522331894e-05 0 -0.0049076216592975428 -6.3459566407368575e-05 0 -0.0048663796677982096 -9.4038640152061619e-05 0 -0.0047873750687600948 -0.00015468428942590491 0 -0.0048065678941186154 -0.00016748728618559225 0 -0.0048114583246814703 -0.00013558907093725862 0 -0.0047873066775284499 -0.00014048783090613774 0 -0.0047873750687600948 -0.00015468428942590491 0 -0.0048114583246814703 -0.00013558907093725862 0 -0.0047873066775284499 -0.00014048783090613774 0 -0.0047904955214079217 -0.00013034773349382447 0 -0.0048114583246814703 -0.00013558907093725862 0 -0.0047860236742463397 -0.00011457217251631138 0 -0.0048114583246814703 -0.00013558907093725862 0 -0.004822322516130963 -9.3166575254717012e-05 0 -0.0048663796677982096 -9.4038640152061619e-05 0 -0.004834465592543892 -8.5853146906484989e-05 0 -0.0047860236742463397 -0.000114572172