<?xml version="1.0"?>
<VTKFile type="UnstructuredGrid" version="0.1" byte_order="LittleEndian">
<UnstructuredGrid>
<Piece NumberOfPoints="30095" NumberOfCells="10598">
<Points>
<DataArray type="Float64" NumberOfComponents="3" format="ascii">
-0.5 -0.5 0 -0.46833512168037489 -0.48599365290500102 0 -0.48267020241711872 -0.44889552808599659 0 -0.5 -0.5 0 -0.46833512168037489 -0.48599365290500102 0 -0.45170182487410532 -0.5 0 -0.5 -0.5 0 -0.48267020241711872 -0.44889552808599659 0 -0.50000000000000111 -0.43226180181301332 0 -0.46833512168037489 -0.48599365290500102 0 -0.44945724395605308 -0.49444265695663508 0 -0.45170182487410532 -0.5 0 -0.46833512168037489 -0.48599365290500102 0 -0.44801060725135278 -0.48216298063196222 0 -0.44945724395605308 -0.49444265695663508 0 -0.46833512168037489 -0.48599365290500102 0 -0.44801060725135278 -0.48216298063196222 0 -0.46534040483423572 -0.46552925435897929 0 -0.44801060725135278 -0.48216298063196222 0 -0.45744208655262719 -0.46312976840587983 0 -0.46534040483423572 -0.46552925435897929 0 -0.44801060725135278 -0.48216298063196222 0 -0.46534040483423572 -0.46552925435897929 0 -0.44801060725135278 -0.48216298063196222 0 -0.44053572124271739 -0.47147334132918672 0 -0.44559588103414971 -0.46166574296087493 0 -0.44801060725135278 -0.48216298063196222 0 -0.44559588103414971 -0.46166574296087493 0 -0.45744208655262719 -0.46312976840587983 0 -0.44801060725135278 -0.48216298063196222 0 -0.44559588103414971 -0.46166574296087493 0 -0.44801060725135278 -0.48216298063196222 0 -0.44053572124271739 -0.47147334132918672 0 -0.43727276302294132 -0.47953242095139459 0 -0.44801060725135278 -0.48216298063196222 0 -0.44105419339184743 -0.48883998210455182 0 -0.43727276302294132 -0.47953242095139459 0 -0.44801060725135278 -0.48216298063196222 0 -0.44105419339184743 -0.48883998210455182 0 -0.44105419339184743 -0.48883998210455182 0 -0.44945724395605308 -0.49444265695663508 0 -0.45170182487410532 -0.5 0 -0.44801060725135278 -0.48216298063196222 0 -0.44105419339184743 -0.48883998210455182 0 -0.44945724395605308 -0.49444265695663508 0 -0.44801060725135278 -0.48216298063196222 0 -0.44945724395605308 -0.49444265695663508 0 -0.44318115481694809 -0.44116850528978752 0 -0.44372874441645088 -0.45858668082044218 0 -0.43448279014183022 -0.43882331209734371 0 -0.44372874441645088 -0.45858668082044218 0 -0.43448279014183022 -0.43882331209734371 0 -0.44318115481694809 -0.44116850528978752 0 -0.45744208655262719 -0.46312976840587983 0 -0.43830886432492278 -0.45336063797264742 0 -0.44372874441645088 -0.45858668082044218 0 -0.43448279014183022 -0.43882331209734371 0 -0.44318115481694809 -0.44116850528978752 0 -0.44559588103414971 -0.46166574296087493 0 -0.43830886432492278 -0.45336063797264742 0 -0.43914703897766288 -0.45886196070206531 0 -0.44372874441645088 -0.45858668082044218 0 -0.44318115481694809 -0.44116850528978752 0 -0.44559588103414971 -0.46166574296087493 0 -0.45744208655262719 -0.46312976840587983 0 -0.44318115481694809 -0.44116850528978752 0 -0.44372874441645088 -0.45858668082044218 0 -0.44559588103414971 -0.46166574296087493 0 -0.43914703897766288 -0.45886196070206531 0 -0.43963734188520842 -0.46358574266201252 0 -0.43461596797707869 -0.45953252397386601 0 -0.43914703897766288 -0.45886196070206531 0 -0.44372874441645088 -0.45858668082044218 0 -0.43963734188520842 -0.46358574266201252 0 -0.44053572124271739 -0.47147334132918672 0 -0.43963734188520842 -0.46358574266201252 0 -0.44559588103414971 -0.46166574296087493 0 -0.44053572124271739 -0.47147334132918672 0 -0.43963734188520842 -0.46358574266201252 0 -0.43248861077492412 -0.46919240368091092 0 -0.44372874441645088 -0.45858668082044218 0 -0.43963734188520842 -0.46358574266201252 0 -0.44559588103414971 -0.46166574296087493 0 -0.45744208655262719 -0.46312976840587983 0 -0.46534040483423572 -0.46552925435897929 0 -0.46226408612207842 -0.45177793485149997 0 -0.44318115481694809 -0.44116850528978752 0 -0.46226408612207842 -0.45177793485149997 0 -0.46268658198946427 -0.44016661811685681 0 -0.44318115481694809 -0.44116850528978752 0 -0.45744208655262719 -0.46312976840587983 0 -0.46226408612207842 -0.45177793485149997 0 -0.46268658198946427 -0.44016661811685681 0 -0.48267020241711872 -0.44889552808599659 0 -0.46980426626823818 -0.426938967031886 0 -0.46226408612207842 -0.45177793485149997 0 -0.46268658198946427 -0.44016661811685681 0 -0.48267020241711872 -0.44889552808599659 0 -0.46833512168037489 -0.48599365290500102 0 -0.46534040483423572 -0.46552925435897929 0 -0.48267020241711872 -0.44889552808599659 0 -0.46534040483423572 -0.46552925435897929 0 -0.48267020241711872 -0.44889552808599659 0 -0.46534040483423572 -0.46552925435897929 0 -0.46226408612207842 -0.45177793485149997 0 -0.48267020241711872 -0.44889552808599659 0 -0.48267020241711872 -0.44889552808599659 0 -0.50000000000000111 -0.43226180181301332 0 -0.48267020241711872 -0.44889552808599659 0 -0.50000000000000111 -0.43226180181301332 0 -0.48625744784290298 -0.42054309738734169 0 -0.50000000000000111 -0.43226180181301332 0 -0.48625744784290298 -0.42054309738734169 0 -0.5 -0.40269129651438729 0 -0.48625744784290298 -0.42054309738734169 0 -0.5 -0.40269129651438729 0 -0.47571583455138189 -0.4049312907656229 0 -0.48625744784290298 -0.42054309738734169 0 -0.46980426626823818 -0.426938967031886 0 -0.47571583455138189 -0.4049312907656229 0 -0.48267020241711872 -0.44889552808599659 0 -0.48625744784290298 -0.42054309738734169 0 -0.46980426626823818 -0.426938967031886 0 -0.4883321049493678 -0.38790604386507432 0 -0.5 -0.40269129651438729 0 -0.5 -0.37312079121576153 0 -0.4883321049493678 -0.38790604386507432 0 -0.5 -0.40269129651438729 0 -0.47571583455138189 -0.4049312907656229 0 -0.4883321049493678 -0.38790604386507432 0 -0.47571583455138189 -0.4049312907656229 0 -0.47075676975463171 -0.38113470252016701 0 -0.4883321049493678 -0.38790604386507432 0 -0.47075676975463171 -0.38113470252016701 0 -0.48537838487731622 -0.36234249421865139 0 -0.47075676975463171 -0.38113470252016701 0 -0.45613515463194709 -0.39992691082168258 0 -0.47075676975463171 -0.38113470252016701 0 -0.45534916411423582 -0.38028783056125859 0 -0.45613515463194709 -0.39992691082168258 0 -0.47571583455138189 -0.4049312907656229 0 -0.47075676975463171 -0.38113470252016701 0 -0.45613515463194709 -0.39992691082168258 0 -0.43967067534511428 -0.41137004136415273 0 -0.43616019587328209 -0.38157157743851777 0 -0.45613515463194709 -0.39992691082168258 0 -0.43967067534511428 -0.41137004136415273 0 -0.43616019587328209 -0.38157157743851777 0 -0.45534916411423582 -0.38028783056125859 0 -0.45613515463194709 -0.39992691082168258 0 -0.43616019587328209 -0.38157157743851777 0 -0.44318115481694809 -0.44116850528978752 0 -0.46268658198946427 -0.44016661811685681 0 -0.45455732640465168 -0.42831779812497112 0 -0.46268658198946427 -0.44016661811685681 0 -0.46980426626823818 -0.426938967031886 0 -0.45455732640465168 -0.42831779812497112 0 -0.46980426626823818 -0.426938967031886 0 -0.45455732640465168 -0.42831779812497112 0 -0.45872509841258602 -0.41537801721882228 0 -0.46980426626823818 -0.426938967031886 0 -0.47571583455138189 -0.4049312907656229 0 -0.45872509841258602 -0.41537801721882228 0 -0.47571583455138189 -0.4049312907656229 0 -0.45613515463194709 -0.39992691082168258 0 -0.45872509841258602 -0.41537801721882228 0 -0.45455732640465168 -0.42831779812497112 0 -0.45872509841258602 -0.41537801721882228 0 -0.44151353950926259 -0.41871911912319809 0 -0.45613515463194709 -0.39992691082168258 0 -0.44151353950926259 -0.41871911912319809 0 -0.45613515463194709 -0.39992691082168258 0 -0.45872509841258602 -0.41537801721882228 0 -0.44151353950926259 -0.41871911912319809 0 -0.45613515463194709 -0.39992691082168258 0 -0.44151353950926259 -0.41871911912319809 0 -0.43967067534511428 -0.41137004136415273 0 -0.44318115481694809 -0.44116850528978752 0 -0.45455732640465168 -0.42831779812497112 0 -0.44151353950926259 -0.41871911912319809 0 -0.44318115481694809 -0.44116850528978752 0 -0.43967067534511428 -0.41137004136415273 0 -0.44318115481694809 -0.44116850528978752 0 -0.44151353950926259 -0.41871911912319809 0 -0.43967067534511428 -0.41137004136415273 0 -0.42958601820476888 -0.42023253997046672 0 -0.42523683586720928 -0.41905994337424513 0 -0.43448279014183022 -0.43882331209734371 0 -0.44318115481694809 -0.44116850528978752 0 -0.42958601820476888 -0.42023253997046672 0 -0.43448279014183022 -0.43882331209734371 0 -0.44318115481694809 -0.44116850528978752 0 -0.42958601820476888 -0.42023253997046672 0 -0.44318115481694809 -0.44116850528978752 0 -0.43967067534511428 -0.41137004136415273 0 -0.42958601820476888 -0.42023253997046672 0 -0.42490216476393322 -0.43567900940143311 0 -0.42523683586720928 -0.41905994337424513 0 -0.43448279014183022 -0.43882331209734371 0 -0.42523683586720928 -0.41905994337424513 0 -0.43448279014183022 -0.43882331209734371 0 -0.42490216476393322 -0.43567900940143311 0 -0.42523683586720928 -0.41905994337424513 0 -0.42058264281736202 -0.42800776586195732 0 -0.42958601820476888 -0.42023253997046672 0 -0.42523683586720928 -0.41905994337424513 0 -0.41599088159258829 -0.39929657465114682 0 -0.42958601820476888 -0.42023253997046672 0 -0.41599088159258829 -0.39929657465114682 0 -0.42855375631878118 -0.40727222670987978 0 -0.42958601820476888 -0.42023253997046672 0 -0.41599088159258829 -0.39929657465114682 0 -0.43967067534511428 -0.41137004136415273 0 -0.42855375631878118 -0.40727222670987978 0 -0.42958601820476888 -0.42023253997046672 0 -0.42523683586720928 -0.41905994337424513 0 -0.41315812841981869 -0.42256507299705021 0 -0.41599088159258829 -0.39929657465114682 0 -0.41315812841981869 -0.42256507299705021 0 -0.41599088159258829 -0.39929657465114682 0 -0.40110216636634061 -0.41727494389252778 0 -0.42523683586720928 -0.41905994337424513 0 -0.41599088159258829 -0.39929657465114682 0 -0.41315812841981869 -0.42256507299705021 0 -0.4049277652127074 -0.4371005851744828 0 -0.40110216636634061 -0.41727494389252778 0 -0.41315812841981869 -0.42256507299705021 0 -0.4168853692543175
[...]
<PointData Scalars="" Vectors="displacement," Tensors="">
<DataArray type="Float64" Name="displacement" NumberOfComponents="3" format="ascii">
9.8893159153580753e-07 0.034997485323254578 0 3.4941049545244531e-05 0.034580887819681765 0 -0.00010869341129118577 0.032564093881130005 0 9.8893159153580753e-07 0.034997485323254578 0 3.4941049545244531e-05 0.034580887819681765 0 -2.671650432711571e-07 0.034999216945271638 0 9.8893159153580753e-07 0.034997485323254578 0 -0.00010869341129118577 0.032564093881130005 0 -1.8296900556782422e-06 0.030263906520972696 0 3.4941049545244531e-05 0.034580887819681765 0 -2.3864508812807016e-05 0.034910003044213253 0 -2.671650432711571e-07 0.034999216945271638 0 3.4941049545244531e-05 0.034580887819681765 0 -6.6211636900163096e-05 0.034794365315677041 0 -2.3864508812807016e-05 0.034910003044213253 0 3.4941049545244531e-05 0.034580887819681765 0 -6.6211636900163096e-05 0.034794365315677041 0 -0.00017961132568749166 0.03410552523301677 0 -0.0040298627537561213 0.025873088934240056 0 -0.0033753963246150069 0.026163663815189028 0 -0.0035250973310379848 0.026581563446494483 0 -0.000962857344752697 0.031819423605377754 0 -0.0020445777042083957 0.030063245529367882 0 -0.00031596434031875182 0.034292788081677517 0 -0.00063401298210653476 0.034375619331995864 0 -0.00093202617505033119 0.034172556630770907 0 -0.0040298627537561213 0.025873088934240056 0 -0.0033246737030353407 0.025794144635992312 0 -0.0033753963246150069 0.026163663815189028 0 -0.000962857344752697 0.031819423605377754 0 -0.0022319206532604749 0.030101272642525632 0 -0.00031596434031875182 0.034292788081677517 0 -0.00063401298210653476 0.034375619331995864 0 -0.00038062221565052533 0.03458539617245137 0 -0.00031596434031875182 0.034292788081677517 0 -9.2051942009158019e-05 0.034750262618107541 0 -0.00038062221565052533 0.03458539617245137 0 -0.000962857344752697 0.031819423605377754 0 0.000418201502997206 0.034396860658789073 0 -9.2051942009158019e-05 0.034750262618107541 0 -2.3864508812807016e-05 0.034910003044213253 0 -2.671650432711571e-07 0.034999216945271638 0 -1.5772054482110356e-05 0.034814469612763126 0 -9.2051942009158019e-05 0.034750262618107541 0 -2.3864508812807016e-05 0.034910003044213253 0 -0.000962857344752697 0.031819423605377754 0 -1.0129189235201205e-07 0.03410260139068147 0 -0.00060903718508364924 0.033792148375086387 0 -0.00089994756578281807 0.034109711479870547 0 -0.00055570503364869189 0.033446294903920787 0 -0.00089749992062075287 0.034060638505079954 0 -0.0007562323549778631 0.033805197158183781 0 -0.002503009854526258 0.025882510223964657 0 -0.0031713365660453359 0.025919976741876516 0 -0.00096185693354551376 0.034206898265006509 0 -0.00089994756578281807 0.034109711479870547 0 -0.0010855318453355115 0.034271271067530577 0 -0.002503009854526258 0.025882510223964657 0 -0.0022319206532604749 0.030101272642525632 0 -0.00096185693354551376 0.034206898265006509 0 -0.00089737340929549293 0.034230635438743176 0 -0.00089994756578281807 0.034109711479870547 0 -0.0026664273780476781 0.025729495181645173 0 -0.0033246737030353407 0.025794144635992312 0 -0.0033753963246150069 0.026163663815189028 0 -0.00060903718508364924 0.033792148375086387 0 -0.00089994756578281807 0.034109711479870547 0 -0.00093202617505033119 0.034172556630770907 0 -0.00089737340929549293 0.034230635438743176 0 -0.00083004552242289039 0.034280447583089201 0 -0.00089893543974010773 0.034311076431689569 0 -0.00089737340929549293 0.034230635438743176 0 -0.00089994756578281807 0.034109711479870547 0 -0.00083004552242289039 0.034280447583089201 0 -0.00063401298210653476 0.034375619331995864 0 -0.00083004552242289039 0.034280447583089201 0 -0.00093202617505033119 0.034172556630770907 0 -0.00063401298210653476 0.034375619331995864 0 -0.00083004552242289039 0.034280447583089201 0 -0.00068165845785115491 0.034471530184243239 0 -0.00089994756578281807 0.034109711479870547 0 -0.00083004552242289039 0.034280447583089201 0 -0.00093202617505033119 0.034172556630770907 0 -0.0033753963246150069 0.026163663815189028 0 -0.0035250973310379848 0.026581563446494483 0 -0.0025975113200019944 0.026386781508353645 0 -0.0018435094261220468 0.024921696431121382 0 -0.0025975113200019944 0.026386781508353645 0 -0.0017969698891202137 0.026341744222043387 0 -0.0018435094261220468 0.024921696431121382 0 -0.0033753963246150069 0.026163663815189028 0 -0.0025975113200019944 0.026386781508353645 0 -0.0017969698891202137 0.026341744222043387 0 -0.0023246261261465418 0.028059718942073354 0 -0.00075339618273045038 0.026923259039651933 0 -0.0025975113200019944 0.026386781508353645 0 -0.0017969698891202137 0.026341744222043387 0 -0.0023246261261465418 0.028059718942073354 0 3.4941049545244531e-05 0.034580887819681765 0 -0.00017961132568749166 0.03410552523301677 0 -0.00010869341129118577 0.032564093881130005 0 -0.0020445777042083957 0.030063245529367882 0 -0.0010623409760044463 0.030416377715041274 0 -0.0035250973310379848 0.026581563446494483 0 -0.0025975113200019944 0.026386781508353645 0 -0.0023246261261465418 0.028059718942073354 0 -0.0010623409760044463 0.030416377715041274 0 -3.1942743306940498e-07 0.030258570530645172 0 -0.0023246261261465418 0.028059718942073354 0 -4.5511969937015128e-06 0.030254487334820404 0 2.8609683420367044e-05 0.028371697223748389 0 -4.5511969937015128e-06 0.030254487334820404 0 2.8609683420367044e-05 0.028371697223748389 0 2.0909797437593865e-06 0.028188656679796684 0 2.8609683420367044e-05 0.028371697223748389 0 2.0909797437593865e-06 0.028188656679796684 0 0.00038005926065799587 0.027275853918384382 0 2.8609683420367044e-05 0.028371697223748389 0 -0.00075339618273045038 0.026923259039651933 0 0.00038005926065799587 0.027275853918384382 0 -0.0023246261261465418 0.028059718942073354 0 2.8609683420367044e-05 0.028371697223748389 0 -0.00075339618273045038 0.026923259039651933 0 0.00033133904703973175 0.027078467950112466 0 2.0909797437593865e-06 0.028188656679796684 0 4.8282685927962366e-07 0.026118361781583919 0 0.00033133904703973175 0.027078467950112466 0 2.0909797437593865e-06 0.028188656679796684 0 0.00038005926065799587 0.027275853918384382 0 0.00033133904703973175 0.027078467950112466 0 0.00038005926065799587 0.027275853918384382 0 0.00050741080216400582 0.026969098940644452 0 0.00033133904703973175 0.027078467950112466 0 0.00050741080216400582 0.026969098940644452 0 -3.477970145686859e-05 0.026211658527592829 0 -0.00055088177531564765 0.024241774955736404 0 -0.00026231845505686984 0.02405646290216331 0 -0.001652426858876367 0.021576702336563666 0 -0.0015286916062986799 0.021624865669351904 0 -0.0009545151170753754 0.021975562893709111 0 0.00038005926065799587 0.027275853918384382 0 0.00050741080216400582 0.026969098940644452 0 0.00070582918686628963 0.02615995032375059 0 -0.0019697250677654771 0.021605854330978554 0 -0.0019313449606659365 0.021205902714903489 0 -0.0009545151170753754 0.021975562893709111 0 -0.0004300719631834762 0.023367153749637153 0 -0.0016277827818090621 0.021759975904277876 0 -0.0015286916062986799 0.021624865669351904 0 -0.0009545151170753754 0.021975562893709111 0 -0.0016277827818090621 0.021759975904277876 0 -0.0018435094261220468 0.024921696431121382 0 -0.0017969698891202137 0.026341744222043387 0 -0.0011537754947141432 0.025583068525368319 0 -0.0017969698891202137 0.026341744222043387 0 -0.00075339618273045038 0.026923259039651933 0 -0.0011537754947141432 0.025583068525368319 0 -0.00075339618273045038 0.026923259039651933 0 -0.0011537754947141432 0.025583068525368319 0 -0.00025041494174124468 0.026077367980915114 0 -0.00075339618273045038 0.026923259039651933 0 0.00038005926065799587 0.027275853918384382 0 -0.00025041494174124468 0.026077367980915114 0 0.00038005926065799587 0.027275853918384382 0 0.00070582918686628963 0.02615995032375059 0 -0.00025041494174124468 0.026077367980915114 0 -0.0011537754947141432 0.025583068525368319 0 -0.00025041494174124468 0.026077367980915114 0 -0.00071422426972106694 0.023866622799392251 0 -0.00026231845505686984 0.02405646290216331 0 -0.00074644660049047614 0.023769723688813072 0 0.00070582918686628963 0.02615995032375059 0 -0.00025041494174124468 0.026077367980915114 0 -0.00071422426972106694 0.023866622799392251 0 -0.0009545151170753754 0.021975562893709111 0 -0.00071422426972106694 0.023866622799392251 0 -0.0004300719631834762 0.023367153749637153 0 -0.0018435094261220468 0.024921696431121382 0 -0.0011537754947141432 0.025583068525368319 0 -0.00071422426972106694 0.023866622799392251 0 -0.002503009854526258 0.025882510223964657 0 -0.0019697250677654771 0.021605854330978554 0 -0.0018435094261220468 0.024921696431121382 0 -0.00071422426972106694 0.023866622799392251 0 -0.0004300719631834762 0.023367153749637153 0 9.0401444650480407e-05 0.033068297391029421 0 0.00012567558521533282 0.032850104912305965 0 -0.00055570503364869189 0.033446294903920787 0 -0.00060903718508364924 0.033792148375086387 0 9.0401444650480407e-05 0.033068297391029421 0 -0.00055570503364869189 0.033446294903920787 0 -0.002503009854526258 0.025882510223964657 0 -0.0017888924613138858 0.026870171788446688 0 -0.0042472831288208682 0.020959841877345533 0 -0.0033968466615848275 0.020731614279229187 0 -0.0036601154887387871 0.020455164456527886 0 -0.0010311894947761316 0.034112118272771989 0 -0.00070732576921295328 0.034067127967456888 0 -0.0010855318453355115 0.034271271067530577 0 -0.00028258299293972363 0.033941198379904371 0 -0.0007562323549778631 0.033805197158183781 0 -0.0010311894947761316 0.034112118272771989 0 -0.00070732576921295328 0.034067127967456888 0 -0.00091117570387168789 0.033963490095487013 0 9.0401444650480407e-05 0.033068297391029421 0 0.00012567558521533282 0.032850104912305965 0 0.00090256321830133501 0.032190434592718191 0 -0.0017888924613138858 0.026870171788446688 0 -0.0012541541027805013 0.026655035499727576 0 -0.003273267799081631 0.020362271010112065 0 -0.0036601154887387871 0.020455164456527886 0 -0.0030393347194308433 0.019911040912881768 0 -0.0033968466615848275 0.020731614279229187 0 -0.003273267799081631 0.020362271010112065 0 -0.0036601154887387871 0.020455164456527886 0 -0.00070732576921295328 0.034067127967456888 0 -0.00084020352412175303 0.033642898228825963 0 6.8694795861755055e-05 0.03354259789957368 0 -0.00084020352412175303 0.033642898228825963 0 6.8694795861755055e-05 0.03354259789957368 0 -0.00073664237479378837 0.032991051570869817 0 -0.00028258299293972363 0.033941198379904371 0 -0.0012541541027805013 0.026655035499727576 0 -0.00084020352412175303 0.033642898228825963 0 -0.0010799874656394703 0.033757102393102929 0 -0.00073664237479378837 0.032991051570869817 0 -0.00084020352412175303 0.033642898228825963 0 -0.0010095200077811283 0.033945489279572048 0 -0.0010799874656394703 0.033757102393102929 0 -0.0010311894947761316 0.034112118272771989 0 -0.0010095200077811283 0.033945489279572048 0 -0.00091117570387168789 0.033963490095487013 0 -0.00084020352412175303 0.033642898228825963 0 -0.0010095200077811283 0.033945489279572048 0 -0.00091117570387168789 0.033963490095487013 0 -0.00070732576921295328 0.034067127967456888 0 -0.00084020352412175303 0.033642898228825963 0 -0.00091117570387168789 0.033963490095487013 0 -0.0024620718021456179 0.020543770273764094 0 -0.0026789741691691533 0.020096707687991888 0 -0.0021505045596554532 0.019831814670694253 0 -0.0024620718021456179 0.020543770273764094 0 -0.0026789741691691533 0.020096707687991888 0 -0.0029935269713980482 0.020341895450585772 0 -0.0033968466615848275 0.020731614279229187 0 -0.0024620718021456179 0.020543770273764094 0 -0.0029935269713980482 0.020341895450585772 0 -0.0026789741691691533 0.020096707687991888 0 -0.0029935269713980482 0.020341895450585772 0 -0.0030393347194308433 0.019911040912881768 0 -0.0033968466615848275 0.020731614279229187 0 -0.003273267799081631 0.020362271010112065 0 -0.0029935269713980482 0.020341895450585772 0 -0.003273267799081631 0.020362271010112065 0 -0.0029935269713980482 0.020341895450585772 0 -0.0030393347194308433 0.019911040912881768 0 -0.0012541541027805013 0.026655035499727576 0 -0.0019407689349252096 0.02064384305133608 0 -0.0026789741691691533 0.020096707687991888 0 -0.0030393347194308433 0.019911040912881768 0 -0.0026457399019909865 0.019642605746729585 0 -0.0026457399019909865 0.019642605746729585 0 -0.0021505045596554532 0.019831814670694253 0 -0.0021993993278400324 0.019155155844680562 0 -0.0012541541027805013 0.026655035499727576 0 -0.00059742188742225092 0.025838905510867694 0 -0.0030871917434925574 0.019950919046709484 0 -0.0026457399019909865 0.019642605746729585 0 -0.0021993993278400324 0.019155155844680562 0 -0.0026789741691691533 0.020096707687991888 0 -0.0026457399019909865 0.019642605746729585 0 -0.0021505045596554532 0.019831814670694253 0 6.8694795861755055e-05 0.03354259789957368 0 0.00019167854271822179 0.03201075674808989 0 0.0011416969336079466 0.032455949597600571 0 6.8694795861755055e-05 0.03354259789957368 0 0.00019167854271822179 0.03201075674808989 0 -0.00073664237479378837 0.032991051570869817 0 0.00019167854271822179 0.03201075674808989 0 0.0011416969336079466 0.032455949597600571 0 0.0012777587478847083 0.031519919988163621 0 0.00019167854271822179 0.03201075674808989 0 0.0012777587478847083 0.031519919988163621 0 0.00075959518873147712 0.03090054443609885 0 -0.0015476191530620922 0.033423900935577247 0 -0.00070153349285149459 0.033072976795577136 0 -0.0018771749660889835 0.033142673750653572 0 -0.00073664237479378837 0.032991051570869817 0 -0.0013295020537357986 0.032298925562007509 0 -0.0018771749660889835 0.033142673750653572 0 -0.0013295020537357986 0.032298925562007509 0 -0.0018920471462714767 0.032071713963734642 0 0.00019167854271822179 0.03201075674808989 0 -0.00073664237479378837 0.032991051570869817 0 -0.00070589415579558909 0.031961035161108549 0 -0.00073664237479378837 0.032991051570869817 0 -0.00070589415579558909 0.031961035161108549 0 -0.0013295020537357986 0.032298925562007509 0 0.00019167854271822179 0.03201075674808989 0 -0.00070589415579558909 0.031961035161108549 0 -0.00048515500184399959 0.030867974399210015 0 -0.00070589415579558909 0.031961035161108549 0 -0.0013175131056460954 0.031500101558550181 0 -0.0013295020537357986 0.032298925562007509 0 -0.0013175131056460954 0.031500101558550181 0 -0.0013295020537357986 0.032298925562007509 0 -0.0018920471462714767 0.032071713963734642 0 -0.0013175131056460954 0.031500101558550181 0 -0.0018920471462714767 0.032071713963734642 0 -0.0020128015489407148 0.031389387694863179 0 -0.0013650489475158247 0.033652549799274567 0 -0.0010322259191298518 0.032742490327244009 0 -0.0026274090476008215 0.032200307403176427 0 -0.0018920471462714767 0.032071713963734642 0 -0.0020128015489407148 0.031389387694863179 0 -0.0026274090476008215 0.032200307403176427 0 -0.0022818509988122657 0.031050039902569364 0 -0.0020128015489407148 0.031389387694863179 0 -0.0018771749660889835 0.033142673750653572 0 -0.0026274090476008215 0.032200307403176427 0 -0.0029378969586561251 0.033350114697870588 0 -0.0018771749660889835 0.033142673750653572 0 -0.0026274090476008215 0.032200307403176427 0 -0.0018920471462714767 0.032071713963734642 0 -3.5888235378556692e-05 0.03496913177217096 0 -2.3376787239172608e-05 0.034979065133117791 0 -3.507476778667767e-05 0.034967956896575336 0 -2.3376787239172608e-05 0.034979065133117791 0 -1.5322213956562496e-05 0.03498076207640715 0 -3.507476778667767e-05 0.034967956896575336 0 -0.0013650489475158247 0.033652549799274567 0 -0.0012928146200638486 0.034121250928383987 0 -3.5888235378556692e-05 0.03496913177217096 0 -2.3376787239172608e-05 0.034979065133117791 0 -2.0288266755432806e-05 0.034983165608960247 0 -3.5888235378556692e-05 0.03496913177217096 0 -2.0288266755432806e-05 0.034983165608960247 0 -4.0877863151861775e-05 0.034967196347590268 0 -2.3376787239172608e-05 0.034979065133117791 0 -1.1489220830905907e-05 0.034989532380570919 0 -2.0288266755432806e-05 0.034983165608960247 0 -1.1489220830905907e-05 0.034989532380570919 0 -7.7321593326736694e-09 0.03499998669061407 0 -6.2853343347633228e-09 0.034999984409475743 0 -1.1489220830905907e-05 0.034989532380570919 0 -6.2853343347633228e-09 0.034999984409475743 0 -2.0288266755432806e-05 0.034983165608960247 0 -1.1489220830905907e-05 0.034989532380570919 0 -7.7321593326736694e-09 0.03499998669061407 0 -1.5322213956562496e-05 0.03498076207640715 0 -2.3376787239172608e-05 0.034979065133117791 0 -1.1489220830905907e-05 0.034989532380570919 0 -1.5322213956562496e-05 0.03498076207640715 0 -0.00039293123089731836 0.034912637239429473 0 -0.00066532779242039456 0.034594424425631265 0 -0.0009956335363657295 0.034486761936934215 0 -9.2051942009158019e-05 0.034750262618107541 0 -2.671650432711571e-07 0.034999216945271638 0 -6.6880218486556885e-08 0.034999804680991051 0 -0.00039293123089731836 0.034912637239429473 0 -0.00066532779242039456 0.034594424425631265 0 -0.00030833493454585764 0.034736621786323502 0 -7.5460151150691355e-05 0.034984755990019961 0 -1.6360845814981372e-07 0.034999971941827406 0 -7.7321593326736694e-09 0.03499998669061407 0 -1.5322213956562496e-05 0.03498076207640715 0 -7.6198287615644223e-09 0.03499996708367302 0 -0.00039293123089731836 0.034912637239429473 0 -6.6880218486556885e-08 0.034999804680991051 0 -0.00030833493454585764 0.034736621786323502 0 -9.2051942009158019e-05 0.034750262618107541 0 -6.6880218486556885e-08 0.034999804680991051 0 -0.00030833493454585764 0.034736621786323502 0 -0.00066532779242039456 0.034594424425631265 0 -0.00030833493454585764 0.034736621786323502 0 -0.00068165845785115491 0.034471530184243239 0 -0.00030833493454585764 0.034736621786323502 0 -0.00038062221565052533 0.03458539617245137 0 -0.00068165845785115491 0.034471530184243239 0 -9.2051942009158019e-05 0.034750262618107541 0 -0.00030833493454585764 0.034736621786323502 0 -0.00038062221565052533 0.03458539617245137 0 -0.00063401298210653476 0.034375619331995864 0 -0.00038062221565052533 0.03458539617245137 0 -0.00068165845785115491 0.034471530184243239 0 -0.00083004552242289039 0.034280447583089201 0 -0.00068165845785115491 0.034471530184243239 0 -0.00089893543974010773 0.034311076431689569 0 -0.00068165845785115491 0.034471530184243239 0 -0.00090980011420341051 0.034413093810585042 0 -0.00089893543974010773 0.034311076431689569 0 -0.00066532779242039456 0.034594424425631265 0 -0.00090980011420341051 0.034413093810585042 0 -0.0009956335363657295 0.034486761936934215 0 -0.00066532779242039456 0.034594424425631265 0 -0.00068165845785115491 0.034471530184243239 0 -0.00090980011420341051 0.034413093810585042 0 -0.00090980011420341051 0.034413093810585042 0 -0.0010221490751255019 0.034332773026972324 0 -0.0009956335363657295 0.034486761936934215 0 -0.00090980011420341051 0.034413093810585042 0 -0.00099679788439719155 0.034299438591668986 0 -0.0010221490751255019 0.034332773026972324 0 -0.00090980011420341051 0.034413093810585042 0 -0.00089893543974010773 0.034311076431689569 0 -0.00099679788439719155 0.034299438591668986 0 -0.00096185693354551376 0.034206898265006509 0 -0.00089737340929549293 0.034230635438743176 0 -0.00089893543974010773 0.034311076431689569 0 -0.00096185693354551376 0.034206898265006509 0 -0.00089893543974010773 0.034311076431689569 0 -0.00099679788439719155 0.034299438591668986 0 -0.00096185693354551376 0.034206898265006509 0 -0.0010306298018083692 0.034260085080547127 0 -0.00099679788439719155 0.034299438591668986 0 -0.00096185693354551376 0.034206898265006509 0 -0.0010306298018083692 0.034260085080547127 0 -0.0010855318453355115 0.034271271067530577 0 -0.0010306298018083692 0.034260085080547127 0 -0.00099679788439719155 0.034299438591668986 0 -0.0010588396314783217 0.034251953235191278 0 -0.0010306298018083692 0.034260085080547127 0 -0.0010855318453355115 0.034271271067530577 0 -0.0010588396314783217 0.034251953235191278 0 -0.0010311894947761316 0.034112118272771989 0 -0.0010855318453355115 0.034271271067530577 0 -0.0010588396314783217 0.034251953235191278 0 -0.0010311894947761316 0.034112118272771989 0 -0.0010588396314783217 0.0342519532