<?xml version="1.0"?>
<VTKFile type="UnstructuredGrid" version="0.1" byte_order="LittleEndian">
<UnstructuredGrid>
<Piece NumberOfPoints="30095" NumberOfCells="10598">
<Points>
<DataArray type="Float64" NumberOfComponents="3" format="ascii">
-0.5 -0.5 0 -0.46833512168037489 -0.48599365290500102 0 -0.48267020241711872 -0.44889552808599659 0 -0.5 -0.5 0 -0.46833512168037489 -0.48599365290500102 0 -0.45170182487410532 -0.5 0 -0.5 -0.5 0 -0.48267020241711872 -0.44889552808599659 0 -0.50000000000000111 -0.43226180181301332 0 -0.46833512168037489 -0.48599365290500102 0 -0.44945724395605308 -0.49444265695663508 0 -0.45170182487410532 -0.5 0 -0.46833512168037489 -0.48599365290500102 0 -0.44801060725135278 -0.48216298063196222 0 -0.44945724395605308 -0.49444265695663508 0 -0.46833512168037489 -0.48599365290500102 0 -0.44801060725135278 -0.48216298063196222 0 -0.46534040483423572 -0.46552925435897929 0 -0.44801060725135278 -0.48216298063196222 0 -0.45744208655262719 -0.46312976840587983 0 -0.46534040483423572 -0.46552925435897929 0 -0.44801060725135278 -0.48216298063196222 0 -0.46534040483423572 -0.46552925435897929 0 -0.44801060725135278 -0.48216298063196222 0 -0.44053572124271739 -0.47147334132918672 0 -0.44559588103414971 -0.46166574296087493 0 -0.44801060725135278 -0.48216298063196222 0 -0.44559588103414971 -0.46166574296087493 0 -0.45744208655262719 -0.46312976840587983 0 -0.44801060725135278 -0.48216298063196222 0 -0.44559588103414971 -0.46166574296087493 0 -0.44801060725135278 -0.48216298063196222 0 -0.44053572124271739 -0.47147334132918672 0 -0.43727276302294132 -0.47953242095139459 0 -0.44801060725135278 -0.48216298063196222 0 -0.44105419339184743 -0.48883998210455182 0 -0.43727276302294132 -0.47953242095139459 0 -0.44801060725135278 -0.48216298063196222 0 -0.44105419339184743 -0.48883998210455182 0 -0.44105419339184743 -0.48883998210455182 0 -0.44945724395605308 -0.49444265695663508 0 -0.45170182487410532 -0.5 0 -0.44801060725135278 -0.48216298063196222 0 -0.44105419339184743 -0.48883998210455182 0 -0.44945724395605308 -0.49444265695663508 0 -0.44801060725135278 -0.48216298063196222 0 -0.44945724395605308 -0.49444265695663508 0 -0.44318115481694809 -0.44116850528978752 0 -0.44372874441645088 -0.45858668082044218 0 -0.43448279014183022 -0.43882331209734371 0 -0.44372874441645088 -0.45858668082044218 0 -0.43448279014183022 -0.43882331209734371 0 -0.44318115481694809 -0.44116850528978752 0 -0.45744208655262719 -0.46312976840587983 0 -0.43830886432492278 -0.45336063797264742 0 -0.44372874441645088 -0.45858668082044218 0 -0.43448279014183022 -0.43882331209734371 0 -0.44318115481694809 -0.44116850528978752 0 -0.44559588103414971 -0.46166574296087493 0 -0.43830886432492278 -0.45336063797264742 0 -0.43914703897766288 -0.45886196070206531 0 -0.44372874441645088 -0.45858668082044218 0 -0.44318115481694809 -0.44116850528978752 0 -0.44559588103414971 -0.46166574296087493 0 -0.45744208655262719 -0.46312976840587983 0 -0.44318115481694809 -0.44116850528978752 0 -0.44372874441645088 -0.45858668082044218 0 -0.44559588103414971 -0.46166574296087493 0 -0.43914703897766288 -0.45886196070206531 0 -0.43963734188520842 -0.46358574266201252 0 -0.43461596797707869 -0.45953252397386601 0 -0.43914703897766288 -0.45886196070206531 0 -0.44372874441645088 -0.45858668082044218 0 -0.43963734188520842 -0.46358574266201252 0 -0.44053572124271739 -0.47147334132918672 0 -0.43963734188520842 -0.46358574266201252 0 -0.44559588103414971 -0.46166574296087493 0 -0.44053572124271739 -0.47147334132918672 0 -0.43963734188520842 -0.46358574266201252 0 -0.43248861077492412 -0.46919240368091092 0 -0.44372874441645088 -0.45858668082044218 0 -0.43963734188520842 -0.46358574266201252 0 -0.44559588103414971 -0.46166574296087493 0 -0.45744208655262719 -0.46312976840587983 0 -0.46534040483423572 -0.46552925435897929 0 -0.46226408612207842 -0.45177793485149997 0 -0.44318115481694809 -0.44116850528978752 0 -0.46226408612207842 -0.45177793485149997 0 -0.46268658198946427 -0.44016661811685681 0 -0.44318115481694809 -0.44116850528978752 0 -0.45744208655262719 -0.46312976840587983 0 -0.46226408612207842 -0.45177793485149997 0 -0.46268658198946427 -0.44016661811685681 0 -0.48267020241711872 -0.44889552808599659 0 -0.46980426626823818 -0.426938967031886 0 -0.46226408612207842 -0.45177793485149997 0 -0.46268658198946427 -0.44016661811685681 0 -0.48267020241711872 -0.44889552808599659 0 -0.46833512168037489 -0.48599365290500102 0 -0.46534040483423572 -0.46552925435897929 0 -0.48267020241711872 -0.44889552808599659 0 -0.46534040483423572 -0.46552925435897929 0 -0.48267020241711872 -0.44889552808599659 0 -0.46534040483423572 -0.46552925435897929 0 -0.46226408612207842 -0.45177793485149997 0 -0.48267020241711872 -0.44889552808599659 0 -0.48267020241711872 -0.44889552808599659 0 -0.50000000000000111 -0.43226180181301332 0 -0.48267020241711872 -0.44889552808599659 0 -0.50000000000000111 -0.43226180181301332 0 -0.48625744784290298 -0.42054309738734169 0 -0.50000000000000111 -0.43226180181301332 0 -0.48625744784290298 -0.42054309738734169 0 -0.5 -0.40269129651438729 0 -0.48625744784290298 -0.42054309738734169 0 -0.5 -0.40269129651438729 0 -0.47571583455138189 -0.4049312907656229 0 -0.48625744784290298 -0.42054309738734169 0 -0.46980426626823818 -0.426938967031886 0 -0.47571583455138189 -0.4049312907656229 0 -0.48267020241711872 -0.44889552808599659 0 -0.48625744784290298 -0.42054309738734169 0 -0.46980426626823818 -0.426938967031886 0 -0.4883321049493678 -0.38790604386507432 0 -0.5 -0.40269129651438729 0 -0.5 -0.37312079121576153 0 -0.4883321049493678 -0.38790604386507432 0 -0.5 -0.40269129651438729 0 -0.47571583455138189 -0.4049312907656229 0 -0.4883321049493678 -0.38790604386507432 0 -0.47571583455138189 -0.4049312907656229 0 -0.47075676975463171 -0.38113470252016701 0 -0.4883321049493678 -0.38790604386507432 0 -0.47075676975463171 -0.38113470252016701 0 -0.48537838487731622 -0.36234249421865139 0 -0.47075676975463171 -0.38113470252016701 0 -0.45613515463194709 -0.39992691082168258 0 -0.47075676975463171 -0.38113470252016701 0 -0.45534916411423582 -0.38028783056125859 0 -0.45613515463194709 -0.39992691082168258 0 -0.47571583455138189 -0.4049312907656229 0 -0.47075676975463171 -0.38113470252016701 0 -0.45613515463194709 -0.39992691082168258 0 -0.43967067534511428 -0.41137004136415273 0 -0.43616019587328209 -0.38157157743851777 0 -0.45613515463194709 -0.39992691082168258 0 -0.43967067534511428 -0.41137004136415273 0 -0.43616019587328209 -0.38157157743851777 0 -0.45534916411423582 -0.38028783056125859 0 -0.45613515463194709 -0.39992691082168258 0 -0.43616019587328209 -0.38157157743851777 0 -0.44318115481694809 -0.44116850528978752 0 -0.46268658198946427 -0.44016661811685681 0 -0.45455732640465168 -0.42831779812497112 0 -0.46268658198946427 -0.44016661811685681 0 -0.46980426626823818 -0.426938967031886 0 -0.45455732640465168 -0.42831779812497112 0 -0.46980426626823818 -0.426938967031886 0 -0.45455732640465168 -0.42831779812497112 0 -0.45872509841258602 -0.41537801721882228 0 -0.46980426626823818 -0.426938967031886 0 -0.47571583455138189 -0.4049312907656229 0 -0.45872509841258602 -0.41537801721882228 0 -0.47571583455138189 -0.4049312907656229 0 -0.45613515463194709 -0.39992691082168258 0 -0.45872509841258602 -0.41537801721882228 0 -0.45455732640465168 -0.42831779812497112 0 -0.45872509841258602 -0.41537801721882228 0 -0.44151353950926259 -0.41871911912319809 0 -0.45613515463194709 -0.39992691082168258 0 -0.44151353950926259 -0.41871911912319809 0 -0.45613515463194709 -0.39992691082168258 0 -0.45872509841258602 -0.41537801721882228 0 -0.44151353950926259 -0.41871911912319809 0 -0.45613515463194709 -0.39992691082168258 0 -0.44151353950926259 -0.41871911912319809 0 -0.43967067534511428 -0.41137004136415273 0 -0.44318115481694809 -0.44116850528978752 0 -0.45455732640465168 -0.42831779812497112 0 -0.44151353950926259 -0.41871911912319809 0 -0.44318115481694809 -0.44116850528978752 0 -0.43967067534511428 -0.41137004136415273 0 -0.44318115481694809 -0.44116850528978752 0 -0.44151353950926259 -0.41871911912319809 0 -0.43967067534511428 -0.41137004136415273 0 -0.42958601820476888 -0.42023253997046672 0 -0.42523683586720928 -0.41905994337424513 0 -0.43448279014183022 -0.43882331209734371 0 -0.44318115481694809 -0.44116850528978752 0 -0.42958601820476888 -0.42023253997046672 0 -0.43448279014183022 -0.43882331209734371 0 -0.44318115481694809 -0.44116850528978752 0 -0.42958601820476888 -0.42023253997046672 0 -0.44318115481694809 -0.44116850528978752 0 -0.43967067534511428 -0.41137004136415273 0 -0.42958601820476888 -0.42023253997046672 0 -0.42490216476393322 -0.43567900940143311 0 -0.42523683586720928 -0.41905994337424513 0 -0.43448279014183022 -0.43882331209734371 0 -0.42523683586720928 -0.41905994337424513 0 -0.43448279014183022 -0.43882331209734371 0 -0.42490216476393322 -0.43567900940143311 0 -0.42523683586720928 -0.41905994337424513 0 -0.42058264281736202 -0.42800776586195732 0 -0.42958601820476888 -0.42023253997046672 0 -0.42523683586720928 -0.41905994337424513 0 -0.41599088159258829 -0.39929657465114682 0 -0.42958601820476888 -0.42023253997046672 0 -0.41599088159258829 -0.39929657465114682 0 -0.42855375631878118 -0.40727222670987978 0 -0.42958601820476888 -0.42023253997046672 0 -0.41599088159258829 -0.39929657465114682 0 -0.43967067534511428 -0.41137004136415273 0 -0.42855375631878118 -0.40727222670987978 0 -0.42958601820476888 -0.42023253997046672 0 -0.42523683586720928 -0.41905994337424513 0 -0.41315812841981869 -0.42256507299705021 0 -0.41599088159258829 -0.39929657465114682 0 -0.41315812841981869 -0.42256507299705021 0 -0.41599088159258829 -0.39929657465114682 0 -0.40110216636634061 -0.41727494389252778 0 -0.42523683586720928 -0.41905994337424513 0 -0.41599088159258829 -0.39929657465114682 0 -0.41315812841981869 -0.42256507299705021 0 -0.4049277652127074 -0.4371005851744828 0 -0.40110216636634061 -0.41727494389252778 0 -0.41315812841981869 -0.42256507299705021 0 -0.4168853692543175
[...]
<PointData Scalars="" Vectors="displacement," Tensors="">
<DataArray type="Float64" Name="displacement" NumberOfComponents="3" format="ascii">
0.034998729066143701 0.034998109392336475 0 0.034781478742234161 0.033446716146835115 0 0.032239129075285339 0.035015254548420451 0 0.034998729066143701 0.034998109392336475 0 0.034781478742234161 0.033446716146835115 0 0.034998054388774145 0.031621491226557059 0 0.034998729066143701 0.034998109392336475 0 0.032239129075285339 0.035015254548420451 0 0.030263452180676036 0.034998302605305398 0 0.034781478742234161 0.033446716146835115 0 0.035147357886041279 0.031618617839941118 0 0.034998054388774145 0.031621491226557059 0 0.034781478742234161 0.033446716146835115 0 0.035017667071244617 0.032488363323305312 0 0.035147357886041279 0.031618617839941118 0 0.034781478742234161 0.033446716146835115 0 0.035017667071244617 0.032488363323305312 0 0.033864387760121691 0.034044400445572116 0 0.032419268634201685 0.03748283969850473 0 0.031723126865491377 0.037197701680711313 0 0.031826447068006955 0.036851804911315046 0 0.034222541431026876 0.033395892076567464 0 0.032769621505405438 0.035571123239002043 0 0.035215529946941576 0.029883382769318761 0 0.034799646897240855 0.02976798242005857 0 0.034380344830335023 0.029218475241462125 0 0.032419268634201685 0.03748283969850473 0 0.031692266185183622 0.037541958502011877 0 0.031723126865491377 0.037197701680711313 0 0.034222541431026876 0.033395892076567464 0 0.033107428469954708 0.033338068132024994 0 0.035215529946941576 0.029883382769318761 0 0.034799646897240855 0.02976798242005857 0 0.035149584777127485 0.030135804198187566 0 0.035215529946941576 0.029883382769318761 0 0.035385693174826392 0.03062536054411575 0 0.035149584777127485 0.030135804198187566 0 0.034222541431026876 0.033395892076567464 0 0.034511938259055928 0.031357251225658828 0 0.035385693174826392 0.03062536054411575 0 0.035147357886041279 0.031618617839941118 0 0.034998054388774145 0.031621491226557059 0 0.036069145038196651 0.031333715706129361 0 0.035385693174826392 0.03062536054411575 0 0.035147357886041279 0.031618617839941118 0 0.034222541431026876 0.033395892076567464 0 0.035452592729864223 0.03207340578953391 0 0.031905602602136804 0.029518784315515752 0 0.034030100970744361 0.0293900332832439 0 0.031603411111272142 0.030658350647937736 0 0.033848891846260214 0.029394097355978338 0 0.032004059759912273 0.030069302742855904 0 0.030558873328241448 0.035422285707696469 0 0.031544800760939989 0.037928387869831118 0 0.033656023720534556 0.029481333234666628 0 0.034030100970744361 0.0293900332832439 0 0.032580081304146497 0.029312132664207183 0 0.030558873328241448 0.035422285707696469 0 0.033107428469954708 0.033338068132024994 0 0.033656023720534556 0.029481333234666628 0 0.034060846668109095 0.029548946988411144 0 0.034030100970744361 0.0293900332832439 0 0.031101709793067422 0.037574716301732113 0 0.031692266185183622 0.037541958502011877 0 0.031723126865491377 0.037197701680711313 0 0.031905602602136804 0.029518784315515752 0 0.034030100970744361 0.0293900332832439 0 0.034380344830335023 0.029218475241462125 0 0.034060846668109095 0.029548946988411144 0 0.034406682259565724 0.029606522137986681 0 0.034122978523238118 0.029727571254376386 0 0.034060846668109095 0.029548946988411144 0 0.034030100970744361 0.0293900332832439 0 0.034406682259565724 0.029606522137986681 0 0.034799646897240855 0.02976798242005857 0 0.034406682259565724 0.029606522137986681 0 0.034380344830335023 0.029218475241462125 0 0.034799646897240855 0.02976798242005857 0 0.034406682259565724 0.029606522137986681 0 0.034724721437189555 0.029931779327409064 0 0.034030100970744361 0.0293900332832439 0 0.034406682259565724 0.029606522137986681 0 0.034380344830335023 0.029218475241462125 0 0.031723126865491377 0.037197701680711313 0 0.031826447068006955 0.036851804911315046 0 0.031089330790404112 0.036999259233536787 0 0.03050246558735447 0.038166744896665501 0 0.031089330790404112 0.036999259233536787 0 0.030382084748804203 0.036987964140611257 0 0.03050246558735447 0.038166744896665501 0 0.031723126865491377 0.037197701680711313 0 0.031089330790404112 0.036999259233536787 0 0.030382084748804203 0.036987964140611257 0 0.030950655034400778 0.035917886308088044 0 0.029609203276330303 0.036647770138885767 0 0.031089330790404112 0.036999259233536787 0 0.030382084748804203 0.036987964140611257 0 0.030950655034400778 0.035917886308088044 0 0.034781478742234161 0.033446716146835115 0 0.033864387760121691 0.034044400445572116 0 0.032239129075285339 0.035015254548420451 0 0.032769621505405438 0.035571123239002043 0 0.031524992651615166 0.035333146639873025 0 0.031826447068006955 0.036851804911315046 0 0.031089330790404112 0.036999259233536787 0 0.030950655034400778 0.035917886308088044 0 0.031524992651615166 0.035333146639873025 0 0.030258562015493061 0.034999879456007181 0 0.030950655034400778 0.035917886308088044 0 0.030257281218217014 0.03499986797028945 0 0.029361309552281632 0.035801442080036466 0 0.030257281218217014 0.03499986797028945 0 0.029361309552281632 0.035801442080036466 0 0.028188596762935843 0.034999888847550682 0 0.029361309552281632 0.035801442080036466 0 0.028188596762935843 0.034999888847550682 0 0.028301607209836287 0.036437213449820621 0 0.029361309552281632 0.035801442080036466 0 0.029609203276330303 0.036647770138885767 0 0.028301607209836287 0.036437213449820621 0 0.030950655034400778 0.035917886308088044 0 0.029361309552281632 0.035801442080036466 0 0.029609203276330303 0.036647770138885767 0 0.027183709789265386 0.035726352845012917 0 0.028188596762935843 0.034999888847550682 0 0.026118533022500692 0.034999896942065796 0 0.027183709789265386 0.035726352845012917 0 0.028188596762935843 0.034999888847550682 0 0.028301607209836287 0.036437213449820621 0 0.027183709789265386 0.035726352845012917 0 0.028301607209836287 0.036437213449820621 0 0.026777567308988184 0.03680170828441965 0 0.027183709789265386 0.035726352845012917 0 0.026777567308988184 0.03680170828441965 0 0.025408186374162912 0.035961775750850619 0 0.025929746773724373 0.036188788621016939 0 0.027400797253726114 0.036994696586022745 0 0.02504674368545623 0.035567495466520972 0 0.025071758250390482 0.036494023244105389 0 0.026799140760305679 0.036402673771780927 0 0.028301607209836287 0.036437213449820621 0 0.026777567308988184 0.03680170828441965 0 0.028010029507302931 0.037482394887743235 0 0.02687395010925453 0.037432653709973514 0 0.024806632788094918 0.037223335273174667 0 0.026799140760305679 0.036402673771780927 0 0.028118316474934422 0.038120028232257352 0 0.025071541220651437 0.037808780130002821 0 0.025071758250390482 0.036494023244105389 0 0.026799140760305679 0.036402673771780927 0 0.025071541220651437 0.037808780130002821 0 0.03050246558735447 0.038166744896665501 0 0.030382084748804203 0.036987964140611257 0 0.029560444132747093 0.037439358298549864 0 0.030382084748804203 0.036987964140611257 0 0.029609203276330303 0.036647770138885767 0 0.029560444132747093 0.037439358298549864 0 0.029609203276330303 0.036647770138885767 0 0.029560444132747093 0.037439358298549864 0 0.028803629474283665 0.037285437009964291 0 0.029609203276330303 0.036647770138885767 0 0.028301607209836287 0.036437213449820621 0 0.028803629474283665 0.037285437009964291 0 0.028301607209836287 0.036437213449820621 0 0.028010029507302931 0.037482394887743235 0 0.028803629474283665 0.037285437009964291 0 0.029560444132747093 0.037439358298549864 0 0.028803629474283665 0.037285437009964291 0 0.028736596363723318 0.038068242655933164 0 0.027400797253726114 0.036994696586022745 0 0.028649643486942138 0.03797164157629427 0 0.028010029507302931 0.037482394887743235 0 0.028803629474283665 0.037285437009964291 0 0.028736596363723318 0.038068242655933164 0 0.026799140760305679 0.036402673771780927 0 0.028736596363723318 0.038068242655933164 0 0.028118316474934422 0.038120028232257352 0 0.03050246558735447 0.038166744896665501 0 0.029560444132747093 0.037439358298549864 0 0.028736596363723318 0.038068242655933164 0 0.030558873328241448 0.035422285707696469 0 0.02687395010925453 0.037432653709973514 0 0.03050246558735447 0.038166744896665501 0 0.028736596363723318 0.038068242655933164 0 0.028118316474934422 0.038120028232257352 0 0.029131449666779091 0.031352723674447164 0 0.028977258462325961 0.031941441349862661 0 0.031603411111272142 0.030658350647937736 0 0.031905602602136804 0.029518784315515752 0 0.029131449666779091 0.031352723674447164 0 0.031603411111272142 0.030658350647937736 0 0.030558873328241448 0.035422285707696469 0 0.027780381675732973 0.033982392024912586 0 0.028427530062401719 0.035924024088224579 0 0.026115753627892313 0.036261035632066015 0 0.026778301074852705 0.036982438250728472 0 0.032230449798454061 0.029939524798082172 0 0.030885775018261077 0.029889943219007443 0 0.032580081304146497 0.029312132664207183 0 0.030310844683608163 0.030601145191943707 0 0.032004059759912273 0.030069302742855904 0 0.032230449798454061 0.029939524798082172 0 0.030885775018261077 0.029889943219007443 0 0.031552635835234939 0.030168925227855404 0 0.029131449666779091 0.031352723674447164 0 0.028977258462325961 0.031941441349862661 0 0.026329415214015873 0.03323062046637925 0 0.027780381675732973 0.033982392024912586 0 0.026936463794737096 0.03459722697471488 0 0.025867962371230669 0.03701355445633682 0 0.026778301074852705 0.036982438250728472 0 0.025313123757971123 0.037747431189771273 0 0.026115753627892313 0.036261035632066015 0 0.025867962371230669 0.03701355445633682 0 0.026778301074852705 0.036982438250728472 0 0.030885775018261077 0.029889943219007443 0 0.031018710896840575 0.030523634420816004 0 0.030015916350869806 0.030421818692176354 0 0.031018710896840575 0.030523634420816004 0 0.030015916350869806 0.030421818692176354 0 0.03052074347833858 0.030913394086564589 0 0.030310844683608163 0.030601145191943707 0 0.026936463794737096 0.03459722697471488 0 0.031018710896840575 0.030523634420816004 0 0.032213136703360103 0.031312208152650511 0 0.03052074347833858 0.030913394086564589 0 0.031018710896840575 0.030523634420816004 0 0.031999157546081569 0.030433501632656595 0 0.032213136703360103 0.031312208152650511 0 0.032230449798454061 0.029939524798082172 0 0.031999157546081569 0.030433501632656595 0 0.031552635835234939 0.030168925227855404 0 0.031018710896840575 0.030523634420816004 0 0.031999157546081569 0.030433501632656595 0 0.031552635835234939 0.030168925227855404 0 0.030885775018261077 0.029889943219007443 0 0.031018710896840575 0.030523634420816004 0 0.031552635835234939 0.030168925227855404 0 0.024306311020752685 0.036737374533663075 0 0.024683736172293039 0.037355845875219021 0 0.023905277647946782 0.037597577925701918 0 0.024306311020752685 0.036737374533663075 0 0.024683736172293039 0.037355845875219021 0 0.02528494059752515 0.037010588553239132 0 0.026115753627892313 0.036261035632066015 0 0.024306311020752685 0.036737374533663075 0 0.02528494059752515 0.037010588553239132 0 0.024683736172293039 0.037355845875219021 0 0.02528494059752515 0.037010588553239132 0 0.025313123757971123 0.037747431189771273 0 0.026115753627892313 0.036261035632066015 0 0.025867962371230669 0.03701355445633682 0 0.02528494059752515 0.037010588553239132 0 0.025867962371230669 0.03701355445633682 0 0.02528494059752515 0.037010588553239132 0 0.025313123757971123 0.037747431189771273 0 0.026936463794737096 0.03459722697471488 0 0.023949698640068719 0.037895822776368285 0 0.024683736172293039 0.037355845875219021 0 0.025313123757971123 0.037747431189771273 0 0.02461392866632562 0.037936891968056961 0 0.02461392866632562 0.037936891968056961 0 0.023905277647946782 0.037597577925701918 0 0.023972667855626711 0.038320637331300263 0 0.026936463794737096 0.03459722697471488 0 0.02695936840814148 0.034309622446152821 0 0.025238600192486787 0.037738081466752282 0 0.02461392866632562 0.037936891968056961 0 0.023972667855626711 0.038320637331300263 0 0.024683736172293039 0.037355845875219021 0 0.02461392866632562 0.037936891968056961 0 0.023905277647946782 0.037597577925701918 0 0.030015916350869806 0.030421818692176354 0 0.030012314040852445 0.030798102253431506 0 0.029619160902029498 0.030543502545004778 0 0.030015916350869806 0.030421818692176354 0 0.030012314040852445 0.030798102253431506 0 0.03052074347833858 0.030913394086564589 0 0.030012314040852445 0.030798102253431506 0 0.029619160902029498 0.030543502545004778 0 0.029531052704262782 0.030714418854944112 0 0.030012314040852445 0.030798102253431506 0 0.029531052704262782 0.030714418854944112 0 0.029792402845642964 0.03096289361747169 0 0.030848734231617835 0.03116755976163376 0 0.03081404453542377 0.030941607534975692 0 0.03030370709712997 0.030861655158179083 0 0.03052074347833858 0.030913394086564589 0 0.030326937070618586 0.030819218875993138 0 0.03030370709712997 0.030861655158179083 0 0.030326937070618586 0.030819218875993138 0 0.030289431774862614 0.030809996134156366 0 0.030012314040852445 0.030798102253431506 0 0.03052074347833858 0.030913394086564589 0 0.030268336420380598 0.030829230782020323 0 0.03052074347833858 0.030913394086564589 0 0.030268336420380598 0.030829230782020323 0 0.030326937070618586 0.030819218875993138 0 0.030012314040852445 0.030798102253431506 0 0.030268336420380598 0.030829230782020323 0 0.030094971074685964 0.030867396284815687 0 0.030268336420380598 0.030829230782020323 0 0.030239756296489187 0.030817038932897677 0 0.030326937070618586 0.030819218875993138 0 0.030239756296489187 0.030817038932897677 0 0.030326937070618586 0.030819218875993138 0 0.030289431774862614 0.030809996134156366 0 0.030239756296489187 0.030817038932897677 0 0.030289431774862614 0.030809996134156366 0 0.030259209074764894 0.030804017904225611 0 0.034343584947985006 0.028908177601863184 0 0.03372414154486713 0.028478499451688243 0 0.030302785049590941 0.030808450029518129 0 0.030289431774862614 0.030809996134156366 0 0.030259209074764894 0.030804017904225611 0 0.030302785049590941 0.030808450029518129 0 0.030274104996576661 0.030799596106139061 0 0.030259209074764894 0.030804017904225611 0 0.03030370709712997 0.030861655158179083 0 0.030302785049590941 0.030808450029518129 0 0.030339381813387769 0.030824585639079558 0 0.03030370709712997 0.030861655158179083 0 0.030302785049590941 0.030808450029518129 0 0.030289431774862614 0.030809996134156366 0 0.038259460788739194 0.027175224132068354 0 0.037110445745859678 0.027515484845244506 0 0.037860485366739513 0.028585864984044584 0 0.037110445745859678 0.027515484845244506 0 0.036445166592072559 0.028873765087659192 0 0.037860485366739513 0.028585864984044584 0 0.034343584947985006 0.028908177601863184 0 0.034177122869732027 0.029824662665106801 0 0.038259460788739194 0.027175224132068354 0 0.037110445745859678 0.027515484845244506 0 0.036970373627786685 0.026024750717260715 0 0.038259460788739194 0.027175224132068354 0 0.036970373627786685 0.026024750717260715 0 0.038651311443038093 0.025755899674409572 0 0.037110445745859678 0.027515484845244506 0 0.036107888917474101 0.027105218193129194 0 0.036970373627786685 0.026024750717260715 0 0.036107888917474101 0.027105218193129194 0 0.034999975446982724 0.027426248337656573 0 0.034999971137076522 0.025657873292262569 0 0.036107888917474101 0.027105218193129194 0 0.034999971137076522 0.025657873292262569 0 0.036970373627786685 0.026024750717260715 0 0.036107888917474101 0.027105218193129194 0 0.034999975446982724 0.027426248337656573 0 0.036445166592072559 0.028873765087659192 0 0.037110445745859678 0.027515484845244506 0 0.036107888917474101 0.027105218193129194 0 0.036445166592072559 0.028873765087659192 0 0.035108202367012807 0.030239641308320627 0 0.034735946835831213 0.030123717813299224 0 0.034202241069718614 0.030387970555464588 0 0.035385693174826392 0.03062536054411575 0 0.034998054388774145 0.031621491226557059 0 0.035000522227639365 0.029194886452000638 0 0.035108202367012807 0.030239641308320627 0 0.034735946835831213 0.030123717813299224 0 0.035236340663747874 0.030021780877819045 0 0.036041744441581598 0.029479538996071378 0 0.034999601764702709 0.029194865332925125 0 0.034999975446982724 0.027426248337656573 0 0.036445166592072559 0.028873765087659192 0 0.034999964264303088 0.029194441066532708 0 0.035108202367012807 0.030239641308320627 0 0.035000522227639365 0.029194886452000638 0 0.035236340663747874 0.030021780877819045 0 0.035385693174826392 0.03062536054411575 0 0.035000522227639365 0.029194886452000638 0 0.035236340663747874 0.030021780877819045 0 0.034735946835831213 0.030123717813299224 0 0.035236340663747874 0.030021780877819045 0 0.034724721437189555 0.029931779327409064 0 0.035236340663747874 0.030021780877819045 0 0.035149584777127485 0.030135804198187566 0 0.034724721437189555 0.029931779327409064 0 0.035385693174826392 0.03062536054411575 0 0.035236340663747874 0.030021780877819045 0 0.035149584777127485 0.030135804198187566 0 0.034799646897240855 0.02976798242005857 0 0.035149584777127485 0.030135804198187566 0 0.034724721437189555 0.029931779327409064 0 0.034406682259565724 0.029606522137986681 0 0.034724721437189555 0.029931779327409064 0 0.034122978523238118 0.029727571254376386 0 0.034724721437189555 0.029931779327409064 0 0.034202678320876805 0.030012337865841024 0 0.034122978523238118 0.029727571254376386 0 0.034735946835831213 0.030123717813299224 0 0.034202678320876805 0.030012337865841024 0 0.034202241069718614 0.030387970555464588 0 0.034735946835831213 0.030123717813299224 0 0.034724721437189555 0.029931779327409064 0 0.034202678320876805 0.030012337865841024 0 0.034202678320876805 0.030012337865841024 0 0.033655692935999397 0.030062796187773574 0 0.034202241069718614 0.030387970555464588 0 0.034202678320876805 0.030012337865841024 0 0.033643359007342236 0.029767001805583809 0 0.033655692935999397 0.030062796187773574 0 0.034202678320876805 0.030012337865841024 0 0.034122978523238118 0.029727571254376386 0 0.033643359007342236 0.029767001805583809 0 0.033656023720534556 0.029481333234666628 0 0.034060846668109095 0.029548946988411144 0 0.034122978523238118 0.029727571254376386 0 0.033656023720534556 0.029481333234666628 0 0.034122978523238118 0.029727571254376386 0 0.033643359007342236 0.029767001805583809 0 0.033656023720534556 0.029481333234666628 0 0.033244278646588729 0.029588198764207405 0 0.033643359007342236 0.029767001805583809 0 0.033656023720534556 0.029481333234666628 0 0.033244278646588729 0.029588198764207405 0 0.032580081304146497 0.029312132664207183 0 0.033244278646588729 0.029588198764207405 0 0.033643359007342236 0.029767001805583809 0 0.033086173401810921 0.029811904896685094 0 0.033244278646588729 0.029588198764207405 0 0.032580081304146497 0.029312132664207183 0 0.033086173401810921 0.029811904896685094 0 0.032230449798454061 0.029939524798082172 0 0.032580081304146497 0.029312132664207183 0 0.033086173401810921 0.029811904896685094 0 0.032230449798454061 0.029939524798082172 0 0.033086173401810921 0.029811904896685094 0 0.033078951922273156 0.030385302402119917 0 0.033086173401810921 0.029811904896685094 0 0.033655692935999397 0.030062796187773574 0 0.033078951922273156 0.030385302402119917 0 0.033643359007342236 0.029767001805583809 0 0.033086173401810921 0.029811904896685094 0 0.033655692935999397 0.030062796187773574 0 0.032213136703360103 0.031312208152650511 0 0.033078951922273156 0.030385302402119917 0 0.033932422029686285 0.031168231222018752 0 0.033655692935999397 0.030062796187773574 0 0.033078951922273156 0.030385302402119917 0 0.034202241069718614 0.030387970555464588 0 0.030848734231617835 0.03116755976163376 0 0.034177122869732027 0.029824662665106801 0 0.032230449798454061 0.029939524798082172 0 0.031999157546081569 0.030433501632656595 0 0.033078951922273156 0.030385302402119917 0 0.031999157546081569 0.030433501632656595 0 0.032213136703360103 0.031312208152650511 0 0.033078951922273156 0.030385302402119917 0 0.036041744441581598 0.029479538996071378 0 0.034177122869732027 0.029824662665106801 0 0.034177122869732027 0.029824662665106801 0