<?xml version="1.0"?>
<VTKFile type="UnstructuredGrid" version="0.1" byte_order="LittleEndian">
<UnstructuredGrid>
<Piece NumberOfPoints="32338" NumberOfCells="11387">
<Points>
<DataArray type="Float64" NumberOfComponents="3" format="ascii">
-0.49239686974386881 -0.50000000000000067 0 -0.47991565160223848 -0.48323020329050398 0 -0.49239686974386881 -0.50000000000000067 0 -0.49111901436293448 -0.48783232009916883 0 -0.47991565160223848 -0.48323020329050398 0 -0.49239686974386881 -0.50000000000000067 0 -0.5 -0.5 0 -0.49111901436293448 -0.48783232009916883 0 -0.5 -0.5 0 -0.49111901436293448 -0.48783232009916883 0 -0.50000000000000377 -0.48003981965922349 0 -0.50000000000000377 -0.48003981965922349 0 -0.4853483550963984 -0.47308722038563911 0 -0.49999999999999922 -0.4632082642161055 0 -0.50000000000000377 -0.48003981965922349 0 -0.4853483550963984 -0.47308722038563911 0 -0.49111901436293448 -0.48783232009916883 0 -0.4853483550963984 -0.47308722038563911 0 -0.47991565160223848 -0.48323020329050398 0 -0.49111901436293448 -0.48783232009916883 0 -0.50000000000000377 -0.48003981965922349 0 -0.4853483550963984 -0.47308722038563911 0 -0.47991565160223848 -0.48323020329050398 0 -0.4674344334606082 -0.46646040658100751 0 -0.4853483550963984 -0.47308722038563911 0 -0.47991565160223848 -0.48323020329050398 0 -0.47069671019279241 -0.46613462111205572 0 -0.47991565160223848 -0.48323020329050398 0 -0.4674344334606082 -0.46646040658100751 0 -0.47069671019279241 -0.46613462111205572 0 -0.4853483550963984 -0.47308722038563911 0 -0.47069671019279241 -0.46613462111205572 0 -0.49239686974386881 -0.50000000000000067 0 -0.47991565160223848 -0.48323020329050398 0 -0.46778776234992853 -0.5 0 -0.47991565160223848 -0.48323020329050398 0 -0.46778776234992853 -0.5 0 -0.45645577496996842 -0.48347888233813607 0 -0.46778776234992853 -0.5 0 -0.45645577496996842 -0.48347888233813607 0 -0.44317865495598818 -0.5 0 -0.45645577496996842 -0.48347888233813607 0 -0.43778059471315722 -0.46942177085378828 0 -0.4674344334606082 -0.46646040658100751 0 -0.47991565160223848 -0.48323020329050398 0 -0.45645577496996842 -0.48347888233813607 0 -0.4674344334606082 -0.46646040658100751 0 -0.45645577496996842 -0.48347888233813607 0 -0.43778059471315722 -0.46942177085378828 0 -0.44317865495598818 -0.5 0 -0.44983222355280172 -0.43820580599301667 0 -0.44143729021195582 -0.44372967103433192 0 -0.43420568883553801 -0.43509940654393903 0 -0.45226765107996869 -0.44653399226431739 0 -0.44538640342800678 -0.45412420033099488 0 -0.45782980443622179 -0.45346324157818801 0 -0.45226765107996869 -0.44653399226431739 0 -0.44143729021195582 -0.44372967103433192 0 -0.44538640342800678 -0.45412420033099488 0 -0.45226765107996869 -0.44653399226431739 0 -0.44983222355280172 -0.43820580599301667 0 -0.44143729021195582 -0.44372967103433192 0 -0.45226765107996869 -0.44653399226431739 0 -0.44983222355280172 -0.43820580599301667 0 -0.45617871343606009 -0.44158689500650022 0 -0.43778059471315722 -0.46942177085378828 0 -0.44538640342800678 -0.45412420033099488 0 -0.46527832269254848 -0.46356345062259979 0 -0.43778059471315722 -0.46942177085378828 0 -0.44538640342800678 -0.45412420033099488 0 -0.43181103502180601 -0.45683712393046833 0 -0.43778059471315722 -0.46942177085378828 0 -0.4674344334606082 -0.46646040658100751 0 -0.44538640342800678 -0.45412420033099488 0 -0.45782980443622179 -0.45346324157818801 0 -0.46527832269254848 -0.46356345062259979 0 -0.43778059471315722 -0.46942177085378828 0 -0.46527832269254848 -0.46356345062259979 0 -0.4674344334606082 -0.46646040658100751 0 -0.44538640342800678 -0.45412420033099488 0 -0.46527832269254848 -0.46356345062259979 0 -0.46527832269254848 -0.46356345062259979 0 -0.46737302848388329 -0.45527960119549937 0 -0.47069671019279241 -0.46613462111205572 0 -0.46527832269254848 -0.46356345062259979 0 -0.4674344334606082 -0.46646040658100751 0 -0.47069671019279241 -0.46613462111205572 0 -0.46527832269254848 -0.46356345062259979 0 -0.47069671019279241 -0.46613462111205572 0 -0.46527832269254848 -0.46356345062259979 0 -0.4674344334606082 -0.46646040658100751 0 -0.45782980443622179 -0.45346324157818801 0 -0.46527832269254848 -0.46356345062259979 0 -0.46737302848388329 -0.45527960119549937 0 -0.45782980443622179 -0.45346324157818801 0 -0.46737302848388329 -0.45527960119549937 0 -0.46303488108350299 -0.44974563613541851 0 -0.46737302848388329 -0.45527960119549937 0 -0.46303488108350299 -0.44974563613541851 0 -0.46984305268724819 -0.44542261110485898 0 -0.46303488108350299 -0.44974563613541851 0 -0.46210753407735877 -0.444428786362287 0 -0.46984305268724819 -0.44542261110485898 0 -0.46303488108350299 -0.44974563613541851 0 -0.45828371682262248 -0.44715171026934231 0 -0.46210753407735877 -0.444428786362287 0 -0.45782980443622179 -0.45346324157818801 0 -0.46303488108350299 -0.44974563613541851 0 -0.45828371682262248 -0.44715171026934231 0 -0.45226765107996869 -0.44653399226431739 0 -0.45782980443622179 -0.45346324157818801 0 -0.45828371682262248 -0.44715171026934231 0 -0.44983222355280172 -0.43820580599301667 0 -0.45617871343606009 -0.44158689500650022 0 -0.4578687987037855 -0.43535511569240348 0 -0.45226765107996869 -0.44653399226431739 0 -0.45828371682262248 -0.44715171026934231 0 -0.45617871343606009 -0.44158689500650022 0 -0.45617871343606009 -0.44158689500650022 0 -0.46256449686203382 -0.43844817000028807 0 -0.46210753407735877 -0.444428786362287 0 -0.45828371682262248 -0.44715171026934231 0 -0.45617871343606009 -0.44158689500650022 0 -0.46210753407735877 -0.444428786362287 0 -0.45617871343606009 -0.44158689500650022 0 -0.46256449686203382 -0.43844817000028807 0 -0.4578687987037855 -0.43535511569240348 0 -0.46586886559141671 -0.44135978992938729 0 -0.46984305268724819 -0.44542261110485898 0 -0.46896037873902641 -0.43713959225011523 0 -0.46256449686203382 -0.43844817000028807 0 -0.46210753407735877 -0.444428786362287 0 -0.46586886559141671 -0.44135978992938729 0 -0.46210753407735877 -0.444428786362287 0 -0.46586886559141671 -0.44135978992938729 0 -0.46984305268724819 -0.44542261110485898 0 -0.46256449686203382 -0.43844817000028807 0 -0.46586886559141671 -0.44135978992938729 0 -0.46896037873902641 -0.43713959225011523 0 -0.46984305268724819 -0.44542261110485898 0 -0.48150438293738379 -0.44271070787309008 0 -0.46896037873902641 -0.43713959225011523 0 -0.46737302848388329 -0.45527960119549937 0 -0.46984305268724819 -0.44542261110485898 0 -0.47760762235862991 -0.45424871850492582 0 -0.46984305268724819 -0.44542261110485898 0 -0.48150438293738379 -0.44271070787309008 0 -0.47760762235862991 -0.45424871850492582 0 -0.47069671019279241 -0.46613462111205572 0 -0.47760762235862991 -0.45424871850492582 0 -0.49999999999999922 -0.4632082642161055 0 -0.4674344334606082 -0.46646040658100751 0 -0.47069671019279241 -0.46613462111205572 0 -0.46737302848388329 -0.45527960119549937 0 -0.47069671019279241 -0.46613462111205572 0 -0.47760762235862991 -0.45424871850492582 0 -0.47069671019279241 -0.46613462111205572 0 -0.49999999999999922 -0.4632082642161055 0 -0.4853483550963984 -0.47308722038563911 0 -0.47069671019279241 -0.46613462111205572 0 -0.49999999999999922 -0.4632082642161055 0 -0.48150438293738379 -0.44271070787309008 0 -0.47760762235862991 -0.45424871850492582 0 -0.49999999999999922 -0.4632082642161055 0 -0.48150438293738379 -0.44271070787309008 0 -0.49999999999999922 -0.4632082642161055 0 -0.5 -0.43408267190264299 0 -0.48150438293738379 -0.44271070787309008 0 -0.5 -0.43408267190264299 0 -0.4780831904067277 -0.43140042702946962 0 -0.5 -0.43408267190264299 0 -0.48649336302567892 -0.41856485946570582 0 -0.4780831904067277 -0.43140042702946962 0 -0.5 -0.43408267190264299 0 -0.48649336302567892 -0.41856485946570582 0 -0.5 -0.4049570795891807 0 -0.48649336302567892 -0.41856485946570582 0 -0.5 -0.4049570795891807 0 -0.47349492188765979 -0.40384834485223942 0 -0.48649336302567892 -0.41856485946570582 0 -0.47075148861674759 -0.42080718599797012 0 -0.47349492188765979 -0.40384834485223942 0 -0.48649336302567892 -0.41856485946570582 0 -0.47075148861674759 -0.42080718599797012 0 -0.4780831904067277 -0.43140042702946962 0 -0.47075148861674759 -0.42080718599797012 0 -0.4780831904067277 -0.43140042702946962 0 -0.46445285078249537 -0.43098665133555852 0 -0.48150438293738379 -0.44271070787309008 0 -0.46896037873902641 -0.43713959225011523 0 -0.4780831904067277 -0.43140042702946962 0 -0.46896037873902641 -0.43713959225011523 0 -0.4780831904067277 -0.43140042702946962 0 -0.46445285078249537 -0.43098665133555852 0 -0.5 -0.37583148727571819 0 -0.48184142786710188 -0.38744160817252149 0 -0.47508642024469322 -0.37103887157950521 0 -0.5 -0.37583148727571819 0 -0.5 -0.4049570795891807 0 -0.48184142786710188 -0.38744160817252149 0 -0.5 -0.4049570795891807 0 -0.47349492188765979 -0.40384834485223942 0 -0.48184142786710188 -0.38744160817252149 0 -0.47349492188765979 -0.40384834485223942 0 -0.48184142786710188 -0.38744160817252149 0 -0.46266012914367388 -0.38215547374659248 0 -0.48184142786710188 -0.38744160817252149 0 -0.46266012914367388 -0.38215547374659248 0 -0.47508642024469322 -0.37103887157950521 0 -0.47349492188765979 -0.40384834485223942 0 -0.44754135108754678 -0.39569586964920728 0 -0.4618762303439275 -0.41452284933802042 0 -0.47349492188765979 -0.40384834485223942 0 -0.46266012914367388 -0.38215547374659248 0 -0.44754135108754678 -0.39569586964920728 0 -0.44754135108754678 -0.39569586964920728 0 -0.44357313178081348 -0.37061158714039832 0 -0.44754135108754678 -0.39569586964920728 0 -0.42940950617146501 -0.38528498232119313 0 -0.44357313178081348 -0.37061158714039832 0 -0.46266012914367388 -0.38215547374659248 0 -0.44754135108754678 -0.39569586964920728 0 -0.44357313178081348 -0.37061158714039832 0 -0.44983222355280172 -0.43820580599301667 0 -0.45799645562540081 -0.42599319480911341 0 -0.4578687987037855 -0.43535511569240348 0 -0.45799645562540081 -0.42599319480911341 0 -0.4578687987037855 -0.43535511569240348 0 -0.46445285078249537 -0.43098665133555852 0 -0.46256449686203382 -0.43844817000
[...]
<PointData Scalars="" Vectors="displacement," Tensors="">
<DataArray type="Float64" Name="displacement" NumberOfComponents="3" format="ascii">
-0.034999655589351725 -0.034468187098442828 0 -0.035313746793785038 -0.034555858632193542 0 -0.034999120200326757 -0.034471348983384997 0 -0.03425277669986463 -0.035086395922332175 0 -0.033990647225518582 -0.035875692237508854 0 -0.034999120200326757 -0.034471348983384997 0 -0.034999847424645125 -0.034998361168896555 0 -0.03425277669986463 -0.035086395922332175 0 -0.034999847424645125 -0.034998361168896555 0 -0.03425277669986463 -0.035086395922332175 0 -0.033603996982019227 -0.034999680255041896 0 -0.033602725457803038 -0.034999984587997038 0 -0.033109484945945213 -0.035995977037341031 0 -0.032424642862062862 -0.034999998655840615 0 -0.03360270634384082 -0.035000178496255675 0 -0.033214789082466639 -0.035816360786113596 0 -0.03425277669986463 -0.035086395922332175 0 -0.033385491145711009 -0.035526362309697246 0 -0.033990647225518582 -0.035875692237508854 0 -0.03425277669986463 -0.035086395922332175 0 -0.033603996982019227 -0.034999680255041896 0 -0.033385491145711009 -0.035526362309697246 0 -0.035313746793785038 -0.034555858632193542 0 -0.033368321413454638 -0.035091382601325397 0 -0.033385491145711009 -0.035526362309697246 0 -0.033990647225518582 -0.035875692237508854 0 -0.032981383210959128 -0.036388094850531488 0 -0.033990647225518582 -0.035875692237508854 0 -0.032999735390036464 -0.036573522444614079 0 -0.032981383210959128 -0.036388094850531488 0 -0.033214789082466639 -0.035816360786113596 0 -0.032733746951806163 -0.036259488900543639 0 -0.034999989473994193 -0.034467748519810493 0 -0.036138843484345103 -0.033590385288861671 0 -0.034999975093213731 -0.032745154222924705 0 -0.036138843484345103 -0.033590385288861671 0 -0.034999975093213731 -0.032745154222924705 0 -0.036120158457601581 -0.031965945060277647 0 -0.034999975093213731 -0.032745154222924705 0 -0.036120158457601581 -0.031965945060277647 0 -0.034999978633137113 -0.031022540941321085 0 -0.036120158457601581 -0.031965945060277647 0 -0.037070928103271505 -0.030682695208707134 0 -0.037264682870253654 -0.032740231782659064 0 -0.036138843484345103 -0.033590385288861671 0 -0.036120158457601581 -0.031965945060277647 0 -0.037264682870253654 -0.032740231782659064 0 -0.036120158457601581 -0.031965945060277647 0 -0.037070928103271505 -0.030682695208707134 0 -0.034999978633137113 -0.031022540941321085 0 -0.030329622263365042 -0.037120048713375861 0 -0.030581566038655701 -0.037323283960082283 0 -0.030509163179147765 -0.037435487152679865 0 -0.03066796666733157 -0.03709375416921408 0 -0.030833031130440215 -0.03733344010320272 0 -0.031028780799837952 -0.036905530325790296 0 -0.03066796666733157 -0.03709375416921408 0 -0.030581566038655701 -0.037323283960082283 0 -0.030833031130440215 -0.03733344010320272 0 -0.03066796666733157 -0.03709375416921408 0 -0.030329622263365042 -0.037120048713375861 0 -0.030581566038655701 -0.037323283960082283 0 -0.03066796666733157 -0.03709375416921408 0 -0.030329622263365042 -0.037120048713375861 0 -0.030463725298068751 -0.036940000203761397 0 -0.030008335743752251 -0.037298990988582352 0 -0.030214906968262189 -0.037370113672602005 0 -0.030157352197976842 -0.037513186937735955 0 -0.030008335743752251 -0.037298990988582352 0 -0.030214906968262189 -0.037370113672602005 0 -0.030205892069648861 -0.03720009611615193 0 -0.033513663099445 -0.033998800740177401 0 -0.033368321413454638 -0.035091382601325397 0 -0.030833031130440215 -0.03733344010320272 0 -0.031028780799837952 -0.036905530325790296 0 -0.031652191225742109 -0.03665004787656536 0 -0.030008335743752251 -0.037298990988582352 0 -0.030157352197976842 -0.037513186937735955 0 -0.030144228538740485 -0.037526074296008474 0 -0.030435604064705139 -0.037445818633545076 0 -0.031837688532107965 -0.036592657779984369 0 -0.031652191225742109 -0.03665004787656536 0 -0.031265026062168168 -0.036540128953000496 0 -0.031849878303752778 -0.03642173553158156 0 -0.032518751384407088 -0.035897894462910807 0 -0.03265824746363527 -0.035796954105300823 0 -0.032645531230451073 -0.035645241876603194 0 -0.031837688532107965 -0.036592657779984369 0 -0.032733746951806163 -0.036259488900543639 0 -0.031837688532107965 -0.036592657779984369 0 -0.033368321413454638 -0.035091382601325397 0 -0.031028780799837952 -0.036905530325790296 0 -0.031652191225742109 -0.03665004787656536 0 -0.031265026062168168 -0.036540128953000496 0 -0.031028780799837952 -0.036905530325790296 0 -0.031265026062168168 -0.036540128953000496 0 -0.030918882841293974 -0.036703266580232818 0 -0.031265026062168168 -0.036540128953000496 0 -0.030918882841293974 -0.036703266580232818 0 -0.030764315502454693 -0.036422096429679307 0 -0.030918882841293974 -0.036703266580232818 0 -0.030637300802465184 -0.036727413784924667 0 -0.030764315502454693 -0.036422096429679307 0 -0.030918882841293974 -0.036703266580232818 0 -0.030744380825831426 -0.036876989145684158 0 -0.030637300802465184 -0.036727413784924667 0 -0.031028780799837952 -0.036905530325790296 0 -0.030918882841293974 -0.036703266580232818 0 -0.030744380825831426 -0.036876989145684158 0 -0.03066796666733157 -0.03709375416921408 0 -0.031028780799837952 -0.036905530325790296 0 -0.030744380825831426 -0.036876989145684158 0 -0.030329622263365042 -0.037120048713375861 0 -0.030463725298068751 -0.036940000203761397 0 -0.030111464862135555 -0.036851345218673268 0 -0.03066796666733157 -0.03709375416921408 0 -0.030744380825831426 -0.036876989145684158 0 -0.030463725298068751 -0.036940000203761397 0 -0.030463725298068751 -0.036940000203761397 0 -0.030310689568982776 -0.036689998947463692 0 -0.030637300802465184 -0.036727413784924667 0 -0.030744380825831426 -0.036876989145684158 0 -0.030463725298068751 -0.036940000203761397 0 -0.030637300802465184 -0.036727413784924667 0 -0.030463725298068751 -0.036940000203761397 0 -0.030310689568982776 -0.036689998947463692 0 -0.030111464862135555 -0.036851345218673268 0 -0.030495592501269337 -0.036571718917238143 0 -0.030764315502454693 -0.036422096429679307 0 -0.030272090616195329 -0.036439438866349434 0 -0.030310689568982776 -0.036689998947463692 0 -0.030637300802465184 -0.036727413784924667 0 -0.030495592501269337 -0.036571718917238143 0 -0.030637300802465184 -0.036727413784924667 0 -0.030495592501269337 -0.036571718917238143 0 -0.030764315502454693 -0.036422096429679307 0 -0.030310689568982776 -0.036689998947463692 0 -0.030495592501269337 -0.036571718917238143 0 -0.030272090616195329 -0.036439438866349434 0 -0.030764315502454693 -0.036422096429679307 0 -0.030734326555922491 -0.035925601903015206 0 -0.030272090616195329 -0.036439438866349434 0 -0.031265026062168168 -0.036540128953000496 0 -0.030764315502454693 -0.036422096429679307 0 -0.031376421034595765 -0.036103270503554684 0 -0.030764315502454693 -0.036422096429679307 0 -0.030734326555922491 -0.035925601903015206 0 -0.031376421034595765 -0.036103270503554684 0 -0.031849878303752778 -0.03642173553158156 0 -0.031376421034595765 -0.036103270503554684 0 -0.032423279655047238 -0.034999853277009114 0 -0.033368321413454638 -0.035091382601325397 0 -0.032733746951806163 -0.036259488900543639 0 -0.031265026062168168 -0.036540128953000496 0 -0.031849878303752778 -0.03642173553158156 0 -0.031376421034595765 -0.036103270503554684 0 -0.032733746951806163 -0.036259488900543639 0 -0.032424203563546659 -0.035000843760713073 0 -0.033109484945945213 -0.035995977037341031 0 -0.032644098010938559 -0.036984880646600327 0 -0.032424642862062862 -0.034999998655840615 0 -0.030734326555922491 -0.035925601903015206 0 -0.031376421034595765 -0.036103270503554684 0 -0.032423279655047238 -0.034999853277009114 0 -0.030734326555922491 -0.035925601903015206 0 -0.032423279655047238 -0.034999853277009114 0 -0.030385697713413474 -0.034999733223421779 0 -0.030734326555922491 -0.035925601903015206 0 -0.030385697713413474 -0.034999733223421779 0 -0.030014039732423975 -0.036075349659252291 0 -0.030385697713413474 -0.034999733223421779 0 -0.029263629390441012 -0.035687614490437253 0 -0.030014039732423975 -0.036075349659252291 0 -0.030385697713413474 -0.034999733223421779 0 -0.029263629390441012 -0.035687614490437253 0 -0.028347051889810723 -0.034999780676300718 0 -0.029263629390441012 -0.035687614490437253 0 -0.028347051889810723 -0.034999780676300718 0 -0.028373085216058296 -0.036305482857104339 0 -0.029263629390441012 -0.035687614490437253 0 -0.029357570261014272 -0.036390390733315001 0 -0.028373085216058296 -0.036305482857104339 0 -0.029263629390441012 -0.035687614490437253 0 -0.029357570261014272 -0.036390390733315001 0 -0.030014039732423975 -0.036075349659252291 0 -0.029357570261014272 -0.036390390733315001 0 -0.030014039732423975 -0.036075349659252291 0 -0.02985306045934227 -0.036599432445913932 0 -0.030734326555922491 -0.035925601903015206 0 -0.030272090616195329 -0.036439438866349434 0 -0.030014039732423975 -0.036075349659252291 0 -0.030272090616195329 -0.036439438866349434 0 -0.030014039732423975 -0.036075349659252291 0 -0.02985306045934227 -0.036599432445913932 0 -0.026308393877785746 -0.034999722624708421 0 -0.027207059309306524 -0.035947835167861028 0 -0.026066817463910062 -0.036364142565517725 0 -0.026308393877785746 -0.034999722624708421 0 -0.028347051889810723 -0.034999780676300718 0 -0.027207059309306524 -0.035947835167861028 0 -0.028347051889810723 -0.034999780676300718 0 -0.028373085216058296 -0.036305482857104339 0 -0.027207059309306524 -0.035947835167861028 0 -0.028373085216058296 -0.036305482857104339 0 -0.027207059309306524 -0.035947835167861028 0 -0.026905485743006611 -0.037025482907704063 0 -0.027207059309306524 -0.035947835167861028 0 -0.026905485743006611 -0.037025482907704063 0 -0.026066817463910062 -0.036364142565517725 0 -0.028373085216058296 -0.036305482857104339 0 -0.027932021072019871 -0.037778293838328314 0 -0.029076784306466447 -0.036688237385552581 0 -0.028373085216058296 -0.036305482857104339 0 -0.026905485743006611 -0.037025482907704063 0 -0.027932021072019871 -0.037778293838328314 0 -0.029187158619790866 -0.036440674611189987 0 -0.02867209435175274 -0.03628112053750826 0 -0.03062349063385492 -0.035104491475131033 0 -0.030911304654775224 -0.033962186015571313 0 -0.031346076216216975 -0.034223172474505445 0 -0.026905485743006611 -0.037025482907704063 0 -0.027932021072019871 -0.037778293838328314 0 -0.026088784322685313 -0.038335277340326386 0 -0.030329622263365042 -0.037120048713375861 0 -0.029423919851943928 -0.036846351908016217 0 -0.030111464862135555 -0.036851345218673268 0 -0.029423919851943928 -0.036846351908016217 0 -0.030111464862135555 -0.036851345218673268 0 -0.02985306045934227 -0.036599432445913932 0 -0.030310689568982776 -0.036689998947463692 0 -0.030111464862135555 -0.036851345218673268 0 -0.02985306045934227 -0.036599432445913932 0 -0.030310689568982776 -0.036689998947463692 0 -0.030272090616195329 -0.036439438866349434 0 -0.02985306045934227 -0.036599432445913932 0 -0.029357570261014272 -0.036390390733315001 0 -0.029423919851943928 -0.036846351908016217 0 -0.02985306045934227 -0.036599432445913932 0 -0.027932021072019871 -0.037778293838328314 0 -0.029076784306466447 -0.036688237385552581 0 -0.029395756121773243 -0.036495834683004401 0 -0.029357570261014272 -0.036390390733315001 0 -0.028373085216058296 -0.036305482857104339 0 -0.029076784306466447 -0.036688237385552581 0 -0.029357570261014272 -0.036390390733315001 0 -0.029423919851943928 -0.036846351908016217 0 -0.029076784306466447 -0.036688237385552581 0 -0.029423919851943928 -0.036846351908016217 0 -0.029076784306466447 -0.036688237385552581 0 -0.029395756121773243 -0.036495834683004401 0 -0.029187158619790866 -0.036440674611189987 0 -0.029272106658368737 -0.03650486615368146 0 -0.03062349063385492 -0.035104491475131033 0 -0.029395756121773243 -0.036495834683004401 0 -0.029583468561426823 -0.035004559791165221 0 -0.030329622263365042 -0.037120048713375861 0 -0.029423919851943928 -0.036846351908016217 0 -0.030509163179147765 -0.037435487152679865 0 -0.029423919851943928 -0.036846351908016217 0 -0.029395756121773243 -0.036495834683004401 0 -0.02826140655476287 -0.034880716970980545 0 -0.029395756121773243 -0.036495834683004401 0 -0.02826140655476287 -0.034880716970980545 0 -0.029583468561426823 -0.035004559791165221 0 -0.029426548175387604 -0.036744279449914645 0 -0.029366791616510887 -0.036103694969631221 0 -0.02826140655476287 -0.034880716970980545 0 -0.029162636279008003 -0.034030742485544822 0 -0.029583468561426823 -0.035004559791165221 0 -0.02826140655476287 -0.034880716970980545 0 -0.029162636279008003 -0.034030742485544822 0 -0.028503177764050779 -0.033570618208680222 0 -0.03062349063385492 -0.035104491475131033 0 -0.029583468561426823 -0.035004559791165221 0 -0.030055926716086034 -0.034206813233856485 0 -0.029162636279008003 -0.034030742485544822 0 -0.029583468561426823 -0.035004559791165221 0 -0.030055926716086034 -0.034206813233856485 0 -0.029162636279008003 -0.034030742485544822 0 -0.029796369959368095 -0.0332791258718073 0 -0.028986656505722953 -0.033172887548110819 0 -0.029162636279008003 -0.034030742485544822 0 -0.030055926716086034 -0.034206813233856485 0 -0.029796369959368095 -0.0332791258718073 0 -0.028986656505722953 -0.033172887548110819 0 -0.028503177764050779 -0.033570618208680222 0 -0.02818374697869927 -0.032691238298694338 0 -0.029162636279008003 -0.034030742485544822 0 -0.028986656505722953 -0.033172887548110819 0 -0.028503177764050779 -0.033570618208680222 0 -0.03062349063385492 -0.035104491475131033 0 -0.030055926716086034 -0.034206813233856485 0 -0.030911304654775224 -0.033962186015571313 0 -0.030055926716086034 -0.034206813233856485 0 -0.030911304654775224 -0.033962186015571313 0 -0.03051199643678177 -0.033372346931132106 0 -0.030055926716086034 -0.034206813233856485 0 -0.029796369959368095 -0.0332791258718073 0 -0.03051199643678177 -0.033372346931132106 0 -0.029796369959368095 -0.0332791258718073 0 -0.03051199643678177 -0.033372346931132106 0 -0.030483615026954052 -0.032651450060624566 0 -0.03051199643678177 -0.033372346931132106 0 -0.031066560930809919 -0.033032417760762649 0 -0.030483615026954052 -0.032651450060624566 0 -0.030911304654775224 -0.033962186015571313 0 -0.031066560930809919 -0.033032417760762649 0 -0.031424511550775171 -0.033383034560277719 0 -0.030911304654775224 -0.033962186015571313 0 -0.03051199643678177 -0.033372346931132106 0 -0.031066560930809919 -0.033032417760762649 0 -0.031066560930809919 -0.033032417760762649 0 -0.030483615026954052 -0.032651450060624566 0 -0.031159688353509997 -0.032191110590587747 0 -0.030483615026954052 -0.032651450060624566 0 -0.030201338081562518 -0.03183682808084011 0 -0.029587529180631216 -0.032491334717369771 0 -0.030483615026954052 -0.032651450060624566 0 -0.030201338081562518 -0.03183682808084011 0 -0.031159688353509997 -0.032191110590587747 0 -0.030201338081562518 -0.03183682808084011 0 -0.031159688353509997 -0.032191110590587747 0 -0.030667557742016141 -0.031317791830805734 0 -0.02892067277320548 -0.032576089241938215 0 -0.028584516180473134 -0.032278650846197042 0 -0.029046157920552592 -0.032120439312482908 0 -0.02892067277320548 -0.032576089241938215 0 -0.028584516180473134 -0.032278650846197042 0 -0.02818374697869927 -0.032691238298694338 0 -0.028986656505722953 -0.033172887548110819 0 -0.02892067277320548 -0.032576089241938215 0 -0.02818374697869927 -0.032691238298694338 0 -0.028986656505722953 -0.033172887548110819 0 -0.02892067277320548 -0.032576089241938215 0 -0.029587529180631216 -0.032491334717369771 0 -0.029796369959368095 -0.0332791258718073 0 -0.028986656505722953 -0.033172887548110819 0 -0.029587529180631216 -0.032491334717369771 0 -0.029796369959368095 -0.0332791258718073 0 -0.030483615026954052 -0.032651450060624566 0 -0.029587529180631216 -0.032491334717369771 0 -0.02892067277320548 -0.032576089241938215 0 -0.029587529180631216 -0.032491334717369771 0 -0.029046157920552592 -0.032120439312482908 0 -0.029587529180631216 -0.032491334717369771 0 -0.029482885929683497 -0.031866265890909282 0 -0.029046157920552592 -0.032120439312482908 0 -0.030201338081562518 -0.03183682808084011 0 -0.029587529180631216 -0.032491334717369771 0 -0.029482885929683497 -0.031866265890909282 0 -0.030201338081562518 -0.03183682808084011 0 -0.029482885929683497 -0.031866265890909282 0 -0.02951093078983405 -0.031310734322292352 0 -0.029482885929683497 -0.031866265890909282 0 -0.028993431691467259 -0.031584910237422339 0 -0.02951093078983405 -0.031310734322292352 0 -0.029482885929683497 -0.031866265890909282 0 -0.028993431691467259 -0.031584910237422339 0 -0.029046157920552592 -0.032120439312482908 0 -0.028993431691467259 -0.031584910237422339 0 -0.029046157920552592 -0.032120439312482908 0 -0.028603246017431305 -0.03186934346344273 0 -0.028584516180473134 -0.032278650846197042 0 -0.028603246017431305 -0.03186934346344273 0 -0.028168263275679464 -0.032048999449536972 0 -0.028584516180473134 -0.032278650846197042 0 -0.029046157920552592 -0.032120439312482908 0 -0.028603246017431305 -0.03186934346344273 0 -0.028603246017431305 -0.03186934346344273 0 -0.02853491602712542 -0.031529812734925715 0 -0.02824104958538395 -0.031679106117946394 0 -0.02853491602712542 -0.031529812734925715 0 -0.028260733324469114 -0.031338985121797724 0 -0.028730633730679321 -0.031242116741907348 0 -0.028993431691467259 -0.031584910237422339 0 -0.028603246017431305 -0.03186934346344273 0 -0.02853491602712542 -0.031529812734925715 0 -0.028993431691467259 -0.031584910237422339 0 -0.02853491602712542 -0.031529812734925715 0 -0.028730633730679321 -0.031242116741907348 0 -0.02853491602712542 -0.031529812734925715 0 -0.028260733324469114 -0.031338985121797724 0 -0.02824104958538395 -0.031679106117946394 0 -0.028260733324469114 -0.031338985121797724 0 -0.028101811466076543 -0.031480683442388684 0 -0.02824104958538395 -0.031679106117946394 0 -0.028260733324469114 -0.031338985121797724 0 -0.028101811466076543 -0.031480683442388684 0 -0.027950332873155508 -0.031265602222673196 0 -0.02824104958538395 -0.031679106117946394 0 -0.027928021073589947 -0.031613612736923806 0 -0.027999082694456463 -0.03184382536082752 0 -0.028101811466076543 -0.031480683442388684 0 -0.02824104958538395 -0.031679106117946394 0 -0.027928021073589947 -0.031613612736923806 0 -0.027696713327035681 -0.031445970984907194 0 -0.027614288359541658 -0.031178207343469513 0 -0.027950332873155508 -0.031265602222673196 0 -0.027696713327035681 -0.031445970984907194 0 -0.027928021073589947 -0.031613612736923806 0 -0.027950332873155508 -0.031265602222673196 0 -0.028101811466076543 -0.031480683442388684 0 -0.027928021073589947 -0.031613612736923806 0 -0.027950332873155508 -0.031265602222673196 0 -0.027696713327035681 -0.031445970984907194 0 -0.027733470606742396 -0.031674961240599306 0 -0.027558639130888064 -0.031652565124777432 0 -0.027696713327035681 -0.031445970984907194 0 -0.027928021073589947 -0.031613612736923806 0 -0.027733470606742396 -0.031674961240599306 0 -0.027733470606742396 -0.031674961240599306 0 -0.027677012929942409 -0.031803656369178333 0 -0.027558639130888064 -0.031652565124777432 0 -0.027677012929942409 -0.031803656369178333 0 -0.027691736576288966 -0.031951681124562578 0 -0.027596513563169198 -0.031895547512348368 0 -0.027733470606742396 -0.031674961240599306 0 -0.027677012929942409 -0.031803656369178333 0 -0.027809835021860598 -0.031848597387584374 0 -0.027677012929942409 -0.031803656369178333 0 -0.027809835021860598 -0.031848597387584374 0 -0.027691736576288966 -0.031951681124562578 0 -0.027928021073589947 -0.031613612736923806 0 -0.027733470606742396 -0.031674961240599306 0 -0.027809835021860598 -0.031848597387584374 0 -0.027928021073589947 -0.031613612736923806 0 -0.027809835021860598 -0.031848597387584374 0 -0.027999082694456463 -0.03184382536082752 0 -0.027809835021860598 -0.031848597387584374 0 -0.027892793881585911 -0.031997283375684159 0 -0.027999082694456463 -0.03184382536082752 0 -0.027809835021860598 -0.031848597387584374 0 -0.027892793881585911 -0.031997283375684159 0 -0.027691736576288966 -0.0319516811245