<?xml version="1.0"?>
<VTKFile type="UnstructuredGrid" version="0.1" byte_order="LittleEndian">
<UnstructuredGrid>
<Piece NumberOfPoints="30881" NumberOfCells="10862">
<Points>
<DataArray type="Float64" NumberOfComponents="3" format="ascii">
-0.49999999999999828 -0.48677703703187492 0 -0.5 -0.5 0 -0.48129281494584059 -0.49338851851593718 0 -0.5 -0.5 0 -0.48129281494584059 -0.49338851851593718 0 -0.46258562989168328 -0.5 0 -0.49999999999999828 -0.48677703703187492 0 -0.48129281494584059 -0.49338851851593718 0 -0.49999999999999828 -0.48677703703187492 0 -0.4824545428279598 -0.47451624516148783 0 -0.48129281494584059 -0.49338851851593718 0 -0.49999999999999828 -0.48677703703187492 0 -0.4824545428279598 -0.47451624516148783 0 -0.5 -0.46599539173150673 0 -0.4824545428279598 -0.47451624516148783 0 -0.46853075243710779 -0.48354990242643758 0 -0.46411508256092049 -0.46598235294430129 0 -0.4824545428279598 -0.47451624516148783 0 -0.48129281494584059 -0.49338851851593718 0 -0.46853075243710779 -0.48354990242643758 0 -0.48129281494584059 -0.49338851851593718 0 -0.46258562989168328 -0.5 0 -0.48129281494584059 -0.49338851851593718 0 -0.46258562989168328 -0.5 0 -0.46853075243710779 -0.48354990242643758 0 -0.46258562989168328 -0.5 0 -0.46853075243710779 -0.48354990242643758 0 -0.45147378687733691 -0.48362213557840178 0 -0.46853075243710779 -0.48354990242643758 0 -0.45147378687733691 -0.48362213557840178 0 -0.46411508256092049 -0.46598235294430129 0 -0.4457251648104853 -0.47020164095208389 0 -0.45147378687733691 -0.48362213557840178 0 -0.46411508256092049 -0.46598235294430129 0 -0.4457251648104853 -0.47020164095208389 0 -0.45147378687733691 -0.48362213557840178 0 -0.43513446131126993 -0.48199891714758791 0 -0.45147378687733691 -0.48362213557840178 0 -0.43275163025255442 -0.5 0 -0.43513446131126993 -0.48199891714758791 0 -0.46258562989168328 -0.5 0 -0.45147378687733691 -0.48362213557840178 0 -0.43275163025255442 -0.5 0 -0.4467190029717853 -0.45478934699519452 0 -0.4422915115958943 -0.43555510214664611 0 -0.43246707723660932 -0.44794326854796312 0 -0.4457251648104853 -0.47020164095208389 0 -0.4467190029717853 -0.45478934699519452 0 -0.46411508256092049 -0.46598235294430129 0 -0.4457251648104853 -0.47020164095208389 0 -0.4467190029717853 -0.45478934699519452 0 -0.43016578207734568 -0.46313500011938619 0 -0.4467190029717853 -0.45478934699519452 0 -0.46411508256092049 -0.46598235294430129 0 -0.47114575579794699 -0.4403844242888923 0 -0.4467190029717853 -0.45478934699519452 0 -0.47114575579794699 -0.4403844242888923 0 -0.4422915115958943 -0.43555510214664611 0 -0.47114575579794699 -0.4403844242888923 0 -0.4422915115958943 -0.43555510214664611 0 -0.46411508256092049 -0.46598235294430129 0 -0.47114575579794699 -0.4403844242888923 0 -0.48354307623736548 -0.45841843211146538 0 -0.4824545428279598 -0.47451624516148783 0 -0.46411508256092049 -0.46598235294430129 0 -0.48354307623736548 -0.45841843211146538 0 -0.4824545428279598 -0.47451624516148783 0 -0.48354307623736548 -0.45841843211146538 0 -0.5 -0.46599539173150673 0 -0.48354307623736548 -0.45841843211146538 0 -0.5 -0.46599539173150673 0 -0.49999999999999972 -0.44521374643113848 0 -0.47114575579794699 -0.4403844242888923 0 -0.49999999999999972 -0.44521374643113848 0 -0.47114575579794699 -0.4403844242888923 0 -0.49999999999999972 -0.44521374643113848 0 -0.48704432221743971 -0.42935617662229603 0 -0.47114575579794699 -0.4403844242888923 0 -0.48354307623736548 -0.45841843211146538 0 -0.49999999999999972 -0.44521374643113848 0 -0.49999999999999972 -0.44521374643113848 0 -0.48704432221743971 -0.42935617662229603 0 -0.5 -0.41591957503128979 0 -0.48704432221743971 -0.42935617662229603 0 -0.5 -0.41591957503128979 0 -0.47703153307181151 -0.41590696073786332 0 -0.5 -0.41591957503128979 0 -0.47703153307181151 -0.41590696073786332 0 -0.48817838912021821 -0.4022119694541284 0 -0.47114575579794699 -0.4403844242888923 0 -0.48704432221743971 -0.42935617662229603 0 -0.47703153307181151 -0.41590696073786332 0 -0.5 -0.38662540363144121 0 -0.47568202340906118 -0.39039593841591919 0 -0.4947615751445838 -0.37332156409002909 0 -0.47568202340906118 -0.39039593841591919 0 -0.4947615751445838 -0.37332156409002909 0 -0.5 -0.38662540363144121 0 -0.48817838912021821 -0.4022119694541284 0 -0.47568202340906118 -0.39039593841591919 0 -0.5 -0.41591957503128979 0 -0.5 -0.38662540363144121 0 -0.48817838912021821 -0.4022119694541284 0 -0.47703153307181151 -0.41590696073786332 0 -0.48817838912021821 -0.4022119694541284 0 -0.47568202340906118 -0.39039593841591919 0 -0.47703153307181151 -0.41590696073786332 0 -0.47568202340906118 -0.39039593841591919 0 -0.45660247167353862 -0.40747031274180939 0 -0.47568202340906118 -0.39039593841591919 0 -0.48030931097003587 -0.37191064435083931 0 -0.46669490250066459 -0.37481721741951951 0 -0.47568202340906118 -0.39039593841591919 0 -0.4947615751445838 -0.37332156409002909 0 -0.48030931097003587 -0.37191064435083931 0 -0.45332061783919553 -0.38729481725706361 0 -0.46669490250066459 -0.37481721741951951 0 -0.45095991715087752 -0.36968037302039969 0 -0.47568202340906118 -0.39039593841591919 0 -0.45332061783919553 -0.38729481725706361 0 -0.46669490250066459 -0.37481721741951951 0 -0.47568202340906118 -0.39039593841591919 0 -0.45660247167353862 -0.40747031274180939 0 -0.47568202340906118 -0.39039593841591919 0 -0.45332061783919553 -0.38729481725706361 0 -0.45660247167353862 -0.40747031274180939 0 -0.44332653075004852 -0.401690115615219 0 -0.44646247228389868 -0.41654464256061052 0 -0.42870657106664078 -0.39987574649354879 0 -0.45332061783919553 -0.38729481725706361 0 -0.44332653075004852 -0.401690115615219 0 -0.43479631603355468 -0.39077639303142497 0 -0.45332061783919553 -0.38729481725706361 0 -0.44332653075004852 -0.401690115615219 0 -0.45660247167353862 -0.40747031274180939 0 -0.45332061783919553 -0.38729481725706361 0 -0.43421362475025049 -0.37527491429266319 0 -0.43479631603355468 -0.39077639303142497 0 -0.45332061783919553 -0.38729481725706361 0 -0.43421362475025049 -0.37527491429266319 0 -0.45095991715087752 -0.36968037302039969 0 -0.47114575579794699 -0.4403844242888923 0 -0.45663439814062529 -0.42533932462455271 0 -0.4422915115958943 -0.43555510214664611 0 -0.47114575579794699 -0.4403844242888923 0 -0.47703153307181151 -0.41590696073786332 0 -0.45663439814062529 -0.42533932462455271 0 -0.45663439814062529 -0.42533932462455271 0 -0.45660247167353862 -0.40747031274180939 0 -0.44646247228389868 -0.41654464256061052 0 -0.47703153307181151 -0.41590696073786332 0 -0.45663439814062529 -0.42533932462455271 0 -0.45660247167353862 -0.40747031274180939 0 -0.44332653075004852 -0.401690115615219 0 -0.45660247167353862 -0.40747031274180939 0 -0.44646247228389868 -0.41654464256061052 0 -0.45660247167353862 -0.40747031274180939 0 -0.44646247228389868 -0.41654464256061052 0 -0.44646247228389868 -0.41654464256061052 0 -0.4375229199380159 -0.42454468706769971 0 -0.45663439814062529 -0.42533932462455271 0 -0.4375229199380159 -0.42454468706769971 0 -0.4422915115958943 -0.43555510214664611 0 -0.45663439814062529 -0.42533932462455271 0 -0.44646247228389868 -0.41654464256061052 0 -0.4375229199380159 -0.42454468706769971 0 -0.4375229199380159 -0.42454468706769971 0 -0.4422915115958943 -0.43555510214664611 0 -0.43077617074680319 -0.43406335077952207 0 -0.43077617074680319 -0.43406335077952207 0 -0.42550232634077589 -0.42345940056268039 0 -0.41950844772475421 -0.43888456563633732 0 -0.4375229199380159 -0.42454468706769971 0 -0.43077617074680319 -0.43406335077952207 0 -0.42550232634077589 -0.42345940056268039 0 -0.44646247228389868 -0.41654464256061052 0 -0.41657232816672918 -0.41306671883907142 0 -0.42870657106664078 -0.39987574649354879 0 -0.44646247228389868 -0.41654464256061052 0 -0.4375229199380159 -0.42454468706769971 0 -0.42550232634077589 -0.42345940056268039 0 -0.44646247228389868 -0.41654464256061052 0 -0.42550232634077589 -0.42345940056268039 0 -0.41657232816672918 -0.41306671883907142 0 -0.44646247228389868 -0.41654464256061052 0 -0.41657232816672918 -0.41306671883907142 0 -0.42550232634077589 -0.42345940056268039 0 -0.41657232816672918 -0.41306671883907142 0 -0.41333489101611293 -0.42699700567040988 0 -0.41657232816672918 -0.41306671883907142 0 -0.41333489101611293 -0.42699700567040988 0 -0.39893236021425188 -0.42931692235905211 0 -0.41333489101611293 -0.42699700567040988 0 -0.39893236021425188 -0.42931692235905211 0 -0.41950844772475421 -0.43888456563633732 0 -0.42550232634077589 -0.42345940056268039 0 -0.41333489101611293 -0.42699700567040988 0 -0.41950844772475421 -0.43888456563633732 0 -0.43421362475025049 -0.37527491429266319 0 -0.42478231784314502 -0.38643128255249681 0 -0.41656514696884139 -0.37636588688318029 0 -0.43421362475025049 -0.37527491429266319 0 -0.42478231784314502 -0.38643128255249681 0 -0.43479631603355468 -0.39077639303142497 0 -0.42478231784314502 -0.38643128255249681 0 -0.43479631603355468 -0.39077639303142497 0 -0.42870657106664078 -0.39987574649354879 0 -0.44332653075004852 -0.401690115615219 0 -0.43479631603355468 -0.39077639303142497 0 -0.42870657106664078 -0.39987574649354879 0 -0.41657232816672918 -0.41306671883907142 0 -0.40962993039643741 -0.3898634720616666 0 -0.3946356370269814 -0.39577424904278191 0 -0.42478231784314502 -0.38643128255249681 0 -0.42870657106664078 -0.39987574649354879 0 -0.40962993039643741 -0.3898634720616666 0 -0.41657232816672918 -0.41306671883907142 0 -0.42870657106664078 -0.39987574649354879 0 -0.40962993039643741 -0.3898634720616666 0 -0.42478231784314502 -0.38643128255249681 0 -0.40962993039643741 -0.3898634720616666 0 -0.41656514696884139 -0.37636588688318029 0 -0.40962993039643741 -0.3898634720616666 0 -0.41656514696884139 -0.37636588688318029 0 -0.40465459864295228 -0.37650109000307358 0 -0.39431275766669582 -0.38061373190328529 0 -0.40465459864295228 -0.37650109000307358 0 -0.3968495855878465 -0.36923685638487008 0 -0.40962993039643741 -0.3898634720616666 0 -0.39431275766669582 -0.38061373190328529 0 -0.40465459864295228 -0.376501090003
[...]
<PointData Scalars="" Vectors="displacement," Tensors="">
<DataArray type="Float64" Name="displacement" NumberOfComponents="3" format="ascii">
-0.073023314035154233 -0.074998757022961549 0 -0.07499605254853535 -0.074999699401264691 0 -0.075592312196014158 -0.072523643161905529 0 -0.07499605254853535 -0.074999699401264691 0 -0.075592312196014158 -0.072523643161905529 0 -0.075001124638506833 -0.069389689773184715 0 -0.073019631225242507 -0.074994839176370356 0 -0.073966373682999978 -0.072139417389670238 0 -0.073010522596299129 -0.074996819083645597 0 -0.071487681629355204 -0.072588163900253896 0 -0.071856574208422383 -0.071597418164917312 0 -0.073010522596299129 -0.074996819083645597 0 -0.071487681629355204 -0.072588163900253896 0 -0.069899983553832062 -0.074997444472701083 0 -0.071487681629355204 -0.072588163900253896 0 -0.072370264711781415 -0.070235869824762501 0 -0.071226784592439626 -0.070163626836114323 0 -0.071487681629355204 -0.072588163900253896 0 -0.071856574208422383 -0.071597418164917312 0 -0.072370264711781415 -0.070235869824762501 0 -0.073966373682999978 -0.072139417389670238 0 -0.074996689341729289 -0.069392824708423936 0 -0.071856574208422383 -0.071597418164917312 0 -0.074989793528594903 -0.0693860095161353 0 -0.072370264711781415 -0.070235869824762501 0 -0.074989793528594903 -0.0693860095161353 0 -0.072370264711781415 -0.070235869824762501 0 -0.073148161358084995 -0.068410131496038903 0 -0.072370264711781415 -0.070235869824762501 0 -0.073148161358084995 -0.068410131496038903 0 -0.071226784592439626 -0.070163626836114323 0 -0.071919497557616965 -0.068308092921733468 0 -0.073148161358084995 -0.068410131496038903 0 -0.071226784592439626 -0.070163626836114323 0 -0.071919497557616965 -0.068308092921733468 0 -0.073148161358084995 -0.068410131496038903 0 -0.073204006834240248 -0.066524760403016914 0 -0.073148161358084995 -0.068410131496038903 0 -0.074998556699851754 -0.064916719660645397 0 -0.073204006834240248 -0.066524760403016914 0 -0.074989793528594903 -0.0693860095161353 0 -0.073148161358084995 -0.068410131496038903 0 -0.074998556699851754 -0.064916719660645397 0 -0.070604295933170136 -0.069075545147378237 0 -0.068031692762693108 -0.070143549245574699 0 -0.069533202488260726 -0.068656812932620145 0 -0.071919497557616965 -0.068308092921733468 0 -0.070604295933170136 -0.069075545147378237 0 -0.071226784592439626 -0.070163626836114323 0 -0.071919497557616965 -0.068308092921733468 0 -0.070604295933170136 -0.069075545147378237 0 -0.071068766981933762 -0.067532371430311988 0 -0.070604295933170136 -0.069075545147378237 0 -0.071226784592439626 -0.070163626836114323 0 -0.070810095135839829 -0.070910325298759111 0 -0.070604295933170136 -0.069075545147378237 0 -0.070810095135839829 -0.070910325298759111 0 -0.068031692762693108 -0.070143549245574699 0 -0.067353550648205307 -0.073160457874906423 0 -0.067533358550448758 -0.072499542109896176 0 -0.071226784592439626 -0.070163626836114323 0 -0.070810095135839829 -0.070910325298759111 0 -0.069975265602212094 -0.073007256318807084 0 -0.071487681629355204 -0.072588163900253896 0 -0.071226784592439626 -0.070163626836114323 0 -0.069975265602212094 -0.073007256318807084 0 -0.071487681629355204 -0.072588163900253896 0 -0.069975265602212094 -0.073007256318807084 0 -0.069899983553832062 -0.074997444472701083 0 -0.069975265602212094 -0.073007256318807084 0 -0.069899983553832062 -0.074997444472701083 0 -0.066791716367296208 -0.074997516875177778 0 -0.067353550648205307 -0.073160457874906423 0 -0.066783067730518161 -0.074997145584824815 0 -0.0646954248734984 -0.075399482047854668 0 -0.066777683718281189 -0.074999491497689946 0 -0.064500091325791237 -0.075519268391035649 0 -0.070810095135839829 -0.070910325298759111 0 -0.069975265602212094 -0.073007256318807084 0 -0.066791716367296208 -0.074997516875177778 0 -0.066777683718281189 -0.074999491497689946 0 -0.064500091325791237 -0.075519268391035649 0 -0.062390922248469469 -0.074998525501981952 0 -0.064500091325791237 -0.075519268391035649 0 -0.062390922248469469 -0.074998525501981952 0 -0.064207524973613553 -0.075519981927859484 0 -0.062390922248469469 -0.074998525501981952 0 -0.064207524973613553 -0.075519981927859484 0 -0.06142163313389918 -0.075513047975860989 0 -0.0646954248734984 -0.075399482047854668 0 -0.064500091325791237 -0.075519268391035649 0 -0.064207524973613553 -0.075519981927859484 0 -0.057996513436434791 -0.074998860448898294 0 -0.060788642865022925 -0.076414669185903158 0 -0.056365751142478278 -0.075617066723682388 0 -0.06062718061639575 -0.075097197406482241 0 -0.059387485739888869 -0.074711955519313006 0 -0.057996513436434791 -0.074998860448898294 0 -0.06142163313389918 -0.075513047975860989 0 -0.060788642865022925 -0.076414669185903158 0 -0.062390922248469469 -0.074998525501981952 0 -0.057996513436434791 -0.074998860448898294 0 -0.06142163313389918 -0.075513047975860989 0 -0.064207524973613553 -0.075519981927859484 0 -0.06142163313389918 -0.075513047975860989 0 -0.060788642865022925 -0.076414669185903158 0 -0.064207524973613553 -0.075519981927859484 0 -0.060788642865022925 -0.076414669185903158 0 -0.065202533634645093 -0.074685958927673365 0 -0.05920044897525234 -0.078121012201886011 0 -0.056779837073163447 -0.077414185026839194 0 -0.057793936532995291 -0.078792827031395021 0 -0.05920044897525234 -0.078121012201886011 0 -0.056365751142478278 -0.075617066723682388 0 -0.056779837073163447 -0.077414185026839194 0 -0.059227313870908946 -0.079678087845959158 0 -0.057793936532995291 -0.078792827031395021 0 -0.058254615403764531 -0.079659294391171823 0 -0.05920044897525234 -0.078121012201886011 0 -0.059227313870908946 -0.079678087845959158 0 -0.057793936532995291 -0.078792827031395021 0 -0.06062718061639575 -0.075097197406482241 0 -0.062761722667766209 -0.074874844299377408 0 -0.05920044897525234 -0.078121012201886011 0 -0.059227313870908946 -0.079678087845959158 0 -0.059782617487058168 -0.079660252051775751 0 -0.059627692414166981 -0.079886872671851725 0 -0.059308747692981285 -0.080002116361795994 0 -0.059586840033957034 -0.0795317106800979 0 -0.059227313870908946 -0.079678087845959158 0 -0.059627692414166981 -0.079886872671851725 0 -0.05993349347282724 -0.079844248149692279 0 -0.059227313870908946 -0.079678087845959158 0 -0.059627692414166981 -0.079886872671851725 0 -0.059782617487058168 -0.079660252051775751 0 -0.059227313870908946 -0.079678087845959158 0 -0.06001409800763205 -0.080053234612484245 0 -0.05993349347282724 -0.079844248149692279 0 -0.059227313870908946 -0.079678087845959158 0 -0.06001409800763205 -0.080053234612484245 0 -0.058254615403764531 -0.079659294391171823 0 -0.0646954248734984 -0.075399482047854668 0 -0.066422267798271456 -0.073377782681268017 0 -0.068031692762693108 -0.070143549245574699 0 -0.0646954248734984 -0.075399482047854668 0 -0.064207524973613553 -0.075519981927859484 0 -0.066422267798271456 -0.073377782681268017 0 -0.066422267798271456 -0.073377782681268017 0 -0.065202533634645093 -0.074685958927673365 0 -0.067017269166386256 -0.072486295633942918 0 -0.064207524973613553 -0.075519981927859484 0 -0.066422267798271456 -0.073377782681268017 0 -0.065202533634645093 -0.074685958927673365 0 -0.059627692414166981 -0.079886872671851725 0 -0.059782617487058168 -0.079660252051775751 0 -0.059308747692981285 -0.080002116361795994 0 -0.062761722667766209 -0.074874844299377408 0 -0.064175659535973636 -0.074494401544804995 0 -0.064175659535973636 -0.074494401544804995 0 -0.064198067196331948 -0.074062702931456045 0 -0.066422267798271456 -0.073377782681268017 0 -0.068173351107219185 -0.070154271539558916 0 -0.068031692762693108 -0.070143549245574699 0 -0.066422267798271456 -0.073377782681268017 0 -0.067017269166386256 -0.072486295633942918 0 -0.068173351107219185 -0.070154271539558916 0 -0.068173351107219185 -0.070154271539558916 0 -0.068031692762693108 -0.070143549245574699 0 -0.068429935800393901 -0.06908544736595712 0 -0.068429935800393901 -0.06908544736595712 0 -0.068440631179178743 -0.068766691095078852 0 -0.068789519519021819 -0.068073371397920135 0 -0.068173351107219185 -0.070154271539558916 0 -0.068429935800393901 -0.06908544736595712 0 -0.068440631179178743 -0.068766691095078852 0 -0.059308747692981285 -0.080002116361795994 0 -0.058342335317680072 -0.078581120873170637 0 -0.059586840033957034 -0.0795317106800979 0 -0.069090653890888892 -0.070967766628059453 0 -0.068173351107219185 -0.070154271539558916 0 -0.068440631179178743 -0.068766691095078852 0 -0.069090653890888892 -0.070967766628059453 0 -0.068440631179178743 -0.068766691095078852 0 -0.068885627024699386 -0.067926376901720986 0 -0.064175659535973636 -0.074494401544804995 0 -0.063659964215213471 -0.073068315226432631 0 -0.068440631179178743 -0.068766691095078852 0 -0.068885627024699386 -0.067926376901720986 0 -0.068403829481107972 -0.06791393328361324 0 -0.068885627024699386 -0.067926376901720986 0 -0.068403829481107972 -0.06791393328361324 0 -0.068009547071314055 -0.067349964460817896 0 -0.068403829481107972 -0.06791393328361324 0 -0.068009547071314055 -0.067349964460817896 0 -0.068789519519021819 -0.068073371397920135 0 -0.068440631179178743 -0.068766691095078852 0 -0.068403829481107972 -0.06791393328361324 0 -0.068789519519021819 -0.068073371397920135 0 -0.06001409800763205 -0.080053234612484245 0 -0.060577027400430299 -0.079457844690283927 0 -0.061688640385533774 -0.079259159009065522 0 -0.06001409800763205 -0.080053234612484245 0 -0.060577027400430299 -0.079457844690283927 0 -0.05993349347282724 -0.079844248149692279 0 -0.060577027400430299 -0.079457844690283927 0 -0.05993349347282724 -0.079844248149692279 0 -0.059586840033957034 -0.0795317106800979 0 -0.059627692414166981 -0.079886872671851725 0 -0.05993349347282724 -0.079844248149692279 0 -0.059586840033957034 -0.0795317106800979 0 -0.058342335317680072 -0.078581120873170637 0 -0.061016834051804594 -0.07773840093810519 0 -0.060814489014878702 -0.074668495058053536 0 -0.060577027400430299 -0.079457844690283927 0 -0.059586840033957034 -0.0795317106800979 0 -0.061016834051804594 -0.07773840093810519 0 -0.058342335317680072 -0.078581120873170637 0 -0.059586840033957034 -0.0795317106800979 0 -0.061016834051804594 -0.07773840093810519 0 -0.060577027400430299 -0.079457844690283927 0 -0.061016834051804594 -0.07773840093810519 0 -0.061688640385533774 -0.079259159009065522 0 -0.061016834051804594 -0.07773840093810519 0 -0.061688640385533774 -0.079259159009065522 0 -0.062940482406418224 -0.077262053039816897 0 -0.063161275726208721 -0.074795277751125377 0 -0.062940482406418224 -0.077262053039816897 0 -0.065145754354670071 -0.075587720019675522 0 -0.061016834051804594 -0.07773840093810519 0 -0.063161275726208721 -0.074795277751125377 0 -0.062940482406418224 -0.077262053039816897 0 -0.061016834051804594 -0.07773840093810519 0 -0.063161275726208721 -0.074795277751125377 0 -0.060814489014878702 -0.074668495058053536 0 -0.060814489014878702 -0.074668495058053536 0 -0.058616121605428978 -0.07281550771709025 0 -0.061893751695592039 -0.069970121150194853 0 -0.060814489014878702 -0.074668495058053536 0 -0.064256522766242691 -0.06998062022310815 0 -0.061893751695592039 -0.069970121150194853 0 -0.063161275726208721 -0.074795277751125377 0 -0.060814489014878702 -0.074668495058053536 0 -0.064256522766242691 -0.06998062022310815 0 -0.063161275726208721 -0.074795277751125377 0 -0.064256522766242691 -0.06998062022310815 0 -0.065897010160602981 -0.072597409298981508 0 -0.068885627024699386 -0.067926376901720986 0 -0.068009547071314055 -0.067349964460817896 0 -0.067034057818731993 -0.067002892903159278 0 -0.058342335317680072 -0.078581120873170637 0 -0.060814489014878702 -0.074668495058053536 0 -0.058616121605428978 -0.07281550771709025 0 -0.063659964215213471 -0.073068315226432631 0 -0.063294611800294331 -0.071189880984472556 0 -0.067034057818731993 -0.067002892903159278 0 -0.067221257935006384 -0.06726680700721302 0 -0.065486466286007239 -0.067365020391791985 0 -0.067221257935006384 -0.06726680700721302 0 -0.068490150693972171 -0.067535121502810269 0 -0.067055116525542843 -0.067643484735356196 0 -0.068009547071314055 -0.067349964460817896 0 -0.067221257935006384 -0.06726680700721302 0 -0.068490150693972171 -0.067535121502810269 0 -0.068009547071314055 -0.067349964460817896 0 -0.067034057818731993 -0.067002892903159278 0 -0.067221257935006384 -0.06726680700721302 0 -0.068490150693972171 -0.067535121502810269 0 -0.069388081116082911 -0.067344908701621561 0 -0.070274939745885723 -0.067555696571001592 0 -0.068009547071314055 -0.067349964460817896 0 -0.068490150693972171 -0.067535121502810269 0 -0.069388081116082911 -0.067344908701621561 0 -0.069388081116082911 -0.067344908701621561 0 -0.070274939745885723 -0.067555696571001592 0 -0.07122430462368981 -0.066815386437514515 0 -0.068490150693972171 -0.067535121502810269 0 -0.070274939745885723 -0.067555696571001592 0 -0.069789384949504818 -0.068275139118887204 0 -0.070274939745885723 -0.067555696571001592 0 -0.071578998837579746 -0.068205160520781752 0 -0.069789384949504818 -0.068275139118887204 0 -0.071578998837579746 -0.068205160520781752 0 -0.073536578393767107 -0.067536266488073746 0 -0.071763808325912143 -0.067262928524985513 0 -0.070274939745885723 -0.067555696571001592 0 -0.071578998837579746 -0.068205160520781752 0 -0.071763808325912143 -0.067262928524985513 0 -0.07432017556340785 -0.061056749118731588 0 -0.073925351388128807 -0.05736974722438979 0 -0.076149261057737533 -0.058708713465116802 0 -0.074997681625831356 -0.060441974069624246 0 -0.075001348744185112 -0.055960058107242631 0 -0.076149261057737533 -0.058708713465116802 0 -0.075843843003286476 -0.055588696688984689 0 -0.075001348744185112 -0.055960058107242631 0 -0.071578998837579746 -0.068205160520781752 0 -0.073536578393767107 -0.067536266488073746 0 -0.073089973514828308 -0.069028533643749584 0 -0.07432017556340785 -0.061056749118731588 0 -0.07442120845413279 -0.061785909621499581 0 -0.073536578393767107 -0.067536266488073746 0 -0.071763808325912143 -0.067262928524985513 0 -0.072583917480938828 -0.066072181472992875 0 -0.076149261057737533 -0.058708713465116802 0 -0.074997681625831356 -0.060441974069624246 0 -0.074816903930867248 -0.063559292604612849 0 -0.073536578393767107 -0.067536266488073746 0 -0.072583917480938828 -0.066072181472992875 0 -0.074816903930867248 -0.063559292604612849 0 -0.070274939745885723 -0.067555696571001592 0 -0.071763808325912143 -0.067262928524985513 0 -0.07122430462368981 -0.066815386437514515 0 -0.071763808325912143 -0.067262928524985513 0 -0.072583917480938828 -0.066072181472992875 0 -0.07122430462368981 -0.066815386437514515 0 -0.07122430462368981 -0.066815386437514515 0 -0.072296050451508054 -0.065875475742554576 0 -0.070631269413935313 -0.066974646593964862 0 -0.072583917480938828 -0.066072181472992875 0 -0.072296050451508054 -0.065875475742554576 0 -0.074816903930867248 -0.063559292604612849 0 -0.072583917480938828 -0.066072181472992875 0 -0.07122430462368981 -0.066815386437514515 0 -0.072296050451508054 -0.065875475742554576 0 -0.072296050451508054 -0.065875475742554576 0 -0.074816903930867248 -0.063559292604612849 0 -0.073956561723098557 -0.065164569318743371 0 -0.074997681625831356 -0.060441974069624246 0 -0.074816903930867248 -0.063559292604612849 0 -0.074998556699851754 -0.064916719660645397 0 -0.074816903930867248 -0.063559292604612849 0 -0.073956561723098557 -0.065164569318743371 0 -0.074998556699851754 -0.064916719660645397 0 -0.073956561723098557 -0.065164569318743371 0 -0.074998556699851754 -0.064916719660645397 0 -0.073204006834240248 -0.066524760403016914 0 -0.071919497557616965 -0.068308092921733468 0 -0.073204006834240248 -0.066524760403016914 0 -0.071068766981933762 -0.067532371430311988 0 -0.072296050451508054 -0.065875475742554576 0 -0.073204006834240248 -0.066524760403016914 0 -0.071068766981933762 -0.067532371430311988 0 -0.072296050451508054 -0.065875475742554576 0 -0.073956561723098557 -0.065164569318743371 0 -0.073204006834240248 -0.066524760403016914 0 -0.070604295933170136 -0.069075545147378237 0 -0.071068766981933762 -0.067532371430311988 0 -0.069533202488260726 -0.068656812932620145 0 -0.071068766981933762 -0.067532371430311988 0 -0.069777855295092325 -0.067686240186413477 0 -0.070631269413935313 -0.066974646593964862 0 -0.071068766981933762 -0.067532371430311988 0 -0.069533202488260726 -0.068656812932620145 0 -0.069777855295092325 -0.067686240186413477 0 -0.068031692762693108 -0.070143549245574699 0 -0.068429935800393901 -0.06908544736595712 0 -0.069533202488260726 -0.068656812932620145 0 -0.068429935800393901 -0.06908544736595712 0 -0.069533202488260726 -0.068656812932620145 0 -0.068789519519021819 -0.068073371397920135 0 -0.069533202488260726 -0.068656812932620145 0 -0.069777855295092325 -0.067686240186413477 0 -0.068789519519021819 -0.068073371397920135 0 -0.068009547071314055 -0.067349964460817896 0 -0.069388081116082911 -0.067344908701621561 0 -0.068789519519021819 -0.068073371397920135 0 -0.069388081116082911 -0.067344908701621561 0 -0.069777855295092325 -0.067686240186413477 0 -0.068789519519021819 -0.068073371397920135 0 -0.069388081116082911 -0.067344908701621561 0 -0.069777855295092325 -0.067686240186413477 0 -0.070631269413935313 -0.066974646593964862 0 -0.069388081116082911 -0.067344908701621561 0 -0.07122430462368981 -0.066815386437514515 0 -0.070631269413935313 -0.066974646593964862 0 -0.072296050451508054 -0.065875475742554576 0 -0.071068766981933762 -0.067532371430311988 0 -0.070631269413935313 -0.066974646593964862 0 -0.038265330854698 -0.082676698333070509 0 -0.039074931249835694 -0.085983556359050042 0 -0.036698785570950201 -0.084993080696242132 0 -0.038265330854698 -0.082676698333070509 0 -0.041192845700914214 -0.084702275191926121 0 -0.039074931249835694 -0.085983556359050042 0 -0.038265330854698 -0.082676698333070509 0 -0.036698785570950201 -0.084993080696242132 0 -0.036654776780366036 -0.082515773008817156 0 -0.038265330854698 -0.082676698333070509 0 -0.041192845700914214 -0.084702275191926121 0 -0.040751001830600916 -0.080691437482706477 0 -0.041192845700914214 -0.084702275191926121 0 -0.040751001830600916 -0.080691437482706477 0 -0.044243335776829033 -0.083006421921566195 0 -0.040751001830600916 -0.080691437482706477 0 -0.038094217960798989 -0.077703118939018101 0 -0.036860520924486974 -0.080624636411401399 0 -0.038265330854698 -0.082676698333070509 0 -0.040751001830600916 -0.080691437482706477 0 -0.036860520924486974 -0.080624636411401399 0 -0.038265330854698 -0.082676698333070509 0 -0.036860520924486974 -0.080624636411401399 0 -0.036654776780366036 -0.082515773008817156 0 -0.038094217960798989 -0.077703118939018101 0 -0.040417539267585949 -0.07500002164303067 0 -0.036021574559806931 -0.074999058140644712 0 -0.038094217960798989 -0.077703118939018101 0 -0.040417539267585949 -0.07500002164303067 0 -0.042171953084680906 -0.077473842017176248 0 -0.040751001830600916 -0.080691437482706477 0 -0.038094217960798989 -0.077703118939018101 0 -0.042171953084680906 -0.077473842017176248 0 -0.040751001830600916 -0.080691437482706477 0 -0.042171953084680906 -0.077473842017176248 0 -0.045073639670618004 -0.079349062369956508 0 -0.042171953084680906 -0.077473842017176248 0 -0.044811706129764484 -0.074999581180823158 0 -0.045073639670618004 -0.079349062369956508 0 -0.040417539267585949 -0.07500002164303067 0 -0.042171953084680906 -0.077473842017176248 0 -0.044811706129764484 -0.074999581180823158 0 -0.044811706129764484 -0.074999581180823158 0 -0.045073639670618004 -0.079349062369956508 0 -0.049141668032393823 -0.077996085649068056 0 -0.045073639670618004 -0.079349062369956508 0 -0.044243335776829033 -0.083006421921566195 0 -0.049452910458054951 -0.082437847493690472 0 -0.040751001830600916 -0.080691437482706477 0 -0.045073639670618004 -0.079349062369956508 0 -0.044243335776829033 -0.083006421921566195 0 -0.041192845700914214 -0.084702275191926121 0 -0.044243335776829033 -0.083006421921566195 0 -0.043803565669979373 -0.085586059309959231 0 -0.044243335776829033 -0.083006421921566195 0 -0.049452910458054951 -0.08243784749369047